Generated by trjconv : CNT in water t= 386.00000
33518
    1C        C    1   2.845   2.774   4.747
    1C        C    2   2.903   2.726   4.866
    1C        C    3   2.844   2.774   4.984
    1C        C    4   2.849   2.778   4.261
    1C        C    5   2.902   2.734   4.384
    1C        C    6   2.850   2.779   4.507
    1C        C    7   3.013   2.641   4.628
    1C        C    8   2.895   2.718   4.627
    1C        C    9   3.078   2.605   4.749
    1C        C   10   3.013   2.638   4.870
    1C        C   11   3.182   2.490   4.979
    1C        C   12   3.066   2.569   4.980
    1C        C   13   2.857   2.778   3.774
    1C        C   14   2.907   2.731   3.897
    1C        C   15   2.853   2.777   4.019
    1C        C   16   3.024   2.651   4.141
    1C        C   17   2.907   2.730   4.141
    1C        C   18   3.085   2.618   4.264
    1C        C   19   3.018   2.653   4.384
    1C        C   20   3.209   2.561   4.505
    1C        C   21   3.078   2.614   4.506
    1C        C   22   3.279   2.537   4.626
    1C        C   23   3.208   2.547   4.747
    1C        C   24   3.412   2.492   4.868
    1C        C   25   3.270   2.502   4.867
    1C        C   26   3.492   2.488   4.983
    1C        C   27   2.850   2.770   3.285
    1C        C   28   2.910   2.732   3.407
    1C        C   29   2.857   2.776   3.530
    1C        C   30   3.022   2.645   3.651
    1C        C   31   2.907   2.727   3.652
    1C        C   32   3.083   2.612   3.774
    1C        C   33   3.021   2.646   3.896
    1C        C   34   3.210   2.553   4.019
    1C        C   35   3.079   2.608   4.019
    1C        C   36   3.281   2.534   4.140
    1C        C   37   3.215   2.562   4.262
    1C        C   38   3.418   2.510   4.386
    1C        C   39   3.279   2.539   4.385
    1C        C   40   3.490   2.501   4.507
    1C        C   41   3.418   2.512   4.628
    1C        C   42   3.631   2.482   4.745
    1C        C   43   3.489   2.490   4.748
    1C        C   44   3.708   2.488   4.863
    1C        C   45   3.631   2.485   4.981
    1C        C   46   2.848   2.761   2.797
    1C        C   47   2.905   2.719   2.919
    1C        C   48   2.853   2.770   3.040
    1C        C   49   3.022   2.645   3.165
    1C        C   50   2.906   2.725   3.163
    1C        C   51   3.087   2.614   3.287
    1C        C   52   3.025   2.649   3.409
    1C        C   53   3.211   2.547   3.531
    1C        C   54   3.083   2.606   3.530
    1C        C   55   3.279   2.522   3.653
    1C        C   56   3.212   2.554   3.773
    1C        C   57   3.415   2.504   3.900
    1C        C   58   3.276   2.531   3.897
    1C        C   59   3.489   2.499   4.021
    1C        C   60   3.418   2.500   4.143
    1C        C   61   3.630   2.494   4.262
    1C        C   62   3.489   2.495   4.265
    1C        C   63   3.703   2.503   4.382
    1C        C   64   3.631   2.498   4.504
    1C        C   65   3.839   2.540   4.624
    1C        C   66   3.703   2.500   4.625
    1C        C   67   3.908   2.566   4.745
    1C        C   68   3.845   2.520   4.863
    1C        C   69   4.056   2.583   4.977
    1C        C   70   3.930   2.522   4.975
    1C        C   71   2.823   2.735   2.315
    1C        C   72   2.885   2.692   2.434
    1C        C   73   2.834   2.747   2.554
    1C        C   74   3.012   2.628   2.676
    1C        C   75   2.896   2.708   2.675
    1C        C   76   3.076   2.595   2.797
    1C        C   77   3.022   2.639   2.919
    1C        C   78   3.209   2.544   3.041
    1C        C   79   3.081   2.606   3.043
    1C        C   80   3.277   2.525   3.163
    1C        C   81   3.215   2.555   3.286
    1C        C   82   3.417   2.492   3.406
    1C        C   83   3.281   2.529   3.409
    1C        C   84   3.486   2.489   3.529
    1C        C   85   3.417   2.496   3.653
    1C        C   86   3.625   2.500   3.773
    1C        C   87   3.484   2.495   3.777
    1C        C   88   3.697   2.507   3.895
    1C        C   89   3.630   2.495   4.019
    1C        C   90   3.837   2.547   4.139
    1C        C   91   3.702   2.505   4.141
    1C        C   92   3.903   2.575   4.260
    1C        C   93   3.837   2.546   4.381
    1C        C   94   4.031   2.633   4.499
    1C        C   95   3.906   2.566   4.503
    1C        C   96   4.090   2.675   4.621
    1C        C   97   4.033   2.632   4.743
    1C        C   98   4.192   2.771   4.865
    1C        C   99   4.100   2.661   4.865
    1C        C  100   4.215   2.847   4.980
    1C        C  101   2.828   2.739   2.079
    1C        C  102   2.992   2.593   2.195
    1C        C  103   2.882   2.685   2.196
    1C        C  104   3.067   2.576   2.315
    1C        C  105   3.004   2.616   2.434
    1C        C  106   3.203   2.534   2.556
    1C        C  107   3.072   2.586   2.555
    1C        C  108   3.277   2.521   2.676
    1C        C  109   3.206   2.540   2.797
    1C        C  110   3.414   2.493   2.919
    1C        C  111   3.275   2.518   2.919
    1C        C  112   3.486   2.487   3.040
    1C        C  113   3.415   2.495   3.162
    1C        C  114   3.627   2.495   3.284
    1C        C  115   3.486   2.484   3.284
    1C        C  116   3.697   2.502   3.407
    1C        C  117   3.627   2.498   3.530
    1C        C  118   3.834   2.545   3.650
    1C        C  119   3.697   2.508   3.652
    1C        C  120   3.899   2.572   3.772
    1C        C  121   3.832   2.548   3.894
    1C        C  122   4.023   2.643   4.016
    1C        C  123   3.900   2.573   4.015
    1C        C  124   4.086   2.680   4.137
    1C        C  125   4.029   2.639   4.259
    1C        C  126   4.197   2.771   4.377
    1C        C  127   4.092   2.677   4.380
    1C        C  128   4.247   2.821   4.499
    1C        C  129   4.194   2.770   4.620
    1C        C  130   4.327   2.936   4.742
    1C        C  131   4.239   2.824   4.742
    1C        C  132   4.358   3.003   4.862
    1C        C  133   4.284   2.968   4.976
    1C        C  134   3.175   2.469   2.087
    1C        C  135   3.042   2.513   2.087
    1C        C  136   3.262   2.478   2.196
    1C        C  137   3.198   2.521   2.314
    1C        C  138   3.408   2.479   2.429
    1C        C  139   3.270   2.505   2.435
    1C        C  140   3.482   2.478   2.550
    1C        C  141   3.415   2.491   2.674
    1C        C  142   3.625   2.492   2.794
    1C        C  143   3.484   2.482   2.797
    1C        C  144   3.695   2.502   2.916
    1C        C  145   3.627   2.491   3.039
    1C        C  146   3.835   2.534   3.159
    1C        C  147   3.697   2.500   3.162
    1C        C  148   3.901   2.561   3.280
    1C        C  149   3.834   2.537   3.403
    1C        C  150   4.023   2.629   3.525
    1C        C  151   3.898   2.562   3.526
    1C        C  152   4.082   2.671   3.647
    1C        C  153   4.023   2.640   3.771
    1C        C  154   4.193   2.768   3.888
    1C        C  155   4.079   2.685   3.893
    1C        C  156   4.247   2.819   4.009
    1C        C  157   4.195   2.770   4.131
    1C        C  158   4.337   2.926   4.253
    1C        C  159   4.247   2.818   4.253
    1C        C  160   4.374   2.988   4.375
    1C        C  161   4.330   2.936   4.499
    1C        C  162   4.435   3.119   4.617
    1C        C  163   4.374   2.991   4.621
    1C        C  164   4.463   3.187   4.737
    1C        C  165   4.435   3.120   4.858
    1C        C  166   4.517   3.319   4.973
    1C        C  167   4.485   3.183   4.973
    1C        C  168   3.480   2.435   2.075
    1C        C  169   3.401   2.454   2.189
    1C        C  170   3.620   2.468   2.309
    1C        C  171   3.478   2.460   2.308
    1C        C  172   3.695   2.484   2.428
    1C        C  173   3.623   2.478   2.550
    1C        C  174   3.829   2.534   2.669
    1C        C  175   3.694   2.491   2.671
    1C        C  176   3.896   2.560   2.790
    1C        C  177   3.831   2.540   2.914
    1C        C  178   4.027   2.623   3.033
    1C        C  179   3.899   2.563   3.036
    1C        C  180   4.085   2.662   3.156
    1C        C  181   4.025   2.628   3.279
    1C        C  182   4.191   2.756   3.400
    1C        C  183   4.081   2.667   3.402
    1C        C  184   4.243   2.807   3.521
    1C        C  185   4.195   2.755   3.643
    1C        C  186   4.335   2.917   3.765
    1C        C  187   4.248   2.806   3.764
    1C        C  188   4.369   2.987   3.883
    1C        C  189   4.333   2.931   4.007
    1C        C  190   4.444   3.109   4.130
    1C        C  191   4.377   2.984   4.130
    1C        C  192   4.471   3.175   4.252
    1C        C  193   4.441   3.112   4.375
    1C        C  194   4.504   3.318   4.493
    1C        C  195   4.470   3.181   4.495
    1C        C  196   4.526   3.387   4.614
    1C        C  197   4.514   3.320   4.738
    1C        C  198   4.562   3.535   4.853
    1C        C  199   4.541   3.393   4.857
    1C        C  200   4.582   3.621   4.965
    1C        C  201   3.619   2.416   2.074
    1C        C  202   3.827   2.511   2.184
    1C        C  203   3.692   2.463   2.187
    1C        C  204   3.898   2.540   2.304
    1C        C  205   3.833   2.515   2.427
    1C        C  206   4.022   2.619   2.543
    1C        C  207   3.898   2.550   2.547
    1C        C  208   4.082   2.660   2.664
    1C        C  209   4.021   2.625   2.787
    1C        C  210   4.192   2.749   2.906
    1C        C  211   4.080   2.663   2.909
    1C        C  212   4.240   2.803   3.028
    1C        C  213   4.191   2.756   3.151
    1C        C  214   4.323   2.916   3.273
    1C        C  215   4.238   2.803   3.276
    1C        C  216   4.362   2.978   3.394
    1C        C  217   4.329   2.919   3.519
    1C        C  218   4.436   3.101   3.640
    1C        C  219   4.372   2.975   3.641
    1C        C  220   4.468   3.169   3.760
    1C        C  221   4.442   3.109   3.885
    1C        C  222   4.508   3.309   4.005
    1C        C  223   4.472   3.172   4.007
    1C        C  224   4.516   3.381   4.126
    1C        C  225   4.504   3.312   4.248
    1C        C  226   4.525   3.525   4.368
    1C        C  227   4.514   3.385   4.369
    1C        C  228   4.525   3.598   4.489
    1C        C  229   4.532   3.528   4.611
    1C        C  230   4.503   3.741   4.729
    1C        C  231   4.542   3.604   4.730
    1C        C  232   4.497   3.819   4.846
    1C        C  233   4.546   3.756   4.962
    1C        C  234   4.020   2.609   2.064
    1C        C  235   3.898   2.542   2.067
    1C        C  236   4.088   2.646   2.181
    1C        C  237   4.025   2.603   2.300
    1C        C  238   4.197   2.735   2.421
    1C        C  239   4.086   2.646   2.420
    1C        C  240   4.249   2.788   2.541
    1C        C  241   4.193   2.747   2.664
    1C        C  242   4.337   2.907   2.785
    1C        C  243   4.243   2.801   2.785
    1C        C  244   4.376   2.966   2.907
    1C        C  245   4.329   2.913   3.029
    1C        C  246   4.429   3.100   3.149
    1C        C  247   4.367   2.973   3.151
    1C        C  248   4.454   3.167   3.271
    1C        C  249   4.422   3.105   3.394
    1C        C  250   4.500   3.301   3.515
    1C        C  251   4.456   3.166   3.517
    1C        C  252   4.513   3.374   3.635
    1C        C  253   4.500   3.307   3.758
    1C        C  254   4.526   3.516   3.880
    1C        C  255   4.518   3.375   3.881
    1C        C  256   4.518   3.591   4.000
    1C        C  257   4.519   3.523   4.124
    1C        C  258   4.491   3.734   4.244
    1C        C  259   4.515   3.595   4.245
    1C        C  260   4.473   3.803   4.366
    1C        C  261   4.498   3.737   4.489
    1C        C  262   4.425   3.940   4.606
    1C        C  263   4.480   3.810   4.608
    1C        C  264   4.399   4.010   4.726
    1C        C  265   4.437   3.946   4.847
    1C        C  266   4.320   4.129   4.961
    1C        C  267   4.395   4.012   4.963
    1C        C  268   4.265   2.774   2.065
    1C        C  269   4.199   2.734   2.182
    1C        C  270   4.348   2.891   2.299
    1C        C  271   4.254   2.784   2.302
    1C        C  272   4.382   2.954   2.421
    1C        C  273   4.342   2.895   2.543
    1C        C  274   4.450   3.083   2.662
    1C        C  275   4.380   2.961   2.662
    1C        C  276   4.475   3.153   2.782
    1C        C  277   4.439   3.093   2.905
    1C        C  278   4.503   3.296   3.024
    1C        C  279   4.463   3.161   3.027
    1C        C  280   4.512   3.367   3.146
    1C        C  281   4.492   3.303   3.270
    1C        C  282   4.524   3.512   3.391
    1C        C  283   4.511   3.371   3.393
    1C        C  284   4.519   3.584   3.512
    1C        C  285   4.520   3.515   3.636
    1C        C  286   4.495   3.726   3.757
    1C        C  287   4.517   3.587   3.758
    1C        C  288   4.478   3.798   3.877
    1C        C  289   4.492   3.730   4.000
    1C        C  290   4.424   3.933   4.121
    1C        C  291   4.477   3.801   4.121
    1C        C  292   4.402   4.002   4.241
    1C        C  293   4.427   3.936   4.364
    1C        C  294   4.329   4.129   4.483
    1C        C  295   4.394   4.003   4.484
    1C        C  296   4.289   4.192   4.603
    1C        C  297   4.331   4.134   4.725
    1C        C  298   4.196   4.309   4.841
    1C        C  299   4.284   4.197   4.844
    1C        C  300   4.169   4.393   4.954
    1C        C  301   4.343   2.889   2.062
    1C        C  302   4.469   3.069   2.179
    1C        C  303   4.398   2.946   2.177
    1C        C  304   4.478   3.145   2.300
    1C        C  305   4.443   3.082   2.421
    1C        C  306   4.509   3.287   2.537
    1C        C  307   4.476   3.150   2.540
    1C        C  308   4.520   3.360   2.658
    1C        C  309   4.506   3.290   2.781
    1C        C  310   4.527   3.504   2.901
    1C        C  311   4.521   3.363   2.901
    1C        C  312   4.519   3.576   3.023
    1C        C  313   4.520   3.508   3.147
    1C        C  314   4.488   3.719   3.268
    1C        C  315   4.518   3.581   3.268
    1C        C  316   4.471   3.790   3.389
    1C        C  317   4.494   3.723   3.512
    1C        C  318   4.427   3.925   3.633
    1C        C  319   4.476   3.792   3.633
    1C        C  320   4.399   3.992   3.754
    1C        C  321   4.427   3.930   3.878
    1C        C  322   4.318   4.115   3.996
    1C        C  323   4.393   3.995   3.998
    1C        C  324   4.280   4.176   4.118
    1C        C  325   4.330   4.124   4.240
    1C        C  326   4.193   4.290   4.359
    1C        C  327   4.290   4.187   4.360
    1C        C  328   4.138   4.343   4.478
    1C        C  329   4.192   4.295   4.599
    1C        C  330   4.023   4.433   4.717
    1C        C  331   4.138   4.350   4.717
    1C        C  332   3.972   4.488   4.836
    1C        C  333   4.056   4.475   4.948
    1C        C  334   4.552   3.270   2.067
    1C        C  335   4.529   3.131   2.065
    1C        C  336   4.539   3.354   2.178
    1C        C  337   4.514   3.282   2.297
    1C        C  338   4.527   3.499   2.416
    1C        C  339   4.522   3.358   2.416
    1C        C  340   4.525   3.574   2.537
    1C        C  341   4.519   3.501   2.658
    1C        C  342   4.502   3.714   2.778
    1C        C  343   4.521   3.574   2.779
    1C        C  344   4.484   3.785   2.898
    1C        C  345   4.496   3.716   3.021
    1C        C  346   4.432   3.918   3.140
    1C        C  347   4.478   3.784   3.143
    1C        C  348   4.398   3.983   3.261
    1C        C  349   4.425   3.923   3.386
    1C        C  350   4.320   4.104   3.507
    1C        C  351   4.397   3.986   3.509
    1C        C  352   4.273   4.163   3.626
    1C        C  353   4.321   4.110   3.748
    1C        C  354   4.185   4.272   3.870
    1C        C  355   4.279   4.167   3.871
    1C        C  356   4.129   4.322   3.990
    1C        C  357   4.180   4.275   4.113
    1C        C  358   4.013   4.402   4.233
    1C        C  359   4.132   4.325   4.236
    1C        C  360   3.954   4.449   4.352
    1C        C  361   4.020   4.420   4.474
    1C        C  362   3.829   4.519   4.597
    1C        C  363   3.956   4.457   4.595
    1C        C  364   3.766   4.553   4.719
    1C        C  365   3.842   4.543   4.838
    1C        C  366   3.634   4.597   4.954
    1C        C  367   3.772   4.577   4.954
    1C        C  368   4.506   3.567   2.057
    1C        C  369   4.527   3.494   2.175
    1C        C  370   4.510   3.710   2.291
    1C        C  371   4.527   3.570   2.294
    1C        C  372   4.494   3.784   2.410
    1C        C  373   4.507   3.714   2.532
    1C        C  374   4.429   3.911   2.652
    1C        C  375   4.484   3.781   2.655
    1C        C  376   4.394   3.974   2.774
    1C        C  377   4.434   3.917   2.897
    1C        C  378   4.321   4.098   3.016
    1C        C  379   4.403   3.983   3.018
    1C        C  380   4.275   4.155   3.137
    1C        C  381   4.316   4.098   3.260
    1C        C  382   4.181   4.261   3.382
    1C        C  383   4.274   4.155   3.383
    1C        C  384   4.127   4.312   3.502
    1C        C  385   4.177   4.267   3.626
    1C        C  386   4.007   4.390   3.747
    1C        C  387   4.127   4.316   3.748
    1C        C  388   3.945   4.427   3.868
    1C        C  389   4.009   4.396   3.990
    1C        C  390   3.823   4.498   4.112
    1C        C  391   3.950   4.437   4.112
    1C        C  392   3.756   4.526   4.233
    1C        C  393   3.827   4.510   4.354
    1C        C  394   3.619   4.556   4.476
    1C        C  395   3.759   4.536   4.475
    1C        C  396   3.551   4.569   4.599
    1C        C  397   3.626   4.572   4.718
    1C        C  398   3.417   4.557   4.842
    1C        C  399   3.556   4.583   4.839
    1C        C  400   3.348   4.519   4.958
    1C        C  401   4.508   3.706   2.056
    1C        C  402   4.455   3.918   2.165
    1C        C  403   4.498   3.784   2.171
    1C        C  404   4.418   3.982   2.286
    1C        C  405   4.447   3.917   2.408
    1C        C  406   4.327   4.093   2.528
    1C        C  407   4.406   3.977   2.530
    1C        C  408   4.275   4.146   2.648
    1C        C  409   4.315   4.090   2.772
    1C        C  410   4.172   4.247   2.893
    1C        C  411   4.275   4.150   2.893
    1C        C  412   4.123   4.297   3.015
    1C        C  413   4.178   4.258   3.139
    1C        C  414   4.002   4.378   3.259
    1C        C  415   4.123   4.305   3.260
    1C        C  416   3.943   4.417   3.382
    1C        C  417   4.006   4.384   3.504
    1C        C  418   3.815   4.480   3.623
    1C        C  419   3.944   4.422   3.625
    1C        C  420   3.747   4.504   3.745
    1C        C  421   3.815   4.483   3.867
    1C        C  422   3.613   4.536   3.989
    1C        C  423   3.752   4.512   3.990
    1C        C  424   3.544   4.543   4.112
    1C        C  425   3.616   4.546   4.233
    1C        C  426   3.405   4.551   4.360
    1C        C  427   3.546   4.553   4.355
    1C        C  428   3.334   4.553   4.482
    1C        C  429   3.410   4.561   4.602
    1C        C  430   3.201   4.516   4.723
    1C        C  431   3.341   4.544   4.724
    1C        C  432   3.132   4.494   4.845
    1C        C  433   3.211   4.495   4.962
    1C        C  434   4.393   4.129   2.058
    1C        C  435   4.455   4.004   2.054
    1C        C  436   4.306   4.167   2.165
    1C        C  437   4.340   4.100   2.286
    1C        C  438   4.184   4.250   2.407
    1C        C  439   4.284   4.150   2.406
    1C        C  440   4.124   4.297   2.526
    1C        C  441   4.177   4.248   2.648
    1C        C  442   4.004   4.372   2.769
    1C        C  443   4.121   4.293   2.769
    1C        C  444   3.944   4.410   2.891
    1C        C  445   4.004   4.374   3.014
    1C        C  446   3.811   4.464   3.135
    1C        C  447   3.941   4.408   3.136
    1C        C  448   3.748   4.496   3.257
    1C        C  449   3.815   4.476   3.380
    1C        C  450   3.610   4.536   3.500
    1C        C  451   3.748   4.506   3.501
    1C        C  452   3.540   4.547   3.623
    1C        C  453   3.611   4.542   3.744
    1C        C  454   3.401   4.549   3.868
    1C        C  455   3.542   4.549   3.867
    1C        C  456   3.332   4.542   3.991
    1C        C  457   3.403   4.546   4.113
    1C        C  458   3.198   4.505   4.238
    1C        C  459   3.335   4.541   4.237
    1C        C  460   3.133   4.485   4.361
    1C        C  461   3.198   4.516   4.483
    1C        C  462   2.999   4.439   4.605
    1C        C  463   3.128   4.496   4.604
    1C        C  464   2.935   4.404   4.726
    1C        C  465   2.997   4.447   4.847
    1C        C  466   2.802   4.342   4.960
    1C        C  467   2.910   4.431   4.959
    1C        C  468   4.123   4.288   2.045
    1C        C  469   4.190   4.250   2.162
    1C        C  470   4.008   4.367   2.284
    1C        C  471   4.128   4.291   2.284
    1C        C  472   3.940   4.400   2.403
    1C        C  473   4.005   4.373   2.526
    1C        C  474   3.817   4.474   2.649
    1C        C  475   3.945   4.413   2.648
    1C        C  476   3.747   4.496   2.769
    1C        C  477   3.815   4.468   2.890
    1C        C  478   3.609   4.521   3.014
    1C        C  479   3.747   4.488   3.011
    1C        C  480   3.537   4.531   3.136
    1C        C  481   3.610   4.524   3.257
    1C        C  482   3.398   4.544   3.378
    1C        C  483   3.540   4.543   3.378
    1C        C  484   3.328   4.539   3.500
    1C        C  485   3.399   4.549   3.622
    1C        C  486   3.194   4.506   3.748
    1C        C  487   3.331   4.543   3.746
    1C        C  488   3.127   4.482   3.871
    1C        C  489   3.195   4.505   3.993
    1C        C  490   3.006   4.416   4.118
    1C        C  491   3.130   4.484   4.116
    1C        C  492   2.947   4.379   4.241
    1C        C  493   3.004   4.428   4.361
    1C        C  494   2.831   4.308   4.484
    1C        C  495   2.939   4.399   4.483
    1C        C  496   2.779   4.260   4.606
    1C        C  497   2.820   4.321   4.726
    1C        C  498   2.670   4.166   4.841
    1C        C  499   2.755   4.279   4.844
    1C        C  500   2.602   4.119   4.954
    1C        C  501   4.003   4.357   2.045
    1C        C  502   3.816   4.463   2.163
    1C        C  503   3.941   4.399   2.164
    1C        C  504   3.746   4.488   2.283
    1C        C  505   3.815   4.464   2.405
    1C        C  506   3.609   4.516   2.525
    1C        C  507   3.748   4.488   2.527
    1C        C  508   3.538   4.523   2.646
    1C        C  509   3.608   4.519   2.769
    1C        C  510   3.398   4.529   2.888
    1C        C  511   3.539   4.529   2.892
    1C        C  512   3.325   4.529   3.010
    1C        C  513   3.396   4.540   3.131
    1C        C  514   3.194   4.493   3.257
    1C        C  515   3.329   4.534   3.255
    1C        C  516   3.128   4.471   3.380
    1C        C  517   3.192   4.500   3.503
    1C        C  518   3.003   4.411   3.627
    1C        C  519   3.128   4.478   3.627
    1C        C  520   2.943   4.375   3.750
    1C        C  521   3.004   4.414   3.871
    1C        C  522   2.841   4.284   4.000
    1C        C  523   2.949   4.376   3.995
    1C        C  524   2.787   4.237   4.121
    1C        C  525   2.837   4.291   4.242
    1C        C  526   2.695   4.138   4.366
    1C        C  527   2.781   4.249   4.365
    1C        C  528   2.663   4.075   4.489
    1C        C  529   2.697   4.145   4.606
    1C        C  530   2.582   3.962   4.732
    1C        C  531   2.643   4.091   4.725
    1C        C  532   2.547   3.903   4.856
    1C        C  533   2.532   3.998   4.963
    1C        C  534   3.620   4.562   2.045
    1C        C  535   3.750   4.510   2.048
    1C        C  536   3.537   4.544   2.160
    1C        C  537   3.607   4.514   2.281
    1C        C  538   3.396   4.524   2.403
    1C        C  539   3.538   4.525   2.403
    1C        C  540   3.324   4.518   2.524
    1C        C  541   3.396   4.526   2.646
    1C        C  542   3.189   4.483   2.768
    1C        C  543   3.325   4.519   2.768
    1C        C  544   3.122   4.465   2.892
    1C        C  545   3.189   4.491   3.013
    1C        C  546   2.997   4.408   3.138
    1C        C  547   3.124   4.470   3.136
    1C        C  548   2.942   4.366   3.261
    1C        C  549   3.002   4.407   3.383
    1C        C  550   2.833   4.282   3.507
    1C        C  551   2.943   4.371   3.506
    1C        C  552   2.787   4.230   3.630
    1C        C  553   2.836   4.283   3.752
    1C        C  554   2.703   4.126   3.876
    1C        C  555   2.789   4.238   3.877
    1C        C  556   2.667   4.064   3.998
    1C        C  557   2.702   4.124   4.120
    1C        C  558   2.601   3.945   4.249
    1C        C  559   2.662   4.072   4.245
    1C        C  560   2.573   3.880   4.371
    1C        C  561   2.593   3.952   4.491
    1C        C  562   2.533   3.750   4.620
    1C        C  563   2.567   3.887   4.613
    1C        C  564   2.512   3.681   4.742
    1C        C  565   2.524   3.762   4.859
    1C        C  566   2.526   3.548   4.979
    1C        C  567   2.535   3.687   4.977
    1C        C  568   3.332   4.479   2.047
    1C        C  569   3.397   4.522   2.163
    1C        C  570   3.184   4.480   2.283
    1C        C  571   3.321   4.517   2.284
    1C        C  572   3.118   4.461   2.406
    1C        C  573   3.185   4.492   2.526
    1C        C  574   2.989   4.410   2.649
    1C        C  575   3.118   4.467   2.647
    1C        C  576   2.931   4.367   2.771
    1C        C  577   2.996   4.400   2.892
    1C        C  578   2.831   4.275   3.019
    1C        C  579   2.936   4.369   3.016
    1C        C  580   2.782   4.224   3.141
    1C        C  581   2.834   4.275   3.262
    1C        C  582   2.699   4.116   3.385
    1C        C  583   2.786   4.228   3.385
    1C        C  584   2.664   4.058   3.509
    1C        C  585   2.703   4.117   3.631
    1C        C  586   2.605   3.934   3.758
    1C        C  587   2.664   4.062   3.755
    1C        C  588   2.577   3.872   3.881
    1C        C  589   2.601   3.939   4.003
    1C        C  590   2.532   3.743   4.129
    1C        C  591   2.575   3.877   4.128
    1C        C  592   2.518   3.675   4.252
    1C        C  593   2.533   3.744   4.374
    1C        C  594   2.513   3.538   4.505
    1C        C  595   2.525   3.679   4.499
    1C        C  596   2.513   3.465   4.625
    1C        C  597   2.505   3.539   4.745
    1C        C  598   2.523   3.326   4.866
    1C        C  599   2.509   3.466   4.866
    1C        C  600   2.519   3.245   4.980
    1C        C  601   3.197   4.448   2.046
    1C        C  602   2.984   4.397   2.160
    1C        C  603   3.118   4.447   2.161
    1C        C  604   2.926   4.364   2.286
    1C        C  605   2.989   4.402   2.406
    1C        C  606   2.827   4.268   2.530
    1C        C  607   2.931   4.364   2.529
    1C        C  608   2.776   4.220   2.653
    1C        C  609   2.824   4.276   2.774
    1C        C  610   2.690   4.115   2.897
    1C        C  611   2.777   4.227   2.898
    1C        C  612   2.652   4.056   3.019
    1C        C  613   2.689   4.117   3.142
    1C        C  614   2.595   3.929   3.268
    1C        C  615   2.654   4.057   3.265
    1C        C  616   2.569   3.868   3.393
    1C        C  617   2.602   3.931   3.515
    1C        C  618   2.533   3.732   3.640
    1C        C  619   2.572   3.868   3.638
    1C        C  620   2.527   3.663   3.764
    1C        C  621   2.541   3.735   3.885
    1C        C  622   2.504   3.530   4.012
    1C        C  623   2.521   3.670   4.008
    1C        C  624   2.509   3.461   4.136
    1C        C  625   2.514   3.533   4.257
    1C        C  626   2.540   3.329   4.382
    1C        C  627   2.515   3.468   4.382
    1C        C  628   2.559   3.258   4.502
    1C        C  629   2.535   3.325   4.624
    1C        C  630   2.596   3.123   4.748
    1C        C  631   2.543   3.255   4.746
    1C        C  632   2.618   3.052   4.869
    1C        C  633   2.560   3.111   4.986
    1C        C  634   2.788   4.304   2.057
    1C        C  635   2.897   4.391   2.047
    1C        C  636   2.757   4.225   2.169
    1C        C  637   2.815   4.275   2.287
    1C        C  638   2.691   4.103   2.411
    1C        C  639   2.774   4.218   2.409
    1C        C  640   2.650   4.045   2.533
    1C        C  641   2.692   4.106   2.653
    1C        C  642   2.589   3.925   2.777
    1C        C  643   2.652   4.051   2.777
    1C        C  644   2.564   3.863   2.901
    1C        C  645   2.588   3.930   3.023
    1C        C  646   2.529   3.728   3.150
    1C        C  647   2.566   3.864   3.146
    1C        C  648   2.520   3.660   3.274
    1C        C  649   2.534   3.731   3.395
    1C        C  650   2.507   3.523   3.521
    1C        C  651   2.516   3.664   3.518
    1C        C  652   2.517   3.454   3.644
    1C        C  653   2.515   3.523   3.767
    1C        C  654   2.536   3.318   3.892
    1C        C  655   2.508   3.456   3.892
    1C        C  656   2.556   3.252   4.015
    1C        C  657   2.538   3.323   4.136
    1C        C  658   2.609   3.127   4.261
    1C        C  659   2.556   3.258   4.261
    1C        C  660   2.639   3.062   4.383
    1C        C  661   2.605   3.124   4.505
    1C        C  662   2.709   2.941   4.628
    1C        C  663   2.628   3.057   4.627
    1C        C  664   2.753   2.882   4.749
    1C        C  665   2.696   2.932   4.869
    1C        C  666   2.744   2.870   4.985
    1C        C  667   2.686   4.020   2.053
    1C        C  668   2.693   4.099   2.168
    1C        C  669   2.592   3.912   2.290
    1C        C  670   2.653   4.040   2.290
    1C        C  671   2.558   3.851   2.412
    1C        C  672   2.587   3.919   2.533
    1C        C  673   2.520   3.721   2.662
    1C        C  674   2.563   3.855   2.657
    1C        C  675   2.509   3.654   2.786
    1C        C  676   2.525   3.727   2.906
    1C        C  677   2.511   3.516   3.033
    1C        C  678   2.518   3.657   3.029
    1C        C  679   2.509   3.446   3.156
    1C        C  680   2.505   3.519   3.277
    1C        C  681   2.535   3.313   3.403
    1C        C  682   2.504   3.450   3.400
    1C        C  683   2.557   3.246   3.526
    1C        C  684   2.536   3.314   3.648
    1C        C  685   2.607   3.116   3.773
    1C        C  686   2.553   3.247   3.771
    1C        C  687   2.635   3.054   3.896
    1C        C  688   2.603   3.118   4.018
    1C        C  689   2.713   2.939   4.140
    1C        C  690   2.641   3.060   4.141
    1C        C  691   2.754   2.883   4.263
    1C        C  692   2.715   2.943   4.385
    1C        C  693   2.758   2.886   4.507
    1C        C  694   2.637   3.888   2.055
    1C        C  695   2.529   3.703   2.176
    1C        C  696   2.583   3.834   2.172
    1C        C  697   2.509   3.639   2.300
    1C        C  698   2.524   3.714   2.419
    1C        C  699   2.496   3.506   2.544
    1C        C  700   2.508   3.647   2.542
    1C        C  701   2.499   3.439   2.668
    1C        C  702   2.499   3.513   2.788
    1C        C  703   2.534   3.305   2.913
    1C        C  704   2.510   3.444   2.911
    1C        C  705   2.551   3.238   3.036
    1C        C  706   2.532   3.307   3.158
    1C        C  707   2.598   3.108   3.283
    1C        C  708   2.556   3.243   3.282
    1C        C  709   2.632   3.047   3.406
    1C        C  710   2.605   3.112   3.528
    1C        C  711   2.714   2.934   3.653
    1C        C  712   2.633   3.050   3.651
    1C        C  713   2.763   2.884   3.776
    1C        C  714   2.715   2.938   3.897
    1C        C  715   2.758   2.881   4.019
    1C        C  716   2.455   3.497   2.061
    1C        C  717   2.493   3.632   2.060
    1C        C  718   2.470   3.423   2.182
    1C        C  719   2.488   3.499   2.301
    1C        C  720   2.516   3.291   2.428
    1C        C  721   2.495   3.430   2.425
    1C        C  722   2.538   3.224   2.550
    1C        C  723   2.527   3.300   2.669
    1C        C  724   2.594   3.102   2.795
    1C        C  725   2.542   3.233   2.792
    1C        C  726   2.626   3.038   2.917
    1C        C  727   2.601   3.106   3.039
    1C        C  728   2.711   2.927   3.160
    1C        C  729   2.630   3.043   3.162
    1C        C  730   2.757   2.877   3.284
    1C        C  731   2.714   2.931   3.407
    1C        C  732   2.761   2.880   3.530
    1C        C  733   2.486   3.199   2.073
    1C        C  734   2.489   3.281   2.186
    1C        C  735   2.584   3.088   2.308
    1C        C  736   2.523   3.216   2.308
    1C        C  737   2.618   3.024   2.429
    1C        C  738   2.592   3.094   2.549
    1C        C  739   2.698   2.915   2.675
    1C        C  740   2.624   3.036   2.674
    1C        C  741   2.748   2.861   2.795
    1C        C  742   2.704   2.920   2.916
    1C        C  743   2.755   2.871   3.038
    1C        C  744   2.543   3.072   2.074
    1C        C  745   2.681   2.899   2.191
    1C        C  746   2.605   3.017   2.187
    1C        C  747   2.732   2.844   2.311
    1C        C  748   2.694   2.905   2.433
    1C        C  749   2.739   2.852   2.556
    1C        C  750   2.736   2.844   2.074
    1C        C  751   3.672   2.332   1.964
    1C        O  752   3.739   2.227   1.979
    1C        O  753   3.686   2.393   1.838
    1C        C  754   4.579   3.064   1.943
    1C        O  755   4.530   3.076   1.827
    1C        O  756   4.686   2.974   1.956
    1C        C  757   4.438   4.220   1.950
    1C        O  758   4.493   4.330   1.981
    1C        O  759   4.435   4.188   1.814
    1C        C  760   3.598   4.672   1.949
    1C        O  761   3.572   4.791   1.983
    1C        O  762   3.563   4.635   1.818
    1C        C  763   2.871   4.515   1.970
    1C        O  764   2.919   4.525   1.854
    1C        O  765   2.813   4.636   2.009
    1C        C  766   2.352   3.465   1.960
    1C        O  767   2.375   3.420   1.845
    1C        O  768   2.215   3.459   1.991
    1C        C  769   4.629   3.580   5.100
    1C        O  770   4.558   3.591   5.203
    1C        O  771   4.751   3.513   5.117
    1C        C  772   4.284   4.447   5.029
    1C        O  773   4.286   4.487   5.149
    1C        O  774   4.387   4.525   4.974
    1C        C  775   4.147   2.530   5.080
    1C        O  776   4.236   2.440   5.077
    1C        O  777   4.113   2.555   5.214
    1C        C  778   2.898   4.543   5.055
    1C        O  779   2.842   4.653   5.031
    1C        O  780   2.955   4.547   5.183
    1C        C  781   2.476   3.029   5.077
    1C        O  782   2.377   2.965   5.033
    1C        O  783   2.479   3.056   5.213
    1C        C  784   2.410   4.014   5.045
    1C        O  785   2.297   4.044   4.999
    1C        O  786   2.422   4.050   5.180
    1C        C  787   2.959   2.449   1.983
    1C        O  788   2.952   2.491   1.864
    1C        O  789   2.889   2.331   2.005
    1C        C  790   3.173   2.365   5.058
    1C        O  791   3.082   2.281   5.031
    1C        O  792   3.265   2.309   5.147
    1C        H  793   4.244   3.051   5.030
    1C        H  794   4.153   2.830   5.066
    1C        H  795   4.496   3.121   5.060
    1C        H  796   4.562   3.348   5.065
    1C        H  797   4.575   3.814   5.047
    1C        H  798   4.421   3.978   5.061
    1C        H  799   4.287   4.165   5.057
    1C        H  800   4.046   4.546   5.028
    1C        H  801   3.832   4.629   5.025
    1C        H  802   3.590   4.609   5.051
    1C        H  803   3.398   4.492   5.048
    1C        H  804   3.175   4.448   5.051
    1C        H  805   3.886   2.505   5.071
    1C        H  806   3.677   2.447   5.070
    1C        H  807   3.013   2.564   5.072
    1C        H  808   3.446   2.496   5.079
    1C        H  809   2.875   2.741   5.082
    1C        H  810   2.684   2.870   5.074
    1C        H  811   2.472   3.287   5.067
    1C        H  812   2.508   3.508   5.076
    1C        H  813   2.592   3.732   5.055
    1C        H  814   2.567   4.201   5.012
    1C        H  815   2.773   4.308   5.057
    1C        H  816   2.696   2.870   1.978
    1C        H  817   2.821   2.673   1.995
    1C        H  818   3.198   2.392   2.016
    1C        H  819   3.440   2.458   1.978
    1C        H  820   3.855   2.531   1.970
    1C        H  821   4.041   2.661   1.973
    1C        H  822   4.292   2.697   1.996
    1C        H  823   4.333   2.954   1.977
    1C        H  824   4.612   3.306   1.985
    1C        H  825   4.430   3.524   1.994
    1C        H  826   4.532   3.749   1.961
    1C        H  827   3.804   4.521   1.956
    1C        H  828   3.957   4.370   1.949
    1C        H  829   4.147   4.232   1.957
    1C        H  830   4.513   3.976   1.968
    1C        H  831   2.677   3.822   1.981
    1C        H  832   2.739   4.046   1.964
    1C        H  833   2.725   4.293   1.971
    1C        H  834   3.388   4.463   1.958
    1C        H  835   3.158   4.394   1.962
    1C        H  836   2.497   3.006   2.003
    1C        H  837   2.402   3.211   2.008
    1C        H  838   2.461   3.690   1.977
    2V3OU   H29  839   2.812   3.551   4.688
    2V3OU   C27  840   2.795   3.505   4.788
    2V3OU   H27  841   2.738   3.572   4.856
    2V3OU   H28  842   2.742   3.406   4.777
    2V3OU   O11  843   2.913   3.477   4.865
    2V3OU   C15  844   2.923   3.394   4.975
    2V3OU   C13  845   3.054   3.379   5.025
    2V3OU   C14  846   3.080   3.267   5.105
    2V3OU   C16  847   2.977   3.186   5.153
    2V3OU    H6  848   2.996   3.106   5.227
    2V3OU   C12  849   3.219   3.236   5.143
    2V3OU    O2  850   3.241   3.133   5.210
    2V3OU   C10  851   3.328   3.314   5.083
    2V3OU    C8  852   3.461   3.276   5.096
    2V3OU   O10  853   3.493   3.150   5.138
    2V3OU   H26  854   3.411   3.112   5.174
    2V3OU    C6  855   3.571   3.351   5.044
    2V3OU    C5  856   3.540   3.470   4.979
    2V3OU    C4  857   3.709   3.296   5.041
    2V3OU    H4  858   3.725   3.230   5.131
    2V3OU    H5  859   3.713   3.228   4.951
    2V3OU    C2  860   3.822   3.400   5.043
    2V3OU    O6  861   3.815   3.481   5.161
    2V3OU   H21  862   3.759   3.558   5.140
    2V3OU    C3  863   3.785   3.501   4.934
    2V3OU    H2  864   3.867   3.578   4.924
    2V3OU    H3  865   3.779   3.444   4.838
    2V3OU   C25  866   3.955   3.331   5.013
    2V3OU    O7  867   4.003   3.299   4.904
    2V3OU   C26  868   4.033   3.297   5.139
    2V3OU   H22  869   4.068   3.385   5.200
    2V3OU   H23  870   4.123   3.236   5.114
    2V3OU    O8  871   3.963   3.214   5.228
    2V3OU   H24  872   3.934   3.265   5.306
    2V3OU    C1  873   3.650   3.569   4.953
    2V3OU    H1  874   3.624   3.625   4.859
    2V3OU    O3  875   3.663   3.660   5.063
    2V3OU   C19  876   3.622   3.796   5.049
    2V3OU    H9  877   3.526   3.803   4.990
    2V3OU    O4  878   3.715   3.852   4.959
    2V3OU   C20  879   3.844   3.879   5.015
    2V3OU   H10  880   3.890   3.778   5.037
    2V3OU   C24  881   3.611   3.858   5.188
    2V3OU   H16  882   3.550   3.792   5.255
    2V3OU   H17  883   3.561   3.958   5.184
    2V3OU   C23  884   3.752   3.877   5.243
    2V3OU   H15  885   3.795   3.774   5.266
    2V3OU    N1  886   3.736   3.956   5.364
    2V3OU   H19  887   3.806   3.927   5.430
    2V3OU   H20  888   3.651   3.939   5.414
    2V3OU   C21  889   3.852   3.952   5.149
    2V3OU   H11  890   3.952   3.926   5.195
    2V3OU    O5  891   3.830   4.092   5.157
    2V3OU   H18  892   3.792   4.105   5.246
    2V3OU   C22  893   3.915   3.947   4.899
    2V3OU   H12  894   3.863   4.043   4.876
    2V3OU   H13  895   3.904   3.887   4.806
    2V3OU   H14  896   4.023   3.964   4.925
    2V3OU   C11  897   3.159   3.476   4.993
    2V3OU    O1  898   3.136   3.590   4.947
    2V3OU    C9  899   3.299   3.429   5.004
    2V3OU    C7  900   3.404   3.506   4.955
    2V3OU    O9  901   3.386   3.621   4.881
    2V3OU   H25  902   3.290   3.631   4.873
    2V3OU   C17  903   2.822   3.309   5.024
    2V3OU    H7  904   2.725   3.352   5.050
    2V3OU   C18  905   2.845   3.206   5.114
    2V3OU    H8  906   2.761   3.150   5.158
    3SOL     OW  907   3.090   4.336   5.335
    3SOL    HW1  908   3.047   4.416   5.292
    3SOL    HW2  909   3.171   4.365   5.386
    4SOL     OW  910   6.887   0.218   6.873
    4SOL    HW1  911   6.847   0.127   6.882
    4SOL    HW2  912   6.937   0.242   6.956
    5SOL     OW  913   4.114   0.928   1.510
    5SOL    HW1  914   4.170   0.892   1.584
    5SOL    HW2  915   4.172   0.971   1.441
    6SOL     OW  916   5.741   1.302   3.445
    6SOL    HW1  917   5.663   1.257   3.487
    6SOL    HW2  918   5.710   1.357   3.368
    7SOL     OW  919   1.251   4.219   5.345
    7SOL    HW1  920   1.201   4.201   5.261
    7SOL    HW2  921   1.341   4.176   5.341
    8SOL     OW  922   2.075   2.730   6.064
    8SOL    HW1  923   2.133   2.669   6.118
    8SOL    HW2  924   2.122   2.753   5.979
    9SOL     OW  925   6.813   1.725   6.454
    9SOL    HW1  926   6.894   1.784   6.452
    9SOL    HW2  927   6.740   1.771   6.506
   10SOL     OW  928   4.665   4.709   2.661
   10SOL    HW1  929   4.756   4.735   2.629
   10SOL    HW2  930   4.596   4.750   2.602
   11SOL     OW  931   2.144   0.881   6.757
   11SOL    HW1  932   2.146   0.967   6.707
   11SOL    HW2  933   2.049   0.856   6.778
   12SOL     OW  934   2.410   4.579   3.370
   12SOL    HW1  935   2.396   4.502   3.432
   12SOL    HW2  936   2.382   4.553   3.277
   13SOL     OW  937   4.373   6.178   3.022
   13SOL    HW1  938   4.349   6.218   2.934
   13SOL    HW2  939   4.466   6.142   3.019
   14SOL     OW  940   4.984   4.819   5.471
   14SOL    HW1  941   5.035   4.870   5.540
   14SOL    HW2  942   4.936   4.743   5.515
   15SOL     OW  943   0.985   5.903   6.057
   15SOL    HW1  944   1.024   5.971   6.118
   15SOL    HW2  945   0.889   5.887   6.081
   16SOL     OW  946   6.229   2.790   6.232
   16SOL    HW1  947   6.169   2.711   6.226
   16SOL    HW2  948   6.308   2.767   6.289
   17SOL     OW  949   6.204   0.650   5.729
   17SOL    HW1  950   6.180   0.744   5.756
   17SOL    HW2  951   6.193   0.640   5.630
   18SOL     OW  952   3.035   0.839   5.161
   18SOL    HW1  953   3.111   0.811   5.102
   18SOL    HW2  954   2.979   0.907   5.114
   19SOL     OW  955   1.193   1.817   3.221
   19SOL    HW1  956   1.117   1.880   3.204
   19SOL    HW2  957   1.274   1.869   3.248
   20SOL     OW  958   5.781   2.638   5.849
   20SOL    HW1  959   5.689   2.674   5.863
   20SOL    HW2  960   5.846   2.688   5.906
   21SOL     OW  961   3.653   6.215   2.771
   21SOL    HW1  962   3.673   6.175   2.681
   21SOL    HW2  963   3.554   6.217   2.785
   22SOL     OW  964   1.964   6.394   4.799
   22SOL    HW1  965   1.915   6.310   4.823
   22SOL    HW2  966   1.929   6.470   4.853
   23SOL     OW  967   5.166   4.546   2.005
   23SOL    HW1  968   5.206   4.472   2.057
   23SOL    HW2  969   5.074   4.520   1.975
   24SOL     OW  970   3.691   0.242   1.783
   24SOL    HW1  971   3.734   0.198   1.704
   24SOL    HW2  972   3.763   0.279   1.843
   25SOL     OW  973   2.647   0.027   3.330
   25SOL    HW1  974   2.704   0.082   3.269
   25SOL    HW2  975   2.672   0.046   3.425
   26SOL     OW  976   1.875   1.940   6.656
   26SOL    HW1  977   1.962   1.922   6.702
   26SOL    HW2  978   1.801   1.898   6.709
   27SOL     OW  979   7.014   0.875   2.296
   27SOL    HW1  980   0.007   0.968   2.325
   27SOL    HW2  981   6.987   0.875   2.200
   28SOL     OW  982   1.739   0.540   4.928
   28SOL    HW1  983   1.699   0.550   5.019
   28SOL    HW2  984   1.792   0.622   4.906
   29SOL     OW  985   6.742   0.858   6.872
   29SOL    HW1  986   6.717   0.762   6.881
   29SOL    HW2  987   6.771   0.894   6.960
   30SOL     OW  988   3.662   0.346   5.059
   30SOL    HW1  989   3.579   0.356   5.114
   30SOL    HW2  990   3.728   0.417   5.084
   31SOL     OW  991   0.192   2.857   4.839
   31SOL    HW1  992   0.154   2.896   4.755
   31SOL    HW2  993   0.218   2.762   4.822
   32SOL     OW  994   1.456   1.138   0.758
   32SOL    HW1  995   1.518   1.060   0.753
   32SOL    HW2  996   1.508   1.222   0.771
   33SOL     OW  997   0.483   3.622   5.685
   33SOL    HW1  998   0.547   3.683   5.638
   33SOL    HW2  999   0.486   3.640   5.783
   34SOL     OW 1000   1.694   5.351   5.213
   34SOL    HW1 1001   1.691   5.411   5.293
   34SOL    HW2 1002   1.624   5.381   5.147
   35SOL     OW 1003   3.939   2.839   6.461
   35SOL    HW1 1004   3.940   2.751   6.508
   35SOL    HW2 1005   3.856   2.846   6.405
   36SOL     OW 1006   5.158   0.869   4.035
   36SOL    HW1 1007   5.114   0.943   3.985
   36SOL    HW2 1008   5.175   0.792   3.974
   37SOL     OW 1009   2.013   1.593   3.583
   37SOL    HW1 1010   2.079   1.566   3.654
   37SOL    HW2 1011   1.999   1.692   3.587
   38SOL     OW 1012   1.794   5.334   2.053
   38SOL    HW1 1013   1.815   5.355   2.148
   38SOL    HW2 1014   1.838   5.248   2.027
   39SOL     OW 1015   5.838   4.754   6.758
   39SOL    HW1 1016   5.825   4.656   6.774
   39SOL    HW2 1017   5.758   4.790   6.710
   40SOL     OW 1018   3.526   0.505   6.300
   40SOL    HW1 1019   3.512   0.413   6.338
   40SOL    HW2 1020   3.599   0.502   6.232
   41SOL     OW 1021   5.768   4.021   2.186
   41SOL    HW1 1022   5.698   3.968   2.235
   41SOL    HW2 1023   5.747   4.119   2.194
   42SOL     OW 1024   2.870   5.586   4.518
   42SOL    HW1 1025   2.822   5.639   4.588
   42SOL    HW2 1026   2.828   5.603   4.429
   43SOL     OW 1027   4.277   7.021   4.857
   43SOL    HW1 1028   4.263   6.940   4.800
   43SOL    HW2 1029   4.316   0.067   4.802
   44SOL     OW 1030   6.054   3.311   4.939
   44SOL    HW1 1031   6.038   3.395   4.990
   44SOL    HW2 1032   6.094   3.332   4.850
   45SOL     OW 1033   4.329   5.675   0.794
   45SOL    HW1 1034   4.271   5.595   0.778
   45SOL    HW2 1035   4.389   5.658   0.872
   46SOL     OW 1036   0.403   3.055   3.977
   46SOL    HW1 1037   0.421   3.044   4.074
   46SOL    HW2 1038   0.429   2.971   3.928
   47SOL     OW 1039   5.315   3.551   2.061
   47SOL    HW1 1040   5.261   3.490   2.003
   47SOL    HW2 1041   5.405   3.566   2.018
   48SOL     OW 1042   0.006   3.032   6.854
   48SOL    HW1 1043   0.014   3.131   6.846
   48SOL    HW2 1044   6.947   3.003   6.813
   49SOL     OW 1045   4.866   3.163   0.263
   49SOL    HW1 1046   4.938   3.161   0.195
   49SOL    HW2 1047   4.874   3.084   0.323
   50SOL     OW 1048   5.850   2.252   6.250
   50SOL    HW1 1049   5.870   2.292   6.161
   50SOL    HW2 1050   5.931   2.261   6.309
   51SOL     OW 1051   2.209   4.892   3.012
   51SOL    HW1 1052   2.148   4.939   2.949
   51SOL    HW2 1053   2.206   4.937   3.101
   52SOL     OW 1054   5.629   3.231   1.976
   52SOL    HW1 1055   5.616   3.228   2.075
   52SOL    HW2 1056   5.551   3.188   1.931
   53SOL     OW 1057   4.990   6.959   3.441
   53SOL    HW1 1058   4.909   6.937   3.387
   53SOL    HW2 1059   5.008   0.029   3.435
   54SOL     OW 1060   5.883   5.849   0.467
   54SOL    HW1 1061   5.844   5.940   0.455
   54SOL    HW2 1062   5.826   5.782   0.419
   55SOL     OW 1063   2.094   2.658   6.714
   55SOL    HW1 1064   2.149   2.741   6.727
   55SOL    HW2 1065   2.005   2.682   6.677
   56SOL     OW 1066   1.485   1.862   0.228
   56SOL    HW1 1067   1.464   1.766   0.213
   56SOL    HW2 1068   1.553   1.871   0.300
   57SOL     OW 1069   3.808   0.863   0.106
   57SOL    HW1 1070   3.791   0.821   0.017
   57SOL    HW2 1071   3.791   0.796   0.178
   58SOL     OW 1072   1.031   0.409   6.230
   58SOL    HW1 1073   1.026   0.449   6.322
   58SOL    HW2 1074   0.942   0.371   6.205
   59SOL     OW 1075   6.108   3.744   6.592
   59SOL    HW1 1076   6.010   3.759   6.582
   59SOL    HW2 1077   6.131   3.651   6.562
   60SOL     OW 1078   5.725   0.579   3.411
   60SOL    HW1 1079   5.795   0.541   3.351
   60SOL    HW2 1080   5.761   0.660   3.457
   61SOL     OW 1081   0.490   1.259   4.171
   61SOL    HW1 1082   0.573   1.314   4.168
   61SOL    HW2 1083   0.514   1.162   4.183
   62SOL     OW 1084   0.646   1.026   1.837
   62SOL    HW1 1085   0.649   1.109   1.894
   62SOL    HW2 1086   0.719   0.964   1.866
   63SOL     OW 1087   3.846   6.494   3.945
   63SOL    HW1 1088   3.874   6.543   3.863
   63SOL    HW2 1089   3.821   6.560   4.016
   64SOL     OW 1090   1.470   4.314   6.623
   64SOL    HW1 1091   1.564   4.290   6.647
   64SOL    HW2 1092   1.429   4.368   6.696
   65SOL     OW 1093   0.737   0.632   5.400
   65SOL    HW1 1094   0.684   0.554   5.434
   65SOL    HW2 1095   0.702   0.659   5.310
   66SOL     OW 1096   3.763   0.172   2.405
   66SOL    HW1 1097   3.688   0.117   2.368
   66SOL    HW2 1098   3.784   0.246   2.341
   67SOL     OW 1099   0.428   2.281   0.551
   67SOL    HW1 1100   0.368   2.361   0.552
   67SOL    HW2 1101   0.389   2.210   0.492
   68SOL     OW 1102   0.183   2.263   5.419
   68SOL    HW1 1103   0.127   2.239   5.339
   68SOL    HW2 1104   0.130   2.251   5.502
   69SOL     OW 1105   1.015   5.242   5.474
   69SOL    HW1 1106   1.111   5.270   5.476
   69SOL    HW2 1107   0.973   5.256   5.564
   70SOL     OW 1108   5.455   3.402   4.498
   70SOL    HW1 1109   5.432   3.469   4.568
   70SOL    HW2 1110   5.460   3.448   4.409
   71SOL     OW 1111   4.763   1.554   4.767
   71SOL    HW1 1112   4.722   1.465   4.788
   71SOL    HW2 1113   4.691   1.619   4.746
   72SOL     OW 1114   0.316   0.664   3.921
   72SOL    HW1 1115   0.340   0.612   3.839
   72SOL    HW2 1116   0.218   0.680   3.923
   73SOL     OW 1117   2.824   0.822   0.204
   73SOL    HW1 1118   2.909   0.778   0.233
   73SOL    HW2 1119   2.759   0.751   0.177
   74SOL     OW 1120   2.663   1.434   6.285
   74SOL    HW1 1121   2.656   1.335   6.272
   74SOL    HW2 1122   2.704   1.453   6.374
   75SOL     OW 1123   4.099   1.373   0.910
   75SOL    HW1 1124   4.162   1.377   0.832
   75SOL    HW2 1125   4.151   1.382   0.995
   76SOL     OW 1126   2.725   4.398   5.308
   76SOL    HW1 1127   2.813   4.425   5.267
   76SOL    HW2 1128   2.655   4.463   5.279
   77SOL     OW 1129   1.921   5.476   4.457
   77SOL    HW1 1130   1.861   5.556   4.453
   77SOL    HW2 1131   1.890   5.408   4.390
   78SOL     OW 1132   4.298   1.619   1.046
   78SOL    HW1 1133   4.306   1.709   1.090
   78SOL    HW2 1134   4.375   1.605   0.984
   79SOL     OW 1135   2.005   5.281   1.646
   79SOL    HW1 1136   2.054   5.359   1.684
   79SOL    HW2 1137   1.960   5.231   1.719
   80SOL     OW 1138   4.594   2.136   5.128
   80SOL    HW1 1139   4.615   2.114   5.033
   80SOL    HW2 1140   4.612   2.233   5.145
   81SOL     OW 1141   1.971   6.566   1.012
   81SOL    HW1 1142   1.911   6.539   1.087
   81SOL    HW2 1143   1.916   6.604   0.938
   82SOL     OW 1144   0.861   6.069   1.970
   82SOL    HW1 1145   0.775   6.019   1.979
   82SOL    HW2 1146   0.935   6.004   1.952
   83SOL     OW 1147   6.531   2.328   5.790
   83SOL    HW1 1148   6.605   2.284   5.738
   83SOL    HW2 1149   6.461   2.261   5.813
   84SOL     OW 1150   6.372   3.174   3.767
   84SOL    HW1 1151   6.465   3.160   3.731
   84SOL    HW2 1152   6.348   3.271   3.759
   85SOL     OW 1153   1.824   6.924   3.945
   85SOL    HW1 1154   1.785   6.943   4.035
   85SOL    HW2 1155   1.758   6.948   3.874
   86SOL     OW 1156   5.704   1.277   6.002
   86SOL    HW1 1157   5.696   1.240   6.095
   86SOL    HW2 1158   5.633   1.346   5.987
   87SOL     OW 1159   4.329   4.567   6.806
   87SOL    HW1 1160   4.398   4.638   6.822
   87SOL    HW2 1161   4.355   4.483   6.853
   88SOL     OW 1162   2.886   2.787   5.810
   88SOL    HW1 1163   2.859   2.879   5.840
   88SOL    HW2 1164   2.808   2.742   5.767
   89SOL     OW 1165   3.053   3.166   2.169
   89SOL    HW1 1166   3.017   3.130   2.255
   89SOL    HW2 1167   3.080   3.090   2.110
   90SOL     OW 1168   5.163   3.490   3.109
   90SOL    HW1 1169   5.127   3.430   3.037
   90SOL    HW2 1170   5.109   3.478   3.192
   91SOL     OW 1171   5.497   5.657   6.169
   91SOL    HW1 1172   5.515   5.675   6.266
   91SOL    HW2 1173   5.521   5.563   6.148
   92SOL     OW 1174   4.971   4.381   0.226
   92SOL    HW1 1175   4.878   4.405   0.254
   92SOL    HW2 1176   5.035   4.407   0.298
   93SOL     OW 1177   3.045   2.798   1.137
   93SOL    HW1 1178   3.048   2.810   1.236
   93SOL    HW2 1179   3.011   2.707   1.116
   94SOL     OW 1180   3.001   0.107   6.137
   94SOL    HW1 1181   2.987   0.113   6.038
   94SOL    HW2 1182   2.924   0.059   6.179
   95SOL     OW 1183   0.600   0.834   4.601
   95SOL    HW1 1184   0.638   0.821   4.693
   95SOL    HW2 1185   0.594   0.745   4.555
   96SOL     OW 1186   4.744   5.041   6.972
   96SOL    HW1 1187   4.675   5.004   0.006
   96SOL    HW2 1188   4.823   4.981   6.971
   97SOL     OW 1189   1.620   4.873   5.521
   97SOL    HW1 1190   1.580   4.782   5.513
   97SOL    HW2 1191   1.688   4.887   5.449
   98SOL     OW 1192   1.093   2.735   1.929
   98SOL    HW1 1193   1.090   2.814   1.990
   98SOL    HW2 1194   1.047   2.758   1.843
   99SOL     OW 1195   3.522   3.519   3.694
   99SOL    HW1 1196   3.451   3.482   3.633
   99SOL    HW2 1197   3.573   3.590   3.646
  100SOL     OW 1198   0.052   6.744   4.097
  100SOL    HW1 1199   0.020   6.662   4.145
  100SOL    HW2 1200   0.129   6.720   4.038
  101SOL     OW 1201   0.659   4.668   2.414
  101SOL    HW1 1202   0.698   4.603   2.480
  101SOL    HW2 1203   0.732   4.706   2.357
  102SOL     OW 1204   2.629   6.125   1.973
  102SOL    HW1 1205   2.565   6.193   1.938
  102SOL    HW2 1206   2.682   6.164   2.048
  103SOL     OW 1207   1.983   1.334   2.537
  103SOL    HW1 1208   1.942   1.280   2.610
  103SOL    HW2 1209   1.950   1.429   2.542
  104SOL     OW 1210   1.014   4.128   1.788
  104SOL    HW1 1211   1.025   4.151   1.885
  104SOL    HW2 1212   1.103   4.108   1.748
  105SOL     OW 1213   5.826   1.698   6.652
  105SOL    HW1 1214   5.736   1.657   6.667
  105SOL    HW2 1215   5.816   1.787   6.609
  106SOL     OW 1216   5.263   5.177   1.585
  106SOL    HW1 1217   5.163   5.177   1.588
  106SOL    HW2 1218   5.299   5.125   1.663
  107SOL     OW 1219   6.621   1.296   0.206
  107SOL    HW1 1220   6.672   1.319   0.123
  107SOL    HW2 1221   6.579   1.205   0.195
  108SOL     OW 1222   2.039   0.439   4.803
  108SOL    HW1 1223   2.091   0.474   4.725
  108SOL    HW2 1224   1.954   0.492   4.813
  109SOL     OW 1225   3.544   0.947   2.871
  109SOL    HW1 1226   3.620   0.910   2.817
  109SOL    HW2 1227   3.517   1.036   2.835
  110SOL     OW 1228   2.479   4.340   5.667
  110SOL    HW1 1229   2.449   4.285   5.589
  110SOL    HW2 1230   2.569   4.379   5.648
  111SOL     OW 1231   5.865   1.133   2.743
  111SOL    HW1 1232   5.921   1.098   2.818
  111SOL    HW2 1233   5.807   1.207   2.776
  112SOL     OW 1234   4.354   6.851   6.896
  112SOL    HW1 1235   4.376   6.840   6.993
  112SOL    HW2 1236   4.341   6.762   6.853
  113SOL     OW 1237   6.410   5.802   2.773
  113SOL    HW1 1238   6.408   5.754   2.686
  113SOL    HW2 1239   6.505   5.819   2.800
  114SOL     OW 1240   1.160   4.612   3.840
  114SOL    HW1 1241   1.109   4.588   3.757
  114SOL    HW2 1242   1.148   4.709   3.860
  115SOL     OW 1243   6.030   0.854   3.517
  115SOL    HW1 1244   6.038   0.794   3.437
  115SOL    HW2 1245   6.122   0.884   3.545
  116SOL     OW 1246   0.840   5.949   1.158
  116SOL    HW1 1247   0.937   5.932   1.137
  116SOL    HW2 1248   0.795   5.861   1.175
  117SOL     OW 1249   2.993   1.549   6.964
  117SOL    HW1 1250   2.910   1.516   7.007
  117SOL    HW2 1251   2.986   1.539   6.865
  118SOL     OW 1252   1.152   1.581   3.421
  118SOL    HW1 1253   1.111   1.672   3.412
  118SOL    HW2 1254   1.151   1.554   3.517
  119SOL     OW 1255   0.003   6.806   6.761
  119SOL    HW1 1256   0.038   6.718   6.793
  119SOL    HW2 1257   6.937   6.794   6.728
  120SOL     OW 1258   4.983   0.871   5.421
  120SOL    HW1 1259   4.967   0.777   5.389
  120SOL    HW2 1260   5.062   0.909   5.374
  121SOL     OW 1261   1.363   3.400   6.888
  121SOL    HW1 1262   1.402   3.453   6.813
  121SOL    HW2 1263   1.412   3.313   6.896
  122SOL     OW 1264   1.367   4.384   6.899
  122SOL    HW1 1265   1.442   4.429   6.948
  122SOL    HW2 1266   1.280   4.420   6.931
  123SOL     OW 1267   1.445   1.255   1.632
  123SOL    HW1 1268   1.440   1.175   1.691
  123SOL    HW2 1269   1.443   1.338   1.688
  124SOL     OW 1270   3.204   2.381   1.128
  124SOL    HW1 1271   3.268   2.416   1.060
  124SOL    HW2 1272   3.113   2.418   1.111
  125SOL     OW 1273   3.561   2.687   0.078
  125SOL    HW1 1274   3.613   2.736   0.009
  125SOL    HW2 1275   3.529   2.751   0.148
  126SOL     OW 1276   3.517   3.078   3.405
  126SOL    HW1 1277   3.541   3.033   3.320
  126SOL    HW2 1278   3.566   3.165   3.412
  127SOL     OW 1279   6.999   5.883   6.017
  127SOL    HW1 1280   7.024   5.971   5.976
  127SOL    HW2 1281   6.919   5.895   6.076
  128SOL     OW 1282   4.926   3.729   1.628
  128SOL    HW1 1283   4.910   3.746   1.725
  128SOL    HW2 1284   4.839   3.732   1.578
  129SOL     OW 1285   2.346   6.086   0.876
  129SOL    HW1 1286   2.336   6.073   0.974
  129SOL    HW2 1287   2.396   6.009   0.837
  130SOL     OW 1288   5.410   1.994   4.776
  130SOL    HW1 1289   5.321   2.019   4.738
  130SOL    HW2 1290   5.398   1.951   4.865
  131SOL     OW 1291   0.237   1.738   4.047
  131SOL    HW1 1292   0.158   1.748   3.987
  131SOL    HW2 1293   0.214   1.771   4.138
  132SOL     OW 1294   3.366   4.072   1.765
  132SOL    HW1 1295   3.441   4.081   1.831
  132SOL    HW2 1296   3.329   3.979   1.770
  133SOL     OW 1297   5.571   0.328   4.429
  133SOL    HW1 1298   5.490   0.335   4.371
  133SOL    HW2 1299   5.567   0.243   4.481
  134SOL     OW 1300   5.788   0.544   1.933
  134SOL    HW1 1301   5.850   0.535   1.855
  134SOL    HW2 1302   5.768   0.640   1.949
  135SOL     OW 1303   4.965   3.648   4.195
  135SOL    HW1 1304   4.928   3.735   4.165
  135SOL    HW2 1305   4.892   3.580   4.198
  136SOL     OW 1306   2.644   6.391   4.591
  136SOL    HW1 1307   2.699   6.399   4.508
  136SOL    HW2 1308   2.701   6.360   4.666
  137SOL     OW 1309   3.110   2.043   4.944
  137SOL    HW1 1310   3.099   2.134   4.985
  137SOL    HW2 1311   3.026   2.017   4.898
  138SOL     OW 1312   0.663   5.522   4.410
  138SOL    HW1 1313   0.612   5.476   4.337
  138SOL    HW2 1314   0.749   5.557   4.374
  139SOL     OW 1315   2.040   5.768   6.660
  139SOL    HW1 1316   2.108   5.697   6.674
  139SOL    HW2 1317   2.077   5.839   6.601
  140SOL     OW 1318   2.350   0.828   3.097
  140SOL    HW1 1319   2.306   0.742   3.069
  140SOL    HW2 1320   2.319   0.852   3.189
  141SOL     OW 1321   6.729   4.123   0.233
  141SOL    HW1 1322   6.731   4.084   0.141
  141SOL    HW2 1323   6.696   4.055   0.298
  142SOL     OW 1324   0.843   4.373   1.807
  142SOL    HW1 1325   0.881   4.283   1.827
  142SOL    HW2 1326   0.896   4.418   1.736
  143SOL     OW 1327   5.901   6.891   1.765
  143SOL    HW1 1328   5.958   6.931   1.693
  143SOL    HW2 1329   5.808   6.927   1.757
  144SOL     OW 1330   2.587   4.684   3.879
  144SOL    HW1 1331   2.637   4.692   3.966
  144SOL    HW2 1332   2.525   4.606   3.884
  145SOL     OW 1333   6.562   5.024   2.796
  145SOL    HW1 1334   6.542   5.118   2.768
  145SOL    HW2 1335   6.487   4.964   2.766
  146SOL     OW 1336   6.198   1.788   5.617
  146SOL    HW1 1337   6.136   1.845   5.564
  146SOL    HW2 1338   6.288   1.788   5.574
  147SOL     OW 1339   5.102   1.159   4.772
  147SOL    HW1 1340   5.013   1.195   4.799
  147SOL    HW2 1341   5.116   1.173   4.674
  148SOL     OW 1342   1.225   4.723   1.058
  148SOL    HW1 1343   1.157   4.699   0.988
  148SOL    HW2 1344   1.300   4.773   1.015
  149SOL     OW 1345   2.391   2.208   5.149
  149SOL    HW1 1346   2.483   2.243   5.166
  149SOL    HW2 1347   2.326   2.254   5.210
  150SOL     OW 1348   4.583   1.620   5.360
  150SOL    HW1 1349   4.597   1.542   5.420
  150SOL    HW2 1350   4.486   1.646   5.360
  151SOL     OW 1351   4.145   2.008   0.895
  151SOL    HW1 1352   4.056   2.001   0.851
  151SOL    HW2 1353   4.215   2.031   0.827
  152SOL     OW 1354   0.821   1.083   6.975
  152SOL    HW1 1355   0.724   1.060   6.976
  152SOL    HW2 1356   0.851   1.099   6.881
  153SOL     OW 1357   2.294   1.367   3.907
  153SOL    HW1 1358   2.368   1.434   3.915
  153SOL    HW2 1359   2.282   1.342   3.811
  154SOL     OW 1360   6.216   2.022   1.480
  154SOL    HW1 1361   6.249   1.979   1.564
  154SOL    HW2 1362   6.195   1.952   1.412
  155SOL     OW 1363   0.436   0.125   2.132
  155SOL    HW1 1364   0.351   0.177   2.127
  155SOL    HW2 1365   0.478   0.138   2.222
  156SOL     OW 1366   4.697   0.856   0.131
  156SOL    HW1 1367   4.754   0.913   0.191
  156SOL    HW2 1368   4.754   0.787   0.087
  157SOL     OW 1369   5.213   3.806   0.480
  157SOL    HW1 1370   5.302   3.788   0.439
  157SOL    HW2 1371   5.225   3.842   0.572
  158SOL     OW 1372   1.260   3.429   2.668
  158SOL    HW1 1373   1.349   3.413   2.712
  158SOL    HW2 1374   1.187   3.409   2.733
  159SOL     OW 1375   4.955   5.540   0.773
  159SOL    HW1 1376   4.952   5.559   0.871
  159SOL    HW2 1377   5.010   5.610   0.727
  160SOL     OW 1378   5.812   0.525   0.443
  160SOL    HW1 1379   5.868   0.490   0.518
  160SOL    HW2 1380   5.771   0.612   0.470
  161SOL     OW 1381   1.004   6.716   0.426
  161SOL    HW1 1382   0.992   6.794   0.364
  161SOL    HW2 1383   1.044   6.748   0.512
  162SOL     OW 1384   2.634   6.101   0.057
  162SOL    HW1 1385   2.728   6.069   0.066
  162SOL    HW2 1386   2.631   6.177   7.021
  163SOL     OW 1387   6.590   4.525   3.162
  163SOL    HW1 1388   6.660   4.462   3.194
  163SOL    HW2 1389   6.523   4.476   3.107
  164SOL     OW 1390   1.710   1.759   2.829
  164SOL    HW1 1391   1.684   1.663   2.843
  164SOL    HW2 1392   1.717   1.805   2.917
  165SOL     OW 1393   0.419   5.664   2.515
  165SOL    HW1 1394   0.475   5.644   2.595
  165SOL    HW2 1395   0.469   5.723   2.453
  166SOL     OW 1396   6.310   4.050   1.957
  166SOL    HW1 1397   6.343   4.031   1.864
  166SOL    HW2 1398   6.215   4.021   1.965
  167SOL     OW 1399   5.079   1.426   6.982
  167SOL    HW1 1400   5.079   1.478   0.040
  167SOL    HW2 1401   5.043   1.482   6.909
  168SOL     OW 1402   4.863   4.026   1.748
  168SOL    HW1 1403   4.767   4.012   1.721
  168SOL    HW2 1404   4.903   3.939   1.776
  169SOL     OW 1405   6.050   2.832   1.026
  169SOL    HW1 1406   6.096   2.860   0.941
  169SOL    HW2 1407   5.993   2.752   1.007
  170SOL     OW 1408   1.549   4.974   2.895
  170SOL    HW1 1409   1.643   4.993   2.867
  170SOL    HW2 1410   1.496   4.943   2.815
  171SOL     OW 1411   2.075   3.297   0.664
  171SOL    HW1 1412   2.093   3.352   0.583
  171SOL    HW2 1413   2.042   3.356   0.738
  172SOL     OW 1414   5.660   2.111   1.659
  172SOL    HW1 1415   5.628   2.183   1.721
  172SOL    HW2 1416   5.758   2.098   1.671
  173SOL     OW 1417   6.204   1.156   5.083
  173SOL    HW1 1418   6.208   1.194   4.990
  173SOL    HW2 1419   6.225   1.228   5.149
  174SOL     OW 1420   5.411   5.728   5.244
  174SOL    HW1 1421   5.371   5.680   5.322
  174SOL    HW2 1422   5.509   5.743   5.261
  175SOL     OW 1423   1.436   0.349   0.783
  175SOL    HW1 1424   1.503   0.295   0.731
  175SOL    HW2 1425   1.363   0.378   0.722
  176SOL     OW 1426   4.725   5.021   2.460
  176SOL    HW1 1427   4.639   5.014   2.511
  176SOL    HW2 1428   4.705   5.042   2.365
  177SOL     OW 1429   5.645   1.802   4.728
  177SOL    HW1 1430   5.660   1.713   4.686
  177SOL    HW2 1431   5.551   1.831   4.712
  178SOL     OW 1432   2.189   6.215   4.734
  178SOL    HW1 1433   2.273   6.268   4.724
  178SOL    HW2 1434   2.114   6.277   4.757
  179SOL     OW 1435   4.380   5.049   0.521
  179SOL    HW1 1436   4.363   4.976   0.455
  179SOL    HW2 1437   4.380   5.137   0.474
  180SOL     OW 1438   3.886   0.236   0.815
  180SOL    HW1 1439   3.973   0.234   0.764
  180SOL    HW2 1440   3.886   0.164   0.883
  181SOL     OW 1441   3.211   2.501   5.335
  181SOL    HW1 1442   3.122   2.474   5.371
  181SOL    HW2 1443   3.237   2.440   5.261
  182SOL     OW 1444   5.566   2.532   0.182
  182SOL    HW1 1445   5.594   2.467   0.252
  182SOL    HW2 1446   5.647   2.570   0.138
  183SOL     OW 1447   3.372   2.079   4.736
  183SOL    HW1 1448   3.275   2.094   4.717
  183SOL    HW2 1449   3.397   2.127   4.820
  184SOL     OW 1450   0.455   6.444   3.501
  184SOL    HW1 1451   0.547   6.406   3.504
  184SOL    HW2 1452   0.388   6.369   3.501
  185SOL     OW 1453   0.721   1.641   3.927
  185SOL    HW1 1454   0.623   1.621   3.937
  185SOL    HW2 1455   0.733   1.735   3.896
  186SOL     OW 1456   5.269   5.563   4.289
  186SOL    HW1 1457   5.364   5.534   4.276
  186SOL    HW2 1458   5.264   5.663   4.286
  187SOL     OW 1459   4.043   5.617   2.826
  187SOL    HW1 1460   4.060   5.710   2.795
  187SOL    HW2 1461   4.114   5.590   2.892
  188SOL     OW 1462   2.486   2.076   2.959
  188SOL    HW1 1463   2.502   2.168   2.994
  188SOL    HW2 1464   2.514   2.072   2.863
  189SOL     OW 1465   6.393   5.524   6.922
  189SOL    HW1 1466   6.487   5.541   6.949
  189SOL    HW2 1467   6.348   5.467   6.991
  190SOL     OW 1468   6.073   5.601   0.305
  190SOL    HW1 1469   6.010   5.661   0.355
  190SOL    HW2 1470   6.132   5.657   0.246
  191SOL     OW 1471   6.718   1.084   6.017
  191SOL    HW1 1472   6.741   1.022   5.942
  191SOL    HW2 1473   6.777   1.064   6.096
  192SOL     OW 1474   0.110   4.935   1.149
  192SOL    HW1 1475   0.187   4.886   1.108
  192SOL    HW2 1476   0.093   5.019   1.098
  193SOL     OW 1477   3.055   5.114   6.459
  193SOL    HW1 1478   3.119   5.122   6.536
  193SOL    HW2 1479   3.039   5.018   6.439
  194SOL     OW 1480   3.950   6.676   2.079
  194SOL    HW1 1481   3.882   6.745   2.052
  194SOL    HW2 1482   3.922   6.632   2.164
  195SOL     OW 1483   3.106   0.679   2.164
  195SOL    HW1 1484   3.057   0.672   2.077
  195SOL    HW2 1485   3.162   0.598   2.178
  196SOL     OW 1486   2.625   1.044   6.324
  196SOL    HW1 1487   2.718   1.071   6.298
  196SOL    HW2 1488   2.589   1.110   6.390
  197SOL     OW 1489   2.368   6.049   0.021
  197SOL    HW1 1490   2.463   6.080   0.025
  197SOL    HW2 1491   2.307   6.128   0.017
  198SOL     OW 1492   4.549   5.883   0.694
  198SOL    HW1 1493   4.562   5.935   0.778
  198SOL    HW2 1494   4.529   5.788   0.716
  199SOL     OW 1495   5.373   0.606   2.242
  199SOL    HW1 1496   5.404   0.619   2.147
  199SOL    HW2 1497   5.443   0.557   2.293
  200SOL     OW 1498   1.353   3.658   2.270
  200SOL    HW1 1499   1.445   3.681   2.302
  200SOL    HW2 1500   1.292   3.648   2.348
  201SOL     OW 1501   2.880   0.696   6.972
  201SOL    HW1 1502   2.824   0.768   6.930
  201SOL    HW2 1503   2.957   0.738   7.021
  202SOL     OW 1504   4.825   6.401   4.078
  202SOL    HW1 1505   4.912   6.443   4.054
  202SOL    HW2 1506   4.812   6.405   4.177
  203SOL     OW 1507   5.056   3.542   6.283
  203SOL    HW1 1508   5.037   3.444   6.280
  203SOL    HW2 1509   5.137   3.559   6.339
  204SOL     OW 1510   1.107   0.027   0.551
  204SOL    HW1 1511   1.197   0.006   0.589
  204SOL    HW2 1512   1.115   0.104   0.488
  205SOL     OW 1513   0.324   1.817   1.009
  205SOL    HW1 1514   0.363   1.882   1.073
  205SOL    HW2 1515   0.370   1.729   1.019
  206SOL     OW 1516   0.863   4.493   1.130
  206SOL    HW1 1517   0.848   4.589   1.105
  206SOL    HW2 1518   0.958   4.468   1.110
  207SOL     OW 1519   4.295   0.390   5.847
  207SOL    HW1 1520   4.247   0.474   5.820
  207SOL    HW2 1521   4.383   0.414   5.889
  208SOL     OW 1522   5.014   4.499   5.941
  208SOL    HW1 1523   5.069   4.418   5.926
  208SOL    HW2 1524   5.071   4.581   5.931
  209SOL     OW 1525   0.385   6.231   5.751
  209SOL    HW1 1526   0.381   6.147   5.805
  209SOL    HW2 1527   0.365   6.309   5.810
  210SOL     OW 1528   3.991   2.198   1.962
  210SOL    HW1 1529   3.901   2.204   2.006
  210SOL    HW2 1530   4.010   2.284   1.914
  211SOL     OW 1531   0.546   1.520   1.963
  211SOL    HW1 1532   0.612   1.450   1.937
  211SOL    HW2 1533   0.523   1.509   2.060
  212SOL     OW 1534   0.528   4.496   3.284
  212SOL    HW1 1535   0.432   4.479   3.261
  212SOL    HW2 1536   0.537   4.587   3.326
  213SOL     OW 1537   5.197   1.183   7.001
  213SOL    HW1 1538   5.249   1.199   0.056
  213SOL    HW2 1539   5.120   1.247   6.996
  214SOL     OW 1540   0.657   6.866   3.197
  214SOL    HW1 1541   0.584   6.900   3.256
  214SOL    HW2 1542   0.618   6.814   3.121
  215SOL     OW 1543   3.902   3.009   2.024
  215SOL    HW1 1544   3.938   3.012   1.931
  215SOL    HW2 1545   3.972   2.973   2.086
  216SOL     OW 1546   1.328   0.051   4.554
  216SOL    HW1 1547   1.236   0.056   4.594
  216SOL    HW2 1548   1.396   0.056   4.627
  217SOL     OW 1549   1.955   2.670   4.216
  217SOL    HW1 1550   1.914   2.579   4.220
  217SOL    HW2 1551   2.032   2.670   4.153
  218SOL     OW 1552   1.104   2.309   4.248
  218SOL    HW1 1553   1.114   2.361   4.334
  218SOL    HW2 1554   1.187   2.319   4.193
  219SOL     OW 1555   3.497   4.090   0.354
  219SOL    HW1 1556   3.426   4.142   0.401
  219SOL    HW2 1557   3.584   4.101   0.402
  220SOL     OW 1558   2.343   5.401   0.041
  220SOL    HW1 1559   2.426   5.456   0.041
  220SOL    HW2 1560   2.289   5.421   0.123
  221SOL     OW 1561   5.609   3.175   4.049
  221SOL    HW1 1562   5.702   3.190   4.015
  221SOL    HW2 1563   5.608   3.189   4.148
  222SOL     OW 1564   1.464   5.394   4.994
  222SOL    HW1 1565   1.459   5.487   5.030
  222SOL    HW2 1566   1.528   5.390   4.918
  223SOL     OW 1567   0.089   3.602   2.130
  223SOL    HW1 1568   0.150   3.587   2.053
  223SOL    HW2 1569   0.122   3.679   2.185
  224SOL     OW 1570   2.809   2.299   2.329
  224SOL    HW1 1571   2.818   2.298   2.230
  224SOL    HW2 1572   2.871   2.232   2.369
  225SOL     OW 1573   5.991   1.046   0.042
  225SOL    HW1 1574   5.983   1.138   0.078
  225SOL    HW2 1575   6.071   1.040   7.011
  226SOL     OW 1576   1.136   6.867   0.895
  226SOL    HW1 1577   1.054   6.913   0.931
  226SOL    HW2 1578   1.217   6.901   0.944
  227SOL     OW 1579   1.469   3.851   3.390
  227SOL    HW1 1580   1.490   3.802   3.475
  227SOL    HW2 1581   1.370   3.864   3.383
  228SOL     OW 1582   3.806   6.906   4.328
  228SOL    HW1 1583   3.863   6.987   4.344
  228SOL    HW2 1584   3.789   6.859   4.415
  229SOL     OW 1585   5.872   5.715   1.335
  229SOL    HW1 1586   5.855   5.745   1.241
  229SOL    HW2 1587   5.889   5.794   1.393
  230SOL     OW 1588   2.130   3.610   4.339
  230SOL    HW1 1589   2.081   3.599   4.426
  230SOL    HW2 1590   2.140   3.707   4.319
  231SOL     OW 1591   6.793   3.112   6.235
  231SOL    HW1 1592   6.860   3.142   6.167
  231SOL    HW2 1593   6.818   3.147   6.325
  232SOL     OW 1594   1.775   3.953   6.288
  232SOL    HW1 1595   1.835   3.876   6.309
  232SOL    HW2 1596   1.693   3.920   6.241
  233SOL     OW 1597   2.637   0.941   5.610
  233SOL    HW1 1598   2.735   0.924   5.620
  233SOL    HW2 1599   2.586   0.869   5.659
  234SOL     OW 1600   2.645   5.021   0.034
  234SOL    HW1 1601   2.595   4.936   0.015
  234SOL    HW2 1602   2.742   4.999   0.048
  235SOL     OW 1603   3.657   3.495   3.924
  235SOL    HW1 1604   3.599   3.528   3.850
  235SOL    HW2 1605   3.604   3.492   4.009
  236SOL     OW 1606   6.429   2.995   6.083
  236SOL    HW1 1607   6.368   2.937   6.137
  236SOL    HW2 1608   6.431   3.087   6.122
  237SOL     OW 1609   7.007   6.831   1.378
  237SOL    HW1 1610   7.028   6.928   1.391
  237SOL    HW2 1611   6.979   6.816   1.283
  238SOL     OW 1612   5.917   3.763   1.776
  238SOL    HW1 1613   5.988   3.832   1.758
  238SOL    HW2 1614   5.880   3.730   1.689
  239SOL     OW 1615   0.170   5.602   6.732
  239SOL    HW1 1616   0.189   5.688   6.685
  239SOL    HW2 1617   0.164   5.528   6.665
  240SOL     OW 1618   0.905   3.898   6.177
  240SOL    HW1 1619   0.823   3.946   6.208
  240SOL    HW2 1620   0.963   3.877   6.256
  241SOL     OW 1621   0.650   1.167   3.705
  241SOL    HW1 1622   0.613   1.088   3.754
  241SOL    HW2 1623   0.577   1.210   3.652
  242SOL     OW 1624   1.451   3.188   5.090
  242SOL    HW1 1625   1.492   3.223   5.006
  242SOL    HW2 1626   1.432   3.265   5.152
  243SOL     OW 1627   4.732   0.631   6.057
  243SOL    HW1 1628   4.825   0.667   6.058
  243SOL    HW2 1629   4.689   0.646   6.146
  244SOL     OW 1630   5.215   1.613   4.806
  244SOL    HW1 1631   5.138   1.589   4.865
  244SOL    HW2 1632   5.291   1.550   4.823
  245SOL     OW 1633   6.244   2.686   5.047
  245SOL    HW1 1634   6.322   2.624   5.054
  245SOL    HW2 1635   6.209   2.705   5.139
  246SOL     OW 1636   4.931   3.724   3.863
  246SOL    HW1 1637   4.847   3.778   3.871
  246SOL    HW2 1638   5.009   3.781   3.890
  247SOL     OW 1639   2.621   1.468   3.330
  247SOL    HW1 1640   2.579   1.552   3.298
  247SOL    HW2 1641   2.617   1.398   3.258
  248SOL     OW 1642   4.750   1.983   4.581
  248SOL    HW1 1643   4.814   2.022   4.515
  248SOL    HW2 1644   4.676   1.937   4.532
  249SOL     OW 1645   3.162   6.490   4.758
  249SOL    HW1 1646   3.089   6.424   4.778
  249SOL    HW2 1647   3.196   6.475   4.665
  250SOL     OW 1648   5.567   2.564   5.592
  250SOL    HW1 1649   5.498   2.617   5.640
  250SOL    HW2 1650   5.630   2.625   5.545
  251SOL     OW 1651   4.781   3.235   6.479
  251SOL    HW1 1652   4.829   3.305   6.533
  251SOL    HW2 1653   4.706   3.197   6.533
  252SOL     OW 1654   6.606   1.327   5.936
  252SOL    HW1 1655   6.566   1.366   6.020
  252SOL    HW2 1656   6.657   1.244   5.959
  253SOL     OW 1657   2.093   2.689   1.029
  253SOL    HW1 1658   2.188   2.668   1.007
  253SOL    HW2 1659   2.077   2.669   1.126
  254SOL     OW 1660   0.028   3.424   4.268
  254SOL    HW1 1661   0.120   3.456   4.245
  254SOL    HW2 1662   6.998   3.502   4.293
  255SOL     OW 1663   3.195   2.103   3.447
  255SOL    HW1 1664   3.165   2.149   3.363
  255SOL    HW2 1665   3.188   2.166   3.524
  256SOL     OW 1666   6.220   5.338   6.525
  256SOL    HW1 1667   6.137   5.385   6.496
  256SOL    HW2 1668   6.201   5.240   6.535
  257SOL     OW 1669   2.660   5.346   6.006
  257SOL    HW1 1670   2.714   5.267   6.035
  257SOL    HW2 1671   2.591   5.317   5.940
  258SOL     OW 1672   4.977   4.505   4.786
  258SOL    HW1 1673   4.943   4.439   4.719
  258SOL    HW2 1674   5.077   4.507   4.783
  259SOL     OW 1675   1.847   3.071   2.618
  259SOL    HW1 1676   1.799   3.045   2.534
  259SOL    HW2 1677   1.829   3.003   2.689
  260SOL     OW 1678   5.024   0.429   6.273
  260SOL    HW1 1679   5.078   0.407   6.354
  260SOL    HW2 1680   4.928   0.405   6.290
  261SOL     OW 1681   0.550   4.291   1.801
  261SOL    HW1 1682   0.634   4.342   1.783
  261SOL    HW2 1683   0.574   4.200   1.837
  262SOL     OW 1684   0.896   2.709   2.669
  262SOL    HW1 1685   0.897   2.610   2.655
  262SOL    HW2 1686   0.850   2.753   2.592
  263SOL     OW 1687   0.697   2.911   4.913
  263SOL    HW1 1688   0.698   2.811   4.913
  263SOL    HW2 1689   0.606   2.943   4.940
  264SOL     OW 1690   1.151   3.361   5.835
  264SOL    HW1 1691   1.059   3.324   5.848
  264SOL    HW2 1692   1.214   3.319   5.901
  265SOL     OW 1693   5.080   4.518   4.255
  265SOL    HW1 1694   5.027   4.603   4.257
  265SOL    HW2 1695   5.018   4.440   4.251
  266SOL     OW 1696   4.184   1.680   0.691
  266SOL    HW1 1697   4.190   1.758   0.629
  266SOL    HW2 1698   4.139   1.708   0.776
  267SOL     OW 1699   1.725   2.434   6.296
  267SOL    HW1 1700   1.634   2.453   6.332
  267SOL    HW2 1701   1.746   2.498   6.223
  268SOL     OW 1702   4.815   4.328   4.658
  268SOL    HW1 1703   4.768   4.389   4.594
  268SOL    HW2 1704   4.757   4.313   4.738
  269SOL     OW 1705   1.394   1.904   6.717
  269SOL    HW1 1706   1.489   1.900   6.750
  269SOL    HW2 1707   1.345   1.821   6.747
  270SOL     OW 1708   5.546   0.789   2.595
  270SOL    HW1 1709   5.545   0.689   2.594
  270SOL    HW2 1710   5.482   0.823   2.664
  271SOL     OW 1711   1.584   0.600   0.769
  271SOL    HW1 1712   1.552   0.506   0.787
  271SOL    HW2 1713   1.677   0.598   0.734
  272SOL     OW 1714   3.983   5.304   4.273
  272SOL    HW1 1715   4.036   5.267   4.197
  272SOL    HW2 1716   3.891   5.266   4.271
  273SOL     OW 1717   1.663   5.358   4.773
  273SOL    HW1 1718   1.652   5.346   4.674
  273SOL    HW2 1719   1.695   5.272   4.813
  274SOL     OW 1720   6.180   2.917   3.225
  274SOL    HW1 1721   6.196   2.911   3.324
  274SOL    HW2 1722   6.150   3.010   3.202
  275SOL     OW 1723   6.921   6.603   6.049
  275SOL    HW1 1724   6.835   6.601   6.100
  275SOL    HW2 1725   6.955   6.510   6.038
  276SOL     OW 1726   6.601   6.186   3.575
  276SOL    HW1 1727   6.651   6.101   3.563
  276SOL    HW2 1728   6.665   6.263   3.574
  277SOL     OW 1729   3.538   1.705   5.330
  277SOL    HW1 1730   3.605   1.729   5.260
  277SOL    HW2 1731   3.480   1.631   5.298
  278SOL     OW 1732   5.427   4.013   2.592
  278SOL    HW1 1733   5.388   4.045   2.506
  278SOL    HW2 1734   5.516   3.970   2.574
  279SOL     OW 1735   7.011   3.162   2.993
  279SOL    HW1 1736   0.033   3.245   3.017
  279SOL    HW2 1737   0.033   3.112   2.922
  280SOL     OW 1738   4.386   0.007   3.441
  280SOL    HW1 1739   4.473   0.041   3.476
  280SOL    HW2 1740   4.402   6.970   3.366
  281SOL     OW 1741   4.313   5.928   4.146
  281SOL    HW1 1742   4.271   5.952   4.233
  281SOL    HW2 1743   4.287   5.835   4.121
  282SOL     OW 1744   4.351   2.105   6.086
  282SOL    HW1 1745   4.268   2.114   6.031
  282SOL    HW2 1746   4.354   2.015   6.129
  283SOL     OW 1747   6.410   0.651   5.001
  283SOL    HW1 1748   6.494   0.607   4.970
  283SOL    HW2 1749   6.372   0.600   5.078
  284SOL     OW 1750   0.412   5.044   5.035
  284SOL    HW1 1751   0.360   4.963   5.062
  284SOL    HW2 1752   0.461   5.081   5.114
  285SOL     OW 1753   5.108   0.235   0.111
  285SOL    HW1 1754   5.186   0.173   0.112
  285SOL    HW2 1755   5.104   0.284   0.198
  286SOL     OW 1756   3.455   5.367   4.696
  286SOL    HW1 1757   3.524   5.367   4.769
  286SOL    HW2 1758   3.390   5.441   4.713
  287SOL     OW 1759   1.802   5.807   5.849
  287SOL    HW1 1760   1.800   5.871   5.772
  287SOL    HW2 1761   1.716   5.812   5.900
  288SOL     OW 1762   3.580   0.752   0.876
  288SOL    HW1 1763   3.672   0.789   0.890
  288SOL    HW2 1764   3.512   0.822   0.899
  289SOL     OW 1765   0.935   6.339   4.953
  289SOL    HW1 1766   0.992   6.263   4.982
  289SOL    HW2 1767   0.868   6.360   5.024
  290SOL     OW 1768   4.507   0.964   3.691
  290SOL    HW1 1769   4.584   1.001   3.744
  290SOL    HW2 1770   4.437   0.931   3.754
  291SOL     OW 1771   4.640   0.476   4.170
  291SOL    HW1 1772   4.661   0.523   4.084
  291SOL    HW2 1773   4.595   0.540   4.233
  292SOL     OW 1774   3.630   0.214   3.852
  292SOL    HW1 1775   3.686   0.227   3.934
  292SOL    HW2 1776   3.686   0.232   3.771
  293SOL     OW 1777   5.458   6.161   2.083
  293SOL    HW1 1778   5.406   6.114   2.154
  293SOL    HW2 1779   5.419   6.140   1.993
  294SOL     OW 1780   5.890   0.395   5.714
  294SOL    HW1 1781   5.934   0.429   5.631
  294SOL    HW2 1782   5.939   0.314   5.747
  295SOL     OW 1783   1.663   2.069   5.254
  295SOL    HW1 1784   1.761   2.084   5.258
  295SOL    HW2 1785   1.633   2.015   5.332
  296SOL     OW 1786   6.666   0.896   1.504
  296SOL    HW1 1787   6.755   0.852   1.497
  296SOL    HW2 1788   6.605   0.861   1.433
  297SOL     OW 1789   4.999   4.335   3.631
  297SOL    HW1 1790   5.057   4.364   3.554
  297SOL    HW2 1791   5.027   4.383   3.714
  298SOL     OW 1792   4.114   0.446   0.334
  298SOL    HW1 1793   4.061   0.472   0.414
  298SOL    HW2 1794   4.179   0.519   0.312
  299SOL     OW 1795   2.976   1.915   0.154
  299SOL    HW1 1796   3.010   1.892   0.245
  299SOL    HW2 1797   3.038   1.980   0.111
  300SOL     OW 1798   3.523   1.290   2.334
  300SOL    HW1 1799   3.532   1.385   2.303
  300SOL    HW2 1800   3.546   1.228   2.259
  301SOL     OW 1801   5.205   5.810   1.561
  301SOL    HW1 1802   5.128   5.820   1.625
  301SOL    HW2 1803   5.178   5.845   1.471
  302SOL     OW 1804   6.721   6.279   1.864
  302SOL    HW1 1805   6.656   6.271   1.940
  302SOL    HW2 1806   6.746   6.375   1.852
  303SOL     OW 1807   6.399   5.545   2.279
  303SOL    HW1 1808   6.315   5.495   2.258
  303SOL    HW2 1809   6.391   5.639   2.245
  304SOL     OW 1810   1.569   6.889   4.881
  304SOL    HW1 1811   1.633   6.816   4.854
  304SOL    HW2 1812   1.512   6.857   4.956
  305SOL     OW 1813   1.120   2.859   1.246
  305SOL    HW1 1814   1.146   2.899   1.158
  305SOL    HW2 1815   1.186   2.788   1.270
  306SOL     OW 1816   7.016   1.128   3.034
  306SOL    HW1 1817   6.990   1.037   3.067
  306SOL    HW2 1818   0.071   1.121   2.980
  307SOL     OW 1819   3.238   3.481   1.122
  307SOL    HW1 1820   3.332   3.451   1.138
  307SOL    HW2 1821   3.181   3.453   1.200
  308SOL     OW 1822   5.492   0.743   4.306
  308SOL    HW1 1823   5.586   0.774   4.324
  308SOL    HW2 1824   5.449   0.805   4.240
  309SOL     OW 1825   0.684   6.710   6.891
  309SOL    HW1 1826   0.688   6.699   6.791
  309SOL    HW2 1827   0.777   6.720   6.927
  310SOL     OW 1828   5.057   6.366   4.533
  310SOL    HW1 1829   5.147   6.338   4.566
  310SOL    HW2 1830   5.009   6.286   4.496
  311SOL     OW 1831   2.493   5.401   3.250
  311SOL    HW1 1832   2.426   5.331   3.228
  311SOL    HW2 1833   2.463   5.489   3.214
  312SOL     OW 1834   4.838   2.263   3.249
  312SOL    HW1 1835   4.917   2.203   3.262
  312SOL    HW2 1836   4.765   2.213   3.202
  313SOL     OW 1837   3.842   3.356   2.650
  313SOL    HW1 1838   3.923   3.310   2.615
  313SOL    HW2 1839   3.760   3.308   2.619
  314SOL     OW 1840   1.949   6.190   5.117
  314SOL    HW1 1841   1.896   6.190   5.032
  314SOL    HW2 1842   2.037   6.145   5.101
  315SOL     OW 1843   6.259   1.363   3.562
  315SOL    HW1 1844   6.242   1.455   3.597
  315SOL    HW2 1845   6.219   1.295   3.624
  316SOL     OW 1846   4.730   1.778   5.645
  316SOL    HW1 1847   4.776   1.707   5.698
  316SOL    HW2 1848   4.795   1.851   5.625
  317SOL     OW 1849   1.671   1.824   1.610
  317SOL    HW1 1850   1.706   1.737   1.576
  317SOL    HW2 1851   1.705   1.899   1.552
  318SOL     OW 1852   6.527   0.725   5.664
  318SOL    HW1 1853   6.511   0.773   5.578
  318SOL    HW2 1854   6.441   0.713   5.713
  319SOL     OW 1855   0.485   1.950   2.610
  319SOL    HW1 1856   0.401   1.918   2.567
  319SOL    HW2 1857   0.481   1.934   2.708
  320SOL     OW 1858   5.645   2.085   6.794
  320SOL    HW1 1859   5.623   2.069   6.698
  320SOL    HW2 1860   5.609   2.009   6.849
  321SOL     OW 1861   4.027   3.274   0.915
  321SOL    HW1 1862   4.110   3.219   0.928
  321SOL    HW2 1863   4.052   3.362   0.875
  322SOL     OW 1864   4.064   3.624   6.569
  322SOL    HW1 1865   3.966   3.643   6.577
  322SOL    HW2 1866   4.079   3.525   6.574
  323SOL     OW 1867   0.364   2.734   3.524
  323SOL    HW1 1868   0.360   2.732   3.424
  323SOL    HW2 1869   0.309   2.660   3.561
  324SOL     OW 1870   2.276   6.781   3.436
  324SOL    HW1 1871   2.372   6.790   3.411
  324SOL    HW2 1872   2.243   6.691   3.410
  325SOL     OW 1873   1.259   3.922   2.535
  325SOL    HW1 1874   1.192   3.863   2.579
  325SOL    HW2 1875   1.342   3.870   2.514
  326SOL     OW 1876   1.643   5.080   6.172
  326SOL    HW1 1877   1.697   4.999   6.194
  326SOL    HW2 1878   1.682   5.160   6.218
  327SOL     OW 1879   3.048   4.826   2.599
  327SOL    HW1 1880   3.096   4.855   2.682
  327SOL    HW2 1881   2.956   4.794   2.623
  328SOL     OW 1882   1.285   4.072   1.750
  328SOL    HW1 1883   1.324   3.980   1.745
  328SOL    HW2 1884   1.299   4.119   1.663
  329SOL     OW 1885   2.902   4.126   1.055
  329SOL    HW1 1886   2.813   4.167   1.038
  329SOL    HW2 1887   2.906   4.092   1.149
  330SOL     OW 1888   3.642   5.537   0.361
  330SOL    HW1 1889   3.729   5.555   0.408
  330SOL    HW2 1890   3.592   5.466   0.410
  331SOL     OW 1891   5.174   5.124   0.613
  331SOL    HW1 1892   5.172   5.141   0.712
  331SOL    HW2 1893   5.194   5.027   0.596
  332SOL     OW 1894   5.342   1.729   3.834
  332SOL    HW1 1895   5.344   1.644   3.782
  332SOL    HW2 1896   5.249   1.745   3.867
  333SOL     OW 1897   4.262   1.049   5.035
  333SOL    HW1 1898   4.343   1.054   4.977
  333SOL    HW2 1899   4.210   1.134   5.028
  334SOL     OW 1900   3.488   3.139   2.687
  334SOL    HW1 1901   3.521   3.199   2.614
  334SOL    HW2 1902   3.408   3.088   2.655
  335SOL     OW 1903   4.136   0.335   6.772
  335SOL    HW1 1904   4.102   0.423   6.804
  335SOL    HW2 1905   4.063   0.266   6.779
  336SOL     OW 1906   2.906   1.361   3.472
  336SOL    HW1 1907   2.814   1.398   3.457
  336SOL    HW2 1908   2.932   1.303   3.395
  337SOL     OW 1909   1.502   2.063   5.750
  337SOL    HW1 1910   1.535   2.027   5.837
  337SOL    HW2 1911   1.412   2.104   5.762
  338SOL     OW 1912   4.296   3.131   1.481
  338SOL    HW1 1913   4.198   3.118   1.499
  338SOL    HW2 1914   4.331   3.051   1.431
  339SOL     OW 1915   4.220   4.774   4.676
  339SOL    HW1 1916   4.276   4.779   4.759
  339SOL    HW2 1917   4.125   4.796   4.699
  340SOL     OW 1918   5.072   2.871   5.063
  340SOL    HW1 1919   4.985   2.893   5.020
  340SOL    HW2 1920   5.134   2.949   5.052
  341SOL     OW 1921   5.613   5.678   4.672
  341SOL    HW1 1922   5.583   5.769   4.642
  341SOL    HW2 1923   5.535   5.629   4.711
  342SOL     OW 1924   4.654   4.077   1.061
  342SOL    HW1 1925   4.590   4.130   1.005
  342SOL    HW2 1926   4.702   4.010   1.003
  343SOL     OW 1927   0.677   6.207   2.521
  343SOL    HW1 1928   0.720   6.182   2.607
  343SOL    HW2 1929   0.634   6.297   2.530
  344SOL     OW 1930   0.646   1.840   1.791
  344SOL    HW1 1931   0.625   1.892   1.874
  344SOL    HW2 1932   0.725   1.880   1.745
  345SOL     OW 1933   6.820   2.261   4.227
  345SOL    HW1 1934   6.810   2.317   4.310
  345SOL    HW2 1935   6.807   2.319   4.146
  346SOL     OW 1936   2.070   6.824   2.614
  346SOL    HW1 1937   2.071   6.733   2.570
  346SOL    HW2 1938   2.008   6.822   2.692
  347SOL     OW 1939   2.221   5.819   0.019
  347SOL    HW1 1940   2.280   5.899   0.032
  347SOL    HW2 1941   2.262   5.759   6.978
  348SOL     OW 1942   4.483   5.042   2.588
  348SOL    HW1 1943   4.445   5.012   2.676
  348SOL    HW2 1944   4.468   5.140   2.577
  349SOL     OW 1945   6.807   4.420   1.719
  349SOL    HW1 1946   6.861   4.420   1.804
  349SOL    HW2 1947   6.865   4.393   1.643
  350SOL     OW 1948   3.071   3.114   0.074
  350SOL    HW1 1949   3.017   3.066   0.143
  350SOL    HW2 1950   3.067   3.213   0.093
  351SOL     OW 1951   2.722   3.754   0.498
  351SOL    HW1 1952   2.634   3.708   0.500
  351SOL    HW2 1953   2.715   3.843   0.544
  352SOL     OW 1954   4.230   6.280   3.622
  352SOL    HW1 1955   4.254   6.261   3.717
  352SOL    HW2 1956   4.237   6.379   3.606
  353SOL     OW 1957   3.471   0.240   6.307
  353SOL    HW1 1958   3.468   0.176   6.383
  353SOL    HW2 1959   3.544   0.214   6.243
  354SOL     OW 1960   5.656   3.132   0.717
  354SOL    HW1 1961   5.628   3.217   0.762
  354SOL    HW2 1962   5.752   3.140   0.689
  355SOL     OW 1963   1.753   2.570   2.399
  355SOL    HW1 1964   1.826   2.544   2.462
  355SOL    HW2 1965   1.674   2.602   2.451
  356SOL     OW 1966   1.732   0.599   4.545
  356SOL    HW1 1967   1.682   0.680   4.515
  356SOL    HW2 1968   1.672   0.519   4.542
  357SOL     OW 1969   0.040   6.264   4.193
  357SOL    HW1 1970   0.009   6.225   4.106
  357SOL    HW2 1971   0.091   6.349   4.176
  358SOL     OW 1972   4.750   6.248   0.827
  358SOL    HW1 1973   4.743   6.339   0.868
  358SOL    HW2 1974   4.828   6.200   0.868
  359SOL     OW 1975   3.406   0.922   1.001
  359SOL    HW1 1976   3.483   0.977   1.033
  359SOL    HW2 1977   3.362   0.878   1.080
  360SOL     OW 1978   1.468   4.195   4.718
  360SOL    HW1 1979   1.433   4.178   4.810
  360SOL    HW2 1980   1.392   4.193   4.653
  361SOL     OW 1981   6.041   6.386   2.744
  361SOL    HW1 1982   6.045   6.390   2.645
  361SOL    HW2 1983   5.991   6.304   2.773
  362SOL     OW 1984   3.799   4.291   0.888
  362SOL    HW1 1985   3.752   4.379   0.887
  362SOL    HW2 1986   3.777   4.242   0.972
  363SOL     OW 1987   6.191   4.551   2.810
  363SOL    HW1 1988   6.156   4.644   2.814
  363SOL    HW2 1989   6.210   4.526   2.715
  364SOL     OW 1990   0.561   4.855   6.537
  364SOL    HW1 1991   0.625   4.926   6.567
  364SOL    HW2 1992   0.481   4.898   6.494
  365SOL     OW 1993   3.215   1.185   1.007
  365SOL    HW1 1994   3.273   1.116   0.963
  365SOL    HW2 1995   3.226   1.178   1.106
  366SOL     OW 1996   6.038   3.362   6.541
  366SOL    HW1 1997   6.051   3.303   6.620
  366SOL    HW2 1998   6.124   3.373   6.492
  367SOL     OW 1999   5.926   2.401   6.048
  367SOL    HW1 2000   5.827   2.411   6.039
  367SOL    HW2 2001   5.966   2.386   5.957
  368SOL     OW 2002   0.231   2.264   5.974
  368SOL    HW1 2003   0.151   2.320   5.955
  368SOL    HW2 2004   0.278   2.299   6.055
  369SOL     OW 2005   5.822   4.250   2.983
  369SOL    HW1 2006   5.889   4.244   3.056
  369SOL    HW2 2007   5.852   4.195   2.905
  370SOL     OW 2008   1.406   1.900   4.421
  370SOL    HW1 2009   1.405   1.870   4.517
  370SOL    HW2 2010   1.372   1.994   4.417
  371SOL     OW 2011   1.964   4.772   6.898
  371SOL    HW1 2012   1.893   4.816   6.843
  371SOL    HW2 2013   2.054   4.802   6.867
  372SOL     OW 2014   1.653   0.246   4.961
  372SOL    HW1 2015   1.733   0.188   4.975
  372SOL    HW2 2016   1.682   0.335   4.926
  373SOL     OW 2017   5.751   0.119   5.379
  373SOL    HW1 2018   5.735   0.197   5.438
  373SOL    HW2 2019   5.820   0.143   5.310
  374SOL     OW 2020   2.063   1.566   2.819
  374SOL    HW1 2021   2.066   1.658   2.781
  374SOL    HW2 2022   2.156   1.529   2.825
  375SOL     OW 2023   0.822   5.363   4.613
  375SOL    HW1 2024   0.817   5.267   4.641
  375SOL    HW2 2025   0.731   5.396   4.590
  376SOL     OW 2026   1.674   1.280   5.513
  376SOL    HW1 2027   1.739   1.355   5.495
  376SOL    HW2 2028   1.606   1.277   5.440
  377SOL     OW 2029   1.801   2.173   0.447
  377SOL    HW1 2030   1.866   2.236   0.405
  377SOL    HW2 2031   1.851   2.105   0.501
  378SOL     OW 2032   3.589   1.354   6.775
  378SOL    HW1 2033   3.489   1.346   6.777
  378SOL    HW2 2034   3.616   1.405   6.694
  379SOL     OW 2035   5.469   2.390   6.968
  379SOL    HW1 2036   5.400   2.428   6.906
  379SOL    HW2 2037   5.492   2.458   0.009
  380SOL     OW 2038   2.710   1.474   1.637
  380SOL    HW1 2039   2.774   1.410   1.593
  380SOL    HW2 2040   2.640   1.422   1.685
  381SOL     OW 2041   1.833   3.403   4.392
  381SOL    HW1 2042   1.785   3.327   4.436
  381SOL    HW2 2043   1.877   3.459   4.462
  382SOL     OW 2044   6.001   0.100   7.003
  382SOL    HW1 2045   6.015   0.184   0.027
  382SOL    HW2 2046   5.917   0.056   0.004
  383SOL     OW 2047   4.902   2.933   0.395
  383SOL    HW1 2048   4.978   2.935   0.460
  383SOL    HW2 2049   4.866   2.840   0.388
  384SOL     OW 2050   0.299   4.601   3.747
  384SOL    HW1 2051   0.294   4.514   3.698
  384SOL    HW2 2052   0.389   4.641   3.734
  385SOL     OW 2053   3.257   5.781   5.771
  385SOL    HW1 2054   3.346   5.826   5.781
  385SOL    HW2 2055   3.199   5.833   5.709
  386SOL     OW 2056   4.274   0.468   4.385
  386SOL    HW1 2057   4.353   0.504   4.435
  386SOL    HW2 2058   4.288   0.370   4.367
  387SOL     OW 2059   1.336   5.436   2.521
  387SOL    HW1 2060   1.272   5.465   2.450
  387SOL    HW2 2061   1.402   5.373   2.482
  388SOL     OW 2062   1.866   1.827   6.393
  388SOL    HW1 2063   1.841   1.852   6.487
  388SOL    HW2 2064   1.791   1.777   6.351
  389SOL     OW 2065   4.098   3.239   2.434
  389SOL    HW1 2066   4.107   3.315   2.498
  389SOL    HW2 2067   4.116   3.271   2.341
  390SOL     OW 2068   3.412   0.837   3.958
  390SOL    HW1 2069   3.373   0.838   3.866
  390SOL    HW2 2070   3.507   0.869   3.955
  391SOL     OW 2071   2.304   3.028   6.424
  391SOL    HW1 2072   2.307   3.127   6.434
  391SOL    HW2 2073   2.309   2.985   6.514
  392SOL     OW 2074   1.972   5.093   0.779
  392SOL    HW1 2075   1.916   5.031   0.724
  392SOL    HW2 2076   1.934   5.100   0.871
  393SOL     OW 2077   6.886   4.521   5.484
  393SOL    HW1 2078   6.872   4.491   5.390
  393SOL    HW2 2079   6.809   4.490   5.540
  394SOL     OW 2080   0.211   6.949   0.185
  394SOL    HW1 2081   0.181   7.008   0.110
  394SOL    HW2 2082   0.302   6.978   0.215
  395SOL     OW 2083   5.346   3.690   3.033
  395SOL    HW1 2084   5.354   3.720   2.938
  395SOL    HW2 2085   5.271   3.624   3.041
  396SOL     OW 2086   3.845   3.884   2.164
  396SOL    HW1 2087   3.943   3.864   2.157
  396SOL    HW2 2088   3.815   3.934   2.084
  397SOL     OW 2089   3.685   2.958   5.698
  397SOL    HW1 2090   3.770   3.010   5.691
  397SOL    HW2 2091   3.636   2.961   5.611
  398SOL     OW 2092   0.205   6.276   1.812
  398SOL    HW1 2093   0.211   6.323   1.724
  398SOL    HW2 2094   0.139   6.201   1.806
  399SOL     OW 2095   5.074   6.019   2.060
  399SOL    HW1 2096   5.145   6.054   2.121
  399SOL    HW2 2097   5.022   6.097   2.023
  400SOL     OW 2098   0.406   0.124   5.477
  400SOL    HW1 2099   0.396   0.026   5.464
  400SOL    HW2 2100   0.371   0.150   5.567
  401SOL     OW 2101   4.822   0.787   6.328
  401SOL    HW1 2102   4.867   0.824   6.247
  401SOL    HW2 2103   4.890   0.763   6.397
  402SOL     OW 2104   6.025   6.426   2.448
  402SOL    HW1 2105   6.084   6.485   2.392
  402SOL    HW2 2106   5.940   6.475   2.468
  403SOL     OW 2107   4.001   2.157   5.586
  403SOL    HW1 2108   3.968   2.207   5.666
  403SOL    HW2 2109   4.006   2.218   5.507
  404SOL     OW 2110   1.533   6.324   3.736
  404SOL    HW1 2111   1.588   6.405   3.715
  404SOL    HW2 2112   1.444   6.331   3.690
  405SOL     OW 2113   1.642   2.802   1.648
  405SOL    HW1 2114   1.625   2.860   1.569
  405SOL    HW2 2115   1.555   2.781   1.693
  406SOL     OW 2116   1.038   3.069   3.863
  406SOL    HW1 2117   1.020   3.067   3.961
  406SOL    HW2 2118   1.008   2.982   3.822
  407SOL     OW 2119   2.191   0.705   4.047
  407SOL    HW1 2120   2.175   0.799   4.017
  407SOL    HW2 2121   2.107   0.668   4.086
  408SOL     OW 2122   1.500   0.866   2.750
  408SOL    HW1 2123   1.561   0.788   2.762
  408SOL    HW2 2124   1.456   0.889   2.837
  409SOL     OW 2125   5.812   3.023   1.894
  409SOL    HW1 2126   5.840   3.048   1.986
  409SOL    HW2 2127   5.725   3.067   1.872
  410SOL     OW 2128   2.255   0.162   6.396
  410SOL    HW1 2129   2.157   0.175   6.406
  410SOL    HW2 2130   2.273   0.076   6.348
  411SOL     OW 2131   6.111   6.821   6.725
  411SOL    HW1 2132   6.159   6.903   6.754
  411SOL    HW2 2133   6.117   6.752   6.797
  412SOL     OW 2134   4.337   6.542   3.610
  412SOL    HW1 2135   4.282   6.625   3.613
  412SOL    HW2 2136   4.342   6.501   3.701
  413SOL     OW 2137   5.121   4.886   1.521
  413SOL    HW1 2138   5.169   4.931   1.596
  413SOL    HW2 2139   5.077   4.803   1.555
  414SOL     OW 2140   3.318   4.964   3.469
  414SOL    HW1 2141   3.306   4.951   3.371
  414SOL    HW2 2142   3.236   5.008   3.507
  415SOL     OW 2143   0.981   5.910   0.255
  415SOL    HW1 2144   0.950   5.881   0.346
  415SOL    HW2 2145   0.917   5.879   0.186
  416SOL     OW 2146   4.733   5.041   5.642
  416SOL    HW1 2147   4.764   4.948   5.666
  416SOL    HW2 2148   4.646   5.060   5.686
  417SOL     OW 2149   2.669   5.919   0.976
  417SOL    HW1 2150   2.675   6.019   0.984
  417SOL    HW2 2151   2.643   5.881   1.065
  418SOL     OW 2152   4.340   6.384   1.270
  418SOL    HW1 2153   4.357   6.313   1.338
  418SOL    HW2 2154   4.266   6.354   1.209
  419SOL     OW 2155   1.446   0.553   1.595
  419SOL    HW1 2156   1.416   0.467   1.554
  419SOL    HW2 2157   1.515   0.595   1.536
  420SOL     OW 2158   6.245   3.057   1.644
  420SOL    HW1 2159   6.266   3.102   1.557
  420SOL    HW2 2160   6.312   2.983   1.659
  421SOL     OW 2161   0.426   4.736   6.166
  421SOL    HW1 2162   0.404   4.681   6.086
  421SOL    HW2 2163   0.478   4.817   6.139
  422SOL     OW 2164   6.117   4.431   0.399
  422SOL    HW1 2165   6.176   4.389   0.468
  422SOL    HW2 2166   6.050   4.491   0.444
  423SOL     OW 2167   0.429   2.933   6.640
  423SOL    HW1 2168   0.358   2.998   6.669
  423SOL    HW2 2169   0.444   2.866   6.713
  424SOL     OW 2170   2.722   3.801   1.012
  424SOL    HW1 2171   2.783   3.822   0.936
  424SOL    HW2 2172   2.690   3.887   1.053
  425SOL     OW 2173   5.863   1.155   2.419
  425SOL    HW1 2174   5.817   1.141   2.331
  425SOL    HW2 2175   5.806   1.119   2.493
  426SOL     OW 2176   5.271   2.208   4.476
  426SOL    HW1 2177   5.363   2.185   4.506
  426SOL    HW2 2178   5.242   2.294   4.517
  427SOL     OW 2179   5.712   4.759   2.130
  427SOL    HW1 2180   5.620   4.726   2.107
  427SOL    HW2 2181   5.738   4.724   2.220
  428SOL     OW 2182   4.455   0.079   4.661
  428SOL    HW1 2183   4.523   0.013   4.629
  428SOL    HW2 2184   4.471   0.167   4.616
  429SOL     OW 2185   2.518   4.235   1.725
  429SOL    HW1 2186   2.593   4.237   1.659
  429SOL    HW2 2187   2.459   4.156   1.706
  430SOL     OW 2188   0.583   0.219   4.664
  430SOL    HW1 2189   0.561   0.266   4.579
  430SOL    HW2 2190   0.659   0.156   4.649
  431SOL     OW 2191   3.164   0.419   0.174
  431SOL    HW1 2192   3.164   0.342   0.237
  431SOL    HW2 2193   3.091   0.483   0.198
  432SOL     OW 2194   6.388   2.340   2.411
  432SOL    HW1 2195   6.318   2.337   2.483
  432SOL    HW2 2196   6.357   2.289   2.331
  433SOL     OW 2197   3.234   6.445   4.493
  433SOL    HW1 2198   3.199   6.352   4.497
  433SOL    HW2 2199   3.203   6.489   4.408
  434SOL     OW 2200   4.319   4.854   1.860
  434SOL    HW1 2201   4.330   4.946   1.897
  434SOL    HW2 2202   4.223   4.826   1.870
  435SOL     OW 2203   3.751   1.943   5.336
  435SOL    HW1 2204   3.704   1.856   5.353
  435SOL    HW2 2205   3.835   1.926   5.284
  436SOL     OW 2206   3.285   6.012   0.847
  436SOL    HW1 2207   3.301   6.101   0.891
  436SOL    HW2 2208   3.353   5.947   0.880
  437SOL     OW 2209   1.025   6.956   6.933
  437SOL    HW1 2210   1.098   7.024   6.931
  437SOL    HW2 2211   1.029   6.900   6.850
  438SOL     OW 2212   1.850   2.736   2.201
  438SOL    HW1 2213   1.830   2.680   2.281
  438SOL    HW2 2214   1.897   2.681   2.132
  439SOL     OW 2215   6.135   4.500   3.606
  439SOL    HW1 2216   6.099   4.592   3.591
  439SOL    HW2 2217   6.124   4.476   3.703
  440SOL     OW 2218   1.255   2.114   4.924
  440SOL    HW1 2219   1.188   2.134   4.853
  440SOL    HW2 2220   1.280   2.199   4.971
  441SOL     OW 2221   0.794   2.093   3.446
  441SOL    HW1 2222   0.758   2.008   3.484
  441SOL    HW2 2223   0.718   2.153   3.421
  442SOL     OW 2224   2.296   4.851   6.874
  442SOL    HW1 2225   2.256   4.936   6.840
  442SOL    HW2 2226   2.395   4.857   6.870
  443SOL     OW 2227   0.925   3.802   4.946
  443SOL    HW1 2228   0.903   3.728   4.882
  443SOL    HW2 2229   0.954   3.882   4.894
  444SOL     OW 2230   5.133   2.363   5.713
  444SOL    HW1 2231   5.100   2.340   5.622
  444SOL    HW2 2232   5.202   2.435   5.706
  445SOL     OW 2233   1.286   5.846   3.319
  445SOL    HW1 2234   1.248   5.937   3.333
  445SOL    HW2 2235   1.370   5.853   3.265
  446SOL     OW 2236   4.016   4.899   3.961
  446SOL    HW1 2237   4.031   4.802   3.979
  446SOL    HW2 2238   4.015   4.915   3.862
  447SOL     OW 2239   0.657   2.961   6.976
  447SOL    HW1 2240   0.685   2.934   0.040
  447SOL    HW2 2241   0.557   2.966   6.973
  448SOL     OW 2242   2.510   0.601   4.605
  448SOL    HW1 2243   2.507   0.587   4.704
  448SOL    HW2 2244   2.586   0.548   4.566
  449SOL     OW 2245   3.852   0.907   5.137
  449SOL    HW1 2246   3.838   1.004   5.121
  449SOL    HW2 2247   3.949   0.888   5.149
  450SOL     OW 2248   1.444   5.991   3.620
  450SOL    HW1 2249   1.454   6.011   3.718
  450SOL    HW2 2250   1.397   5.903   3.608
  451SOL     OW 2251   1.782   2.242   3.394
  451SOL    HW1 2252   1.823   2.234   3.303
  451SOL    HW2 2253   1.852   2.271   3.459
  452SOL     OW 2254   6.593   5.935   1.441
  452SOL    HW1 2255   6.690   5.946   1.422
  452SOL    HW2 2256   6.580   5.872   1.518
  453SOL     OW 2257   2.994   0.476   4.517
  453SOL    HW1 2258   3.089   0.498   4.496
  453SOL    HW2 2259   2.934   0.523   4.452
  454SOL     OW 2260   0.298   5.308   6.097
  454SOL    HW1 2261   0.338   5.395   6.127
  454SOL    HW2 2262   0.351   5.273   6.020
  455SOL     OW 2263   6.917   1.765   3.466
  455SOL    HW1 2264   6.961   1.838   3.519
  455SOL    HW2 2265   6.954   1.677   3.495
  456SOL     OW 2266   5.123   5.455   4.483
  456SOL    HW1 2267   5.192   5.500   4.425
  456SOL    HW2 2268   5.133   5.486   4.577
  457SOL     OW 2269   1.605   3.515   3.462
  457SOL    HW1 2270   1.626   3.525   3.365
  457SOL    HW2 2271   1.527   3.454   3.473
  458SOL     OW 2272   4.760   6.024   3.924
  458SOL    HW1 2273   4.803   5.955   3.866
  458SOL    HW2 2274   4.829   6.090   3.953
  459SOL     OW 2275   2.013   6.491   4.085
  459SOL    HW1 2276   2.022   6.391   4.079
  459SOL    HW2 2277   1.962   6.514   4.167
  460SOL     OW 2278   1.651   0.179   3.410
  460SOL    HW1 2279   1.666   0.238   3.331
  460SOL    HW2 2280   1.680   0.086   3.389
  461SOL     OW 2281   6.012   0.091   5.142
  461SOL    HW1 2282   6.014   0.116   5.045
  461SOL    HW2 2283   6.100   0.113   5.185
  462SOL     OW 2284   4.083   3.073   6.109
  462SOL    HW1 2285   4.130   3.029   6.032
  462SOL    HW2 2286   4.094   3.017   6.191
  463SOL     OW 2287   6.669   5.580   3.558
  463SOL    HW1 2288   6.681   5.620   3.649
  463SOL    HW2 2289   6.574   5.551   3.548
  464SOL     OW 2290   2.565   2.527   6.617
  464SOL    HW1 2291   2.609   2.487   6.537
  464SOL    HW2 2292   2.475   2.562   6.591
  465SOL     OW 2293   1.161   2.841   4.179
  465SOL    HW1 2294   1.110   2.780   4.118
  465SOL    HW2 2295   1.212   2.787   4.246
  466SOL     OW 2296   1.407   4.858   3.210
  466SOL    HW1 2297   1.376   4.873   3.303
  466SOL    HW2 2298   1.330   4.868   3.146
  467SOL     OW 2299   1.062   0.962   7.027
  467SOL    HW1 2300   0.999   1.039   7.024
  467SOL    HW2 2301   1.145   0.985   6.976
  468SOL     OW 2302   3.806   6.302   6.716
  468SOL    HW1 2303   3.743   6.379   6.710
  468SOL    HW2 2304   3.873   6.318   6.788
  469SOL     OW 2305   3.063   4.637   0.740
  469SOL    HW1 2306   2.966   4.618   0.756
  469SOL    HW2 2307   3.110   4.645   0.828
  470SOL     OW 2308   3.941   0.674   2.660
  470SOL    HW1 2309   3.968   0.699   2.568
  470SOL    HW2 2310   3.945   0.574   2.670
  471SOL     OW 2311   1.875   2.411   4.268
  471SOL    HW1 2312   1.880   2.343   4.341
  471SOL    HW2 2313   1.920   2.375   4.186
  472SOL     OW 2314   5.271   4.185   6.566
  472SOL    HW1 2315   5.240   4.203   6.660
  472SOL    HW2 2316   5.219   4.108   6.528
  473SOL     OW 2317   0.884   3.030   2.270
  473SOL    HW1 2318   0.890   3.125   2.300
  473SOL    HW2 2319   0.875   2.970   2.349
  474SOL     OW 2320   4.913   4.714   3.499
  474SOL    HW1 2321   4.856   4.648   3.547
  474SOL    HW2 2322   4.856   4.775   3.444
  475SOL     OW 2323   5.381   1.009   5.876
  475SOL    HW1 2324   5.471   1.029   5.837
  475SOL    HW2 2325   5.352   0.918   5.850
  476SOL     OW 2326   6.909   4.369   2.582
  476SOL    HW1 2327   7.002   4.377   2.545
  476SOL    HW2 2328   6.864   4.290   2.542
  477SOL     OW 2329   1.659   4.248   5.220
  477SOL    HW1 2330   1.663   4.150   5.236
  477SOL    HW2 2331   1.749   4.281   5.190
  478SOL     OW 2332   3.484   6.816   2.236
  478SOL    HW1 2333   3.518   6.816   2.330
  478SOL    HW2 2334   3.500   6.906   2.195
  479SOL     OW 2335   4.424   2.261   0.022
  479SOL    HW1 2336   4.370   2.269   0.106
  479SOL    HW2 2337   4.418   2.347   6.998
  480SOL     OW 2338   2.343   1.593   0.018
  480SOL    HW1 2339   2.290   1.607   0.101
  480SOL    HW2 2340   2.385   1.680   7.019
  481SOL     OW 2341   1.499   0.550   0.304
  481SOL    HW1 2342   1.551   0.630   0.275
  481SOL    HW2 2343   1.505   0.480   0.233
  482SOL     OW 2344   4.745   4.443   3.050
  482SOL    HW1 2345   4.695   4.405   2.972
  482SOL    HW2 2346   4.681   4.492   3.109
  483SOL     OW 2347   6.927   1.730   1.825
  483SOL    HW1 2348   6.865   1.673   1.879
  483SOL    HW2 2349   6.892   1.738   1.732
  484SOL     OW 2350   1.183   3.146   5.032
  484SOL    HW1 2351   1.177   3.057   4.988
  484SOL    HW2 2352   1.270   3.154   5.081
  485SOL     OW 2353   4.006   5.426   2.617
  485SOL    HW1 2354   4.059   5.347   2.647
  485SOL    HW2 2355   4.038   5.507   2.666
  486SOL     OW 2356   6.711   1.943   0.912
  486SOL    HW1 2357   6.742   2.026   0.866
  486SOL    HW2 2358   6.662   1.968   0.996
  487SOL     OW 2359   1.340   1.998   0.948
  487SOL    HW1 2360   1.423   1.942   0.950
  487SOL    HW2 2361   1.271   1.959   1.009
  488SOL     OW 2362   0.513   1.646   1.395
  488SOL    HW1 2363   0.433   1.699   1.424
  488SOL    HW2 2364   0.569   1.624   1.474
  489SOL     OW 2365   3.472   6.224   6.095
  489SOL    HW1 2366   3.383   6.240   6.136
  489SOL    HW2 2367   3.507   6.135   6.124
  490SOL     OW 2368   6.967   6.115   3.488
  490SOL    HW1 2369   0.030   6.074   3.476
  490SOL    HW2 2370   6.957   6.192   3.425
  491SOL     OW 2371   0.639   3.076   2.164
  491SOL    HW1 2372   0.732   3.039   2.162
  491SOL    HW2 2373   0.574   3.003   2.184
  492SOL     OW 2374   2.480   0.063   5.073
  492SOL    HW1 2375   2.433   0.116   5.143
  492SOL    HW2 2376   2.417   7.026   5.032
  493SOL     OW 2377   5.298   6.766   5.698
  493SOL    HW1 2378   5.394   6.746   5.679
  493SOL    HW2 2379   5.264   6.708   5.772
  494SOL     OW 2380   6.719   0.661   6.540
  494SOL    HW1 2381   6.676   0.663   6.631
  494SOL    HW2 2382   6.813   0.628   6.549
  495SOL     OW 2383   4.747   5.805   3.392
  495SOL    HW1 2384   4.766   5.725   3.449
  495SOL    HW2 2385   4.695   5.777   3.311
  496SOL     OW 2386   5.496   3.545   2.271
  496SOL    HW1 2387   5.423   3.531   2.203
  496SOL    HW2 2388   5.458   3.533   2.363
  497SOL     OW 2389   3.640   1.032   4.901
  497SOL    HW1 2390   3.726   1.001   4.942
  497SOL    HW2 2391   3.577   0.956   4.893
  498SOL     OW 2392   2.117   4.331   1.491
  498SOL    HW1 2393   2.025   4.319   1.527
  498SOL    HW2 2394   2.180   4.351   1.565
  499SOL     OW 2395   2.576   0.251   3.817
  499SOL    HW1 2396   2.530   0.176   3.863
  499SOL    HW2 2397   2.641   0.294   3.880
  500SOL     OW 2398   0.570   3.563   3.463
  500SOL    HW1 2399   0.652   3.529   3.510
  500SOL    HW2 2400   0.548   3.502   3.387
  501SOL     OW 2401   2.899   6.195   0.287
  501SOL    HW1 2402   2.939   6.189   0.196
  501SOL    HW2 2403   2.834   6.271   0.290
  502SOL     OW 2404   6.922   4.271   6.809
  502SOL    HW1 2405   6.949   4.230   6.897
  502SOL    HW2 2406   6.823   4.264   6.798
  503SOL     OW 2407   5.733   5.766   5.694
  503SOL    HW1 2408   5.807   5.797   5.753
  503SOL    HW2 2409   5.660   5.835   5.694
  504SOL     OW 2410   1.796   5.436   3.204
  504SOL    HW1 2411   1.794   5.477   3.113
  504SOL    HW2 2412   1.879   5.466   3.252
  505SOL     OW 2413   3.180   6.076   4.719
  505SOL    HW1 2414   3.116   6.126   4.778
  505SOL    HW2 2415   3.259   6.133   4.700
  506SOL     OW 2416   2.139   5.676   4.912
  506SOL    HW1 2417   2.078   5.614   4.864
  506SOL    HW2 2418   2.089   5.723   4.985
  507SOL     OW 2419   3.802   0.604   3.451
  507SOL    HW1 2420   3.807   0.704   3.445
  507SOL    HW2 2421   3.886   0.564   3.416
  508SOL     OW 2422   6.728   3.805   2.371
  508SOL    HW1 2423   6.642   3.808   2.320
  508SOL    HW2 2424   6.790   3.738   2.329
  509SOL     OW 2425   3.349   1.249   1.827
  509SOL    HW1 2426   3.271   1.231   1.887
  509SOL    HW2 2427   3.421   1.183   1.845
  510SOL     OW 2428   6.342   5.005   6.617
  510SOL    HW1 2429   6.426   4.951   6.609
  510SOL    HW2 2430   6.347   5.061   6.700
  511SOL     OW 2431   0.282   1.275   6.008
  511SOL    HW1 2432   0.269   1.243   5.914
  511SOL    HW2 2433   0.197   1.262   6.059
  512SOL     OW 2434   0.037   2.632   0.009
  512SOL    HW1 2435   6.997   2.616   6.965
  512SOL    HW2 2436   7.020   2.635   0.098
  513SOL     OW 2437   5.950   5.894   3.140
  513SOL    HW1 2438   5.889   5.881   3.062
  513SOL    HW2 2439   6.022   5.825   3.137
  514SOL     OW 2440   6.866   2.541   4.108
  514SOL    HW1 2441   6.796   2.600   4.067
  514SOL    HW2 2442   6.862   2.549   4.208
  515SOL     OW 2443   2.313   0.791   6.530
  515SOL    HW1 2444   2.263   0.796   6.616
  515SOL    HW2 2445   2.269   0.723   6.470
  516SOL     OW 2446   2.816   4.544   1.609
  516SOL    HW1 2447   2.777   4.635   1.594
  516SOL    HW2 2448   2.864   4.542   1.697
  517SOL     OW 2449   5.002   5.606   1.934
  517SOL    HW1 2450   5.043   5.571   1.850
  517SOL    HW2 2451   5.074   5.642   1.994
  518SOL     OW 2452   2.324   2.468   2.460
  518SOL    HW1 2453   2.369   2.497   2.545
  518SOL    HW2 2454   2.389   2.418   2.404
  519SOL     OW 2455   1.048   1.039   4.389
  519SOL    HW1 2456   1.076   1.129   4.423
  519SOL    HW2 2457   1.005   0.987   4.462
  520SOL     OW 2458   6.441   4.392   0.023
  520SOL    HW1 2459   6.493   4.463   7.004
  520SOL    HW2 2460   6.421   4.422   0.116
  521SOL     OW 2461   6.979   3.796   6.378
  521SOL    HW1 2462   7.025   3.708   6.384
  521SOL    HW2 2463   6.917   3.796   6.300
  522SOL     OW 2464   3.295   3.970   5.835
  522SOL    HW1 2465   3.262   3.896   5.894
  522SOL    HW2 2466   3.219   4.031   5.813
  523SOL     OW 2467   0.626   4.920   1.609
  523SOL    HW1 2468   0.606   4.857   1.535
  523SOL    HW2 2469   0.568   5.001   1.600
  524SOL     OW 2470   1.142   1.440   0.224
  524SOL    HW1 2471   1.191   1.376   0.283
  524SOL    HW2 2472   1.052   1.458   0.262
  525SOL     OW 2473   2.475   3.579   6.780
  525SOL    HW1 2474   2.505   3.675   6.779
  525SOL    HW2 2475   2.501   3.536   6.694
  526SOL     OW 2476   4.176   7.002   4.012
  526SOL    HW1 2477   4.219   6.960   3.932
  526SOL    HW2 2478   4.092   6.952   4.034
  527SOL     OW 2479   6.610   3.241   6.744
  527SOL    HW1 2480   6.587   3.335   6.720
  527SOL    HW2 2481   6.650   3.239   6.836
  528SOL     OW 2482   1.337   1.415   3.783
  528SOL    HW1 2483   1.288   1.332   3.756
  528SOL    HW2 2484   1.425   1.418   3.736
  529SOL     OW 2485   1.233   6.289   4.346
  529SOL    HW1 2486   1.250   6.354   4.272
  529SOL    HW2 2487   1.143   6.246   4.333
  530SOL     OW 2488   2.949   3.304   5.548
  530SOL    HW1 2489   2.908   3.284   5.459
  530SOL    HW2 2490   3.039   3.344   5.535
  531SOL     OW 2491   0.149   0.396   2.452
  531SOL    HW1 2492   0.068   0.403   2.510
  531SOL    HW2 2493   0.139   0.457   2.374
  532SOL     OW 2494   1.668   1.848   6.841
  532SOL    HW1 2495   1.684   1.749   6.844
  532SOL    HW2 2496   1.669   1.885   6.934
  533SOL     OW 2497   4.036   6.544   3.747
  533SOL    HW1 2498   4.112   6.609   3.740
  533SOL    HW2 2499   4.065   6.466   3.804
  534SOL     OW 2500   5.440   5.470   3.401
  534SOL    HW1 2501   5.354   5.418   3.410
  534SOL    HW2 2502   5.517   5.412   3.429
  535SOL     OW 2503   0.630   3.703   4.551
  535SOL    HW1 2504   0.617   3.739   4.643
  535SOL    HW2 2505   0.574   3.754   4.486
  536SOL     OW 2506   0.265   5.177   2.061
  536SOL    HW1 2507   0.355   5.158   2.022
  536SOL    HW2 2508   0.229   5.094   2.104
  537SOL     OW 2509   2.194   6.474   3.455
  537SOL    HW1 2510   2.152   6.387   3.428
  537SOL    HW2 2511   2.147   6.510   3.535
  538SOL     OW 2512   1.624   4.190   3.346
  538SOL    HW1 2513   1.637   4.232   3.256
  538SOL    HW2 2514   1.539   4.137   3.345
  539SOL     OW 2515   0.892   6.262   0.354
  539SOL    HW1 2516   0.920   6.341   0.409
  539SOL    HW2 2517   0.954   6.252   0.276
  540SOL     OW 2518   0.131   1.095   2.098
  540SOL    HW1 2519   0.097   1.110   2.190
  540SOL    HW2 2520   0.143   1.182   2.051
  541SOL     OW 2521   3.122   6.208   3.727
  541SOL    HW1 2522   3.107   6.204   3.825
  541SOL    HW2 2523   3.182   6.133   3.700
  542SOL     OW 2524   6.506   6.913   0.163
  542SOL    HW1 2525   6.490   6.814   0.156
  542SOL    HW2 2526   6.431   6.955   0.212
  543SOL     OW 2527   1.324   5.271   5.506
  543SOL    HW1 2528   1.408   5.219   5.524
  543SOL    HW2 2529   1.348   5.360   5.469
  544SOL     OW 2530   2.006   4.535   1.324
  544SOL    HW1 2531   2.070   4.601   1.284
  544SOL    HW2 2532   2.057   4.468   1.378
  545SOL     OW 2533   3.396   0.592   3.145
  545SOL    HW1 2534   3.397   0.691   3.132
  545SOL    HW2 2535   3.462   0.566   3.215
  546SOL     OW 2536   1.839   3.217   0.223
  546SOL    HW1 2537   1.866   3.136   0.171
  546SOL    HW2 2538   1.820   3.190   0.318
  547SOL     OW 2539   3.049   1.563   6.665
  547SOL    HW1 2540   3.045   1.661   6.683
  547SOL    HW2 2541   3.075   1.547   6.570
  548SOL     OW 2542   3.946   3.000   2.391
  548SOL    HW1 2543   3.998   3.080   2.420
  548SOL    HW2 2544   3.975   2.920   2.444
  549SOL     OW 2545   4.669   3.362   1.063
  549SOL    HW1 2546   4.680   3.265   1.085
  549SOL    HW2 2547   4.737   3.388   0.994
  550SOL     OW 2548   6.536   4.557   3.447
  550SOL    HW1 2549   6.626   4.532   3.484
  550SOL    HW2 2550   6.549   4.608   3.362
  551SOL     OW 2551   0.695   0.669   1.229
  551SOL    HW1 2552   0.753   0.672   1.311
  551SOL    HW2 2553   0.751   0.649   1.149
  552SOL     OW 2554   4.520   5.309   0.682
  552SOL    HW1 2555   4.439   5.251   0.671
  552SOL    HW2 2556   4.598   5.252   0.704
  553SOL     OW 2557   2.674   6.789   1.672
  553SOL    HW1 2558   2.768   6.763   1.691
  553SOL    HW2 2559   2.670   6.887   1.649
  554SOL     OW 2560   5.559   6.497   5.645
  554SOL    HW1 2561   5.479   6.464   5.695
  554SOL    HW2 2562   5.565   6.596   5.654
  555SOL     OW 2563   1.956   5.093   3.636
  555SOL    HW1 2564   1.915   5.184   3.637
  555SOL    HW2 2565   2.020   5.084   3.713
  556SOL     OW 2566   5.766   2.146   3.944
  556SOL    HW1 2567   5.857   2.158   3.984
  556SOL    HW2 2568   5.758   2.201   3.861
  557SOL     OW 2569   0.361   4.880   0.579
  557SOL    HW1 2570   0.359   4.974   0.546
  557SOL    HW2 2571   0.455   4.846   0.578
  558SOL     OW 2572   3.367   4.010   4.941
  558SOL    HW1 2573   3.353   4.053   5.030
  558SOL    HW2 2574   3.420   4.070   4.882
  559SOL     OW 2575   6.341   6.332   6.685
  559SOL    HW1 2576   6.432   6.303   6.654
  559SOL    HW2 2577   6.273   6.305   6.616
  560SOL     OW 2578   3.691   5.948   0.273
  560SOL    HW1 2579   3.770   5.897   0.307
  560SOL    HW2 2580   3.611   5.927   0.329
  561SOL     OW 2581   6.188   1.176   6.885
  561SOL    HW1 2582   6.246   1.257   6.889
  561SOL    HW2 2583   6.243   1.095   6.903
  562SOL     OW 2584   4.573   0.565   5.837
  562SOL    HW1 2585   4.481   0.604   5.849
  562SOL    HW2 2586   4.638   0.616   5.894
  563SOL     OW 2587   2.197   0.268   3.294
  563SOL    HW1 2588   2.243   0.281   3.206
  563SOL    HW2 2589   2.154   0.178   3.295
  564SOL     OW 2590   2.660   1.813   6.523
  564SOL    HW1 2591   2.563   1.805   6.502
  564SOL    HW2 2592   2.674   1.801   6.622
  565SOL     OW 2593   4.230   3.425   5.789
  565SOL    HW1 2594   4.292   3.426   5.867
  565SOL    HW2 2595   4.273   3.474   5.712
  566SOL     OW 2596   5.870   3.824   3.775
  566SOL    HW1 2597   5.864   3.910   3.725
  566SOL    HW2 2598   5.853   3.840   3.872
  567SOL     OW 2599   3.167   4.068   3.431
  567SOL    HW1 2600   3.219   4.126   3.369
  567SOL    HW2 2601   3.202   4.079   3.524
  568SOL     OW 2602   3.269   2.700   0.509
  568SOL    HW1 2603   3.171   2.712   0.491
  568SOL    HW2 2604   3.314   2.666   0.426
  569SOL     OW 2605   2.010   3.432   0.152
  569SOL    HW1 2606   1.933   3.375   0.182
  569SOL    HW2 2607   1.987   3.528   0.165
  570SOL     OW 2608   2.026   6.487   5.918
  570SOL    HW1 2609   2.035   6.574   5.870
  570SOL    HW2 2610   2.110   6.467   5.967
  571SOL     OW 2611   3.897   0.391   2.747
  571SOL    HW1 2612   3.962   0.320   2.775
  571SOL    HW2 2613   3.857   0.433   2.828
  572SOL     OW 2614   2.616   4.947   5.661
  572SOL    HW1 2615   2.530   4.985   5.626
  572SOL    HW2 2616   2.690   4.969   5.599
  573SOL     OW 2617   4.109   1.477   5.224
  573SOL    HW1 2618   4.153   1.567   5.227
  573SOL    HW2 2619   4.029   1.477   5.284
  574SOL     OW 2620   2.093   2.521   3.518
  574SOL    HW1 2621   2.064   2.434   3.558
  574SOL    HW2 2622   2.024   2.590   3.534
  575SOL     OW 2623   6.401   3.715   6.128
  575SOL    HW1 2624   6.422   3.634   6.073
  575SOL    HW2 2625   6.479   3.777   6.128
  576SOL     OW 2626   1.566   2.059   2.269
  576SOL    HW1 2627   1.499   2.046   2.342
  576SOL    HW2 2628   1.653   2.089   2.308
  577SOL     OW 2629   1.785   0.734   3.109
  577SOL    HW1 2630   1.693   0.764   3.132
  577SOL    HW2 2631   1.841   0.732   3.192
  578SOL     OW 2632   6.515   3.679   3.636
  578SOL    HW1 2633   6.435   3.716   3.588
  578SOL    HW2 2634   6.598   3.710   3.591
  579SOL     OW 2635   3.278   2.096   1.100
  579SOL    HW1 2636   3.232   2.184   1.086
  579SOL    HW2 2637   3.292   2.052   1.011
  580SOL     OW 2638   0.378   4.701   6.738
  580SOL    HW1 2639   0.298   4.687   6.796
  580SOL    HW2 2640   0.357   4.670   6.645
  581SOL     OW 2641   3.478   3.493   3.142
  581SOL    HW1 2642   3.383   3.516   3.165
  581SOL    HW2 2643   3.511   3.559   3.074
  582SOL     OW 2644   5.431   5.027   2.864
  582SOL    HW1 2645   5.510   5.055   2.917
  582SOL    HW2 2646   5.385   4.951   2.910
  583SOL     OW 2647   2.407   5.144   6.966
  583SOL    HW1 2648   2.385   5.236   6.998
  583SOL    HW2 2649   2.465   5.099   0.006
  584SOL     OW 2650   1.187   5.499   5.173
  584SOL    HW1 2651   1.259   5.478   5.239
  584SOL    HW2 2652   1.229   5.519   5.085
  585SOL     OW 2653   6.659   2.893   6.176
  585SOL    HW1 2654   6.707   2.974   6.211
  585SOL    HW2 2655   6.579   2.922   6.123
  586SOL     OW 2656   3.221   0.375   6.857
  586SOL    HW1 2657   3.238   0.295   6.914
  586SOL    HW2 2658   3.224   0.348   6.760
  587SOL     OW 2659   2.674   2.194   5.205
  587SOL    HW1 2660   2.767   2.231   5.208
  587SOL    HW2 2661   2.663   2.125   5.276
  588SOL     OW 2662   2.681   5.605   0.805
  588SOL    HW1 2663   2.771   5.575   0.837
  588SOL    HW2 2664   2.687   5.631   0.709
  589SOL     OW 2665   3.711   5.264   1.768
  589SOL    HW1 2666   3.782   5.211   1.721
  589SOL    HW2 2667   3.738   5.279   1.863
  590SOL     OW 2668   5.876   3.095   1.510
  590SOL    HW1 2669   5.822   3.108   1.594
  590SOL    HW2 2670   5.825   3.038   1.446
  591SOL     OW 2671   4.332   6.464   3.853
  591SOL    HW1 2672   4.428   6.459   3.879
  591SOL    HW2 2673   4.283   6.522   3.917
  592SOL     OW 2674   4.281   6.950   1.181
  592SOL    HW1 2675   4.276   7.003   1.266
  592SOL    HW2 2676   4.373   6.957   1.142
  593SOL     OW 2677   4.274   2.165   3.746
  593SOL    HW1 2678   4.234   2.074   3.735
  593SOL    HW2 2679   4.357   2.158   3.801
  594SOL     OW 2680   4.636   2.613   6.477
  594SOL    HW1 2681   4.696   2.544   6.436
  594SOL    HW2 2682   4.648   2.700   6.430
  595SOL     OW 2683   4.636   6.386   3.467
  595SOL    HW1 2684   4.541   6.414   3.462
  595SOL    HW2 2685   4.643   6.299   3.517
  596SOL     OW 2686   0.870   3.262   1.556
  596SOL    HW1 2687   0.798   3.316   1.599
  596SOL    HW2 2688   0.883   3.293   1.461
  597SOL     OW 2689   4.563   0.483   5.491
  597SOL    HW1 2690   4.591   0.423   5.416
  597SOL    HW2 2691   4.638   0.545   5.514
  598SOL     OW 2692   3.694   3.888   6.959
  598SOL    HW1 2693   3.725   3.982   6.945
  598SOL    HW2 2694   3.729   3.854   0.017
  599SOL     OW 2695   1.004   7.016   2.813
  599SOL    HW1 2696   1.060   0.069   2.794
  599SOL    HW2 2697   0.988   7.009   2.911
  600SOL     OW 2698   1.447   0.428   1.163
  600SOL    HW1 2699   1.386   0.476   1.227
  600SOL    HW2 2700   1.422   0.332   1.159
  601SOL     OW 2701   3.052   5.769   3.975
  601SOL    HW1 2702   3.149   5.791   3.978
  601SOL    HW2 2703   3.000   5.849   3.944
  602SOL     OW 2704   1.314   2.076   6.957
  602SOL    HW1 2705   1.298   2.173   6.941
  602SOL    HW2 2706   1.271   2.022   6.885
  603SOL     OW 2707   4.339   2.030   4.271
  603SOL    HW1 2708   4.278   1.952   4.259
  603SOL    HW2 2709   4.286   2.115   4.278
  604SOL     OW 2710   0.298   3.732   1.522
  604SOL    HW1 2711   0.286   3.646   1.472
  604SOL    HW2 2712   0.396   3.754   1.526
  605SOL     OW 2713   6.626   5.557   2.798
  605SOL    HW1 2714   6.702   5.599   2.846
  605SOL    HW2 2715   6.648   5.548   2.700
  606SOL     OW 2716   5.319   0.260   5.558
  606SOL    HW1 2717   5.281   0.332   5.499
  606SOL    HW2 2718   5.245   0.215   5.608
  607SOL     OW 2719   5.263   0.502   4.958
  607SOL    HW1 2720   5.266   0.597   4.989
  607SOL    HW2 2721   5.228   0.444   5.031
  608SOL     OW 2722   3.643   6.798   0.241
  608SOL    HW1 2723   3.562   6.805   0.183
  608SOL    HW2 2724   3.629   6.729   0.311
  609SOL     OW 2725   3.533   3.300   4.535
  609SOL    HW1 2726   3.545   3.255   4.623
  609SOL    HW2 2727   3.461   3.253   4.483
  610SOL     OW 2728   5.795   2.328   3.430
  610SOL    HW1 2729   5.810   2.277   3.346
  610SOL    HW2 2730   5.704   2.306   3.467
  611SOL     OW 2731   1.063   0.348   6.793
  611SOL    HW1 2732   0.964   0.342   6.784
  611SOL    HW2 2733   1.106   0.276   6.740
  612SOL     OW 2734   3.218   5.722   6.038
  612SOL    HW1 2735   3.241   5.721   5.940
  612SOL    HW2 2736   3.119   5.712   6.048
  613SOL     OW 2737   5.079   0.165   5.644
  613SOL    HW1 2738   5.044   0.151   5.552
  613SOL    HW2 2739   5.012   0.216   5.698
  614SOL     OW 2740   6.268   4.566   0.749
  614SOL    HW1 2741   6.239   4.474   0.778
  614SOL    HW2 2742   6.240   4.633   0.817
  615SOL     OW 2743   0.886   1.445   0.327
  615SOL    HW1 2744   0.842   1.355   0.321
  615SOL    HW2 2745   0.847   1.496   0.403
  616SOL     OW 2746   5.971   1.760   3.765
  616SOL    HW1 2747   5.896   1.805   3.814
  616SOL    HW2 2748   5.950   1.759   3.667
  617SOL     OW 2749   0.318   3.721   6.816
  617SOL    HW1 2750   0.380   3.796   6.793
  617SOL    HW2 2751   0.307   3.662   6.736
  618SOL     OW 2752   6.125   3.868   0.862
  618SOL    HW1 2753   6.057   3.820   0.918
  618SOL    HW2 2754   6.119   3.835   0.768
  619SOL     OW 2755   4.122   0.030   6.684
  619SOL    HW1 2756   4.094   6.996   6.611
  619SOL    HW2 2757   4.040   0.065   6.730
  620SOL     OW 2758   5.849   2.621   0.978
  620SOL    HW1 2759   5.792   2.632   0.896
  620SOL    HW2 2760   5.790   2.601   1.056
  621SOL     OW 2761   2.259   0.240   5.251
  621SOL    HW1 2762   2.358   0.256   5.261
  621SOL    HW2 2763   2.224   0.299   5.178
  622SOL     OW 2764   0.695   2.259   5.186
  622SOL    HW1 2765   0.704   2.219   5.277
  622SOL    HW2 2766   0.696   2.359   5.193
  623SOL     OW 2767   7.017   0.460   4.985
  623SOL    HW1 2768   0.079   0.501   4.970
  623SOL    HW2 2769   6.963   0.469   4.901
  624SOL     OW 2770   6.294   1.420   6.919
  624SOL    HW1 2771   6.251   1.508   6.899
  624SOL    HW2 2772   6.389   1.436   6.948
  625SOL     OW 2773   1.338   1.636   0.213
  625SOL    HW1 2774   1.272   1.562   0.196
  625SOL    HW2 2775   1.331   1.666   0.308
  626SOL     OW 2776   0.757   5.424   2.857
  626SOL    HW1 2777   0.816   5.400   2.934
  626SOL    HW2 2778   0.804   5.490   2.798
  627SOL     OW 2779   6.566   6.308   0.265
  627SOL    HW1 2780   6.606   6.383   0.318
  627SOL    HW2 2781   6.548   6.230   0.325
  628SOL     OW 2782   5.834   3.848   4.823
  628SOL    HW1 2783   5.816   3.933   4.773
  628SOL    HW2 2784   5.932   3.841   4.842
  629SOL     OW 2785   0.135   1.041   0.226
  629SOL    HW1 2786   0.132   1.036   0.325
  629SOL    HW2 2787   0.053   1.085   0.192
  630SOL     OW 2788   6.863   1.705   0.230
  630SOL    HW1 2789   6.863   1.793   0.277
  630SOL    HW2 2790   6.813   1.714   0.144
  631SOL     OW 2791   3.767   1.800   4.197
  631SOL    HW1 2792   3.827   1.853   4.257
  631SOL    HW2 2793   3.748   1.712   4.240
  632SOL     OW 2794   4.204   2.825   0.897
  632SOL    HW1 2795   4.251   2.874   0.970
  632SOL    HW2 2796   4.111   2.801   0.927
  633SOL     OW 2797   2.782   4.406   0.111
  633SOL    HW1 2798   2.720   4.389   0.187
  633SOL    HW2 2799   2.863   4.455   0.144
  634SOL     OW 2800   4.021   3.681   3.506
  634SOL    HW1 2801   4.045   3.667   3.602
  634SOL    HW2 2802   4.010   3.779   3.490
  635SOL     OW 2803   5.057   7.019   6.839
  635SOL    HW1 2804   5.052   6.967   6.924
  635SOL    HW2 2805   4.993   0.068   6.844
  636SOL     OW 2806   3.293   0.242   5.926
  636SOL    HW1 2807   3.207   0.195   5.903
  636SOL    HW2 2808   3.370   0.185   5.898
  637SOL     OW 2809   5.837   1.888   2.464
  637SOL    HW1 2810   5.867   1.969   2.413
  637SOL    HW2 2811   5.911   1.858   2.524
  638SOL     OW 2812   5.609   3.677   4.072
  638SOL    HW1 2813   5.513   3.706   4.065
  638SOL    HW2 2814   5.668   3.757   4.056
  639SOL     OW 2815   5.507   4.220   3.943
  639SOL    HW1 2816   5.411   4.195   3.934
  639SOL    HW2 2817   5.520   4.272   4.027
  640SOL     OW 2818   6.999   4.304   3.469
  640SOL    HW1 2819   6.953   4.280   3.555
  640SOL    HW2 2820   0.012   4.395   3.477
  641SOL     OW 2821   1.024   4.478   5.033
  641SOL    HW1 2822   1.067   4.474   4.943
  641SOL    HW2 2823   1.089   4.517   5.099
  642SOL     OW 2824   1.352   2.744   4.340
  642SOL    HW1 2825   1.377   2.822   4.398
  642SOL    HW2 2826   1.423   2.674   4.347
  643SOL     OW 2827   5.876   0.343   6.720
  643SOL    HW1 2828   5.912   0.368   6.630
  643SOL    HW2 2829   5.851   0.246   6.719
  644SOL     OW 2830   1.406   0.400   4.645
  644SOL    HW1 2831   1.329   0.360   4.695
  644SOL    HW2 2832   1.374   0.474   4.587
  645SOL     OW 2833   3.262   5.351   3.984
  645SOL    HW1 2834   3.274   5.326   3.888
  645SOL    HW2 2835   3.185   5.301   4.022
  646SOL     OW 2836   3.396   0.809   4.530
  646SOL    HW1 2837   3.338   0.734   4.497
  646SOL    HW2 2838   3.350   0.857   4.604
  647SOL     OW 2839   5.661   1.603   5.020
  647SOL    HW1 2840   5.619   1.582   4.932
  647SOL    HW2 2841   5.632   1.694   5.050
  648SOL     OW 2842   6.846   3.270   3.288
  648SOL    HW1 2843   6.778   3.302   3.222
  648SOL    HW2 2844   6.859   3.172   3.277
  649SOL     OW 2845   1.919   4.284   0.798
  649SOL    HW1 2846   1.960   4.195   0.779
  649SOL    HW2 2847   1.970   4.329   0.872
  650SOL     OW 2848   7.010   5.248   0.645
  650SOL    HW1 2849   7.015   5.159   0.690
  650SOL    HW2 2850   6.982   5.236   0.549
  651SOL     OW 2851   1.682   0.140   5.857
  651SOL    HW1 2852   1.680   0.078   5.779
  651SOL    HW2 2853   1.599   0.196   5.857
  652SOL     OW 2854   4.385   6.922   2.208
  652SOL    HW1 2855   4.409   6.999   2.266
  652SOL    HW2 2856   4.396   6.947   2.112
  653SOL     OW 2857   0.515   6.383   0.583
  653SOL    HW1 2858   0.457   6.460   0.557
  653SOL    HW2 2859   0.490   6.303   0.530
  654SOL     OW 2860   6.609   6.539   5.894
  654SOL    HW1 2861   6.599   6.541   5.994
  654SOL    HW2 2862   6.532   6.586   5.851
  655SOL     OW 2863   6.883   5.334   1.696
  655SOL    HW1 2864   6.955   5.304   1.759
  655SOL    HW2 2865   6.849   5.255   1.645
  656SOL     OW 2866   2.530   6.670   0.327
  656SOL    HW1 2867   2.581   6.672   0.413
  656SOL    HW2 2868   2.586   6.627   0.256
  657SOL     OW 2869   3.371   3.623   0.588
  657SOL    HW1 2870   3.346   3.674   0.506
  657SOL    HW2 2871   3.384   3.526   0.564
  658SOL     OW 2872   1.634   4.262   5.879
  658SOL    HW1 2873   1.548   4.215   5.861
  658SOL    HW2 2874   1.669   4.234   5.968
  659SOL     OW 2875   2.746   5.583   4.222
  659SOL    HW1 2876   2.790   5.504   4.180
  659SOL    HW2 2877   2.654   5.557   4.253
  660SOL     OW 2878   4.487   4.774   2.412
  660SOL    HW1 2879   4.463   4.865   2.380
  660SOL    HW2 2880   4.564   4.739   2.359
  661SOL     OW 2881   4.762   4.074   4.393
  661SOL    HW1 2882   4.827   4.001   4.371
  661SOL    HW2 2883   4.695   4.082   4.320
  662SOL     OW 2884   4.420   1.508   6.598
  662SOL    HW1 2885   4.425   1.416   6.635
  662SOL    HW2 2886   4.388   1.571   6.668
  663SOL     OW 2887   0.593   4.825   6.920
  663SOL    HW1 2888   0.584   4.763   6.843
  663SOL    HW2 2889   0.689   4.851   6.932
  664SOL     OW 2890   1.552   5.401   6.808
  664SOL    HW1 2891   1.513   5.418   6.718
  664SOL    HW2 2892   1.652   5.405   6.803
  665SOL     OW 2893   3.916   5.482   0.916
  665SOL    HW1 2894   3.952   5.437   0.998
  665SOL    HW2 2895   3.919   5.581   0.928
  666SOL     OW 2896   4.012   2.298   0.986
  666SOL    HW1 2897   4.035   2.217   1.039
  666SOL    HW2 2898   4.010   2.275   0.888
  667SOL     OW 2899   0.685   3.327   3.828
  667SOL    HW1 2900   0.780   3.314   3.799
  667SOL    HW2 2901   0.672   3.291   3.920
  668SOL     OW 2902   4.785   5.583   0.259
  668SOL    HW1 2903   4.697   5.620   0.228
  668SOL    HW2 2904   4.804   5.617   0.351
  669SOL     OW 2905   2.241   6.168   3.056
  669SOL    HW1 2906   2.293   6.236   3.004
  669SOL    HW2 2907   2.159   6.209   3.093
  670SOL     OW 2908   3.327   3.791   2.600
  670SOL    HW1 2909   3.244   3.816   2.650
  670SOL    HW2 2910   3.302   3.760   2.508
  671SOL     OW 2911   2.297   6.252   6.346
  671SOL    HW1 2912   2.376   6.194   6.324
  671SOL    HW2 2913   2.272   6.240   6.442
  672SOL     OW 2914   1.004   3.615   2.721
  672SOL    HW1 2915   1.062   3.691   2.692
  672SOL    HW2 2916   0.928   3.650   2.776
  673SOL     OW 2917   4.566   0.373   0.842
  673SOL    HW1 2918   4.533   0.416   0.927
  673SOL    HW2 2919   4.664   0.355   0.849
  674SOL     OW 2920   0.285   3.471   4.180
  674SOL    HW1 2921   0.364   3.468   4.241
  674SOL    HW2 2922   0.286   3.390   4.121
  675SOL     OW 2923   0.762   1.491   5.064
  675SOL    HW1 2924   0.669   1.467   5.038
  675SOL    HW2 2925   0.809   1.531   4.985
  676SOL     OW 2926   2.882   5.158   3.477
  676SOL    HW1 2927   2.828   5.131   3.397
  676SOL    HW2 2928   2.852   5.248   3.509
  677SOL     OW 2929   5.907   1.291   6.487
  677SOL    HW1 2930   5.998   1.286   6.530
  677SOL    HW2 2931   5.914   1.337   6.399
  678SOL     OW 2932   2.128   1.496   5.434
  678SOL    HW1 2933   2.148   1.418   5.493
  678SOL    HW2 2934   2.195   1.568   5.450
  679SOL     OW 2935   4.040   0.917   4.768
  679SOL    HW1 2936   4.137   0.894   4.754
  679SOL    HW2 2937   4.005   0.964   4.687
  680SOL     OW 2938   5.923   4.948   5.632
  680SOL    HW1 2939   5.982   4.888   5.687
  680SOL    HW2 2940   5.897   5.028   5.686
  681SOL     OW 2941   6.417   0.253   0.886
  681SOL    HW1 2942   6.496   0.304   0.919
  681SOL    HW2 2943   6.447   0.167   0.846
  682SOL     OW 2944   2.451   6.502   6.338
  682SOL    HW1 2945   2.537   6.479   6.382
  682SOL    HW2 2946   2.389   6.424   6.343
  683SOL     OW 2947   3.220   0.352   6.210
  683SOL    HW1 2948   3.219   0.331   6.112
  683SOL    HW2 2949   3.296   0.304   6.253
  684SOL     OW 2950   6.312   1.740   6.125
  684SOL    HW1 2951   6.331   1.694   6.212
  684SOL    HW2 2952   6.382   1.810   6.109
  685SOL     OW 2953   4.918   0.415   5.540
  685SOL    HW1 2954   4.954   0.407   5.633
  685SOL    HW2 2955   4.858   0.337   5.521
  686SOL     OW 2956   5.661   2.797   3.219
  686SOL    HW1 2957   5.648   2.789   3.121
  686SOL    HW2 2958   5.748   2.842   3.238
  687SOL     OW 2959   6.881   2.757   5.714
  687SOL    HW1 2960   6.907   2.662   5.697
  687SOL    HW2 2961   6.826   2.763   5.796
  688SOL     OW 2962   1.997   4.025   6.897
  688SOL    HW1 2963   1.902   4.026   6.930
  688SOL    HW2 2964   2.005   3.961   6.821
  689SOL     OW 2965   0.630   4.692   5.465
  689SOL    HW1 2966   0.546   4.681   5.412
  689SOL    HW2 2967   0.708   4.696   5.403
  690SOL     OW 2968   0.590   3.738   3.243
  690SOL    HW1 2969   0.597   3.688   3.330
  690SOL    HW2 2970   0.506   3.793   3.244
  691SOL     OW 2971   2.475   1.468   6.570
  691SOL    HW1 2972   2.401   1.501   6.629
  691SOL    HW2 2973   2.486   1.531   6.493
  692SOL     OW 2974   3.440   6.840   4.038
  692SOL    HW1 2975   3.502   6.891   3.978
  692SOL    HW2 2976   3.389   6.773   3.985
  693SOL     OW 2977   6.606   1.502   3.337
  693SOL    HW1 2978   6.590   1.417   3.386
  693SOL    HW2 2979   6.607   1.578   3.403
  694SOL     OW 2980   3.341   5.606   2.383
  694SOL    HW1 2981   3.427   5.655   2.393
  694SOL    HW2 2982   3.286   5.619   2.466
  695SOL     OW 2983   5.508   4.560   5.590
  695SOL    HW1 2984   5.550   4.644   5.557
  695SOL    HW2 2985   5.482   4.571   5.687
  696SOL     OW 2986   3.226   5.133   2.123
  696SOL    HW1 2987   3.294   5.177   2.064
  696SOL    HW2 2988   3.261   5.044   2.153
  697SOL     OW 2989   1.275   2.593   5.776
  697SOL    HW1 2990   1.293   2.691   5.778
  697SOL    HW2 2991   1.224   2.570   5.693
  698SOL     OW 2992   5.756   0.048   4.848
  698SOL    HW1 2993   5.788   0.134   4.809
  698SOL    HW2 2994   5.680   0.066   4.911
  699SOL     OW 2995   1.045   4.179   0.018
  699SOL    HW1 2996   1.060   4.247   6.974
  699SOL    HW2 2997   1.093   4.207   0.101
  700SOL     OW 2998   3.338   1.864   3.407
  700SOL    HW1 2999   3.337   1.771   3.444
  700SOL    HW2 3000   3.270   1.920   3.453
  701SOL     OW 3001   0.872   4.767   6.505
  701SOL    HW1 3002   0.781   4.782   6.466
  701SOL    HW2 3003   0.931   4.844   6.481
  702SOL     OW 3004   5.760   6.029   6.614
  702SOL    HW1 3005   5.831   6.047   6.682
  702SOL    HW2 3006   5.731   6.116   6.573
  703SOL     OW 3007   4.465   3.636   6.641
  703SOL    HW1 3008   4.384   3.686   6.671
  703SOL    HW2 3009   4.437   3.547   6.604
  704SOL     OW 3010   1.925   1.592   6.189
  704SOL    HW1 3011   1.987   1.518   6.161
  704SOL    HW2 3012   1.958   1.678   6.150
  705SOL     OW 3013   5.340   6.606   3.763
  705SOL    HW1 3014   5.420   6.667   3.763
  705SOL    HW2 3015   5.360   6.526   3.706
  706SOL     OW 3016   4.065   1.833   3.413
  706SOL    HW1 3017   4.038   1.887   3.492
  706SOL    HW2 3018   4.165   1.832   3.407
  707SOL     OW 3019   4.670   0.138   2.505
  707SOL    HW1 3020   4.660   0.135   2.605
  707SOL    HW2 3021   4.729   0.216   2.480
  708SOL     OW 3022   4.327   0.188   0.901
  708SOL    HW1 3023   4.409   0.245   0.895
  708SOL    HW2 3024   4.342   0.103   0.852
  709SOL     OW 3025   1.102   5.442   0.770
  709SOL    HW1 3026   1.136   5.522   0.720
  709SOL    HW2 3027   1.176   5.376   0.780
  710SOL     OW 3028   3.751   3.619   2.724
  710SOL    HW1 3029   3.779   3.536   2.677
  710SOL    HW2 3030   3.754   3.603   2.823
  711SOL     OW 3031   0.866   2.139   5.741
  711SOL    HW1 3032   0.893   2.059   5.688
  711SOL    HW2 3033   0.777   2.123   5.783
  712SOL     OW 3034   2.102   4.408   0.971
  712SOL    HW1 3035   2.038   4.471   1.014
  712SOL    HW2 3036   2.189   4.455   0.954
  713SOL     OW 3037   3.081   3.948   0.469
  713SOL    HW1 3038   3.022   3.868   0.465
  713SOL    HW2 3039   3.096   3.974   0.564
  714SOL     OW 3040   6.084   4.495   5.243
  714SOL    HW1 3041   6.079   4.504   5.144
  714SOL    HW2 3042   6.033   4.569   5.286
  715SOL     OW 3043   4.776   5.967   0.337
  715SOL    HW1 3044   4.711   5.893   0.357
  715SOL    HW2 3045   4.744   6.051   0.382
  716SOL     OW 3046   1.093   5.899   1.016
  716SOL    HW1 3047   1.096   5.927   0.920
  716SOL    HW2 3048   1.180   5.920   1.060
  717SOL     OW 3049   6.104   5.123   6.205
  717SOL    HW1 3050   6.118   5.032   6.244
  717SOL    HW2 3051   6.188   5.177   6.214
  718SOL     OW 3052   3.737   1.770   5.995
  718SOL    HW1 3053   3.757   1.675   6.021
  718SOL    HW2 3054   3.818   1.810   5.953
  719SOL     OW 3055   5.775   2.513   1.754
  719SOL    HW1 3056   5.874   2.502   1.754
  719SOL    HW2 3057   5.740   2.506   1.661
  720SOL     OW 3058   3.195   1.038   6.059
  720SOL    HW1 3059   3.211   1.101   5.983
  720SOL    HW2 3060   3.193   0.944   6.024
  721SOL     OW 3061   1.532   0.108   4.731
  721SOL    HW1 3062   1.571   0.181   4.787
  721SOL    HW2 3063   1.524   0.025   4.786
  722SOL     OW 3064   3.593   6.740   5.070
  722SOL    HW1 3065   3.688   6.771   5.074
  722SOL    HW2 3066   3.534   6.817   5.044
  723SOL     OW 3067   2.232   2.887   2.043
  723SOL    HW1 3068   2.255   2.982   2.063
  723SOL    HW2 3069   2.252   2.830   2.123
  724SOL     OW 3070   1.121   1.578   4.654
  724SOL    HW1 3071   1.072   1.649   4.603
  724SOL    HW2 3072   1.193   1.620   4.709
  725SOL     OW 3073   2.951   5.160   1.542
  725SOL    HW1 3074   3.010   5.125   1.615
  725SOL    HW2 3075   2.942   5.260   1.552
  726SOL     OW 3076   4.106   4.909   0.670
  726SOL    HW1 3077   4.201   4.886   0.687
  726SOL    HW2 3078   4.071   4.854   0.593
  727SOL     OW 3079   4.502   5.686   4.740
  727SOL    HW1 3080   4.452   5.710   4.657
  727SOL    HW2 3081   4.479   5.750   4.813
  728SOL     OW 3082   0.806   4.356   5.382
  728SOL    HW1 3083   0.905   4.365   5.391
  728SOL    HW2 3084   0.778   4.379   5.289
  729SOL     OW 3085   2.419   0.427   0.366
  729SOL    HW1 3086   2.380   0.518   0.378
  729SOL    HW2 3087   2.374   0.382   0.289
  730SOL     OW 3088   5.886   0.209   3.471
  730SOL    HW1 3089   5.804   0.155   3.450
  730SOL    HW2 3090   5.900   0.210   3.570
  731SOL     OW 3091   5.608   3.527   5.931
  731SOL    HW1 3092   5.674   3.522   6.006
  731SOL    HW2 3093   5.519   3.557   5.966
  732SOL     OW 3094   0.194   3.481   0.617
  732SOL    HW1 3095   0.237   3.556   0.667
  732SOL    HW2 3096   0.099   3.505   0.596
  733SOL     OW 3097   5.754   4.123   4.685
  733SOL    HW1 3098   5.667   4.170   4.670
  733SOL    HW2 3099   5.793   4.151   4.772
  734SOL     OW 3100   6.486   4.684   2.898
  734SOL    HW1 3101   6.565   4.719   2.947
  734SOL    HW2 3102   6.466   4.591   2.929
  735SOL     OW 3103   3.533   2.225   1.160
  735SOL    HW1 3104   3.469   2.152   1.137
  735SOL    HW2 3105   3.510   2.308   1.109
  736SOL     OW 3106   6.682   6.495   2.377
  736SOL    HW1 3107   6.663   6.496   2.475
  736SOL    HW2 3108   6.598   6.476   2.326
  737SOL     OW 3109   4.637   3.366   0.569
  737SOL    HW1 3110   4.575   3.322   0.635
  737SOL    HW2 3111   4.583   3.404   0.493
  738SOL     OW 3112   1.715   4.974   3.602
  738SOL    HW1 3113   1.685   4.971   3.507
  738SOL    HW2 3114   1.789   5.040   3.612
  739SOL     OW 3115   5.031   6.410   5.258
  739SOL    HW1 3116   5.050   6.343   5.186
  739SOL    HW2 3117   4.982   6.488   5.220
  740SOL     OW 3118   5.361   0.559   0.577
  740SOL    HW1 3119   5.308   0.600   0.651
  740SOL    HW2 3120   5.439   0.617   0.555
  741SOL     OW 3121   2.308   6.549   3.220
  741SOL    HW1 3122   2.252   6.537   3.301
  741SOL    HW2 3123   2.253   6.589   3.146
  742SOL     OW 3124   2.322   6.559   1.509
  742SOL    HW1 3125   2.246   6.623   1.510
  742SOL    HW2 3126   2.367   6.560   1.598
  743SOL     OW 3127   1.610   3.952   4.729
  743SOL    HW1 3128   1.685   3.970   4.792
  743SOL    HW2 3129   1.567   4.039   4.703
  744SOL     OW 3130   6.438   6.992   6.691
  744SOL    HW1 3131   6.352   0.013   6.676
  744SOL    HW2 3132   6.497   7.005   6.612
  745SOL     OW 3133   1.170   5.579   4.216
  745SOL    HW1 3134   1.207   5.573   4.308
  745SOL    HW2 3135   1.198   5.498   4.164
  746SOL     OW 3136   0.640   6.368   4.872
  746SOL    HW1 3137   0.542   6.356   4.890
  746SOL    HW2 3138   0.680   6.280   4.847
  747SOL     OW 3139   4.603   4.895   4.616
  747SOL    HW1 3140   4.689   4.885   4.666
  747SOL    HW2 3141   4.603   4.832   4.538
  748SOL     OW 3142   3.741   5.298   2.711
  748SOL    HW1 3143   3.823   5.249   2.739
  748SOL    HW2 3144   3.660   5.254   2.750
  749SOL     OW 3145   6.225   3.514   5.116
  749SOL    HW1 3146   6.171   3.598   5.126
  749SOL    HW2 3147   6.300   3.531   5.052
  750SOL     OW 3148   1.985   3.025   0.628
  750SOL    HW1 3149   1.923   3.021   0.707
  750SOL    HW2 3150   2.043   3.106   0.635
  751SOL     OW 3151   3.820   1.596   6.268
  751SOL    HW1 3152   3.902   1.546   6.297
  751SOL    HW2 3153   3.787   1.558   6.182
  752SOL     OW 3154   4.285   2.481   1.467
  752SOL    HW1 3155   4.245   2.389   1.465
  752SOL    HW2 3156   4.325   2.498   1.556
  753SOL     OW 3157   2.136   2.881   3.636
  753SOL    HW1 3158   2.075   2.803   3.646
  753SOL    HW2 3159   2.191   2.891   3.719
  754SOL     OW 3160   5.868   3.578   6.515
  754SOL    HW1 3161   5.795   3.616   6.573
  754SOL    HW2 3162   5.907   3.498   6.560
  755SOL     OW 3163   1.278   5.867   6.913
  755SOL    HW1 3164   1.248   5.857   7.008
  755SOL    HW2 3165   1.369   5.828   6.902
  756SOL     OW 3166   4.856   6.632   1.442
  756SOL    HW1 3167   4.916   6.695   1.491
  756SOL    HW2 3168   4.827   6.558   1.504
  757SOL     OW 3169   0.470   6.196   2.872
  757SOL    HW1 3170   0.531   6.275   2.865
  757SOL    HW2 3171   0.439   6.185   2.966
  758SOL     OW 3172   3.726   0.793   1.328
  758SOL    HW1 3173   3.725   0.866   1.259
  758SOL    HW2 3174   3.793   0.724   1.301
  759SOL     OW 3175   0.404   0.996   0.773
  759SOL    HW1 3176   0.372   0.953   0.857
  759SOL    HW2 3177   0.427   0.926   0.706
  760SOL     OW 3178   4.419   0.785   6.488
  760SOL    HW1 3179   4.483   0.752   6.558
  760SOL    HW2 3180   4.329   0.747   6.505
  761SOL     OW 3181   5.752   3.770   5.795
  761SOL    HW1 3182   5.791   3.785   5.704
  761SOL    HW2 3183   5.753   3.672   5.816
  762SOL     OW 3184   2.574   6.882   3.647
  762SOL    HW1 3185   2.484   6.897   3.688
  762SOL    HW2 3186   2.565   6.821   3.568
  763SOL     OW 3187   4.028   5.472   6.133
  763SOL    HW1 3188   3.956   5.532   6.099
  763SOL    HW2 3189   4.110   5.482   6.077
  764SOL     OW 3190   4.519   0.647   4.366
  764SOL    HW1 3191   4.578   0.648   4.447
  764SOL    HW2 3192   4.429   0.683   4.390
  765SOL     OW 3193   1.368   6.315   1.473
  765SOL    HW1 3194   1.350   6.409   1.502
  765SOL    HW2 3195   1.415   6.266   1.547
  766SOL     OW 3196   0.573   1.749   0.494
  766SOL    HW1 3197   0.584   1.700   0.407
  766SOL    HW2 3198   0.661   1.753   0.541
  767SOL     OW 3199   7.017   6.007   2.458
  767SOL    HW1 3200   0.035   5.918   2.448
  767SOL    HW2 3201   0.055   6.076   2.485
  768SOL     OW 3202   2.805   7.020   1.916
  768SOL    HW1 3203   2.843   0.048   1.989
  768SOL    HW2 3204   2.720   0.031   1.883
  769SOL     OW 3205   3.035   0.315   3.705
  769SOL    HW1 3206   3.076   0.305   3.796
  769SOL    HW2 3207   3.012   0.411   3.690
  770SOL     OW 3208   1.717   4.471   2.712
  770SOL    HW1 3209   1.739   4.407   2.639
  770SOL    HW2 3210   1.692   4.421   2.795
  771SOL     OW 3211   1.916   5.231   2.862
  771SOL    HW1 3212   1.830   5.281   2.850
  771SOL    HW2 3213   1.912   5.176   2.945
  772SOL     OW 3214   6.588   5.034   0.865
  772SOL    HW1 3215   6.621   5.107   0.806
  772SOL    HW2 3216   6.519   4.980   0.817
  773SOL     OW 3217   0.520   4.143   3.590
  773SOL    HW1 3218   0.517   4.048   3.623
  773SOL    HW2 3219   0.605   4.157   3.539
  774SOL     OW 3220   1.168   1.276   2.392
  774SOL    HW1 3221   1.134   1.368   2.371
  774SOL    HW2 3222   1.237   1.282   2.464
  775SOL     OW 3223   0.981   2.049   3.162
  775SOL    HW1 3224   1.009   2.144   3.148
  775SOL    HW2 3225   0.881   2.044   3.166
  776SOL     OW 3226   6.899   1.264   5.688
  776SOL    HW1 3227   6.969   1.279   5.618
  776SOL    HW2 3228   6.929   1.306   5.773
  777SOL     OW 3229   3.149   6.468   0.795
  777SOL    HW1 3230   3.074   6.454   0.731
  777SOL    HW2 3231   3.172   6.382   0.841
  778SOL     OW 3232   3.495   1.254   4.124
  778SOL    HW1 3233   3.532   1.323   4.186
  778SOL    HW2 3234   3.561   1.180   4.112
  779SOL     OW 3235   0.612   1.677   2.635
  779SOL    HW1 3236   0.592   1.658   2.539
  779SOL    HW2 3237   0.575   1.767   2.659
  780SOL     OW 3238   6.529   3.797   4.598
  780SOL    HW1 3239   6.446   3.844   4.627
  780SOL    HW2 3240   6.602   3.864   4.583
  781SOL     OW 3241   5.752   0.982   6.459
  781SOL    HW1 3242   5.656   1.009   6.459
  781SOL    HW2 3243   5.785   0.977   6.365
  782SOL     OW 3244   1.161   3.967   0.209
  782SOL    HW1 3245   1.257   3.939   0.217
  782SOL    HW2 3246   1.102   3.890   0.231
  783SOL     OW 3247   3.639   4.911   0.803
  783SOL    HW1 3248   3.729   4.949   0.824
  783SOL    HW2 3249   3.600   4.869   0.886
  784SOL     OW 3250   5.139   6.638   5.942
  784SOL    HW1 3251   5.102   6.730   5.953
  784SOL    HW2 3252   5.065   6.575   5.916
  785SOL     OW 3253   0.061   1.981   3.579
  785SOL    HW1 3254   0.059   2.009   3.675
  785SOL    HW2 3255   0.151   1.943   3.557
  786SOL     OW 3256   1.635   0.910   0.709
  786SOL    HW1 3257   1.706   0.891   0.641
  786SOL    HW2 3258   1.578   0.829   0.720
  787SOL     OW 3259   3.143   1.879   6.444
  787SOL    HW1 3260   3.210   1.916   6.379
  787SOL    HW2 3261   3.167   1.910   6.536
  788SOL     OW 3262   2.290   2.286   4.845
  788SOL    HW1 3263   2.360   2.333   4.900
  788SOL    HW2 3264   2.314   2.190   4.837
  789SOL     OW 3265   5.596   4.187   1.185
  789SOL    HW1 3266   5.551   4.122   1.123
  789SOL    HW2 3267   5.544   4.195   1.269
  790SOL     OW 3268   2.663   1.514   4.359
  790SOL    HW1 3269   2.733   1.450   4.391
  790SOL    HW2 3270   2.572   1.477   4.379
  791SOL     OW 3271   4.068   0.487   3.216
  791SOL    HW1 3272   4.147   0.542   3.241
  791SOL    HW2 3273   4.078   0.395   3.254
  792SOL     OW 3274   0.300   0.362   1.850
  792SOL    HW1 3275   0.303   0.334   1.754
  792SOL    HW2 3276   0.392   0.360   1.889
  793SOL     OW 3277   4.194   6.374   2.192
  793SOL    HW1 3278   4.095   6.385   2.188
  793SOL    HW2 3279   4.238   6.453   2.149
  794SOL     OW 3280   2.734   3.312   5.367
  794SOL    HW1 3281   2.706   3.231   5.419
  794SOL    HW2 3282   2.676   3.390   5.392
  795SOL     OW 3283   3.030   5.560   5.053
  795SOL    HW1 3284   2.971   5.500   5.108
  795SOL    HW2 3285   3.080   5.505   4.986
  796SOL     OW 3286   1.162   2.439   6.433
  796SOL    HW1 3287   1.168   2.474   6.526
  796SOL    HW2 3288   1.213   2.500   6.371
  797SOL     OW 3289   5.233   2.551   2.499
  797SOL    HW1 3290   5.188   2.573   2.585
  797SOL    HW2 3291   5.240   2.634   2.444
  798SOL     OW 3292   5.264   0.319   1.376
  798SOL    HW1 3293   5.246   0.412   1.407
  798SOL    HW2 3294   5.363   0.307   1.362
  799SOL     OW 3295   6.491   1.356   4.143
  799SOL    HW1 3296   6.531   1.267   4.122
  799SOL    HW2 3297   6.415   1.374   4.082
  800SOL     OW 3298   5.596   1.107   2.769
  800SOL    HW1 3299   5.612   1.152   2.681
  800SOL    HW2 3300   5.676   1.053   2.794
  801SOL     OW 3301   1.493   3.628   3.063
  801SOL    HW1 3302   1.560   3.691   3.100
  801SOL    HW2 3303   1.489   3.638   2.963
  802SOL     OW 3304   4.141   0.174   0.364
  802SOL    HW1 3305   4.163   0.272   0.359
  802SOL    HW2 3306   4.212   0.122   0.316
  803SOL     OW 3307   0.333   5.348   5.042
  803SOL    HW1 3308   0.343   5.313   4.949
  803SOL    HW2 3309   0.298   5.441   5.040
  804SOL     OW 3310   6.060   6.252   0.063
  804SOL    HW1 3311   6.061   6.270   6.993
  804SOL    HW2 3312   6.147   6.278   0.103
  805SOL     OW 3313   3.324   2.312   5.540
  805SOL    HW1 3314   3.391   2.264   5.484
  805SOL    HW2 3315   3.267   2.370   5.481
  806SOL     OW 3316   4.481   1.134   4.685
  806SOL    HW1 3317   4.476   1.060   4.752
  806SOL    HW2 3318   4.396   1.187   4.687
  807SOL     OW 3319   0.881   1.741   3.576
  807SOL    HW1 3320   0.886   1.661   3.635
  807SOL    HW2 3321   0.973   1.777   3.561
  808SOL     OW 3322   4.673   3.561   6.372
  808SOL    HW1 3323   4.683   3.644   6.317
  808SOL    HW2 3324   4.749   3.499   6.353
  809SOL     OW 3325   1.072   4.380   1.437
  809SOL    HW1 3326   1.008   4.304   1.423
  809SOL    HW2 3327   1.135   4.386   1.359
  810SOL     OW 3328   3.991   2.835   1.266
  810SOL    HW1 3329   3.928   2.899   1.311
  810SOL    HW2 3330   4.016   2.871   1.176
  811SOL     OW 3331   4.703   5.340   3.949
  811SOL    HW1 3332   4.742   5.259   3.904
  811SOL    HW2 3333   4.694   5.322   4.047
  812SOL     OW 3334   0.380   1.717   2.194
  812SOL    HW1 3335   0.303   1.744   2.253
  812SOL    HW2 3336   0.360   1.742   2.099
  813SOL     OW 3337   3.571   5.015   4.184
  813SOL    HW1 3338   3.640   4.995   4.114
  813SOL    HW2 3339   3.519   5.096   4.157
  814SOL     OW 3340   5.389   6.209   3.297
  814SOL    HW1 3341   5.404   6.308   3.293
  814SOL    HW2 3342   5.299   6.187   3.261
  815SOL     OW 3343   0.152   3.066   2.805
  815SOL    HW1 3344   0.161   3.106   2.713
  815SOL    HW2 3345   0.224   3.103   2.864
  816SOL     OW 3346   6.856   6.960   6.913
  816SOL    HW1 3347   6.757   6.942   6.910
  816SOL    HW2 3348   6.897   6.931   6.827
  817SOL     OW 3349   2.076   3.879   2.170
  817SOL    HW1 3350   2.171   3.897   2.144
  817SOL    HW2 3351   2.016   3.948   2.128
  818SOL     OW 3352   6.564   3.228   1.485
  818SOL    HW1 3353   6.609   3.148   1.526
  818SOL    HW2 3354   6.628   3.304   1.482
  819SOL     OW 3355   5.818   3.006   3.724
  819SOL    HW1 3356   5.839   2.924   3.777
  819SOL    HW2 3357   5.812   3.085   3.784
  820SOL     OW 3358   1.581   3.056   6.373
  820SOL    HW1 3359   1.570   3.131   6.438
  820SOL    HW2 3360   1.648   3.081   6.303
  821SOL     OW 3361   2.381   4.929   0.804
  821SOL    HW1 3362   2.334   4.901   0.888
  821SOL    HW2 3363   2.321   4.989   0.751
  822SOL     OW 3364   0.993   5.129   4.401
  822SOL    HW1 3365   1.021   5.060   4.467
  822SOL    HW2 3366   1.019   5.099   4.309
  823SOL     OW 3367   4.913   4.241   7.003
  823SOL    HW1 3368   4.875   4.156   0.011
  823SOL    HW2 3369   4.928   4.306   0.050
  824SOL     OW 3370   5.354   0.800   5.494
  824SOL    HW1 3371   5.348   0.785   5.395
  824SOL    HW2 3372   5.401   0.885   5.513
  825SOL     OW 3373   1.689   4.361   1.613
  825SOL    HW1 3374   1.638   4.357   1.528
  825SOL    HW2 3375   1.762   4.292   1.611
  826SOL     OW 3376   5.946   3.617   0.680
  826SOL    HW1 3377   5.900   3.647   0.763
  826SOL    HW2 3378   5.993   3.694   0.638
  827SOL     OW 3379   2.731   5.872   6.061
  827SOL    HW1 3380   2.648   5.841   6.015
  827SOL    HW2 3381   2.706   5.920   6.146
  828SOL     OW 3382   6.058   7.028   5.453
  828SOL    HW1 3383   5.974   0.051   5.434
  828SOL    HW2 3384   6.136   0.047   5.412
  829SOL     OW 3385   2.932   3.680   4.366
  829SOL    HW1 3386   2.954   3.671   4.463
  829SOL    HW2 3387   2.990   3.617   4.313
  830SOL     OW 3388   4.753   4.889   6.258
  830SOL    HW1 3389   4.689   4.965   6.270
  830SOL    HW2 3390   4.744   4.851   6.166
  831SOL     OW 3391   0.046   0.357   5.436
  831SOL    HW1 3392   0.050   0.438   5.377
  831SOL    HW2 3393   0.139   0.332   5.464
  832SOL     OW 3394   1.660   0.843   0.279
  832SOL    HW1 3395   1.654   0.806   0.372
  832SOL    HW2 3396   1.742   0.900   0.271
  833SOL     OW 3397   0.394   5.572   6.047
  833SOL    HW1 3398   0.354   5.651   6.093
  833SOL    HW2 3399   0.445   5.602   5.966
  834SOL     OW 3400   3.484   4.258   1.258
  834SOL    HW1 3401   3.521   4.350   1.253
  834SOL    HW2 3402   3.505   4.218   1.347
  835SOL     OW 3403   3.380   6.990   4.254
  835SOL    HW1 3404   3.414   6.937   4.176
  835SOL    HW2 3405   3.420   0.054   4.252
  836SOL     OW 3406   3.665   6.543   6.657
  836SOL    HW1 3407   3.693   6.606   6.730
  836SOL    HW2 3408   3.678   6.588   6.568
  837SOL     OW 3409   4.964   6.404   6.590
  837SOL    HW1 3410   4.956   6.475   6.520
  837SOL    HW2 3411   4.888   6.340   6.582
  838SOL     OW 3412   1.151   0.663   4.825
  838SOL    HW1 3413   1.225   0.606   4.862
  838SOL    HW2 3414   1.188   0.751   4.798
  839SOL     OW 3415   2.689   2.125   2.118
  839SOL    HW1 3416   2.728   2.096   2.030
  839SOL    HW2 3417   2.618   2.194   2.102
  840SOL     OW 3418   6.153   0.301   6.069
  840SOL    HW1 3419   6.055   0.321   6.064
  840SOL    HW2 3420   6.204   0.381   6.036
  841SOL     OW 3421   5.884   4.666   0.604
  841SOL    HW1 3422   5.821   4.668   0.682
  841SOL    HW2 3423   5.838   4.626   0.525
  842SOL     OW 3424   4.190   5.225   4.462
  842SOL    HW1 3425   4.112   5.265   4.413
  842SOL    HW2 3426   4.191   5.127   4.447
  843SOL     OW 3427   4.463   2.506   6.912
  843SOL    HW1 3428   4.537   2.566   6.942
  843SOL    HW2 3429   4.477   2.480   6.816
  844SOL     OW 3430   4.525   6.779   0.991
  844SOL    HW1 3431   4.621   6.767   0.967
  844SOL    HW2 3432   4.513   6.869   1.034
  845SOL     OW 3433   6.293   3.502   4.197
  845SOL    HW1 3434   6.224   3.504   4.125
  845SOL    HW2 3435   6.278   3.421   4.255
  846SOL     OW 3436   5.366   1.765   6.566
  846SOL    HW1 3437   5.431   1.744   6.639
  846SOL    HW2 3438   5.281   1.715   6.580
  847SOL     OW 3439   6.498   3.401   0.329
  847SOL    HW1 3440   6.476   3.378   0.234
  847SOL    HW2 3441   6.414   3.406   0.382
  848SOL     OW 3442   6.478   1.896   6.357
  848SOL    HW1 3443   6.402   1.890   6.422
  848SOL    HW2 3444   6.564   1.910   6.406
  849SOL     OW 3445   0.863   5.574   5.541
  849SOL    HW1 3446   0.801   5.531   5.606
  849SOL    HW2 3447   0.816   5.590   5.454
  850SOL     OW 3448   5.204   0.482   3.270
  850SOL    HW1 3449   5.169   0.487   3.363
  850SOL    HW2 3450   5.303   0.497   3.270
  851SOL     OW 3451   0.276   1.802   1.402
  851SOL    HW1 3452   0.191   1.750   1.397
  851SOL    HW2 3453   0.271   1.866   1.479
  852SOL     OW 3454   2.819   2.566   0.281
  852SOL    HW1 3455   2.813   2.473   0.245
  852SOL    HW2 3456   2.895   2.572   0.346
  853SOL     OW 3457   1.013   4.097   3.020
  853SOL    HW1 3458   0.938   4.092   3.086
  853SOL    HW2 3459   1.016   4.189   2.980
  854SOL     OW 3460   4.622   5.889   2.188
  854SOL    HW1 3461   4.597   5.982   2.163
  854SOL    HW2 3462   4.687   5.852   2.122
  855SOL     OW 3463   5.984   6.805   1.281
  855SOL    HW1 3464   5.891   6.842   1.288
  855SOL    HW2 3465   6.012   6.767   1.369
  856SOL     OW 3466   2.077   1.596   5.141
  856SOL    HW1 3467   1.998   1.655   5.128
  856SOL    HW2 3468   2.089   1.576   5.238
  857SOL     OW 3469   5.628   5.293   1.149
  857SOL    HW1 3470   5.590   5.207   1.184
  857SOL    HW2 3471   5.722   5.277   1.119
  858SOL     OW 3472   2.497   4.664   2.021
  858SOL    HW1 3473   2.422   4.656   1.954
  858SOL    HW2 3474   2.582   4.631   1.979
  859SOL     OW 3475   5.426   5.563   6.680
  859SOL    HW1 3476   5.481   5.644   6.703
  859SOL    HW2 3477   5.482   5.497   6.630
  860SOL     OW 3478   4.404   4.202   0.935
  860SOL    HW1 3479   4.382   4.291   0.974
  860SOL    HW2 3480   4.445   4.215   0.844
  861SOL     OW 3481   1.824   0.103   4.633
  861SOL    HW1 3482   1.859   0.106   4.539
  861SOL    HW2 3483   1.755   0.174   4.645
  862SOL     OW 3484   6.290   4.196   5.716
  862SOL    HW1 3485   6.201   4.235   5.691
  862SOL    HW2 3486   6.297   4.103   5.680
  863SOL     OW 3487   0.642   0.110   0.609
  863SOL    HW1 3488   0.643   0.168   0.528
  863SOL    HW2 3489   0.736   0.095   0.640
  864SOL     OW 3490   5.126   4.482   3.854
  864SOL    HW1 3491   5.122   4.568   3.802
  864SOL    HW2 3492   5.215   4.476   3.900
  865SOL     OW 3493   1.390   6.846   5.078
  865SOL    HW1 3494   1.399   6.761   5.130
  865SOL    HW2 3495   1.367   6.921   5.141
  866SOL     OW 3496   1.863   2.423   1.469
  866SOL    HW1 3497   1.921   2.399   1.546
  866SOL    HW2 3498   1.916   2.422   1.385
  867SOL     OW 3499   3.661   2.879   1.086
  867SOL    HW1 3500   3.582   2.866   1.147
  867SOL    HW2 3501   3.629   2.902   0.995
  868SOL     OW 3502   6.204   6.558   0.884
  868SOL    HW1 3503   6.302   6.551   0.866
  868SOL    HW2 3504   6.184   6.647   0.924
  869SOL     OW 3505   6.482   5.269   2.723
  869SOL    HW1 3506   6.435   5.264   2.634
  869SOL    HW2 3507   6.541   5.349   2.725
  870SOL     OW 3508   6.131   4.122   0.775
  870SOL    HW1 3509   6.171   4.031   0.787
  870SOL    HW2 3510   6.149   4.177   0.857
  871SOL     OW 3511   6.464   2.647   2.329
  871SOL    HW1 3512   6.430   2.573   2.388
  871SOL    HW2 3513   6.392   2.675   2.266
  872SOL     OW 3514   6.286   3.811   3.998
  872SOL    HW1 3515   6.215   3.792   3.929
  872SOL    HW2 3516   6.269   3.756   4.080
  873SOL     OW 3517   4.501   0.397   2.982
  873SOL    HW1 3518   4.480   0.339   3.062
  873SOL    HW2 3519   4.447   0.481   2.988
  874SOL     OW 3520   1.824   3.845   5.568
  874SOL    HW1 3521   1.762   3.770   5.543
  874SOL    HW2 3522   1.911   3.808   5.599
  875SOL     OW 3523   5.238   4.001   1.061
  875SOL    HW1 3524   5.193   3.912   1.073
  875SOL    HW2 3525   5.195   4.069   1.119
  876SOL     OW 3526   6.901   4.773   3.255
  876SOL    HW1 3527   6.896   4.746   3.351
  876SOL    HW2 3528   6.996   4.782   3.227
  877SOL     OW 3529   4.466   4.300   6.871
  877SOL    HW1 3530   4.549   4.248   6.847
  877SOL    HW2 3531   4.392   4.275   6.809
  878SOL     OW 3532   4.102   5.611   6.401
  878SOL    HW1 3533   4.092   5.533   6.339
  878SOL    HW2 3534   4.060   5.692   6.360
  879SOL     OW 3535   3.862   1.877   2.322
  879SOL    HW1 3536   3.816   1.950   2.272
  879SOL    HW2 3537   3.870   1.797   2.263
  880SOL     OW 3538   3.164   4.690   6.965
  880SOL    HW1 3539   3.199   4.667   6.874
  880SOL    HW2 3540   3.213   4.637   0.006
  881SOL     OW 3541   4.208   4.785   5.201
  881SOL    HW1 3542   4.198   4.685   5.205
  881SOL    HW2 3543   4.226   4.812   5.106
  882SOL     OW 3544   1.959   1.376   4.296
  882SOL    HW1 3545   1.944   1.338   4.205
  882SOL    HW2 3546   1.880   1.430   4.323
  883SOL     OW 3547   4.282   5.462   5.279
  883SOL    HW1 3548   4.328   5.382   5.241
  883SOL    HW2 3549   4.204   5.432   5.334
  884SOL     OW 3550   6.901   3.951   2.166
  884SOL    HW1 3551   6.812   3.916   2.195
  884SOL    HW2 3552   6.973   3.903   2.217
  885SOL     OW 3553   5.707   6.097   6.968
  885SOL    HW1 3554   5.621   6.139   6.940
  885SOL    HW2 3555   5.774   6.107   6.894
  886SOL     OW 3556   4.558   0.425   0.342
  886SOL    HW1 3557   4.638   0.477   0.371
  886SOL    HW2 3558   4.524   0.371   0.419
  887SOL     OW 3559   4.086   6.319   5.737
  887SOL    HW1 3560   4.147   6.313   5.817
  887SOL    HW2 3561   4.122   6.261   5.664
  888SOL     OW 3562   7.021   6.327   2.789
  888SOL    HW1 3563   6.947   6.308   2.724
  888SOL    HW2 3564   0.076   6.350   2.738
  889SOL     OW 3565   0.195   6.870   5.743
  889SOL    HW1 3566   0.127   6.861   5.670
  889SOL    HW2 3567   0.149   6.879   5.831
  890SOL     OW 3568   2.751   4.749   2.249
  890SOL    HW1 3569   2.838   4.787   2.281
  890SOL    HW2 3570   2.768   4.690   2.170
  891SOL     OW 3571   6.027   3.482   1.645
  891SOL    HW1 3572   6.013   3.462   1.742
  891SOL    HW2 3573   6.091   3.559   1.635
  892SOL     OW 3574   4.211   3.946   0.657
  892SOL    HW1 3575   4.269   3.996   0.593
  892SOL    HW2 3576   4.120   3.988   0.660
  893SOL     OW 3577   1.717   0.367   1.235
  893SOL    HW1 3578   1.760   0.424   1.164
  893SOL    HW2 3579   1.618   0.384   1.236
  894SOL     OW 3580   2.011   3.788   3.874
  894SOL    HW1 3581   1.932   3.773   3.934
  894SOL    HW2 3582   2.003   3.878   3.830
  895SOL     OW 3583   2.196   6.627   4.244
  895SOL    HW1 3584   2.167   6.595   4.335
  895SOL    HW2 3585   2.143   6.580   4.174
  896SOL     OW 3586   5.690   5.515   3.910
  896SOL    HW1 3587   5.764   5.564   3.956
  896SOL    HW2 3588   5.674   5.556   3.820
  897SOL     OW 3589   4.961   1.232   0.337
  897SOL    HW1 3590   5.010   1.301   0.283
  897SOL    HW2 3591   4.900   1.278   0.402
  898SOL     OW 3592   4.466   6.145   3.977
  898SOL    HW1 3593   4.548   6.094   3.948
  898SOL    HW2 3594   4.493   6.236   4.008
  899SOL     OW 3595   0.397   5.147   0.428
  899SOL    HW1 3596   0.404   5.244   0.408
  899SOL    HW2 3597   0.426   5.094   0.349
  900SOL     OW 3598   5.594   5.853   1.546
  900SOL    HW1 3599   5.535   5.787   1.500
  900SOL    HW2 3600   5.583   5.845   1.645
  901SOL     OW 3601   0.473   1.835   4.826
  901SOL    HW1 3602   0.414   1.782   4.765
  901SOL    HW2 3603   0.569   1.816   4.805
  902SOL     OW 3604   0.169   0.841   6.271
  902SOL    HW1 3605   0.258   0.837   6.317
  902SOL    HW2 3606   0.182   0.853   6.173
  903SOL     OW 3607   6.639   4.558   6.948
  903SOL    HW1 3608   6.703   4.509   7.008
  903SOL    HW2 3609   6.632   4.510   6.861
  904SOL     OW 3610   1.579   2.075   4.027
  904SOL    HW1 3611   1.633   2.053   4.108
  904SOL    HW2 3612   1.493   2.024   4.029
  905SOL     OW 3613   5.283   2.526   6.810
  905SOL    HW1 3614   5.199   2.509   6.759
  905SOL    HW2 3615   5.332   2.602   6.768
  906SOL     OW 3616   0.453   3.949   6.749
  906SOL    HW1 3617   0.523   3.962   6.819
  906SOL    HW2 3618   0.451   4.028   6.688
  907SOL     OW 3619   6.146   2.650   3.158
  907SOL    HW1 3620   6.096   2.606   3.232
  907SOL    HW2 3621   6.166   2.745   3.183
  908SOL     OW 3622   1.362   0.085   4.013
  908SOL    HW1 3623   1.305   0.131   3.945
  908SOL    HW2 3624   1.369   0.142   4.095
  909SOL     OW 3625   2.573   1.042   0.852
  909SOL    HW1 3626   2.580   0.998   0.941
  909SOL    HW2 3627   2.620   0.986   0.783
  910SOL     OW 3628   1.870   0.306   0.706
  910SOL    HW1 3629   1.895   0.249   0.627
  910SOL    HW2 3630   1.850   0.399   0.675
  911SOL     OW 3631   0.588   4.757   1.369
  911SOL    HW1 3632   0.629   4.832   1.316
  911SOL    HW2 3633   0.492   4.779   1.388
  912SOL     OW 3634   0.562   1.916   5.796
  912SOL    HW1 3635   0.557   2.009   5.830
  912SOL    HW2 3636   0.620   1.861   5.856
  913SOL     OW 3637   2.273   0.861   3.351
  913SOL    HW1 3638   2.295   0.768   3.379
  913SOL    HW2 3639   2.284   0.923   3.429
  914SOL     OW 3640   2.369   5.563   4.898
  914SOL    HW1 3641   2.442   5.580   4.832
  914SOL    HW2 3642   2.288   5.616   4.873
  915SOL     OW 3643   0.191   3.333   1.040
  915SOL    HW1 3644   0.113   3.275   1.060
  915SOL    HW2 3645   0.237   3.358   1.125
  916SOL     OW 3646   1.895   1.932   1.830
  916SOL    HW1 3647   1.938   1.968   1.747
  916SOL    HW2 3648   1.818   1.991   1.856
  917SOL     OW 3649   3.731   0.981   1.120
  917SOL    HW1 3650   3.804   0.931   1.075
  917SOL    HW2 3651   3.750   1.079   1.116
  918SOL     OW 3652   3.441   6.214   6.679
  918SOL    HW1 3653   3.344   6.190   6.685
  918SOL    HW2 3654   3.481   6.169   6.600
  919SOL     OW 3655   1.608   6.645   1.863
  919SOL    HW1 3656   1.617   6.553   1.825
  919SOL    HW2 3657   1.697   6.691   1.859
  920SOL     OW 3658   2.246   0.620   2.960
  920SOL    HW1 3659   2.159   0.635   2.912
  920SOL    HW2 3660   2.316   0.594   2.895
  921SOL     OW 3661   5.374   4.536   3.965
  921SOL    HW1 3662   5.394   4.518   4.061
  921SOL    HW2 3663   5.392   4.633   3.946
  922SOL     OW 3664   3.299   3.078   6.672
  922SOL    HW1 3665   3.275   3.071   6.769
  922SOL    HW2 3666   3.289   3.172   6.641
  923SOL     OW 3667   2.949   6.109   0.039
  923SOL    HW1 3668   2.947   6.163   6.984
  923SOL    HW2 3669   3.035   6.058   0.044
  924SOL     OW 3670   5.386   3.221   2.449
  924SOL    HW1 3671   5.336   3.197   2.366
  924SOL    HW2 3672   5.343   3.176   2.528
  925SOL     OW 3673   6.672   2.198   5.610
  925SOL    HW1 3674   6.698   2.105   5.637
  925SOL    HW2 3675   6.580   2.197   5.572
  926SOL     OW 3676   5.682   0.247   0.453
  926SOL    HW1 3677   5.738   0.328   0.437
  926SOL    HW2 3678   5.606   0.245   0.389
  927SOL     OW 3679   4.972   4.259   4.190
  927SOL    HW1 3680   4.944   4.223   4.101
  927SOL    HW2 3681   4.892   4.297   4.237
  928SOL     OW 3682   1.603   0.156   0.618
  928SOL    HW1 3683   1.663   0.194   0.548
  928SOL    HW2 3684   1.649   0.080   0.664
  929SOL     OW 3685   6.681   2.278   2.206
  929SOL    HW1 3686   6.722   2.340   2.140
  929SOL    HW2 3687   6.686   2.318   2.298
  930SOL     OW 3688   6.708   4.972   4.407
  930SOL    HW1 3689   6.733   4.903   4.339
  930SOL    HW2 3690   6.727   4.937   4.499
  931SOL     OW 3691   0.082   3.730   3.139
  931SOL    HW1 3692   0.091   3.685   3.050
  931SOL    HW2 3693   0.037   3.668   3.203
  932SOL     OW 3694   3.530   6.266   1.908
  932SOL    HW1 3695   3.470   6.341   1.879
  932SOL    HW2 3696   3.512   6.185   1.852
  933SOL     OW 3697   0.907   4.628   3.198
  933SOL    HW1 3698   0.936   4.644   3.293
  933SOL    HW2 3699   0.876   4.713   3.157
  934SOL     OW 3700   2.715   1.478   4.678
  934SOL    HW1 3701   2.783   1.551   4.688
  934SOL    HW2 3702   2.729   1.411   4.751
  935SOL     OW 3703   4.701   3.620   5.867
  935SOL    HW1 3704   4.638   3.691   5.897
  935SOL    HW2 3705   4.794   3.657   5.867
  936SOL     OW 3706   0.555   6.469   0.245
  936SOL    HW1 3707   0.581   6.526   0.323
  936SOL    HW2 3708   0.610   6.494   0.165
  937SOL     OW 3709   4.533   1.722   4.760
  937SOL    HW1 3710   4.477   1.668   4.696
  937SOL    HW2 3711   4.473   1.784   4.812
  938SOL     OW 3712   0.193   4.052   6.552
  938SOL    HW1 3713   0.142   4.137   6.561
  938SOL    HW2 3714   0.291   4.071   6.553
  939SOL     OW 3715   5.341   1.253   5.803
  939SOL    HW1 3716   5.364   1.166   5.846
  939SOL    HW2 3717   5.248   1.249   5.767
  940SOL     OW 3718   6.682   1.751   2.967
  940SOL    HW1 3719   6.701   1.717   2.875
  940SOL    HW2 3720   6.647   1.845   2.961
  941SOL     OW 3721   6.123   1.147   4.077
  941SOL    HW1 3722   6.036   1.099   4.066
  941SOL    HW2 3723   6.169   1.116   4.160
  942SOL     OW 3724   4.768   0.288   4.918
  942SOL    HW1 3725   4.702   0.357   4.890
  942SOL    HW2 3726   4.857   0.308   4.879
  943SOL     OW 3727   0.458   3.281   2.627
  943SOL    HW1 3728   0.492   3.330   2.547
  943SOL    HW2 3729   0.450   3.344   2.705
  944SOL     OW 3730   6.210   3.333   5.320
  944SOL    HW1 3731   6.261   3.391   5.257
  944SOL    HW2 3732   6.151   3.271   5.268
  945SOL     OW 3733   5.236   4.758   4.612
  945SOL    HW1 3734   5.142   4.761   4.578
  945SOL    HW2 3735   5.243   4.811   4.696
  946SOL     OW 3736   6.046   2.792   6.486
  946SOL    HW1 3737   6.035   2.732   6.406
  946SOL    HW2 3738   6.107   2.867   6.463
  947SOL     OW 3739   2.971   3.420   5.794
  947SOL    HW1 3740   2.973   3.516   5.769
  947SOL    HW2 3741   2.974   3.363   5.712
  948SOL     OW 3742   4.116   1.098   0.781
  948SOL    HW1 3743   4.034   1.108   0.725
  948SOL    HW2 3744   4.102   1.145   0.869
  949SOL     OW 3745   6.736   6.275   5.980
  949SOL    HW1 3746   6.656   6.232   5.938
  949SOL    HW2 3747   6.728   6.374   5.973
  950SOL     OW 3748   4.045   4.820   2.364
  950SOL    HW1 3749   4.104   4.894   2.394
  950SOL    HW2 3750   4.099   4.752   2.314
  951SOL     OW 3751   1.181   0.441   2.137
  951SOL    HW1 3752   1.169   0.342   2.144
  951SOL    HW2 3753   1.254   0.471   2.198
  952SOL     OW 3754   5.710   1.818   2.231
  952SOL    HW1 3755   5.652   1.738   2.243
  952SOL    HW2 3756   5.747   1.846   2.320
  953SOL     OW 3757   4.527   5.698   5.913
  953SOL    HW1 3758   4.523   5.795   5.937
  953SOL    HW2 3759   4.589   5.650   5.975
  954SOL     OW 3760   5.674   0.198   0.722
  954SOL    HW1 3761   5.679   0.205   0.622
  954SOL    HW2 3762   5.618   0.273   0.758
  955SOL     OW 3763   0.763   4.955   3.826
  955SOL    HW1 3764   0.819   4.920   3.901
  955SOL    HW2 3765   0.823   4.989   3.753
  956SOL     OW 3766   0.933   1.847   1.296
  956SOL    HW1 3767   1.007   1.908   1.269
  956SOL    HW2 3768   0.930   1.768   1.234
  957SOL     OW 3769   1.177   4.643   5.182
  957SOL    HW1 3770   1.128   4.666   5.267
  957SOL    HW2 3771   1.273   4.668   5.192
  958SOL     OW 3772   4.964   1.916   0.865
  958SOL    HW1 3773   5.042   1.852   0.862
  958SOL    HW2 3774   4.994   2.005   0.831
  959SOL     OW 3775   2.918   4.841   3.053
  959SOL    HW1 3776   2.842   4.860   2.991
  959SOL    HW2 3777   2.885   4.835   3.147
  960SOL     OW 3778   1.079   5.825   4.037
  960SOL    HW1 3779   1.079   5.801   3.940
  960SOL    HW2 3780   1.121   5.751   4.090
  961SOL     OW 3781   4.425   6.696   2.597
  961SOL    HW1 3782   4.490   6.772   2.587
  961SOL    HW2 3783   4.475   6.611   2.611
  962SOL     OW 3784   1.496   1.154   3.760
  962SOL    HW1 3785   1.434   1.166   3.837
  962SOL    HW2 3786   1.586   1.128   3.793
  963SOL     OW 3787   5.829   0.012   0.460
  963SOL    HW1 3788   5.912   0.052   0.421
  963SOL    HW2 3789   5.759   0.083   0.470
  964SOL     OW 3790   5.640   3.135   1.136
  964SOL    HW1 3791   5.664   3.227   1.105
  964SOL    HW2 3792   5.722   3.078   1.137
  965SOL     OW 3793   6.254   1.952   0.712
  965SOL    HW1 3794   6.178   1.919   0.768
  965SOL    HW2 3795   6.336   1.898   0.733
  966SOL     OW 3796   5.923   1.473   2.556
  966SOL    HW1 3797   5.886   1.445   2.467
  966SOL    HW2 3798   5.877   1.422   2.628
  967SOL     OW 3799   1.458   5.217   0.435
  967SOL    HW1 3800   1.444   5.125   0.472
  967SOL    HW2 3801   1.393   5.232   0.360
  968SOL     OW 3802   4.410   2.402   2.259
  968SOL    HW1 3803   4.380   2.477   2.199
  968SOL    HW2 3804   4.493   2.430   2.307
  969SOL     OW 3805   3.316   5.930   5.265
  969SOL    HW1 3806   3.341   5.996   5.336
  969SOL    HW2 3807   3.278   5.848   5.308
  970SOL     OW 3808   5.026   1.495   4.993
  970SOL    HW1 3809   4.971   1.416   4.965
  970SOL    HW2 3810   5.083   1.470   5.071
  971SOL     OW 3811   0.499   1.176   2.767
  971SOL    HW1 3812   0.511   1.269   2.802
  971SOL    HW2 3813   0.413   1.138   2.802
  972SOL     OW 3814   5.711   4.280   0.888
  972SOL    HW1 3815   5.623   4.324   0.874
  972SOL    HW2 3816   5.723   4.260   0.985
  973SOL     OW 3817   0.332   5.143   6.317
  973SOL    HW1 3818   0.309   5.149   6.220
  973SOL    HW2 3819   0.400   5.213   6.339
  974SOL     OW 3820   3.808   0.709   2.366
  974SOL    HW1 3821   3.901   0.742   2.383
  974SOL    HW2 3822   3.752   0.783   2.330
  975SOL     OW 3823   2.691   6.464   6.445
  975SOL    HW1 3824   2.759   6.457   6.372
  975SOL    HW2 3825   2.736   6.457   6.534
  976SOL     OW 3826   6.525   2.898   2.744
  976SOL    HW1 3827   6.437   2.935   2.773
  976SOL    HW2 3828   6.532   2.903   2.644
  977SOL     OW 3829   2.055   1.381   4.551
  977SOL    HW1 3830   2.076   1.475   4.578
  977SOL    HW2 3831   2.044   1.377   4.451
  978SOL     OW 3832   5.112   3.996   4.749
  978SOL    HW1 3833   5.033   4.027   4.697
  978SOL    HW2 3834   5.177   4.071   4.759
  979SOL     OW 3835   6.292   1.188   3.018
  979SOL    HW1 3836   6.377   1.219   2.975
  979SOL    HW2 3837   6.239   1.268   3.047
  980SOL     OW 3838   5.370   2.052   3.631
  980SOL    HW1 3839   5.372   2.119   3.706
  980SOL    HW2 3840   5.446   1.988   3.642
  981SOL     OW 3841   1.602   2.098   4.763
  981SOL    HW1 3842   1.581   2.080   4.859
  981SOL    HW2 3843   1.662   2.178   4.756
  982SOL     OW 3844   1.842   2.558   2.699
  982SOL    HW1 3845   1.934   2.570   2.662
  982SOL    HW2 3846   1.814   2.640   2.748
  983SOL     OW 3847   5.875   2.783   3.872
  983SOL    HW1 3848   5.845   2.700   3.919
  983SOL    HW2 3849   5.970   2.802   3.897
  984SOL     OW 3850   3.230   0.714   5.021
  984SOL    HW1 3851   3.251   0.623   4.987
  984SOL    HW2 3852   3.290   0.736   5.098
  985SOL     OW 3853   4.790   4.745   6.655
  985SOL    HW1 3854   4.756   4.691   6.732
  985SOL    HW2 3855   4.816   4.836   6.686
  986SOL     OW 3856   5.435   5.578   0.028
  986SOL    HW1 3857   5.494   5.498   0.038
  986SOL    HW2 3858   5.350   5.563   0.077
  987SOL     OW 3859   4.082   6.855   1.010
  987SOL    HW1 3860   4.148   6.924   1.041
  987SOL    HW2 3861   4.077   6.782   1.078
  988SOL     OW 3862   4.233   2.717   1.376
  988SOL    HW1 3863   4.138   2.732   1.347
  988SOL    HW2 3864   4.246   2.621   1.400
  989SOL     OW 3865   0.210   0.905   5.991
  989SOL    HW1 3866   0.185   0.855   5.908
  989SOL    HW2 3867   0.310   0.904   6.001
  990SOL     OW 3868   5.172   6.973   3.656
  990SOL    HW1 3869   5.111   6.963   3.578
  990SOL    HW2 3870   5.256   6.921   3.642
  991SOL     OW 3871   1.552   1.706   4.970
  991SOL    HW1 3872   1.548   1.805   4.977
  991SOL    HW2 3873   1.646   1.677   4.955
  992SOL     OW 3874   0.615   2.967   0.510
  992SOL    HW1 3875   0.565   2.909   0.446
  992SOL    HW2 3876   0.687   3.016   0.460
  993SOL     OW 3877   2.052   5.317   2.566
  993SOL    HW1 3878   1.952   5.318   2.576
  993SOL    HW2 3879   2.091   5.394   2.617
  994SOL     OW 3880   3.796   3.616   2.998
  994SOL    HW1 3881   3.739   3.681   3.049
  994SOL    HW2 3882   3.892   3.640   3.011
  995SOL     OW 3883   2.310   2.608   6.539
  995SOL    HW1 3884   2.229   2.607   6.598
  995SOL    HW2 3885   2.284   2.576   6.447
  996SOL     OW 3886   1.813   3.698   4.042
  996SOL    HW1 3887   1.807   3.602   4.013
  996SOL    HW2 3888   1.823   3.703   4.141
  997SOL     OW 3889   7.025   0.156   1.318
  997SOL    HW1 3890   0.001   0.142   1.219
  997SOL    HW2 3891   6.991   0.249   1.336
  998SOL     OW 3892   4.604   0.067   3.593
  998SOL    HW1 3893   4.653   0.144   3.553
  998SOL    HW2 3894   4.650   7.009   3.568
  999SOL     OW 3895   5.289   5.381   1.385
  999SOL    HW1 3896   5.286   5.293   1.433
  999SOL    HW2 3897   5.375   5.428   1.405
 1000SOL     OW 3898   0.986   0.865   2.825
 1000SOL    HW1 3899   0.921   0.941   2.821
 1000SOL    HW2 3900   0.985   0.816   2.738
 1001SOL     OW 3901   4.581   7.004   6.742
 1001SOL    HW1 3902   4.570   6.914   6.784
 1001SOL    HW2 3903   4.492   0.009   6.710
 1002SOL     OW 3904   5.416   1.862   6.323
 1002SOL    HW1 3905   5.359   1.943   6.318
 1002SOL    HW2 3906   5.398   1.813   6.408
 1003SOL     OW 3907   2.946   6.891   1.709
 1003SOL    HW1 3908   2.962   6.951   1.631
 1003SOL    HW2 3909   2.902   6.943   1.782
 1004SOL     OW 3910   6.888   0.696   0.136
 1004SOL    HW1 3911   6.798   0.651   0.131
 1004SOL    HW2 3912   6.876   0.795   0.126
 1005SOL     OW 3913   6.755   1.236   3.088
 1005SOL    HW1 3914   6.696   1.281   3.020
 1005SOL    HW2 3915   6.817   1.173   3.042
 1006SOL     OW 3916   2.300   6.196   1.660
 1006SOL    HW1 3917   2.225   6.246   1.704
 1006SOL    HW2 3918   2.294   6.206   1.561
 1007SOL     OW 3919   6.248   6.926   3.588
 1007SOL    HW1 3920   6.211   6.873   3.664
 1007SOL    HW2 3921   6.178   6.935   3.517
 1008SOL     OW 3922   1.548   3.050   4.161
 1008SOL    HW1 3923   1.597   3.137   4.155
 1008SOL    HW2 3924   1.614   2.975   4.168
 1009SOL     OW 3925   0.053   5.800   3.847
 1009SOL    HW1 3926   7.001   5.858   3.861
 1009SOL    HW2 3927   0.023   5.708   3.822
 1010SOL     OW 3928   4.079   2.777   0.167
 1010SOL    HW1 3929   4.110   2.872   0.176
 1010SOL    HW2 3930   4.077   2.751   0.071
 1011SOL     OW 3931   2.871   5.498   2.937
 1011SOL    HW1 3932   2.932   5.508   3.016
 1011SOL    HW2 3933   2.793   5.440   2.962
 1012SOL     OW 3934   6.649   5.230   0.189
 1012SOL    HW1 3935   6.586   5.166   0.234
 1012SOL    HW2 3936   6.643   5.218   0.090
 1013SOL     OW 3937   0.498   1.286   6.357
 1013SOL    HW1 3938   0.494   1.192   6.325
 1013SOL    HW2 3939   0.418   1.336   6.325
 1014SOL     OW 3940   5.370   5.846   0.056
 1014SOL    HW1 3941   5.409   5.756   0.038
 1014SOL    HW2 3942   5.372   5.864   0.154
 1015SOL     OW 3943   2.851   6.926   5.419
 1015SOL    HW1 3944   2.777   6.945   5.354
 1015SOL    HW2 3945   2.820   6.860   5.487
 1016SOL     OW 3946   2.146   2.942   0.967
 1016SOL    HW1 3947   2.104   2.860   1.006
 1016SOL    HW2 3948   2.134   2.941   0.867
 1017SOL     OW 3949   4.488   2.850   0.632
 1017SOL    HW1 3950   4.440   2.919   0.578
 1017SOL    HW2 3951   4.541   2.791   0.571
 1018SOL     OW 3952   1.861   3.437   3.979
 1018SOL    HW1 3953   1.924   3.377   4.028
 1018SOL    HW2 3954   1.906   3.474   3.898
 1019SOL     OW 3955   0.660   0.830   0.174
 1019SOL    HW1 3956   0.623   0.881   0.096
 1019SOL    HW2 3957   0.588   0.771   0.212
 1020SOL     OW 3958   1.628   6.728   1.299
 1020SOL    HW1 3959   1.649   6.819   1.335
 1020SOL    HW2 3960   1.538   6.730   1.255
 1021SOL     OW 3961   6.518   1.072   0.458
 1021SOL    HW1 3962   6.549   1.016   0.535
 1021SOL    HW2 3963   6.422   1.051   0.438
 1022SOL     OW 3964   4.024   5.065   5.972
 1022SOL    HW1 3965   4.117   5.086   5.942
 1022SOL    HW2 3966   3.985   4.994   5.912
 1023SOL     OW 3967   6.250   7.025   2.712
 1023SOL    HW1 3968   6.270   0.076   2.769
 1023SOL    HW2 3969   6.252   6.942   2.767
 1024SOL     OW 3970   6.612   2.880   4.442
 1024SOL    HW1 3971   6.548   2.873   4.365
 1024SOL    HW2 3972   6.646   2.974   4.449
 1025SOL     OW 3973   3.393   4.246   0.562
 1025SOL    HW1 3974   3.354   4.338   0.552
 1025SOL    HW2 3975   3.492   4.254   0.574
 1026SOL     OW 3976   1.068   1.798   0.533
 1026SOL    HW1 3977   1.095   1.851   0.613
 1026SOL    HW2 3978   1.148   1.752   0.495
 1027SOL     OW 3979   2.951   6.027   1.377
 1027SOL    HW1 3980   2.885   6.045   1.451
 1027SOL    HW2 3981   3.029   5.976   1.414
 1028SOL     OW 3982   3.147   5.865   6.809
 1028SOL    HW1 3983   3.081   5.791   6.826
 1028SOL    HW2 3984   3.206   5.839   6.732
 1029SOL     OW 3985   1.846   0.560   0.128
 1029SOL    HW1 3986   1.928   0.615   0.145
 1029SOL    HW2 3987   1.872   0.474   0.086
 1030SOL     OW 3988   3.584   3.228   3.099
 1030SOL    HW1 3989   3.661   3.245   3.038
 1030SOL    HW2 3990   3.518   3.303   3.092
 1031SOL     OW 3991   4.748   4.863   0.961
 1031SOL    HW1 3992   4.747   4.955   0.920
 1031SOL    HW2 3993   4.742   4.795   0.888
 1032SOL     OW 3994   1.405   1.931   4.693
 1032SOL    HW1 3995   1.354   2.002   4.643
 1032SOL    HW2 3996   1.490   1.970   4.729
 1033SOL     OW 3997   1.356   6.921   1.345
 1033SOL    HW1 3998   1.316   6.862   1.275
 1033SOL    HW2 3999   1.315   6.900   1.433
 1034SOL     OW 4000   1.642   6.315   4.583
 1034SOL    HW1 4001   1.575   6.309   4.657
 1034SOL    HW2 4002   1.614   6.387   4.518
 1035SOL     OW 4003   2.874   1.671   3.168
 1035SOL    HW1 4004   2.911   1.763   3.174
 1035SOL    HW2 4005   2.812   1.665   3.090
 1036SOL     OW 4006   3.367   0.161   0.902
 1036SOL    HW1 4007   3.395   0.251   0.937
 1036SOL    HW2 4008   3.269   0.161   0.884
 1037SOL     OW 4009   1.282   1.226   0.986
 1037SOL    HW1 4010   1.347   1.165   0.940
 1037SOL    HW2 4011   1.331   1.305   1.022
 1038SOL     OW 4012   1.247   0.925   5.936
 1038SOL    HW1 4013   1.226   0.828   5.927
 1038SOL    HW2 4014   1.210   0.975   5.857
 1039SOL     OW 4015   4.284   2.351   5.695
 1039SOL    HW1 4016   4.254   2.446   5.692
 1039SOL    HW2 4017   4.371   2.346   5.744
 1040SOL     OW 4018   5.465   3.018   3.121
 1040SOL    HW1 4019   5.455   2.967   3.035
 1040SOL    HW2 4020   5.428   2.963   3.196
 1041SOL     OW 4021   6.706   0.104   4.119
 1041SOL    HW1 4022   6.751   0.090   4.031
 1041SOL    HW2 4023   6.770   0.086   4.193
 1042SOL     OW 4024   3.311   4.889   2.508
 1042SOL    HW1 4025   3.316   4.800   2.555
 1042SOL    HW2 4026   3.216   4.918   2.501
 1043SOL     OW 4027   4.333   1.185   5.924
 1043SOL    HW1 4028   4.241   1.147   5.921
 1043SOL    HW2 4029   4.341   1.257   5.854
 1044SOL     OW 4030   4.398   2.523   1.696
 1044SOL    HW1 4031   4.456   2.482   1.767
 1044SOL    HW2 4032   4.428   2.617   1.680
 1045SOL     OW 4033   2.836   0.101   1.355
 1045SOL    HW1 4034   2.749   0.146   1.376
 1045SOL    HW2 4035   2.900   0.115   1.431
 1046SOL     OW 4036   2.350   6.728   6.436
 1046SOL    HW1 4037   2.428   6.771   6.481
 1046SOL    HW2 4038   2.376   6.638   6.402
 1047SOL     OW 4039   1.459   5.154   3.086
 1047SOL    HW1 4040   1.380   5.205   3.051
 1047SOL    HW2 4041   1.490   5.089   3.016
 1048SOL     OW 4042   4.516   5.679   5.644
 1048SOL    HW1 4043   4.534   5.683   5.742
 1048SOL    HW2 4044   4.447   5.747   5.620
 1049SOL     OW 4045   0.285   4.168   4.826
 1049SOL    HW1 4046   0.362   4.194   4.884
 1049SOL    HW2 4047   0.248   4.080   4.857
 1050SOL     OW 4048   2.792   5.520   1.220
 1050SOL    HW1 4049   2.712   5.540   1.276
 1050SOL    HW2 4050   2.853   5.598   1.219
 1051SOL     OW 4051   3.694   4.662   0.284
 1051SOL    HW1 4052   3.603   4.644   0.246
 1051SOL    HW2 4053   3.685   4.701   0.376
 1052SOL     OW 4054   4.771   0.290   3.912
 1052SOL    HW1 4055   4.862   0.288   3.870
 1052SOL    HW2 4056   4.777   0.253   4.005
 1053SOL     OW 4057   5.625   5.786   3.198
 1053SOL    HW1 4058   5.652   5.751   3.288
 1053SOL    HW2 4059   5.694   5.851   3.166
 1054SOL     OW 4060   2.399   4.994   5.254
 1054SOL    HW1 4061   2.342   5.000   5.335
 1054SOL    HW2 4062   2.371   4.915   5.199
 1055SOL     OW 4063   5.364   6.391   4.449
 1055SOL    HW1 4064   5.414   6.384   4.536
 1055SOL    HW2 4065   5.414   6.341   4.378
 1056SOL     OW 4066   1.542   6.391   5.370
 1056SOL    HW1 4067   1.566   6.366   5.464
 1056SOL    HW2 4068   1.594   6.333   5.307
 1057SOL     OW 4069   2.980   3.888   3.489
 1057SOL    HW1 4070   2.898   3.912   3.438
 1057SOL    HW2 4071   3.054   3.952   3.467
 1058SOL     OW 4072   4.798   1.535   2.642
 1058SOL    HW1 4073   4.767   1.555   2.549
 1058SOL    HW2 4074   4.860   1.608   2.673
 1059SOL     OW 4075   2.990   0.455   1.844
 1059SOL    HW1 4076   2.984   0.533   1.782
 1059SOL    HW2 4077   3.054   0.475   1.918
 1060SOL     OW 4078   0.126   3.756   5.304
 1060SOL    HW1 4079   0.199   3.792   5.362
 1060SOL    HW2 4080   0.039   3.798   5.330
 1061SOL     OW 4081   4.770   4.346   1.367
 1061SOL    HW1 4082   4.683   4.378   1.404
 1061SOL    HW2 4083   4.783   4.250   1.389
 1062SOL     OW 4084   6.729   5.970   5.863
 1062SOL    HW1 4085   6.748   6.054   5.812
 1062SOL    HW2 4086   6.733   5.892   5.801
 1063SOL     OW 4087   1.183   4.141   1.328
 1063SOL    HW1 4088   1.257   4.097   1.277
 1063SOL    HW2 4089   1.104   4.154   1.269
 1064SOL     OW 4090   1.159   4.060   2.305
 1064SOL    HW1 4091   1.205   4.062   2.394
 1064SOL    HW2 4092   1.198   3.987   2.249
 1065SOL     OW 4093   4.832   0.759   5.054
 1065SOL    HW1 4094   4.883   0.821   5.113
 1065SOL    HW2 4095   4.837   0.666   5.090
 1066SOL     OW 4096   5.257   0.411   3.925
 1066SOL    HW1 4097   5.307   0.359   3.856
 1066SOL    HW2 4098   5.181   0.356   3.960
 1067SOL     OW 4099   1.454   2.733   0.351
 1067SOL    HW1 4100   1.442   2.648   0.402
 1067SOL    HW2 4101   1.379   2.795   0.372
 1068SOL     OW 4102   5.888   3.629   2.005
 1068SOL    HW1 4103   5.911   3.691   1.930
 1068SOL    HW2 4104   5.941   3.544   1.997
 1069SOL     OW 4105   4.758   4.898   1.361
 1069SOL    HW1 4106   4.847   4.933   1.332
 1069SOL    HW2 4107   4.741   4.809   1.318
 1070SOL     OW 4108   0.810   1.106   6.528
 1070SOL    HW1 4109   0.858   1.039   6.584
 1070SOL    HW2 4110   0.876   1.162   6.478
 1071SOL     OW 4111   4.155   0.718   3.485
 1071SOL    HW1 4112   4.149   0.808   3.529
 1071SOL    HW2 4113   4.159   0.647   3.555
 1072SOL     OW 4114   2.019   6.186   2.298
 1072SOL    HW1 4115   2.016   6.266   2.238
 1072SOL    HW2 4116   1.930   6.141   2.298
 1073SOL     OW 4117   3.606   5.730   2.315
 1073SOL    HW1 4118   3.695   5.772   2.332
 1073SOL    HW2 4119   3.585   5.735   2.218
 1074SOL     OW 4120   1.844   5.787   1.850
 1074SOL    HW1 4121   1.924   5.728   1.853
 1074SOL    HW2 4122   1.769   5.740   1.803
 1075SOL     OW 4123   4.823   5.078   3.208
 1075SOL    HW1 4124   4.750   5.145   3.224
 1075SOL    HW2 4125   4.798   4.991   3.251
 1076SOL     OW 4126   0.686   4.476   5.131
 1076SOL    HW1 4127   0.722   4.461   5.039
 1076SOL    HW2 4128   0.749   4.535   5.182
 1077SOL     OW 4129   5.761   6.892   0.186
 1077SOL    HW1 4130   5.773   6.794   0.204
 1077SOL    HW2 4131   5.780   6.944   0.269
 1078SOL     OW 4132   1.695   1.183   2.032
 1078SOL    HW1 4133   1.784   1.209   2.069
 1078SOL    HW2 4134   1.626   1.189   2.104
 1079SOL     OW 4135   1.685   4.937   3.302
 1079SOL    HW1 4136   1.720   4.996   3.230
 1079SOL    HW2 4137   1.597   4.899   3.274
 1080SOL     OW 4138   1.840   4.446   3.647
 1080SOL    HW1 4139   1.781   4.503   3.590
 1080SOL    HW2 4140   1.806   4.352   3.647
 1081SOL     OW 4141   0.061   1.364   5.460
 1081SOL    HW1 4142   0.117   1.319   5.389
 1081SOL    HW2 4143   0.039   1.457   5.431
 1082SOL     OW 4144   1.423   0.250   6.008
 1082SOL    HW1 4145   1.373   0.313   6.068
 1082SOL    HW2 4146   1.503   0.215   6.056
 1083SOL     OW 4147   3.480   4.024   2.088
 1083SOL    HW1 4148   3.448   4.062   2.175
 1083SOL    HW2 4149   3.511   4.097   2.029
 1084SOL     OW 4150   6.584   5.399   0.994
 1084SOL    HW1 4151   6.504   5.457   1.006
 1084SOL    HW2 4152   6.580   5.322   1.058
 1085SOL     OW 4153   2.161   3.694   3.594
 1085SOL    HW1 4154   2.174   3.677   3.692
 1085SOL    HW2 4155   2.153   3.792   3.578
 1086SOL     OW 4156   6.123   5.697   3.132
 1086SOL    HW1 4157   6.197   5.677   3.068
 1086SOL    HW2 4158   6.078   5.612   3.159
 1087SOL     OW 4159   5.607   2.966   5.693
 1087SOL    HW1 4160   5.525   2.910   5.679
 1087SOL    HW2 4161   5.586   3.041   5.755
 1088SOL     OW 4162   6.187   4.967   3.400
 1088SOL    HW1 4163   6.147   5.056   3.377
 1088SOL    HW2 4164   6.280   4.962   3.364
 1089SOL     OW 4165   0.877   0.394   4.508
 1089SOL    HW1 4166   0.806   0.454   4.543
 1089SOL    HW2 4167   0.953   0.449   4.473
 1090SOL     OW 4168   2.896   1.414   4.119
 1090SOL    HW1 4169   2.957   1.386   4.045
 1090SOL    HW2 4170   2.872   1.510   4.108
 1091SOL     OW 4171   1.952   2.036   4.018
 1091SOL    HW1 4172   1.974   1.995   3.929
 1091SOL    HW2 4173   1.924   1.965   4.082
 1092SOL     OW 4174   2.053   3.780   1.565
 1092SOL    HW1 4175   1.995   3.821   1.494
 1092SOL    HW2 4176   2.069   3.847   1.637
 1093SOL     OW 4177   1.909   1.405   2.969
 1093SOL    HW1 4178   1.942   1.316   3.000
 1093SOL    HW2 4179   1.970   1.442   2.900
 1094SOL     OW 4180   6.919   6.609   2.605
 1094SOL    HW1 4181   6.984   6.598   2.681
 1094SOL    HW2 4182   6.890   6.519   2.573
 1095SOL     OW 4183   6.374   2.129   5.950
 1095SOL    HW1 4184   6.463   2.112   5.991
 1095SOL    HW2 4185   6.351   2.055   5.886
 1096SOL     OW 4186   3.382   4.846   1.518
 1096SOL    HW1 4187   3.409   4.916   1.452
 1096SOL    HW2 4188   3.285   4.824   1.506
 1097SOL     OW 4189   1.184   4.484   4.762
 1097SOL    HW1 4190   1.256   4.524   4.818
 1097SOL    HW2 4191   1.134   4.557   4.715
 1098SOL     OW 4192   5.438   2.691   1.077
 1098SOL    HW1 4193   5.409   2.725   0.987
 1098SOL    HW2 4194   5.377   2.727   1.147
 1099SOL     OW 4195   4.234   1.284   4.742
 1099SOL    HW1 4196   4.212   1.251   4.834
 1099SOL    HW2 4197   4.166   1.352   4.714
 1100SOL     OW 4198   1.706   1.474   6.321
 1100SOL    HW1 4199   1.771   1.471   6.246
 1100SOL    HW2 4200   1.649   1.556   6.312
 1101SOL     OW 4201   5.326   3.094   1.574
 1101SOL    HW1 4202   5.374   3.055   1.496
 1101SOL    HW2 4203   5.274   3.023   1.621
 1102SOL     OW 4204   1.397   4.691   3.724
 1102SOL    HW1 4205   1.323   4.680   3.791
 1102SOL    HW2 4206   1.475   4.734   3.768
 1103SOL     OW 4207   2.247   0.659   1.329
 1103SOL    HW1 4208   2.316   0.631   1.396
 1103SOL    HW2 4209   2.169   0.699   1.377
 1104SOL     OW 4210   2.067   4.416   6.046
 1104SOL    HW1 4211   2.012   4.408   6.130
 1104SOL    HW2 4212   2.039   4.345   5.982
 1105SOL     OW 4213   5.053   4.015   6.083
 1105SOL    HW1 4214   5.115   4.053   6.152
 1105SOL    HW2 4215   5.052   3.915   6.089
 1106SOL     OW 4216   1.166   1.489   6.976
 1106SOL    HW1 4217   1.077   1.504   6.933
 1106SOL    HW2 4218   1.153   1.465   0.044
 1107SOL     OW 4219   0.671   0.080   6.784
 1107SOL    HW1 4220   0.711   0.011   6.723
 1107SOL    HW2 4221   0.693   0.057   6.879
 1108SOL     OW 4222   2.654   0.365   5.733
 1108SOL    HW1 4223   2.611   0.407   5.654
 1108SOL    HW2 4224   2.627   0.415   5.816
 1109SOL     OW 4225   4.131   5.357   4.944
 1109SOL    HW1 4226   4.120   5.348   4.845
 1109SOL    HW2 4227   4.229   5.361   4.966
 1110SOL     OW 4228   3.403   1.947   1.770
 1110SOL    HW1 4229   3.376   1.854   1.745
 1110SOL    HW2 4230   3.327   1.993   1.815
 1111SOL     OW 4231   5.355   6.154   0.282
 1111SOL    HW1 4232   5.423   6.085   0.305
 1111SOL    HW2 4233   5.401   6.239   0.256
 1112SOL     OW 4234   6.197   0.917   2.550
 1112SOL    HW1 4235   6.153   0.989   2.496
 1112SOL    HW2 4236   6.148   0.831   2.537
 1113SOL     OW 4237   5.992   2.853   2.481
 1113SOL    HW1 4238   6.082   2.892   2.462
 1113SOL    HW2 4239   5.978   2.772   2.424
 1114SOL     OW 4240   4.744   1.065   6.449
 1114SOL    HW1 4241   4.771   1.105   6.536
 1114SOL    HW2 4242   4.806   0.989   6.427
 1115SOL     OW 4243   4.458   3.067   0.121
 1115SOL    HW1 4244   4.501   3.158   0.126
 1115SOL    HW2 4245   4.492   3.010   0.195
 1116SOL     OW 4246   5.175   5.377   4.079
 1116SOL    HW1 4247   5.228   5.423   4.008
 1116SOL    HW2 4248   5.189   5.424   4.166
 1117SOL     OW 4249   2.786   2.592   1.427
 1117SOL    HW1 4250   2.789   2.521   1.498
 1117SOL    HW2 4251   2.702   2.646   1.438
 1118SOL     OW 4252   1.071   4.914   2.396
 1118SOL    HW1 4253   1.098   4.967   2.477
 1118SOL    HW2 4254   1.039   4.977   2.325
 1119SOL     OW 4255   3.455   3.975   0.817
 1119SOL    HW1 4256   3.396   3.940   0.744
 1119SOL    HW2 4257   3.418   4.061   0.852
 1120SOL     OW 4258   5.400   6.576   5.932
 1120SOL    HW1 4259   5.359   6.513   5.866
 1120SOL    HW2 4260   5.329   6.612   5.993
 1121SOL     OW 4261   5.172   3.144   2.622
 1121SOL    HW1 4262   5.093   3.202   2.602
 1121SOL    HW2 4263   5.142   3.049   2.632
 1122SOL     OW 4264   4.599   2.732   6.146
 1122SOL    HW1 4265   4.677   2.717   6.085
 1122SOL    HW2 4266   4.527   2.665   6.126
 1123SOL     OW 4267   4.623   1.628   2.172
 1123SOL    HW1 4268   4.557   1.616   2.097
 1123SOL    HW2 4269   4.665   1.719   2.165
 1124SOL     OW 4270   0.131   3.991   4.965
 1124SOL    HW1 4271   0.169   3.899   4.977
 1124SOL    HW2 4272   0.109   4.030   5.055
 1125SOL     OW 4273   2.663   2.101   4.966
 1125SOL    HW1 4274   2.664   2.135   5.060
 1125SOL    HW2 4275   2.569   2.097   4.933
 1126SOL     OW 4276   4.929   6.919   6.578
 1126SOL    HW1 4277   4.970   6.940   6.667
 1126SOL    HW2 4278   4.855   6.983   6.560
 1127SOL     OW 4279   3.440   5.065   5.499
 1127SOL    HW1 4280   3.520   5.005   5.498
 1127SOL    HW2 4281   3.429   5.104   5.591
 1128SOL     OW 4282   4.429   2.378   4.635
 1128SOL    HW1 4283   4.366   2.439   4.586
 1128SOL    HW2 4284   4.462   2.307   4.572
 1129SOL     OW 4285   3.741   6.928   7.015
 1129SOL    HW1 4286   3.829   6.972   0.008
 1129SOL    HW2 4287   3.686   6.923   0.071
 1130SOL     OW 4288   1.447   4.300   0.157
 1130SOL    HW1 4289   1.462   4.379   0.216
 1130SOL    HW2 4290   1.506   4.306   0.077
 1131SOL     OW 4291   0.678   6.391   6.037
 1131SOL    HW1 4292   0.734   6.406   5.955
 1131SOL    HW2 4293   0.737   6.361   6.112
 1132SOL     OW 4294   4.382   0.286   6.890
 1132SOL    HW1 4295   4.287   0.316   6.883
 1132SOL    HW2 4296   4.400   0.216   6.822
 1133SOL     OW 4297   6.857   2.240   1.144
 1133SOL    HW1 4298   6.821   2.185   1.219
 1133SOL    HW2 4299   6.906   2.182   1.079
 1134SOL     OW 4300   5.550   1.958   0.009
 1134SOL    HW1 4301   5.465   2.010   0.018
 1134SOL    HW2 4302   5.528   1.860   0.002
 1135SOL     OW 4303   3.112   1.886   2.920
 1135SOL    HW1 4304   3.150   1.971   2.884
 1135SOL    HW2 4305   3.142   1.874   3.015
 1136SOL     OW 4306   2.987   4.903   4.573
 1136SOL    HW1 4307   3.055   4.843   4.613
 1136SOL    HW2 4308   3.004   4.912   4.474
 1137SOL     OW 4309   1.007   3.093   0.204
 1137SOL    HW1 4310   0.978   3.185   0.175
 1137SOL    HW2 4311   1.077   3.059   0.142
 1138SOL     OW 4312   1.925   2.184   5.956
 1138SOL    HW1 4313   1.871   2.218   5.879
 1138SOL    HW2 4314   2.005   2.135   5.921
 1139SOL     OW 4315   2.507   6.587   2.794
 1139SOL    HW1 4316   2.591   6.539   2.820
 1139SOL    HW2 4317   2.437   6.522   2.767
 1140SOL     OW 4318   4.065   2.045   2.475
 1140SOL    HW1 4319   4.103   2.126   2.431
 1140SOL    HW2 4320   3.999   2.002   2.413
 1141SOL     OW 4321   5.924   5.835   5.909
 1141SOL    HW1 4322   5.995   5.901   5.933
 1141SOL    HW2 4323   5.839   5.860   5.956
 1142SOL     OW 4324   5.007   0.396   4.833
 1142SOL    HW1 4325   5.048   0.471   4.884
 1142SOL    HW2 4326   5.027   0.408   4.735
 1143SOL     OW 4327   3.870   1.954   2.651
 1143SOL    HW1 4328   3.961   1.980   2.620
 1143SOL    HW2 4329   3.801   2.008   2.602
 1144SOL     OW 4330   6.770   4.007   4.581
 1144SOL    HW1 4331   6.781   4.085   4.519
 1144SOL    HW2 4332   6.828   4.019   4.661
 1145SOL     OW 4333   0.010   5.144   3.458
 1145SOL    HW1 4334   0.099   5.130   3.413
 1145SOL    HW2 4335   7.024   5.242   3.471
 1146SOL     OW 4336   5.523   1.257   0.986
 1146SOL    HW1 4337   5.547   1.176   1.039
 1146SOL    HW2 4338   5.423   1.266   0.982
 1147SOL     OW 4339   1.490   4.086   0.946
 1147SOL    HW1 4340   1.504   4.174   0.992
 1147SOL    HW2 4341   1.563   4.071   0.880
 1148SOL     OW 4342   2.932   6.147   6.588
 1148SOL    HW1 4343   2.845   6.152   6.539
 1148SOL    HW2 4344   2.944   6.056   6.628
 1149SOL     OW 4345   5.516   3.280   3.057
 1149SOL    HW1 4346   5.486   3.358   3.112
 1149SOL    HW2 4347   5.548   3.207   3.118
 1150SOL     OW 4348   2.314   4.408   1.656
 1150SOL    HW1 4349   2.408   4.383   1.678
 1150SOL    HW2 4350   2.308   4.506   1.637
 1151SOL     OW 4351   5.188   5.633   6.520
 1151SOL    HW1 4352   5.108   5.599   6.569
 1151SOL    HW2 4353   5.270   5.619   6.575
 1152SOL     OW 4354   1.076   0.023   4.646
 1152SOL    HW1 4355   1.027   0.093   4.698
 1152SOL    HW2 4356   1.102   6.977   4.707
 1153SOL     OW 4357   2.743   6.743   2.528
 1153SOL    HW1 4358   2.645   6.737   2.544
 1153SOL    HW2 4359   2.790   6.759   2.614
 1154SOL     OW 4360   0.552   3.229   1.619
 1154SOL    HW1 4361   0.549   3.174   1.536
 1154SOL    HW2 4362   0.475   3.206   1.678
 1155SOL     OW 4363   3.560   5.402   6.975
 1155SOL    HW1 4364   3.611   5.355   0.019
 1155SOL    HW2 4365   3.623   5.428   6.901
 1156SOL     OW 4366   2.449   0.730   4.109
 1156SOL    HW1 4367   2.485   0.816   4.071
 1156SOL    HW2 4368   2.352   0.723   4.087
 1157SOL     OW 4369   6.507   2.181   4.484
 1157SOL    HW1 4370   6.551   2.112   4.427
 1157SOL    HW2 4371   6.414   2.199   4.450
 1158SOL     OW 4372   6.167   5.452   5.619
 1158SOL    HW1 4373   6.127   5.495   5.538
 1158SOL    HW2 4374   6.227   5.376   5.591
 1159SOL     OW 4375   4.761   0.782   2.944
 1159SOL    HW1 4376   4.680   0.839   2.961
 1159SOL    HW2 4377   4.767   0.711   3.015
 1160SOL     OW 4378   3.170   3.835   1.491
 1160SOL    HW1 4379   3.244   3.768   1.484
 1160SOL    HW2 4380   3.209   3.927   1.489
 1161SOL     OW 4381   4.681   0.319   5.289
 1161SOL    HW1 4382   4.758   0.258   5.269
 1161SOL    HW2 4383   4.603   0.266   5.320
 1162SOL     OW 4384   3.968   2.939   0.999
 1162SOL    HW1 4385   3.996   3.035   1.007
 1162SOL    HW2 4386   3.870   2.931   1.015
 1163SOL     OW 4387   5.322   2.447   1.953
 1163SOL    HW1 4388   5.312   2.522   2.017
 1163SOL    HW2 4389   5.295   2.361   1.996
 1164SOL     OW 4390   5.441   2.431   3.991
 1164SOL    HW1 4391   5.429   2.522   3.951
 1164SOL    HW2 4392   5.413   2.433   4.087
 1165SOL     OW 4393   1.832   3.597   3.593
 1165SOL    HW1 4394   1.742   3.582   3.552
 1165SOL    HW2 4395   1.885   3.512   3.591
 1166SOL     OW 4396   3.693   1.095   0.007
 1166SOL    HW1 4397   3.596   1.092   0.029
 1166SOL    HW2 4398   3.737   1.012   0.043
 1167SOL     OW 4399   2.998   0.274   5.494
 1167SOL    HW1 4400   2.971   0.344   5.428
 1167SOL    HW2 4401   3.010   0.315   5.584
 1168SOL     OW 4402   5.904   7.017   2.108
 1168SOL    HW1 4403   5.966   6.963   2.051
 1168SOL    HW2 4404   5.956   0.037   2.178
 1169SOL     OW 4405   0.125   3.169   0.446
 1169SOL    HW1 4406   0.168   3.095   0.394
 1169SOL    HW2 4407   0.118   3.251   0.388
 1170SOL     OW 4408   3.891   0.642   1.975
 1170SOL    HW1 4409   3.963   0.678   2.034
 1170SOL    HW2 4410   3.844   0.717   1.928
 1171SOL     OW 4411   2.798   5.957   0.409
 1171SOL    HW1 4412   2.839   6.016   0.339
 1171SOL    HW2 4413   2.734   6.010   0.464
 1172SOL     OW 4414   3.018   3.749   3.900
 1172SOL    HW1 4415   2.977   3.764   3.810
 1172SOL    HW2 4416   3.059   3.658   3.903
 1173SOL     OW 4417   3.774   0.071   5.900
 1173SOL    HW1 4418   3.738   0.012   5.827
 1173SOL    HW2 4419   3.828   0.145   5.859
 1174SOL     OW 4420   2.984   5.796   1.146
 1174SOL    HW1 4421   2.912   5.865   1.135
 1174SOL    HW2 4422   3.011   5.790   1.242
 1175SOL     OW 4423   5.017   3.923   0.160
 1175SOL    HW1 4424   5.106   3.916   0.114
 1175SOL    HW2 4425   5.004   3.843   0.219
 1176SOL     OW 4426   6.126   4.576   0.123
 1176SOL    HW1 4427   6.164   4.668   0.135
 1176SOL    HW2 4428   6.152   4.520   0.202
 1177SOL     OW 4429   0.485   2.332   4.996
 1177SOL    HW1 4430   0.454   2.420   5.032
 1177SOL    HW2 4431   0.565   2.302   5.047
 1178SOL     OW 4432   4.617   4.010   1.676
 1178SOL    HW1 4433   4.561   4.080   1.721
 1178SOL    HW2 4434   4.557   3.948   1.624
 1179SOL     OW 4435   2.241   4.724   0.657
 1179SOL    HW1 4436   2.318   4.787   0.647
 1179SOL    HW2 4437   2.245   4.681   0.748
 1180SOL     OW 4438   2.728   0.861   4.038
 1180SOL    HW1 4439   2.728   0.827   4.133
 1180SOL    HW2 4440   2.647   0.917   4.023
 1181SOL     OW 4441   1.001   3.383   4.300
 1181SOL    HW1 4442   1.068   3.328   4.249
 1181SOL    HW2 4443   1.029   3.479   4.300
 1182SOL     OW 4444   2.112   4.617   3.340
 1182SOL    HW1 4445   2.149   4.545   3.281
 1182SOL    HW2 4446   2.186   4.674   3.374
 1183SOL     OW 4447   4.321   5.418   2.580
 1183SOL    HW1 4448   4.420   5.420   2.592
 1183SOL    HW2 4449   4.282   5.349   2.642
 1184SOL     OW 4450   3.617   2.464   5.673
 1184SOL    HW1 4451   3.577   2.539   5.726
 1184SOL    HW2 4452   3.596   2.377   5.718
 1185SOL     OW 4453   2.134   0.412   0.501
 1185SOL    HW1 4454   2.180   0.474   0.438
 1185SOL    HW2 4455   2.095   0.336   0.450
 1186SOL     OW 4456   6.150   0.044   5.993
 1186SOL    HW1 4457   6.157   0.133   6.039
 1186SOL    HW2 4458   6.056   0.031   5.960
 1187SOL     OW 4459   5.419   6.400   5.179
 1187SOL    HW1 4460   5.418   6.340   5.259
 1187SOL    HW2 4461   5.352   6.474   5.190
 1188SOL     OW 4462   3.163   6.591   6.506
 1188SOL    HW1 4463   3.238   6.567   6.568
 1188SOL    HW2 4464   3.077   6.590   6.555
 1189SOL     OW 4465   5.088   1.198   2.256
 1189SOL    HW1 4466   5.063   1.270   2.321
 1189SOL    HW2 4467   5.012   1.184   2.192
 1190SOL     OW 4468   4.172   4.849   4.403
 1190SOL    HW1 4469   4.200   4.808   4.489
 1190SOL    HW2 4470   4.072   4.852   4.399
 1191SOL     OW 4471   3.382   5.205   5.722
 1191SOL    HW1 4472   3.289   5.183   5.696
 1191SOL    HW2 4473   3.397   5.180   5.818
 1192SOL     OW 4474   5.341   4.672   2.739
 1192SOL    HW1 4475   5.308   4.646   2.829
 1192SOL    HW2 4476   5.317   4.767   2.720
 1193SOL     OW 4477   6.569   6.914   4.256
 1193SOL    HW1 4478   6.592   6.990   4.195
 1193SOL    HW2 4479   6.569   6.946   4.351
 1194SOL     OW 4480   0.226   1.424   0.471
 1194SOL    HW1 4481   0.259   1.438   0.377
 1194SOL    HW2 4482   0.286   1.473   0.534
 1195SOL     OW 4483   6.310   1.830   0.467
 1195SOL    HW1 4484   6.254   1.750   0.449
 1195SOL    HW2 4485   6.273   1.880   0.545
 1196SOL     OW 4486   0.089   5.128   1.678
 1196SOL    HW1 4487   0.064   5.095   1.586
 1196SOL    HW2 4488   0.146   5.059   1.723
 1197SOL     OW 4489   3.870   6.067   5.896
 1197SOL    HW1 4490   3.831   6.077   5.804
 1197SOL    HW2 4491   3.948   6.005   5.892
 1198SOL     OW 4492   2.305   2.788   2.300
 1198SOL    HW1 4493   2.357   2.709   2.267
 1198SOL    HW2 4494   2.313   2.795   2.399
 1199SOL     OW 4495   4.058   3.663   3.082
 1199SOL    HW1 4496   4.053   3.756   3.119
 1199SOL    HW2 4497   4.062   3.598   3.158
 1200SOL     OW 4498   4.280   3.605   5.260
 1200SOL    HW1 4499   4.372   3.591   5.223
 1200SOL    HW2 4500   4.268   3.702   5.283
 1201SOL     OW 4501   0.780   1.303   4.506
 1201SOL    HW1 4502   0.872   1.307   4.545
 1201SOL    HW2 4503   0.757   1.207   4.486
 1202SOL     OW 4504   6.017   0.859   6.113
 1202SOL    HW1 4505   5.981   0.916   6.186
 1202SOL    HW2 4506   6.080   0.791   6.151
 1203SOL     OW 4507   5.599   6.800   1.047
 1203SOL    HW1 4508   5.512   6.788   1.095
 1203SOL    HW2 4509   5.617   6.719   0.991
 1204SOL     OW 4510   4.192   1.350   0.316
 1204SOL    HW1 4511   4.195   1.251   0.329
 1204SOL    HW2 4512   4.116   1.389   0.368
 1205SOL     OW 4513   5.459   3.208   6.924
 1205SOL    HW1 4514   5.429   3.260   7.004
 1205SOL    HW2 4515   5.451   3.110   6.943
 1206SOL     OW 4516   1.530   1.359   5.071
 1206SOL    HW1 4517   1.533   1.266   5.035
 1206SOL    HW2 4518   1.469   1.415   5.014
 1207SOL     OW 4519   6.490   6.507   1.097
 1207SOL    HW1 4520   6.582   6.528   1.130
 1207SOL    HW2 4521   6.489   6.508   0.997
 1208SOL     OW 4522   3.704   4.111   2.755
 1208SOL    HW1 4523   3.687   4.013   2.763
 1208SOL    HW2 4524   3.758   4.129   2.673
 1209SOL     OW 4525   5.800   6.409   5.208
 1209SOL    HW1 4526   5.767   6.455   5.125
 1209SOL    HW2 4527   5.799   6.474   5.284
 1210SOL     OW 4528   4.020   0.221   2.920
 1210SOL    HW1 4529   3.949   0.171   2.970
 1210SOL    HW2 4530   4.082   0.265   2.986
 1211SOL     OW 4531   1.623   3.325   3.868
 1211SOL    HW1 4532   1.684   3.247   3.880
 1211SOL    HW2 4533   1.645   3.394   3.938
 1212SOL     OW 4534   0.675   2.793   5.494
 1212SOL    HW1 4535   0.757   2.798   5.550
 1212SOL    HW2 4536   0.681   2.857   5.418
 1213SOL     OW 4537   6.071   2.539   4.883
 1213SOL    HW1 4538   6.115   2.449   4.886
 1213SOL    HW2 4539   6.137   2.609   4.909
 1214SOL     OW 4540   1.783   3.093   3.869
 1214SOL    HW1 4541   1.841   3.095   3.951
 1214SOL    HW2 4542   1.718   3.017   3.876
 1215SOL     OW 4543   2.177   4.334   2.289
 1215SOL    HW1 4544   2.119   4.361   2.213
 1215SOL    HW2 4545   2.265   4.380   2.283
 1216SOL     OW 4546   0.315   0.017   1.445
 1216SOL    HW1 4547   0.394   7.000   1.486
 1216SOL    HW2 4548   0.276   6.987   1.374
 1217SOL     OW 4549   1.388   6.582   0.999
 1217SOL    HW1 4550   1.349   6.537   0.919
 1217SOL    HW2 4551   1.373   6.524   1.080
 1218SOL     OW 4552   1.091   2.887   4.653
 1218SOL    HW1 4553   1.188   2.884   4.676
 1218SOL    HW2 4554   1.038   2.906   4.735
 1219SOL     OW 4555   4.467   5.099   1.178
 1219SOL    HW1 4556   4.462   5.002   1.151
 1219SOL    HW2 4557   4.392   5.119   1.241
 1220SOL     OW 4558   5.082   3.810   2.407
 1220SOL    HW1 4559   5.142   3.772   2.477
 1220SOL    HW2 4560   5.083   3.751   2.327
 1221SOL     OW 4561   5.956   3.527   6.812
 1221SOL    HW1 4562   5.971   3.536   6.911
 1221SOL    HW2 4563   6.036   3.486   6.770
 1222SOL     OW 4564   6.746   0.367   0.549
 1222SOL    HW1 4565   6.820   0.301   0.563
 1222SOL    HW2 4566   6.783   0.451   0.510
 1223SOL     OW 4567   5.325   0.926   0.905
 1223SOL    HW1 4568   5.374   0.994   0.852
 1223SOL    HW2 4569   5.349   0.934   1.002
 1224SOL     OW 4570   3.548   6.241   6.925
 1224SOL    HW1 4571   3.642   6.208   6.929
 1224SOL    HW2 4572   3.510   6.224   6.834
 1225SOL     OW 4573   3.812   1.838   1.231
 1225SOL    HW1 4574   3.757   1.917   1.257
 1225SOL    HW2 4575   3.908   1.866   1.223
 1226SOL     OW 4576   5.673   6.516   0.811
 1226SOL    HW1 4577   5.725   6.485   0.731
 1226SOL    HW2 4578   5.673   6.445   0.881
 1227SOL     OW 4579   6.391   5.209   5.639
 1227SOL    HW1 4580   6.329   5.152   5.586
 1227SOL    HW2 4581   6.474   5.158   5.659
 1228SOL     OW 4582   3.796   2.995   1.441
 1228SOL    HW1 4583   3.734   2.952   1.375
 1228SOL    HW2 4584   3.753   3.000   1.530
 1229SOL     OW 4585   1.548   6.852   2.244
 1229SOL    HW1 4586   1.563   6.941   2.200
 1229SOL    HW2 4587   1.458   6.817   2.217
 1230SOL     OW 4588   5.329   5.516   2.868
 1230SOL    HW1 4589   5.367   5.596   2.822
 1230SOL    HW2 4590   5.235   5.501   2.835
 1231SOL     OW 4591   1.554   3.073   5.874
 1231SOL    HW1 4592   1.609   3.030   5.946
 1231SOL    HW2 4593   1.593   3.162   5.851
 1232SOL     OW 4594   4.565   1.155   5.262
 1232SOL    HW1 4595   4.534   1.235   5.314
 1232SOL    HW2 4596   4.545   1.169   5.165
 1233SOL     OW 4597   0.517   5.161   3.511
 1233SOL    HW1 4598   0.541   5.151   3.415
 1233SOL    HW2 4599   0.441   5.227   3.519
 1234SOL     OW 4600   0.154   2.812   6.874
 1234SOL    HW1 4601   0.093   2.886   6.847
 1234SOL    HW2 4602   0.112   2.760   6.948
 1235SOL     OW 4603   6.415   5.261   6.793
 1235SOL    HW1 4604   6.447   5.211   6.874
 1235SOL    HW2 4605   6.395   5.355   6.819
 1236SOL     OW 4606   3.327   1.826   0.509
 1236SOL    HW1 4607   3.336   1.761   0.434
 1236SOL    HW2 4608   3.418   1.859   0.536
 1237SOL     OW 4609   1.714   6.672   4.757
 1237SOL    HW1 4610   1.687   6.592   4.810
 1237SOL    HW2 4611   1.658   6.678   4.674
 1238SOL     OW 4612   0.255   6.583   3.406
 1238SOL    HW1 4613   0.302   6.579   3.318
 1238SOL    HW2 4614   0.311   6.538   3.476
 1239SOL     OW 4615   6.675   5.066   4.712
 1239SOL    HW1 4616   6.770   5.082   4.684
 1239SOL    HW2 4617   6.659   4.967   4.719
 1240SOL     OW 4618   6.027   5.676   2.299
 1240SOL    HW1 4619   6.084   5.758   2.300
 1240SOL    HW2 4620   6.075   5.601   2.254
 1241SOL     OW 4621   6.676   4.754   4.703
 1241SOL    HW1 4622   6.666   4.722   4.609
 1241SOL    HW2 4623   6.630   4.690   4.765
 1242SOL     OW 4624   2.128   4.283   6.966
 1242SOL    HW1 4625   2.107   4.300   0.034
 1242SOL    HW2 4626   2.106   4.188   6.944
 1243SOL     OW 4627   0.242   2.194   4.995
 1243SOL    HW1 4628   0.336   2.228   5.005
 1243SOL    HW2 4629   0.191   2.212   5.079
 1244SOL     OW 4630   5.201   6.948   5.378
 1244SOL    HW1 4631   5.165   6.856   5.394
 1244SOL    HW2 4632   5.145   7.015   5.427
 1245SOL     OW 4633   5.363   5.688   1.064
 1245SOL    HW1 4634   5.399   5.688   1.158
 1245SOL    HW2 4635   5.331   5.780   1.041
 1246SOL     OW 4636   4.364   1.184   1.542
 1246SOL    HW1 4637   4.334   1.158   1.634
 1246SOL    HW2 4638   4.401   1.277   1.544
 1247SOL     OW 4639   6.506   6.616   4.581
 1247SOL    HW1 4640   6.426   6.635   4.523
 1247SOL    HW2 4641   6.505   6.520   4.608
 1248SOL     OW 4642   1.031   6.131   4.295
 1248SOL    HW1 4643   1.021   6.098   4.201
 1248SOL    HW2 4644   0.954   6.191   4.318
 1249SOL     OW 4645   6.971   4.093   1.422
 1249SOL    HW1 4646   6.924   4.006   1.435
 1249SOL    HW2 4647   0.037   4.076   1.393
 1250SOL     OW 4648   6.044   3.540   5.466
 1250SOL    HW1 4649   6.119   3.589   5.510
 1250SOL    HW2 4650   6.077   3.451   5.434
 1251SOL     OW 4651   1.871   1.134   2.703
 1251SOL    HW1 4652   1.790   1.092   2.661
 1251SOL    HW2 4653   1.907   1.073   2.774
 1252SOL     OW 4654   3.464   5.361   6.592
 1252SOL    HW1 4655   3.430   5.285   6.536
 1252SOL    HW2 4656   3.510   5.325   6.673
 1253SOL     OW 4657   3.053   0.985   1.329
 1253SOL    HW1 4658   3.068   1.030   1.417
 1253SOL    HW2 4659   3.138   0.945   1.298
 1254SOL     OW 4660   6.513   1.524   3.063
 1254SOL    HW1 4661   6.561   1.603   3.024
 1254SOL    HW2 4662   6.542   1.511   3.157
 1255SOL     OW 4663   5.551   2.772   5.121
 1255SOL    HW1 4664   5.530   2.695   5.060
 1255SOL    HW2 4665   5.618   2.831   5.077
 1256SOL     OW 4666   6.728   6.352   3.162
 1256SOL    HW1 4667   6.748   6.423   3.230
 1256SOL    HW2 4668   6.677   6.278   3.206
 1257SOL     OW 4669   6.932   4.442   4.542
 1257SOL    HW1 4670   6.989   4.446   4.623
 1257SOL    HW2 4671   6.888   4.352   4.536
 1258SOL     OW 4672   2.380   6.094   3.455
 1258SOL    HW1 4673   2.415   6.050   3.373
 1258SOL    HW2 4674   2.409   6.043   3.536
 1259SOL     OW 4675   3.746   6.714   4.778
 1259SOL    HW1 4676   3.752   6.630   4.831
 1259SOL    HW2 4677   3.690   6.781   4.826
 1260SOL     OW 4678   2.916   1.051   2.117
 1260SOL    HW1 4679   2.996   0.995   2.138
 1260SOL    HW2 4680   2.844   0.994   2.079
 1261SOL     OW 4681   6.683   3.611   0.378
 1261SOL    HW1 4682   6.770   3.585   0.336
 1261SOL    HW2 4683   6.611   3.549   0.346
 1262SOL     OW 4684   4.479   4.483   1.105
 1262SOL    HW1 4685   4.513   4.498   1.198
 1262SOL    HW2 4686   4.431   4.566   1.074
 1263SOL     OW 4687   6.353   2.284   1.461
 1263SOL    HW1 4688   6.317   2.194   1.485
 1263SOL    HW2 4689   6.306   2.319   1.380
 1264SOL     OW 4690   0.273   4.320   3.161
 1264SOL    HW1 4691   0.213   4.257   3.211
 1264SOL    HW2 4692   0.350   4.270   3.122
 1265SOL     OW 4693   6.757   4.481   3.989
 1265SOL    HW1 4694   6.819   4.505   3.915
 1265SOL    HW2 4695   6.674   4.440   3.950
 1266SOL     OW 4696   2.657   1.803   4.379
 1266SOL    HW1 4697   2.673   1.704   4.381
 1266SOL    HW2 4698   2.613   1.831   4.465
 1267SOL     OW 4699   5.867   5.832   1.623
 1267SOL    HW1 4700   5.919   5.912   1.592
 1267SOL    HW2 4701   5.769   5.855   1.625
 1268SOL     OW 4702   5.349   2.911   0.653
 1268SOL    HW1 4703   5.405   2.855   0.592
 1268SOL    HW2 4704   5.379   2.897   0.747
 1269SOL     OW 4705   6.261   6.498   5.331
 1269SOL    HW1 4706   6.210   6.414   5.314
 1269SOL    HW2 4707   6.359   6.479   5.324
 1270SOL     OW 4708   2.148   3.887   4.367
 1270SOL    HW1 4709   2.054   3.906   4.393
 1270SOL    HW2 4710   2.210   3.941   4.424
 1271SOL     OW 4711   3.398   1.657   2.922
 1271SOL    HW1 4712   3.303   1.627   2.939
 1271SOL    HW2 4713   3.449   1.653   3.008
 1272SOL     OW 4714   0.209   6.092   1.273
 1272SOL    HW1 4715   0.223   6.181   1.230
 1272SOL    HW2 4716   0.117   6.059   1.252
 1273SOL     OW 4717   2.102   3.817   0.059
 1273SOL    HW1 4718   2.058   3.904   0.035
 1273SOL    HW2 4719   2.191   3.810   0.013
 1274SOL     OW 4720   6.941   2.965   1.749
 1274SOL    HW1 4721   6.929   2.909   1.831
 1274SOL    HW2 4722   7.013   2.927   1.692
 1275SOL     OW 4723   4.760   0.327   3.583
 1275SOL    HW1 4724   4.848   0.304   3.624
 1275SOL    HW2 4725   4.706   0.381   3.648
 1276SOL     OW 4726   6.977   0.337   3.632
 1276SOL    HW1 4727   6.965   0.360   3.729
 1276SOL    HW2 4728   0.045   0.343   3.608
 1277SOL     OW 4729   1.036   0.536   4.229
 1277SOL    HW1 4730   1.046   0.439   4.247
 1277SOL    HW2 4731   1.058   0.588   4.312
 1278SOL     OW 4732   1.747   1.490   5.149
 1278SOL    HW1 4733   1.769   1.529   5.060
 1278SOL    HW2 4734   1.659   1.442   5.143
 1279SOL     OW 4735   2.206   6.819   0.828
 1279SOL    HW1 4736   2.247   6.818   0.737
 1279SOL    HW2 4737   2.230   6.734   0.876
 1280SOL     OW 4738   2.702   6.483   3.422
 1280SOL    HW1 4739   2.733   6.522   3.336
 1280SOL    HW2 4740   2.624   6.423   3.405
 1281SOL     OW 4741   1.068   5.618   3.150
 1281SOL    HW1 4742   1.161   5.654   3.138
 1281SOL    HW2 4743   1.005   5.670   3.092
 1282SOL     OW 4744   0.678   1.094   0.690
 1282SOL    HW1 4745   0.606   1.086   0.759
 1282SOL    HW2 4746   0.767   1.085   0.733
 1283SOL     OW 4747   5.288   3.337   5.385
 1283SOL    HW1 4748   5.218   3.294   5.442
 1283SOL    HW2 4749   5.376   3.332   5.432
 1284SOL     OW 4750   3.107   2.934   2.019
 1284SOL    HW1 4751   3.085   2.859   1.957
 1284SOL    HW2 4752   3.187   2.909   2.074
 1285SOL     OW 4753   5.555   3.615   6.343
 1285SOL    HW1 4754   5.499   3.584   6.266
 1285SOL    HW2 4755   5.635   3.557   6.352
 1286SOL     OW 4756   4.329   4.581   2.545
 1286SOL    HW1 4757   4.391   4.648   2.506
 1286SOL    HW2 4758   4.350   4.490   2.509
 1287SOL     OW 4759   5.352   4.479   6.155
 1287SOL    HW1 4760   5.356   4.578   6.171
 1287SOL    HW2 4761   5.281   4.438   6.212
 1288SOL     OW 4762   6.876   3.197   1.379
 1288SOL    HW1 4763   6.853   3.111   1.425
 1288SOL    HW2 4764   6.818   3.209   1.299
 1289SOL     OW 4765   0.574   6.113   1.567
 1289SOL    HW1 4766   0.503   6.160   1.619
 1289SOL    HW2 4767   0.542   6.096   1.474
 1290SOL     OW 4768   0.489   0.967   0.475
 1290SOL    HW1 4769   0.492   1.052   0.424
 1290SOL    HW2 4770   0.581   0.929   0.483
 1291SOL     OW 4771   1.693   4.636   6.131
 1291SOL    HW1 4772   1.766   4.602   6.072
 1291SOL    HW2 4773   1.639   4.705   6.083
 1292SOL     OW 4774   6.735   4.883   2.241
 1292SOL    HW1 4775   6.661   4.820   2.219
 1292SOL    HW2 4776   6.698   4.967   2.280
 1293SOL     OW 4777   3.019   1.456   6.273
 1293SOL    HW1 4778   2.958   1.530   6.300
 1293SOL    HW2 4779   3.109   1.470   6.315
 1294SOL     OW 4780   0.499   3.044   0.753
 1294SOL    HW1 4781   0.535   3.014   0.665
 1294SOL    HW2 4782   0.413   3.093   0.739
 1295SOL     OW 4783   6.500   3.714   2.609
 1295SOL    HW1 4784   6.532   3.797   2.564
 1295SOL    HW2 4785   6.564   3.639   2.590
 1296SOL     OW 4786   4.491   1.299   6.146
 1296SOL    HW1 4787   4.468   1.219   6.202
 1296SOL    HW2 4788   4.486   1.275   6.049
 1297SOL     OW 4789   5.836   0.721   6.403
 1297SOL    HW1 4790   5.839   0.806   6.456
 1297SOL    HW2 4791   5.746   0.711   6.361
 1298SOL     OW 4792   6.120   3.209   3.455
 1298SOL    HW1 4793   6.063   3.280   3.496
 1298SOL    HW2 4794   6.092   3.195   3.359
 1299SOL     OW 4795   1.384   4.126   3.118
 1299SOL    HW1 4796   1.338   4.043   3.147
 1299SOL    HW2 4797   1.412   4.118   3.022
 1300SOL     OW 4798   3.852   3.469   2.192
 1300SOL    HW1 4799   3.824   3.374   2.206
 1300SOL    HW2 4800   3.949   3.478   2.216
 1301SOL     OW 4801   0.872   5.691   2.471
 1301SOL    HW1 4802   0.888   5.653   2.562
 1301SOL    HW2 4803   0.875   5.790   2.475
 1302SOL     OW 4804   2.786   6.800   5.071
 1302SOL    HW1 4805   2.753   6.781   4.978
 1302SOL    HW2 4806   2.878   6.762   5.082
 1303SOL     OW 4807   4.459   1.804   0.389
 1303SOL    HW1 4808   4.448   1.761   0.478
 1303SOL    HW2 4809   4.451   1.735   0.317
 1304SOL     OW 4810   1.987   1.600   6.516
 1304SOL    HW1 4811   2.044   1.674   6.552
 1304SOL    HW2 4812   1.928   1.635   6.443
 1305SOL     OW 4813   6.084   5.890   6.726
 1305SOL    HW1 4814   6.134   5.813   6.766
 1305SOL    HW2 4815   6.113   5.903   6.631
 1306SOL     OW 4816   0.487   4.839   5.686
 1306SOL    HW1 4817   0.560   4.839   5.753
 1306SOL    HW2 4818   0.522   4.807   5.598
 1307SOL     OW 4819   1.882   3.003   3.634
 1307SOL    HW1 4820   1.849   3.029   3.725
 1307SOL    HW2 4821   1.977   2.973   3.641
 1308SOL     OW 4822   3.856   5.922   4.694
 1308SOL    HW1 4823   3.852   5.881   4.785
 1308SOL    HW2 4824   3.818   5.858   4.627
 1309SOL     OW 4825   5.419   3.125   5.226
 1309SOL    HW1 4826   5.513   3.155   5.207
 1309SOL    HW2 4827   5.371   3.198   5.276
 1310SOL     OW 4828   5.692   3.627   4.795
 1310SOL    HW1 4829   5.734   3.718   4.796
 1310SOL    HW2 4830   5.746   3.566   4.737
 1311SOL     OW 4831   6.539   6.431   4.257
 1311SOL    HW1 4832   6.559   6.526   4.230
 1311SOL    HW2 4833   6.446   6.408   4.230
 1312SOL     OW 4834   0.786   0.316   6.764
 1312SOL    HW1 4835   0.703   0.358   6.728
 1312SOL    HW2 4836   0.784   0.217   6.746
 1313SOL     OW 4837   1.905   5.659   5.646
 1313SOL    HW1 4838   2.004   5.667   5.643
 1313SOL    HW2 4839   1.869   5.717   5.719
 1314SOL     OW 4840   1.739   1.773   5.786
 1314SOL    HW1 4841   1.790   1.692   5.758
 1314SOL    HW2 4842   1.802   1.851   5.791
 1315SOL     OW 4843   0.821   1.033   0.428
 1315SOL    HW1 4844   0.801   1.090   0.348
 1315SOL    HW2 4845   0.789   1.079   0.511
 1316SOL     OW 4846   2.323   0.354   3.065
 1316SOL    HW1 4847   2.323   0.449   3.034
 1316SOL    HW2 4848   2.405   0.336   3.119
 1317SOL     OW 4849   1.001   4.016   4.783
 1317SOL    HW1 4850   0.974   3.959   4.705
 1317SOL    HW2 4851   0.998   4.113   4.756
 1318SOL     OW 4852   6.951   0.926   0.753
 1318SOL    HW1 4853   6.910   0.942   0.663
 1318SOL    HW2 4854   7.015   1.000   0.774
 1319SOL     OW 4855   6.780   1.794   7.013
 1319SOL    HW1 4856   6.773   1.729   6.937
 1319SOL    HW2 4857   6.873   1.831   7.017
 1320SOL     OW 4858   5.784   4.013   0.066
 1320SOL    HW1 4859   5.868   4.067   0.074
 1320SOL    HW2 4860   5.712   4.054   0.122
 1321SOL     OW 4861   4.184   2.503   6.831
 1321SOL    HW1 4862   4.268   2.504   6.885
 1321SOL    HW2 4863   4.207   2.487   6.735
 1322SOL     OW 4864   5.412   1.134   3.331
 1322SOL    HW1 4865   5.374   1.165   3.244
 1322SOL    HW2 4866   5.362   1.054   3.363
 1323SOL     OW 4867   5.003   2.110   5.194
 1323SOL    HW1 4868   4.923   2.093   5.251
 1323SOL    HW2 4869   5.037   2.024   5.156
 1324SOL     OW 4870   1.334   2.177   1.960
 1324SOL    HW1 4871   1.357   2.273   1.945
 1324SOL    HW2 4872   1.318   2.132   1.872
 1325SOL     OW 4873   3.148   0.032   2.144
 1325SOL    HW1 4874   3.061   0.074   2.167
 1325SOL    HW2 4875   3.140   7.010   2.058
 1326SOL     OW 4876   4.895   2.753   4.609
 1326SOL    HW1 4877   4.915   2.696   4.689
 1326SOL    HW2 4878   4.959   2.729   4.535
 1327SOL     OW 4879   3.356   5.593   2.960
 1327SOL    HW1 4880   3.320   5.502   2.941
 1327SOL    HW2 4881   3.391   5.633   2.876
 1328SOL     OW 4882   0.824   3.091   0.402
 1328SOL    HW1 4883   0.898   3.087   0.334
 1328SOL    HW2 4884   0.861   3.070   0.492
 1329SOL     OW 4885   6.740   1.479   0.383
 1329SOL    HW1 4886   6.784   1.545   0.321
 1329SOL    HW2 4887   6.689   1.412   0.329
 1330SOL     OW 4888   6.831   6.938   0.909
 1330SOL    HW1 4889   6.904   6.991   0.952
 1330SOL    HW2 4890   6.815   6.971   0.817
 1331SOL     OW 4891   4.498   2.072   2.907
 1331SOL    HW1 4892   4.438   2.003   2.947
 1331SOL    HW2 4893   4.451   2.117   2.830
 1332SOL     OW 4894   3.387   0.271   0.187
 1332SOL    HW1 4895   3.452   0.282   0.112
 1332SOL    HW2 4896   3.309   0.332   0.173
 1333SOL     OW 4897   4.077   4.057   5.991
 1333SOL    HW1 4898   4.115   4.120   5.922
 1333SOL    HW2 4899   4.017   4.108   6.053
 1334SOL     OW 4900   0.549   3.019   4.254
 1334SOL    HW1 4901   0.483   3.064   4.314
 1334SOL    HW2 4902   0.564   2.926   4.285
 1335SOL     OW 4903   2.718   6.415   2.880
 1335SOL    HW1 4904   2.697   6.389   2.974
 1335SOL    HW2 4905   2.806   6.463   2.878
 1336SOL     OW 4906   1.845   1.012   5.750
 1336SOL    HW1 4907   1.885   0.992   5.839
 1336SOL    HW2 4908   1.747   1.029   5.761
 1337SOL     OW 4909   0.900   2.485   4.879
 1337SOL    HW1 4910   0.951   2.474   4.964
 1337SOL    HW2 4911   0.823   2.548   4.894
 1338SOL     OW 4912   4.532   3.780   5.979
 1338SOL    HW1 4913   4.455   3.828   5.938
 1338SOL    HW2 4914   4.498   3.718   6.050
 1339SOL     OW 4915   0.340   6.439   0.055
 1339SOL    HW1 4916   0.271   6.370   0.075
 1339SOL    HW2 4917   0.419   6.424   0.115
 1340SOL     OW 4918   0.995   1.700   1.554
 1340SOL    HW1 4919   0.995   1.764   1.477
 1340SOL    HW2 4920   1.049   1.619   1.530
 1341SOL     OW 4921   3.914   0.251   5.747
 1341SOL    HW1 4922   3.869   0.193   5.679
 1341SOL    HW2 4923   3.943   0.337   5.705
 1342SOL     OW 4924   1.124   5.404   6.235
 1342SOL    HW1 4925   1.080   5.493   6.225
 1342SOL    HW2 4926   1.067   5.346   6.294
 1343SOL     OW 4927   3.943   6.736   2.555
 1343SOL    HW1 4928   4.005   6.700   2.625
 1343SOL    HW2 4929   3.951   6.836   2.552
 1344SOL     OW 4930   6.966   3.516   3.286
 1344SOL    HW1 4931   6.925   3.425   3.291
 1344SOL    HW2 4932   7.025   3.530   3.366
 1345SOL     OW 4933   0.821   1.573   3.285
 1345SOL    HW1 4934   0.853   1.479   3.295
 1345SOL    HW2 4935   0.895   1.631   3.251
 1346SOL     OW 4936   1.902   0.245   2.565
 1346SOL    HW1 4937   1.842   0.175   2.604
 1346SOL    HW2 4938   1.965   0.278   2.635
 1347SOL     OW 4939   6.377   6.330   3.770
 1347SOL    HW1 4940   6.371   6.354   3.673
 1347SOL    HW2 4941   6.289   6.345   3.814
 1348SOL     OW 4942   5.928   5.349   3.089
 1348SOL    HW1 4943   5.886   5.323   3.002
 1348SOL    HW2 4944   5.898   5.287   3.161
 1349SOL     OW 4945   5.040   2.890   6.693
 1349SOL    HW1 4946   5.071   2.980   6.664
 1349SOL    HW2 4947   5.044   2.884   6.793
 1350SOL     OW 4948   4.122   4.929   6.853
 1350SOL    HW1 4949   4.185   4.977   6.793
 1350SOL    HW2 4950   4.166   4.847   6.891
 1351SOL     OW 4951   0.930   1.134   3.255
 1351SOL    HW1 4952   0.927   1.151   3.156
 1351SOL    HW2 4953   0.844   1.094   3.285
 1352SOL     OW 4954   0.359   0.407   3.323
 1352SOL    HW1 4955   0.359   0.493   3.272
 1352SOL    HW2 4956   0.433   0.349   3.288
 1353SOL     OW 4957   6.953   4.257   6.000
 1353SOL    HW1 4958   6.993   4.295   5.916
 1353SOL    HW2 4959   6.880   4.318   6.032
 1354SOL     OW 4960   6.814   1.985   0.325
 1354SOL    HW1 4961   6.721   2.007   0.297
 1354SOL    HW2 4962   6.813   1.939   0.413
 1355SOL     OW 4963   5.267   3.291   6.174
 1355SOL    HW1 4964   5.183   3.271   6.225
 1355SOL    HW2 4965   5.346   3.254   6.224
 1356SOL     OW 4966   3.546   3.585   4.564
 1356SOL    HW1 4967   3.491   3.505   4.587
 1356SOL    HW2 4968   3.498   3.641   4.497
 1357SOL     OW 4969   2.855   3.256   5.988
 1357SOL    HW1 4970   2.799   3.293   6.062
 1357SOL    HW2 4971   2.868   3.325   5.917
 1358SOL     OW 4972   2.929   2.117   6.321
 1358SOL    HW1 4973   2.837   2.138   6.354
 1358SOL    HW2 4974   2.943   2.018   6.323
 1359SOL     OW 4975   6.757   4.248   1.317
 1359SOL    HW1 4976   6.705   4.253   1.232
 1359SOL    HW2 4977   6.834   4.186   1.306
 1360SOL     OW 4978   3.847   3.866   2.700
 1360SOL    HW1 4979   3.869   3.879   2.796
 1360SOL    HW2 4980   3.808   3.776   2.686
 1361SOL     OW 4981   6.817   6.851   6.256
 1361SOL    HW1 4982   6.861   6.920   6.313
 1361SOL    HW2 4983   6.875   6.769   6.252
 1362SOL     OW 4984   2.924   3.730   5.075
 1362SOL    HW1 4985   2.962   3.677   5.000
 1362SOL    HW2 4986   2.894   3.668   5.148
 1363SOL     OW 4987   6.481   6.322   4.498
 1363SOL    HW1 4988   6.550   6.252   4.518
 1363SOL    HW2 4989   6.512   6.377   4.420
 1364SOL     OW 4990   0.081   2.233   6.801
 1364SOL    HW1 4991   0.158   2.279   6.845
 1364SOL    HW2 4992   0.029   2.299   6.747
 1365SOL     OW 4993   1.333   3.600   5.534
 1365SOL    HW1 4994   1.273   3.648   5.598
 1365SOL    HW2 4995   1.336   3.503   5.557
 1366SOL     OW 4996   0.307   3.913   1.128
 1366SOL    HW1 4997   0.332   3.999   1.084
 1366SOL    HW2 4998   0.270   3.932   1.219
 1367SOL     OW 4999   1.241   4.934   3.005
 1367SOL    HW1 5000   1.153   4.968   2.971
 1367SOL    HW2 5001   1.312   5.002   2.988
 1368SOL     OW 5002   6.798   0.538   4.120
 1368SOL    HW1 5003   6.713   0.567   4.075
 1368SOL    HW2 5004   6.777   0.499   4.209
 1369SOL     OW 5005   2.145   5.970   2.153
 1369SOL    HW1 5006   2.119   6.059   2.190
 1369SOL    HW2 5007   2.100   5.955   2.066
 1370SOL     OW 5008   6.610   2.096   4.232
 1370SOL    HW1 5009   6.691   2.153   4.244
 1370SOL    HW2 5010   6.557   2.130   4.154
 1371SOL     OW 5011   5.080   0.909   4.684
 1371SOL    HW1 5012   5.077   0.987   4.746
 1371SOL    HW2 5013   5.120   0.938   4.597
 1372SOL     OW 5014   6.524   2.321   1.120
 1372SOL    HW1 5015   6.532   2.222   1.134
 1372SOL    HW2 5016   6.587   2.350   1.048
 1373SOL     OW 5017   5.234   1.870   0.522
 1373SOL    HW1 5018   5.201   1.824   0.604
 1373SOL    HW2 5019   5.200   1.964   0.519
 1374SOL     OW 5020   5.281   4.493   6.988
 1374SOL    HW1 5021   5.261   4.438   6.908
 1374SOL    HW2 5022   5.313   4.435   0.034
 1375SOL     OW 5023   6.990   6.662   6.347
 1375SOL    HW1 5024   6.990   6.569   6.383
 1375SOL    HW2 5025   0.036   6.714   6.389
 1376SOL     OW 5026   2.938   4.895   6.358
 1376SOL    HW1 5027   2.853   4.856   6.323
 1376SOL    HW2 5028   3.016   4.844   6.321
 1377SOL     OW 5029   1.063   2.694   3.937
 1377SOL    HW1 5030   0.998   2.751   3.887
 1377SOL    HW2 5031   1.014   2.618   3.979
 1378SOL     OW 5032   5.034   2.676   4.874
 1378SOL    HW1 5033   5.023   2.597   4.934
 1378SOL    HW2 5034   5.061   2.756   4.929
 1379SOL     OW 5035   4.455   5.636   2.938
 1379SOL    HW1 5036   4.488   5.588   2.857
 1379SOL    HW2 5037   4.445   5.734   2.918
 1380SOL     OW 5038   0.014   6.076   2.869
 1380SOL    HW1 5039   0.035   6.170   2.844
 1380SOL    HW2 5040   6.967   6.075   2.934
 1381SOL     OW 5041   6.013   1.599   6.899
 1381SOL    HW1 5042   6.017   1.651   6.814
 1381SOL    HW2 5043   5.987   1.505   6.878
 1382SOL     OW 5044   4.959   2.768   1.103
 1382SOL    HW1 5045   4.865   2.734   1.094
 1382SOL    HW2 5046   4.965   2.826   1.184
 1383SOL     OW 5047   0.619   6.875   1.422
 1383SOL    HW1 5048   0.581   6.847   1.334
 1383SOL    HW2 5049   0.636   6.794   1.478
 1384SOL     OW 5050   4.433   0.002   1.469
 1384SOL    HW1 5051   4.418   0.098   1.492
 1384SOL    HW2 5052   4.531   7.011   1.468
 1385SOL     OW 5053   2.210   4.665   3.658
 1385SOL    HW1 5054   2.267   4.709   3.588
 1385SOL    HW2 5055   2.203   4.567   3.639
 1386SOL     OW 5056   3.437   0.328   3.483
 1386SOL    HW1 5057   3.396   0.265   3.417
 1386SOL    HW2 5058   3.399   0.312   3.574
 1387SOL     OW 5059   2.956   5.720   2.336
 1387SOL    HW1 5060   2.976   5.648   2.402
 1387SOL    HW2 5061   2.889   5.686   2.269
 1388SOL     OW 5062   6.497   6.943   2.274
 1388SOL    HW1 5063   6.549   6.925   2.357
 1388SOL    HW2 5064   6.547   7.009   2.218
 1389SOL     OW 5065   5.934   2.207   4.256
 1389SOL    HW1 5066   5.852   2.258   4.230
 1389SOL    HW2 5067   6.004   2.270   4.288
 1390SOL     OW 5068   0.191   3.868   0.022
 1390SOL    HW1 5069   0.270   3.914   0.062
 1390SOL    HW2 5070   0.217   3.826   6.964
 1391SOL     OW 5071   6.360   6.816   4.754
 1391SOL    HW1 5072   6.421   6.740   4.732
 1391SOL    HW2 5073   6.270   6.780   4.780
 1392SOL     OW 5074   5.762   5.970   6.091
 1392SOL    HW1 5075   5.751   6.062   6.055
 1392SOL    HW2 5076   5.789   5.975   6.187
 1393SOL     OW 5077   6.298   4.816   5.537
 1393SOL    HW1 5078   6.278   4.762   5.455
 1393SOL    HW2 5079   6.264   4.909   5.525
 1394SOL     OW 5080   2.900   5.393   5.221
 1394SOL    HW1 5081   2.840   5.421   5.296
 1394SOL    HW2 5082   2.930   5.299   5.236
 1395SOL     OW 5083   2.421   4.118   5.513
 1395SOL    HW1 5084   2.405   4.038   5.454
 1395SOL    HW2 5085   2.516   4.118   5.544
 1396SOL     OW 5086   1.212   1.171   4.945
 1396SOL    HW1 5087   1.142   1.236   4.975
 1396SOL    HW2 5088   1.303   1.209   4.962
 1397SOL     OW 5089   0.490   0.323   3.735
 1397SOL    HW1 5090   0.470   0.416   3.704
 1397SOL    HW2 5091   0.588   0.306   3.729
 1398SOL     OW 5092   2.982   0.401   6.032
 1398SOL    HW1 5093   2.977   0.486   6.084
 1398SOL    HW2 5094   3.028   0.331   6.087
 1399SOL     OW 5095   3.419   5.467   0.521
 1399SOL    HW1 5096   3.468   5.553   0.538
 1399SOL    HW2 5097   3.323   5.487   0.504
 1400SOL     OW 5098   0.080   1.005   2.685
 1400SOL    HW1 5099   0.124   1.015   2.774
 1400SOL    HW2 5100   0.124   0.931   2.634
 1401SOL     OW 5101   6.501   1.832   4.598
 1401SOL    HW1 5102   6.437   1.904   4.624
 1401SOL    HW2 5103   6.512   1.830   4.499
 1402SOL     OW 5104   0.128   3.648   0.247
 1402SOL    HW1 5105   0.207   3.613   0.197
 1402SOL    HW2 5106   0.048   3.648   0.187
 1403SOL     OW 5107   2.146   2.265   1.920
 1403SOL    HW1 5108   2.236   2.233   1.949
 1403SOL    HW2 5109   2.130   2.357   1.957
 1404SOL     OW 5110   5.337   6.681   0.183
 1404SOL    HW1 5111   5.387   6.757   0.142
 1404SOL    HW2 5112   5.357   6.676   0.281
 1405SOL     OW 5113   1.770   4.108   1.313
 1405SOL    HW1 5114   1.753   4.178   1.243
 1405SOL    HW2 5115   1.709   4.123   1.391
 1406SOL     OW 5116   0.959   5.398   1.272
 1406SOL    HW1 5117   0.968   5.470   1.204
 1406SOL    HW2 5118   0.988   5.311   1.232
 1407SOL     OW 5119   0.419   2.229   2.656
 1407SOL    HW1 5120   0.483   2.155   2.635
 1407SOL    HW2 5121   0.389   2.221   2.751
 1408SOL     OW 5122   5.731   1.164   5.459
 1408SOL    HW1 5123   5.778   1.088   5.504
 1408SOL    HW2 5124   5.660   1.199   5.520
 1409SOL     OW 5125   0.738   0.935   5.057
 1409SOL    HW1 5126   0.753   1.023   5.012
 1409SOL    HW2 5127   0.649   0.898   5.031
 1410SOL     OW 5128   1.758   3.371   6.360
 1410SOL    HW1 5129   1.716   3.318   6.433
 1410SOL    HW2 5130   1.701   3.449   6.338
 1411SOL     OW 5131   2.929   6.692   1.472
 1411SOL    HW1 5132   2.896   6.783   1.497
 1411SOL    HW2 5133   2.924   6.632   1.552
 1412SOL     OW 5134   0.189   2.265   0.753
 1412SOL    HW1 5135   0.180   2.247   0.851
 1412SOL    HW2 5136   0.283   2.292   0.732
 1413SOL     OW 5137   1.579   1.934   5.508
 1413SOL    HW1 5138   1.553   1.969   5.598
 1413SOL    HW2 5139   1.678   1.922   5.504
 1414SOL     OW 5140   2.329   1.385   2.070
 1414SOL    HW1 5141   2.363   1.440   1.993
 1414SOL    HW2 5142   2.229   1.395   2.076
 1415SOL     OW 5143   2.201   0.523   4.613
 1415SOL    HW1 5144   2.292   0.560   4.594
 1415SOL    HW2 5145   2.132   0.592   4.590
 1416SOL     OW 5146   4.964   5.044   4.355
 1416SOL    HW1 5147   5.028   5.107   4.400
 1416SOL    HW2 5148   4.871   5.061   4.388
 1417SOL     OW 5149   2.862   2.150   0.401
 1417SOL    HW1 5150   2.926   2.181   0.331
 1417SOL    HW2 5151   2.769   2.155   0.365
 1418SOL     OW 5152   2.908   3.416   3.810
 1418SOL    HW1 5153   2.919   3.505   3.766
 1418SOL    HW2 5154   2.898   3.346   3.739
 1419SOL     OW 5155   2.264   5.961   4.832
 1419SOL    HW1 5156   2.209   5.881   4.807
 1419SOL    HW2 5157   2.227   6.042   4.785
 1420SOL     OW 5158   2.591   0.139   1.005
 1420SOL    HW1 5159   2.493   0.137   0.988
 1420SOL    HW2 5160   2.621   0.052   1.042
 1421SOL     OW 5161   1.898   3.839   3.493
 1421SOL    HW1 5162   1.830   3.908   3.515
 1421SOL    HW2 5163   1.874   3.752   3.537
 1422SOL     OW 5164   1.312   3.739   1.487
 1422SOL    HW1 5165   1.242   3.683   1.441
 1422SOL    HW2 5166   1.360   3.794   1.419
 1423SOL     OW 5167   5.614   6.211   2.917
 1423SOL    HW1 5168   5.664   6.278   2.971
 1423SOL    HW2 5169   5.548   6.164   2.975
 1424SOL     OW 5170   6.495   5.530   5.994
 1424SOL    HW1 5171   6.569   5.528   6.060
 1424SOL    HW2 5172   6.473   5.437   5.965
 1425SOL     OW 5173   0.985   6.634   4.917
 1425SOL    HW1 5174   1.070   6.678   4.944
 1425SOL    HW2 5175   0.996   6.534   4.923
 1426SOL     OW 5176   2.018   3.260   6.302
 1426SOL    HW1 5177   2.027   3.181   6.363
 1426SOL    HW2 5178   1.941   3.316   6.331
 1427SOL     OW 5179   0.197   6.855   3.627
 1427SOL    HW1 5180   0.263   6.926   3.603
 1427SOL    HW2 5181   0.241   6.765   3.624
 1428SOL     OW 5182   6.365   3.364   0.728
 1428SOL    HW1 5183   6.438   3.296   0.727
 1428SOL    HW2 5184   6.403   3.454   0.703
 1429SOL     OW 5185   4.938   2.235   0.262
 1429SOL    HW1 5186   5.005   2.166   0.235
 1429SOL    HW2 5187   4.967   2.281   0.345
 1430SOL     OW 5188   1.522   4.128   3.878
 1430SOL    HW1 5189   1.621   4.129   3.864
 1430SOL    HW2 5190   1.482   4.212   3.842
 1431SOL     OW 5191   2.505   2.215   1.234
 1431SOL    HW1 5192   2.529   2.118   1.229
 1431SOL    HW2 5193   2.523   2.258   1.145
 1432SOL     OW 5194   2.904   1.156   2.395
 1432SOL    HW1 5195   2.901   1.125   2.300
 1432SOL    HW2 5196   2.970   1.100   2.445
 1433SOL     OW 5197   3.990   0.773   5.522
 1433SOL    HW1 5198   3.903   0.812   5.492
 1433SOL    HW2 5199   4.064   0.837   5.499
 1434SOL     OW 5200   0.331   0.140   5.797
 1434SOL    HW1 5201   0.321   0.045   5.767
 1434SOL    HW2 5202   0.320   0.145   5.897
 1435SOL     OW 5203   5.958   0.276   3.088
 1435SOL    HW1 5204   5.904   0.218   3.027
 1435SOL    HW2 5205   6.045   0.299   3.043
 1436SOL     OW 5206   5.690   3.602   0.353
 1436SOL    HW1 5207   5.711   3.544   0.432
 1436SOL    HW2 5208   5.630   3.553   0.291
 1437SOL     OW 5209   3.035   2.234   3.668
 1437SOL    HW1 5210   2.986   2.307   3.715
 1437SOL    HW2 5211   3.047   2.156   3.730
 1438SOL     OW 5212   3.309   6.046   1.393
 1438SOL    HW1 5213   3.348   6.002   1.313
 1438SOL    HW2 5214   3.327   5.989   1.474
 1439SOL     OW 5215   6.870   5.663   1.363
 1439SOL    HW1 5216   6.923   5.634   1.283
 1439SOL    HW2 5217   6.779   5.622   1.359
 1440SOL     OW 5218   3.467   3.225   0.036
 1440SOL    HW1 5219   3.426   3.301   7.014
 1440SOL    HW2 5220   3.414   3.207   0.119
 1441SOL     OW 5221   6.226   0.587   4.136
 1441SOL    HW1 5222   6.279   0.647   4.197
 1441SOL    HW2 5223   6.131   0.616   4.135
 1442SOL     OW 5224   0.344   5.992   0.111
 1442SOL    HW1 5225   0.331   5.914   0.173
 1442SOL    HW2 5226   0.322   5.965   0.018
 1443SOL     OW 5227   0.543   3.136   3.677
 1443SOL    HW1 5228   0.472   3.206   3.678
 1443SOL    HW2 5229   0.628   3.175   3.711
 1444SOL     OW 5230   4.977   6.167   0.929
 1444SOL    HW1 5231   4.975   6.219   1.014
 1444SOL    HW2 5232   5.018   6.077   0.946
 1445SOL     OW 5233   0.869   3.050   3.252
 1445SOL    HW1 5234   0.921   3.098   3.182
 1445SOL    HW2 5235   0.899   3.080   3.343
 1446SOL     OW 5236   5.973   1.638   0.149
 1446SOL    HW1 5237   5.886   1.593   0.131
 1446SOL    HW2 5238   6.016   1.662   0.062
 1447SOL     OW 5239   5.902   6.158   4.009
 1447SOL    HW1 5240   5.996   6.184   4.029
 1447SOL    HW2 5241   5.901   6.072   3.958
 1448SOL     OW 5242   6.588   3.067   5.430
 1448SOL    HW1 5243   6.655   3.110   5.369
 1448SOL    HW2 5244   6.536   3.137   5.478
 1449SOL     OW 5245   1.694   3.322   5.850
 1449SOL    HW1 5246   1.777   3.322   5.905
 1449SOL    HW2 5247   1.654   3.414   5.849
 1450SOL     OW 5248   0.984   2.212   6.803
 1450SOL    HW1 5249   1.008   2.256   6.890
 1450SOL    HW2 5250   1.035   2.126   6.794
 1451SOL     OW 5251   0.915   5.930   2.278
 1451SOL    HW1 5252   0.825   5.973   2.278
 1451SOL    HW2 5253   0.948   5.922   2.371
 1452SOL     OW 5254   4.318   2.225   5.456
 1452SOL    HW1 5255   4.295   2.268   5.543
 1452SOL    HW2 5256   4.398   2.166   5.468
 1453SOL     OW 5257   0.488   4.135   5.834
 1453SOL    HW1 5258   0.549   4.210   5.809
 1453SOL    HW2 5259   0.538   4.069   5.890
 1454SOL     OW 5260   0.665   2.621   2.160
 1454SOL    HW1 5261   0.630   2.550   2.221
 1454SOL    HW2 5262   0.675   2.584   2.067
 1455SOL     OW 5263   1.747   6.605   2.179
 1455SOL    HW1 5264   1.801   6.564   2.106
 1455SOL    HW2 5265   1.753   6.704   2.173
 1456SOL     OW 5266   6.266   0.300   6.324
 1456SOL    HW1 5267   6.230   0.290   6.232
 1456SOL    HW2 5268   6.354   0.348   6.321
 1457SOL     OW 5269   0.786   6.215   1.121
 1457SOL    HW1 5270   0.785   6.123   1.162
 1457SOL    HW2 5271   0.880   6.248   1.118
 1458SOL     OW 5272   6.171   5.141   4.808
 1458SOL    HW1 5273   6.132   5.051   4.793
 1458SOL    HW2 5274   6.134   5.205   4.741
 1459SOL     OW 5275   3.935   6.881   5.624
 1459SOL    HW1 5276   4.027   6.908   5.654
 1459SOL    HW2 5277   3.886   6.842   5.702
 1460SOL     OW 5278   0.811   0.391   4.961
 1460SOL    HW1 5279   0.728   0.385   5.017
 1460SOL    HW2 5280   0.890   0.408   5.019
 1461SOL     OW 5281   6.795   4.282   2.819
 1461SOL    HW1 5282   6.731   4.232   2.760
 1461SOL    HW2 5283   6.862   4.330   2.761
 1462SOL     OW 5284   1.603   1.099   6.626
 1462SOL    HW1 5285   1.581   1.179   6.681
 1462SOL    HW2 5286   1.683   1.118   6.569
 1463SOL     OW 5287   0.529   5.715   5.832
 1463SOL    HW1 5288   0.489   5.785   5.773
 1463SOL    HW2 5289   0.626   5.704   5.810
 1464SOL     OW 5290   0.113   6.147   2.127
 1464SOL    HW1 5291   0.197   6.201   2.130
 1464SOL    HW2 5292   0.035   6.207   2.111
 1465SOL     OW 5293   1.595   0.979   4.079
 1465SOL    HW1 5294   1.539   0.898   4.061
 1465SOL    HW2 5295   1.645   1.004   3.996
 1466SOL     OW 5296   2.697   1.555   2.515
 1466SOL    HW1 5297   2.776   1.562   2.455
 1466SOL    HW2 5298   2.646   1.641   2.514
 1467SOL     OW 5299   1.850   1.322   3.751
 1467SOL    HW1 5300   1.894   1.393   3.805
 1467SOL    HW2 5301   1.896   1.314   3.662
 1468SOL     OW 5302   2.230   5.405   2.356
 1468SOL    HW1 5303   2.309   5.450   2.398
 1468SOL    HW2 5304   2.166   5.376   2.427
 1469SOL     OW 5305   6.831   0.683   2.879
 1469SOL    HW1 5306   6.923   0.684   2.919
 1469SOL    HW2 5307   6.768   0.732   2.939
 1470SOL     OW 5308   1.134   1.705   2.171
 1470SOL    HW1 5309   1.098   1.746   2.087
 1470SOL    HW2 5310   1.172   1.776   2.230
 1471SOL     OW 5311   0.467   0.139   0.819
 1471SOL    HW1 5312   0.513   0.161   0.905
 1471SOL    HW2 5313   0.530   0.154   0.742
 1472SOL     OW 5314   2.212   5.897   6.038
 1472SOL    HW1 5315   2.178   5.916   6.130
 1472SOL    HW2 5316   2.196   5.976   5.979
 1473SOL     OW 5317   3.515   5.406   5.641
 1473SOL    HW1 5318   3.475   5.337   5.701
 1473SOL    HW2 5319   3.445   5.473   5.616
 1474SOL     OW 5320   5.018   4.672   1.671
 1474SOL    HW1 5321   4.983   4.585   1.637
 1474SOL    HW2 5322   4.943   4.737   1.680
 1475SOL     OW 5323   5.283   0.638   1.188
 1475SOL    HW1 5324   5.237   0.609   1.271
 1475SOL    HW2 5325   5.216   0.675   1.123
 1476SOL     OW 5326   2.633   1.137   1.432
 1476SOL    HW1 5327   2.694   1.213   1.456
 1476SOL    HW2 5328   2.635   1.123   1.333
 1477SOL     OW 5329   3.878   6.677   6.046
 1477SOL    HW1 5330   3.796   6.729   6.068
 1477SOL    HW2 5331   3.853   6.592   6.000
 1478SOL     OW 5332   6.238   5.785   5.445
 1478SOL    HW1 5333   6.176   5.724   5.394
 1478SOL    HW2 5334   6.326   5.740   5.458
 1479SOL     OW 5335   2.546   3.149   1.264
 1479SOL    HW1 5336   2.583   3.218   1.202
 1479SOL    HW2 5337   2.617   3.082   1.286
 1480SOL     OW 5338   2.863   0.103   4.765
 1480SOL    HW1 5339   2.871   0.202   4.761
 1480SOL    HW2 5340   2.785   0.073   4.710
 1481SOL     OW 5341   6.120   3.032   6.344
 1481SOL    HW1 5342   6.156   2.965   6.280
 1481SOL    HW2 5343   6.174   3.116   6.340
 1482SOL     OW 5344   4.715   0.848   1.774
 1482SOL    HW1 5345   4.788   0.799   1.821
 1482SOL    HW2 5346   4.735   0.946   1.775
 1483SOL     OW 5347   5.196   2.631   5.621
 1483SOL    HW1 5348   5.110   2.681   5.635
 1483SOL    HW2 5349   5.204   2.605   5.525
 1484SOL     OW 5350   4.836   5.073   4.124
 1484SOL    HW1 5351   4.894   5.049   4.202
 1484SOL    HW2 5352   4.894   5.091   4.044
 1485SOL     OW 5353   4.831   0.780   4.644
 1485SOL    HW1 5354   4.808   0.822   4.732
 1485SOL    HW2 5355   4.907   0.829   4.602
 1486SOL     OW 5356   5.460   0.587   3.256
 1486SOL    HW1 5357   5.488   0.676   3.218
 1486SOL    HW2 5358   5.522   0.561   3.330
 1487SOL     OW 5359   0.477   2.236   6.938
 1487SOL    HW1 5360   0.493   2.162   6.873
 1487SOL    HW2 5361   0.490   2.201   0.003
 1488SOL     OW 5362   5.425   6.876   3.621
 1488SOL    HW1 5363   5.477   6.811   3.566
 1488SOL    HW2 5364   5.488   6.943   3.661
 1489SOL     OW 5365   3.745   5.470   6.517
 1489SOL    HW1 5366   3.775   5.378   6.491
 1489SOL    HW2 5367   3.666   5.463   6.579
 1490SOL     OW 5368   7.020   3.543   0.962
 1490SOL    HW1 5369   0.062   3.471   0.964
 1490SOL    HW2 5370   0.018   3.617   1.024
 1491SOL     OW 5371   6.701   4.510   2.372
 1491SOL    HW1 5372   6.797   4.518   2.397
 1491SOL    HW2 5373   6.646   4.496   2.455
 1492SOL     OW 5374   6.048   0.117   2.293
 1492SOL    HW1 5375   6.140   0.097   2.324
 1492SOL    HW2 5376   6.033   0.216   2.293
 1493SOL     OW 5377   3.745   0.036   6.523
 1493SOL    HW1 5378   3.833   0.064   6.485
 1493SOL    HW2 5379   3.687   0.117   6.536
 1494SOL     OW 5380   5.018   2.420   6.435
 1494SOL    HW1 5381   5.008   2.515   6.466
 1494SOL    HW2 5382   4.927   2.380   6.421
 1495SOL     OW 5383   0.633   4.054   5.216
 1495SOL    HW1 5384   0.583   3.975   5.251
 1495SOL    HW2 5385   0.628   4.129   5.281
 1496SOL     OW 5386   1.337   1.549   0.670
 1496SOL    HW1 5387   1.365   1.620   0.734
 1496SOL    HW2 5388   1.388   1.465   0.688
 1497SOL     OW 5389   5.280   2.789   2.403
 1497SOL    HW1 5390   5.348   2.825   2.467
 1497SOL    HW2 5391   5.198   2.846   2.405
 1498SOL     OW 5392   2.675   4.606   6.748
 1498SOL    HW1 5393   2.626   4.676   6.800
 1498SOL    HW2 5394   2.683   4.523   6.803
 1499SOL     OW 5395   0.628   2.517   5.468
 1499SOL    HW1 5396   0.543   2.521   5.416
 1499SOL    HW2 5397   0.650   2.609   5.503
 1500SOL     OW 5398   0.675   6.832   0.155
 1500SOL    HW1 5399   0.659   6.803   0.060
 1500SOL    HW2 5400   0.668   6.753   0.215
 1501SOL     OW 5401   5.417   2.246   6.566
 1501SOL    HW1 5402   5.339   2.220   6.509
 1501SOL    HW2 5403   5.385   2.291   6.649
 1502SOL     OW 5404   4.550   0.499   6.985
 1502SOL    HW1 5405   4.524   0.536   0.046
 1502SOL    HW2 5406   4.504   0.411   6.971
 1503SOL     OW 5407   1.482   3.018   2.482
 1503SOL    HW1 5408   1.495   2.996   2.579
 1503SOL    HW2 5409   1.389   3.052   2.468
 1504SOL     OW 5410   0.564   0.667   4.354
 1504SOL    HW1 5411   0.663   0.659   4.342
 1504SOL    HW2 5412   0.517   0.623   4.278
 1505SOL     OW 5413   4.215   0.579   5.284
 1505SOL    HW1 5414   4.293   0.574   5.221
 1505SOL    HW2 5415   4.162   0.661   5.264
 1506SOL     OW 5416   1.017   6.468   0.506
 1506SOL    HW1 5417   1.114   6.450   0.517
 1506SOL    HW2 5418   1.004   6.559   0.466
 1507SOL     OW 5419   0.144   1.997   5.987
 1507SOL    HW1 5420   0.175   1.948   5.905
 1507SOL    HW2 5421   0.186   2.088   5.990
 1508SOL     OW 5422   6.051   1.143   0.641
 1508SOL    HW1 5423   6.011   1.217   0.587
 1508SOL    HW2 5424   6.000   1.132   0.726
 1509SOL     OW 5425   4.390   1.979   4.878
 1509SOL    HW1 5426   4.346   2.065   4.904
 1509SOL    HW2 5427   4.487   1.983   4.900
 1510SOL     OW 5428   5.135   0.351   4.601
 1510SOL    HW1 5429   5.086   0.277   4.555
 1510SOL    HW2 5430   5.183   0.314   4.681
 1511SOL     OW 5431   4.026   3.312   3.822
 1511SOL    HW1 5432   3.939   3.272   3.849
 1511SOL    HW2 5433   4.063   3.367   3.898
 1512SOL     OW 5434   6.501   5.773   0.971
 1512SOL    HW1 5435   6.595   5.756   0.940
 1512SOL    HW2 5436   6.498   5.852   1.032
 1513SOL     OW 5437   3.829   0.748   4.851
 1513SOL    HW1 5438   3.899   0.818   4.834
 1513SOL    HW2 5439   3.791   0.717   4.764
 1514SOL     OW 5440   3.789   2.930   5.201
 1514SOL    HW1 5441   3.831   2.841   5.220
 1514SOL    HW2 5442   3.848   3.003   5.235
 1515SOL     OW 5443   5.290   2.197   2.049
 1515SOL    HW1 5444   5.329   2.129   1.987
 1515SOL    HW2 5445   5.353   2.212   2.125
 1516SOL     OW 5446   6.192   5.623   5.857
 1516SOL    HW1 5447   6.160   5.568   5.780
 1516SOL    HW2 5448   6.284   5.658   5.836
 1517SOL     OW 5449   4.207   6.019   2.599
 1517SOL    HW1 5450   4.225   6.100   2.543
 1517SOL    HW2 5451   4.162   6.048   2.684
 1518SOL     OW 5452   0.082   2.164   0.053
 1518SOL    HW1 5453   0.166   2.184   0.104
 1518SOL    HW2 5454   0.093   2.194   6.986
 1519SOL     OW 5455   6.400   4.468   1.506
 1519SOL    HW1 5456   6.388   4.528   1.585
 1519SOL    HW2 5457   6.471   4.401   1.527
 1520SOL     OW 5458   0.306   4.498   1.872
 1520SOL    HW1 5459   0.358   4.413   1.884
 1520SOL    HW2 5460   0.304   4.548   1.958
 1521SOL     OW 5461   2.318   4.627   6.193
 1521SOL    HW1 5462   2.238   4.597   6.245
 1521SOL    HW2 5463   2.400   4.588   6.234
 1522SOL     OW 5464   5.845   6.045   4.839
 1522SOL    HW1 5465   5.781   5.992   4.895
 1522SOL    HW2 5466   5.883   6.120   4.893
 1523SOL     OW 5467   4.243   6.535   0.102
 1523SOL    HW1 5468   4.151   6.571   0.086
 1523SOL    HW2 5469   4.308   6.610   0.109
 1524SOL     OW 5470   2.317   1.794   2.298
 1524SOL    HW1 5471   2.287   1.848   2.377
 1524SOL    HW2 5472   2.304   1.697   2.316
 1525SOL     OW 5473   6.423   3.588   0.613
 1525SOL    HW1 5474   6.521   3.603   0.595
 1525SOL    HW2 5475   6.369   3.640   0.547
 1526SOL     OW 5476   6.771   1.246   6.402
 1526SOL    HW1 5477   6.792   1.170   6.463
 1526SOL    HW2 5478   6.854   1.272   6.351
 1527SOL     OW 5479   4.054   1.470   4.673
 1527SOL    HW1 5480   4.077   1.566   4.654
 1527SOL    HW2 5481   3.982   1.466   4.741
 1528SOL     OW 5482   3.781   4.872   3.106
 1528SOL    HW1 5483   3.741   4.881   3.197
 1528SOL    HW2 5484   3.710   4.886   3.037
 1529SOL     OW 5485   4.042   0.342   0.100
 1529SOL    HW1 5486   4.015   0.246   0.106
 1529SOL    HW2 5487   4.075   0.372   0.190
 1530SOL     OW 5488   4.006   1.724   2.143
 1530SOL    HW1 5489   4.073   1.660   2.105
 1530SOL    HW2 5490   3.945   1.755   2.070
 1531SOL     OW 5491   4.716   0.206   5.598
 1531SOL    HW1 5492   4.752   0.249   5.681
 1531SOL    HW2 5493   4.616   0.202   5.604
 1532SOL     OW 5494   3.689   4.359   6.112
 1532SOL    HW1 5495   3.622   4.406   6.054
 1532SOL    HW2 5496   3.660   4.364   6.208
 1533SOL     OW 5497   6.286   5.088   6.996
 1533SOL    HW1 5498   6.257   5.019   0.034
 1533SOL    HW2 5499   6.209   5.114   6.938
 1534SOL     OW 5500   3.185   6.138   6.704
 1534SOL    HW1 5501   3.170   6.045   6.738
 1534SOL    HW2 5502   3.105   6.166   6.650
 1535SOL     OW 5503   4.918   6.169   4.407
 1535SOL    HW1 5504   4.952   6.188   4.314
 1535SOL    HW2 5505   4.927   6.071   4.426
 1536SOL     OW 5506   3.494   4.874   6.153
 1536SOL    HW1 5507   3.488   4.945   6.223
 1536SOL    HW2 5508   3.584   4.831   6.157
 1537SOL     OW 5509   4.219   6.196   4.076
 1537SOL    HW1 5510   4.174   6.122   4.126
 1537SOL    HW2 5511   4.309   6.165   4.045
 1538SOL     OW 5512   3.043   0.083   6.540
 1538SOL    HW1 5513   3.101   0.119   6.467
 1538SOL    HW2 5514   3.097   0.071   6.623
 1539SOL     OW 5515   4.842   3.494   1.952
 1539SOL    HW1 5516   4.927   3.445   1.973
 1539SOL    HW2 5517   4.800   3.453   1.871
 1540SOL     OW 5518   0.262   6.626   5.154
 1540SOL    HW1 5519   0.343   6.574   5.181
 1540SOL    HW2 5520   0.180   6.572   5.172
 1541SOL     OW 5521   3.236   2.954   4.503
 1541SOL    HW1 5522   3.315   2.911   4.459
 1541SOL    HW2 5523   3.243   2.942   4.603
 1542SOL     OW 5524   6.553   0.569   2.351
 1542SOL    HW1 5525   6.644   0.602   2.373
 1542SOL    HW2 5526   6.520   0.510   2.425
 1543SOL     OW 5527   3.412   4.901   5.185
 1543SOL    HW1 5528   3.353   4.893   5.104
 1543SOL    HW2 5529   3.392   4.986   5.232
 1544SOL     OW 5530   2.959   3.356   2.700
 1544SOL    HW1 5531   3.048   3.373   2.741
 1544SOL    HW2 5532   2.929   3.263   2.720
 1545SOL     OW 5533   4.993   0.435   2.865
 1545SOL    HW1 5534   4.904   0.390   2.872
 1545SOL    HW2 5535   5.000   0.506   2.936
 1546SOL     OW 5536   4.400   6.878   5.505
 1546SOL    HW1 5537   4.477   6.819   5.481
 1546SOL    HW2 5538   4.340   6.888   5.426
 1547SOL     OW 5539   1.886   4.156   1.591
 1547SOL    HW1 5540   1.956   4.099   1.633
 1547SOL    HW2 5541   1.863   4.121   1.500
 1548SOL     OW 5542   5.648   4.146   6.431
 1548SOL    HW1 5543   5.687   4.237   6.448
 1548SOL    HW2 5544   5.601   4.146   6.342
 1549SOL     OW 5545   4.399   2.206   1.649
 1549SOL    HW1 5546   4.479   2.152   1.626
 1549SOL    HW2 5547   4.328   2.194   1.579
 1550SOL     OW 5548   2.389   3.692   0.484
 1550SOL    HW1 5549   2.315   3.665   0.547
 1550SOL    HW2 5550   2.349   3.720   0.397
 1551SOL     OW 5551   2.052   4.159   6.387
 1551SOL    HW1 5552   2.127   4.218   6.418
 1551SOL    HW2 5553   2.039   4.171   6.289
 1552SOL     OW 5554   2.209   5.436   0.815
 1552SOL    HW1 5555   2.132   5.439   0.752
 1552SOL    HW2 5556   2.292   5.409   0.765
 1553SOL     OW 5557   6.804   1.551   6.833
 1553SOL    HW1 5558   6.741   1.542   6.757
 1553SOL    HW2 5559   6.898   1.557   6.798
 1554SOL     OW 5560   3.870   2.143   3.302
 1554SOL    HW1 5561   3.927   2.075   3.256
 1554SOL    HW2 5562   3.789   2.161   3.247
 1555SOL     OW 5563   5.694   3.090   0.225
 1555SOL    HW1 5564   5.706   3.039   0.141
 1555SOL    HW2 5565   5.623   3.160   0.212
 1556SOL     OW 5566   3.047   2.277   0.260
 1556SOL    HW1 5567   3.083   2.195   0.216
 1556SOL    HW2 5568   3.099   2.296   0.343
 1557SOL     OW 5569   1.698   2.367   5.406
 1557SOL    HW1 5570   1.676   2.430   5.480
 1557SOL    HW2 5571   1.618   2.313   5.383
 1558SOL     OW 5572   6.084   0.598   4.625
 1558SOL    HW1 5573   6.015   0.538   4.586
 1558SOL    HW2 5574   6.062   0.616   4.721
 1559SOL     OW 5575   1.854   3.004   6.828
 1559SOL    HW1 5576   1.780   2.975   6.767
 1559SOL    HW2 5577   1.820   3.010   6.922
 1560SOL     OW 5578   6.691   1.075   5.703
 1560SOL    HW1 5579   6.777   1.124   5.718
 1560SOL    HW2 5580   6.697   0.983   5.741
 1561SOL     OW 5581   6.134   6.353   3.850
 1561SOL    HW1 5582   6.060   6.400   3.898
 1561SOL    HW2 5583   6.095   6.285   3.788
 1562SOL     OW 5584   4.935   5.670   2.396
 1562SOL    HW1 5585   5.030   5.690   2.420
 1562SOL    HW2 5586   4.891   5.754   2.365
 1563SOL     OW 5587   2.028   0.098   5.234
 1563SOL    HW1 5588   2.116   0.143   5.254
 1563SOL    HW2 5589   2.020   0.082   5.136
 1564SOL     OW 5590   1.207   2.197   3.336
 1564SOL    HW1 5591   1.139   2.147   3.389
 1564SOL    HW2 5592   1.164   2.237   3.255
 1565SOL     OW 5593   4.371   4.604   3.747
 1565SOL    HW1 5594   4.398   4.574   3.839
 1565SOL    HW2 5595   4.322   4.691   3.754
 1566SOL     OW 5596   6.142   4.827   3.021
 1566SOL    HW1 5597   6.056   4.821   2.971
 1566SOL    HW2 5598   6.130   4.787   3.112
 1567SOL     OW 5599   6.327   6.190   0.874
 1567SOL    HW1 5600   6.397   6.174   0.944
 1567SOL    HW2 5601   6.246   6.230   0.916
 1568SOL     OW 5602   1.309   6.762   6.837
 1568SOL    HW1 5603   1.223   6.801   6.804
 1568SOL    HW2 5604   1.377   6.765   6.764
 1569SOL     OW 5605   4.720   6.129   3.251
 1569SOL    HW1 5606   4.696   6.073   3.330
 1569SOL    HW2 5607   4.691   6.223   3.267
 1570SOL     OW 5608   1.922   0.480   1.390
 1570SOL    HW1 5609   1.932   0.554   1.324
 1570SOL    HW2 5610   1.856   0.413   1.356
 1571SOL     OW 5611   5.358   2.572   0.767
 1571SOL    HW1 5612   5.370   2.507   0.692
 1571SOL    HW2 5613   5.294   2.643   0.739
 1572SOL     OW 5614   0.108   6.620   1.061
 1572SOL    HW1 5615   0.157   6.557   1.002
 1572SOL    HW2 5616   0.115   6.588   1.156
 1573SOL     OW 5617   5.644   2.326   2.626
 1573SOL    HW1 5618   5.633   2.375   2.712
 1573SOL    HW2 5619   5.601   2.378   2.552
 1574SOL     OW 5620   6.343   0.865   1.877
 1574SOL    HW1 5621   6.296   0.933   1.933
 1574SOL    HW2 5622   6.329   0.774   1.915
 1575SOL     OW 5623   3.027   1.369   0.668
 1575SOL    HW1 5624   3.034   1.282   0.717
 1575SOL    HW2 5625   3.117   1.394   0.633
 1576SOL     OW 5626   0.394   6.647   3.685
 1576SOL    HW1 5627   0.478   6.682   3.725
 1576SOL    HW2 5628   0.415   6.577   3.617
 1577SOL     OW 5629   3.158   2.164   4.339
 1577SOL    HW1 5630   3.179   2.214   4.423
 1577SOL    HW2 5631   3.059   2.161   4.325
 1578SOL     OW 5632   6.376   3.343   6.026
 1578SOL    HW1 5633   6.408   3.311   6.115
 1578SOL    HW2 5634   6.452   3.342   5.961
 1579SOL     OW 5635   6.988   1.529   2.729
 1579SOL    HW1 5636   6.965   1.619   2.691
 1579SOL    HW2 5637   0.047   1.535   2.778
 1580SOL     OW 5638   2.704   3.765   5.420
 1580SOL    HW1 5639   2.725   3.783   5.516
 1580SOL    HW2 5640   2.784   3.724   5.376
 1581SOL     OW 5641   0.444   4.354   5.177
 1581SOL    HW1 5642   0.461   4.294   5.099
 1581SOL    HW2 5643   0.531   4.385   5.215
 1582SOL     OW 5644   1.605   6.496   4.373
 1582SOL    HW1 5645   1.574   6.572   4.429
 1582SOL    HW2 5646   1.699   6.514   4.342
 1583SOL     OW 5647   0.844   4.364   3.892
 1583SOL    HW1 5648   0.911   4.374   3.966
 1583SOL    HW2 5649   0.859   4.276   3.846
 1584SOL     OW 5650   1.334   6.579   4.772
 1584SOL    HW1 5651   1.335   6.652   4.704
 1584SOL    HW2 5652   1.345   6.491   4.727
 1585SOL     OW 5653   5.880   1.275   3.674
 1585SOL    HW1 5654   5.879   1.371   3.703
 1585SOL    HW2 5655   5.832   1.266   3.587
 1586SOL     OW 5656   3.183   4.165   0.732
 1586SOL    HW1 5657   3.167   4.068   0.747
 1586SOL    HW2 5658   3.251   4.177   0.660
 1587SOL     OW 5659   2.587   5.511   0.077
 1587SOL    HW1 5660   2.627   5.582   0.135
 1587SOL    HW2 5661   2.654   5.438   0.064
 1588SOL     OW 5662   5.526   1.497   2.694
 1588SOL    HW1 5663   5.433   1.534   2.691
 1588SOL    HW2 5664   5.535   1.426   2.624
 1589SOL     OW 5665   6.276   4.176   2.658
 1589SOL    HW1 5666   6.192   4.122   2.658
 1589SOL    HW2 5667   6.255   4.268   2.627
 1590SOL     OW 5668   2.611   6.677   6.209
 1590SOL    HW1 5669   2.549   6.617   6.261
 1590SOL    HW2 5670   2.698   6.684   6.256
 1591SOL     OW 5671   0.927   4.881   2.708
 1591SOL    HW1 5672   0.888   4.884   2.800
 1591SOL    HW2 5673   0.909   4.967   2.661
 1592SOL     OW 5674   2.525   4.409   1.344
 1592SOL    HW1 5675   2.444   4.351   1.329
 1592SOL    HW2 5676   2.523   4.445   1.437
 1593SOL     OW 5677   0.775   6.168   3.792
 1593SOL    HW1 5678   0.822   6.255   3.777
 1593SOL    HW2 5679   0.678   6.184   3.808
 1594SOL     OW 5680   6.941   5.814   2.810
 1594SOL    HW1 5681   6.958   5.739   2.875
 1594SOL    HW2 5682   7.007   5.887   2.826
 1595SOL     OW 5683   1.021   5.103   6.927
 1595SOL    HW1 5684   1.045   5.129   6.834
 1595SOL    HW2 5685   0.990   5.183   6.977
 1596SOL     OW 5686   0.551   3.184   4.512
 1596SOL    HW1 5687   0.645   3.192   4.478
 1596SOL    HW2 5688   0.501   3.268   4.491
 1597SOL     OW 5689   2.512   5.860   0.163
 1597SOL    HW1 5690   2.603   5.836   0.197
 1597SOL    HW2 5691   2.521   5.928   0.090
 1598SOL     OW 5692   0.805   3.605   0.442
 1598SOL    HW1 5693   0.740   3.530   0.429
 1598SOL    HW2 5694   0.898   3.572   0.422
 1599SOL     OW 5695   5.190   4.086   5.669
 1599SOL    HW1 5696   5.238   4.136   5.597
 1599SOL    HW2 5697   5.206   3.988   5.657
 1600SOL     OW 5698   5.083   1.882   4.954
 1600SOL    HW1 5699   5.057   1.954   4.889
 1600SOL    HW2 5700   5.007   1.819   4.966
 1601SOL     OW 5701   0.315   4.669   4.380
 1601SOL    HW1 5702   0.413   4.649   4.374
 1601SOL    HW2 5703   0.301   4.758   4.422
 1602SOL     OW 5704   1.970   5.621   4.084
 1602SOL    HW1 5705   1.992   5.694   4.148
 1602SOL    HW2 5706   2.023   5.540   4.106
 1603SOL     OW 5707   0.079   5.878   2.157
 1603SOL    HW1 5708   0.110   5.861   2.251
 1603SOL    HW2 5709   0.092   5.974   2.134
 1604SOL     OW 5710   6.196   4.666   6.691
 1604SOL    HW1 5711   6.172   4.606   6.768
 1604SOL    HW2 5712   6.211   4.759   6.725
 1605SOL     OW 5713   6.323   6.337   2.508
 1605SOL    HW1 5714   6.364   6.303   2.593
 1605SOL    HW2 5715   6.225   6.316   2.508
 1606SOL     OW 5716   3.293   0.452   4.928
 1606SOL    HW1 5717   3.296   0.363   4.974
 1606SOL    HW2 5718   3.232   0.447   4.849
 1607SOL     OW 5719   4.334   2.598   0.699
 1607SOL    HW1 5720   4.299   2.692   0.700
 1607SOL    HW2 5721   4.362   2.575   0.605
 1608SOL     OW 5722   1.488   1.038   5.370
 1608SOL    HW1 5723   1.440   0.999   5.449
 1608SOL    HW2 5724   1.511   0.965   5.306
 1609SOL     OW 5725   4.371   0.570   0.236
 1609SOL    HW1 5726   4.450   0.514   0.262
 1609SOL    HW2 5727   4.382   0.662   0.272
 1610SOL     OW 5728   6.237   3.943   5.560
 1610SOL    HW1 5729   6.300   3.924   5.484
 1610SOL    HW2 5730   6.151   3.979   5.524
 1611SOL     OW 5731   3.107   3.461   1.381
 1611SOL    HW1 5732   3.051   3.417   1.452
 1611SOL    HW2 5733   3.079   3.557   1.372
 1612SOL     OW 5734   3.073   1.167   5.401
 1612SOL    HW1 5735   3.123   1.236   5.350
 1612SOL    HW2 5736   2.993   1.138   5.349
 1613SOL     OW 5737   1.817   6.246   1.982
 1613SOL    HW1 5738   1.809   6.218   2.078
 1613SOL    HW2 5739   1.864   6.174   1.930
 1614SOL     OW 5740   6.437   3.819   0.239
 1614SOL    HW1 5741   6.403   3.824   0.146
 1614SOL    HW2 5742   6.385   3.751   0.291
 1615SOL     OW 5743   6.132   4.726   0.582
 1615SOL    HW1 5744   6.208   4.685   0.634
 1615SOL    HW2 5745   6.053   4.666   0.586
 1616SOL     OW 5746   4.095   1.918   5.482
 1616SOL    HW1 5747   4.079   2.009   5.519
 1616SOL    HW2 5748   4.047   1.908   5.394
 1617SOL     OW 5749   6.138   6.761   1.510
 1617SOL    HW1 5750   6.152   6.850   1.555
 1617SOL    HW2 5751   6.209   6.749   1.440
 1618SOL     OW 5752   0.975   3.472   0.829
 1618SOL    HW1 5753   0.926   3.493   0.914
 1618SOL    HW2 5754   0.924   3.510   0.751
 1619SOL     OW 5755   1.135   1.820   3.641
 1619SOL    HW1 5756   1.122   1.730   3.682
 1619SOL    HW2 5757   1.232   1.846   3.649
 1620SOL     OW 5758   2.015   5.984   0.832
 1620SOL    HW1 5759   2.013   5.946   0.925
 1620SOL    HW2 5760   2.031   6.082   0.837
 1621SOL     OW 5761   0.829   1.195   0.215
 1621SOL    HW1 5762   0.834   1.117   0.152
 1621SOL    HW2 5763   0.819   1.280   0.163
 1622SOL     OW 5764   0.889   2.646   4.381
 1622SOL    HW1 5765   0.831   2.578   4.425
 1622SOL    HW2 5766   0.980   2.644   4.423
 1623SOL     OW 5767   2.588   3.469   5.817
 1623SOL    HW1 5768   2.527   3.405   5.770
 1623SOL    HW2 5769   2.627   3.425   5.898
 1624SOL     OW 5770   3.486   0.964   5.852
 1624SOL    HW1 5771   3.417   1.029   5.819
 1624SOL    HW2 5772   3.466   0.873   5.814
 1625SOL     OW 5773   1.455   5.849   2.080
 1625SOL    HW1 5774   1.370   5.806   2.050
 1625SOL    HW2 5775   1.435   5.918   2.150
 1626SOL     OW 5776   2.853   2.097   6.667
 1626SOL    HW1 5777   2.934   2.140   6.627
 1626SOL    HW2 5778   2.838   2.133   6.759
 1627SOL     OW 5779   6.406   2.189   4.053
 1627SOL    HW1 5780   6.372   2.159   3.964
 1627SOL    HW2 5781   6.381   2.285   4.067
 1628SOL     OW 5782   4.263   4.949   0.080
 1628SOL    HW1 5783   4.172   4.952   0.121
 1628SOL    HW2 5784   4.260   4.991   7.017
 1629SOL     OW 5785   2.903   1.954   4.310
 1629SOL    HW1 5786   2.886   2.053   4.309
 1629SOL    HW2 5787   2.825   1.907   4.350
 1630SOL     OW 5788   1.283   6.440   5.564
 1630SOL    HW1 5789   1.323   6.502   5.632
 1630SOL    HW2 5790   1.198   6.479   5.530
 1631SOL     OW 5791   0.272   1.423   6.288
 1631SOL    HW1 5792   0.206   1.381   6.226
 1631SOL    HW2 5793   0.308   1.507   6.247
 1632SOL     OW 5794   0.104   1.471   6.948
 1632SOL    HW1 5795   0.089   1.515   0.009
 1632SOL    HW2 5796   0.064   1.527   6.876
 1633SOL     OW 5797   5.133   1.956   3.642
 1633SOL    HW1 5798   5.099   2.048   3.665
 1633SOL    HW2 5799   5.228   1.962   3.611
 1634SOL     OW 5800   4.352   5.144   5.569
 1634SOL    HW1 5801   4.327   5.119   5.663
 1634SOL    HW2 5802   4.375   5.241   5.566
 1635SOL     OW 5803   6.452   5.627   5.425
 1635SOL    HW1 5804   6.515   5.570   5.478
 1635SOL    HW2 5805   6.391   5.569   5.372
 1636SOL     OW 5806   2.478   3.798   1.471
 1636SOL    HW1 5807   2.482   3.729   1.544
 1636SOL    HW2 5808   2.518   3.761   1.388
 1637SOL     OW 5809   0.091   0.592   3.079
 1637SOL    HW1 5810   0.165   0.626   3.137
 1637SOL    HW2 5811   0.020   0.550   3.136
 1638SOL     OW 5812   0.473   4.224   4.517
 1638SOL    HW1 5813   0.413   4.282   4.574
 1638SOL    HW2 5814   0.440   4.226   4.423
 1639SOL     OW 5815   4.396   0.111   3.100
 1639SOL    HW1 5816   4.455   0.056   3.041
 1639SOL    HW2 5817   4.302   0.077   3.094
 1640SOL     OW 5818   5.711   1.970   0.959
 1640SOL    HW1 5819   5.665   2.044   0.909
 1640SOL    HW2 5820   5.657   1.887   0.953
 1641SOL     OW 5821   5.189   3.153   3.983
 1641SOL    HW1 5822   5.161   3.106   3.900
 1641SOL    HW2 5823   5.146   3.243   3.987
 1642SOL     OW 5824   6.682   3.622   6.939
 1642SOL    HW1 5825   6.677   3.650   0.007
 1642SOL    HW2 5826   6.700   3.524   6.933
 1643SOL     OW 5827   2.421   5.265   3.930
 1643SOL    HW1 5828   2.363   5.222   3.999
 1643SOL    HW2 5829   2.472   5.195   3.881
 1644SOL     OW 5830   1.404   2.545   1.105
 1644SOL    HW1 5831   1.412   2.613   1.178
 1644SOL    HW2 5832   1.412   2.453   1.144
 1645SOL     OW 5833   2.963   6.597   5.405
 1645SOL    HW1 5834   2.902   6.536   5.354
 1645SOL    HW2 5835   2.908   6.666   5.453
 1646SOL     OW 5836   2.481   6.305   1.822
 1646SOL    HW1 5837   2.420   6.260   1.756
 1646SOL    HW2 5838   2.455   6.401   1.831
 1647SOL     OW 5839   5.519   2.427   4.448
 1647SOL    HW1 5840   5.455   2.444   4.373
 1647SOL    HW2 5841   5.513   2.330   4.475
 1648SOL     OW 5842   5.923   6.133   1.193
 1648SOL    HW1 5843   5.890   6.124   1.099
 1648SOL    HW2 5844   5.845   6.148   1.254
 1649SOL     OW 5845   3.673   0.616   3.706
 1649SOL    HW1 5846   3.698   0.707   3.739
 1649SOL    HW2 5847   3.711   0.602   3.614
 1650SOL     OW 5848   2.645   6.546   4.197
 1650SOL    HW1 5849   2.581   6.613   4.235
 1650SOL    HW2 5850   2.687   6.583   4.114
 1651SOL     OW 5851   0.934   1.308   1.684
 1651SOL    HW1 5852   0.972   1.374   1.620
 1651SOL    HW2 5853   0.851   1.267   1.646
 1652SOL     OW 5854   1.650   3.073   2.066
 1652SOL    HW1 5855   1.698   3.076   1.979
 1652SOL    HW2 5856   1.619   2.980   2.083
 1653SOL     OW 5857   0.187   6.653   1.356
 1653SOL    HW1 5858   0.119   6.727   1.365
 1653SOL    HW2 5859   0.253   6.661   1.431
 1654SOL     OW 5860   6.721   2.642   1.890
 1654SOL    HW1 5861   6.652   2.596   1.834
 1654SOL    HW2 5862   6.686   2.651   1.984
 1655SOL     OW 5863   5.539   3.324   5.472
 1655SOL    HW1 5864   5.510   3.345   5.566
 1655SOL    HW2 5865   5.626   3.370   5.454
 1656SOL     OW 5866   1.672   4.397   2.985
 1656SOL    HW1 5867   1.675   4.495   3.005
 1656SOL    HW2 5868   1.585   4.359   3.016
 1657SOL     OW 5869   0.202   0.900   4.136
 1657SOL    HW1 5870   0.243   0.903   4.228
 1657SOL    HW2 5871   0.111   0.942   4.140
 1658SOL     OW 5872   0.637   0.585   2.809
 1658SOL    HW1 5873   0.565   0.592   2.878
 1658SOL    HW2 5874   0.597   0.553   2.723
 1659SOL     OW 5875   3.799   1.508   6.018
 1659SOL    HW1 5876   3.870   1.457   5.970
 1659SOL    HW2 5877   3.712   1.459   6.011
 1660SOL     OW 5878   1.456   4.727   4.173
 1660SOL    HW1 5879   1.556   4.725   4.167
 1660SOL    HW2 5880   1.429   4.720   4.269
 1661SOL     OW 5881   3.014   1.599   1.486
 1661SOL    HW1 5882   3.009   1.672   1.417
 1661SOL    HW2 5883   2.931   1.599   1.542
 1662SOL     OW 5884   6.610   1.299   3.860
 1662SOL    HW1 5885   6.537   1.365   3.883
 1662SOL    HW2 5886   6.600   1.218   3.917
 1663SOL     OW 5887   2.944   1.363   3.137
 1663SOL    HW1 5888   2.936   1.376   3.038
 1663SOL    HW2 5889   2.884   1.427   3.184
 1664SOL     OW 5890   1.644   0.405   3.885
 1664SOL    HW1 5891   1.655   0.379   3.789
 1664SOL    HW2 5892   1.603   0.496   3.890
 1665SOL     OW 5893   6.595   1.452   2.501
 1665SOL    HW1 5894   6.575   1.384   2.571
 1665SOL    HW2 5895   6.692   1.446   2.476
 1666SOL     OW 5896   6.079   3.832   0.558
 1666SOL    HW1 5897   6.167   3.866   0.527
 1666SOL    HW2 5898   6.016   3.826   0.480
 1667SOL     OW 5899   5.339   6.718   1.146
 1667SOL    HW1 5900   5.350   6.725   1.245
 1667SOL    HW2 5901   5.242   6.704   1.124
 1668SOL     OW 5902   5.327   5.731   5.678
 1668SOL    HW1 5903   5.257   5.697   5.741
 1668SOL    HW2 5904   5.355   5.823   5.706
 1669SOL     OW 5905   5.821   6.807   0.585
 1669SOL    HW1 5906   5.838   6.840   0.678
 1669SOL    HW2 5907   5.839   6.881   0.520
 1670SOL     OW 5908   6.924   5.521   6.556
 1670SOL    HW1 5909   6.853   5.580   6.595
 1670SOL    HW2 5910   6.882   5.434   6.528
 1671SOL     OW 5911   4.273   2.358   0.816
 1671SOL    HW1 5912   4.313   2.443   0.783
 1671SOL    HW2 5913   4.279   2.355   0.916
 1672SOL     OW 5914   2.140   4.153   2.521
 1672SOL    HW1 5915   2.181   4.188   2.605
 1672SOL    HW2 5916   2.175   4.204   2.443
 1673SOL     OW 5917   0.694   2.486   4.491
 1673SOL    HW1 5918   0.646   2.498   4.404
 1673SOL    HW2 5919   0.723   2.391   4.501
 1674SOL     OW 5920   0.827   3.895   2.084
 1674SOL    HW1 5921   0.790   3.917   1.994
 1674SOL    HW2 5922   0.898   3.825   2.074
 1675SOL     OW 5923   4.255   0.230   6.331
 1675SOL    HW1 5924   4.312   0.301   6.289
 1675SOL    HW2 5925   4.275   0.142   6.288
 1676SOL     OW 5926   3.263   1.229   2.153
 1676SOL    HW1 5927   3.345   1.284   2.144
 1676SOL    HW2 5928   3.282   1.147   2.206
 1677SOL     OW 5929   4.161   2.752   5.355
 1677SOL    HW1 5930   4.154   2.681   5.286
 1677SOL    HW2 5931   4.071   2.773   5.391
 1678SOL     OW 5932   4.942   4.839   4.538
 1678SOL    HW1 5933   4.917   4.879   4.627
 1678SOL    HW2 5934   4.977   4.911   4.478
 1679SOL     OW 5935   2.019   3.229   4.971
 1679SOL    HW1 5936   2.087   3.190   5.034
 1679SOL    HW2 5937   2.063   3.295   4.911
 1680SOL     OW 5938   0.977   1.942   4.154
 1680SOL    HW1 5939   0.903   2.008   4.167
 1680SOL    HW2 5940   1.017   1.955   4.062
 1681SOL     OW 5941   6.534   6.086   1.179
 1681SOL    HW1 5942   6.586   6.062   1.261
 1681SOL    HW2 5943   6.461   6.150   1.204
 1682SOL     OW 5944   6.841   2.790   4.797
 1682SOL    HW1 5945   6.919   2.747   4.752
 1682SOL    HW2 5946   6.769   2.808   4.730
 1683SOL     OW 5947   3.519   5.863   0.919
 1683SOL    HW1 5948   3.547   5.779   0.966
 1683SOL    HW2 5949   3.600   5.918   0.900
 1684SOL     OW 5950   1.478   5.987   2.764
 1684SOL    HW1 5951   1.465   5.891   2.789
 1684SOL    HW2 5952   1.404   6.041   2.805
 1685SOL     OW 5953   2.871   1.242   6.390
 1685SOL    HW1 5954   2.943   1.243   6.321
 1685SOL    HW2 5955   2.863   1.334   6.431
 1686SOL     OW 5956   1.980   5.030   5.391
 1686SOL    HW1 5957   1.951   4.937   5.369
 1686SOL    HW2 5958   1.964   5.089   5.312
 1687SOL     OW 5959   1.906   3.258   1.450
 1687SOL    HW1 5960   1.914   3.194   1.374
 1687SOL    HW2 5961   1.997   3.296   1.470
 1688SOL     OW 5962   1.287   2.523   3.860
 1688SOL    HW1 5963   1.345   2.600   3.885
 1688SOL    HW2 5964   1.191   2.545   3.877
 1689SOL     OW 5965   3.887   1.043   1.632
 1689SOL    HW1 5966   3.973   0.992   1.618
 1689SOL    HW2 5967   3.861   1.088   1.547
 1690SOL     OW 5968   1.222   2.686   3.391
 1690SOL    HW1 5969   1.193   2.775   3.354
 1690SOL    HW2 5970   1.270   2.701   3.478
 1691SOL     OW 5971   4.867   3.714   3.334
 1691SOL    HW1 5972   4.853   3.675   3.425
 1691SOL    HW2 5973   4.854   3.644   3.265
 1692SOL     OW 5974   6.726   0.159   1.211
 1692SOL    HW1 5975   6.722   0.215   1.128
 1692SOL    HW2 5976   6.756   0.067   1.187
 1693SOL     OW 5977   0.609   2.364   2.254
 1693SOL    HW1 5978   0.662   2.279   2.259
 1693SOL    HW2 5979   0.554   2.374   2.337
 1694SOL     OW 5980   4.970   6.753   4.137
 1694SOL    HW1 5981   4.902   6.806   4.187
 1694SOL    HW2 5982   4.972   6.784   4.041
 1695SOL     OW 5983   2.231   1.412   5.715
 1695SOL    HW1 5984   2.189   1.400   5.804
 1695SOL    HW2 5985   2.216   1.331   5.659
 1696SOL     OW 5986   5.606   5.212   0.232
 1696SOL    HW1 5987   5.531   5.234   0.293
 1696SOL    HW2 5988   5.686   5.183   0.285
 1697SOL     OW 5989   6.338   6.518   2.310
 1697SOL    HW1 5990   6.294   6.488   2.225
 1697SOL    HW2 5991   6.340   6.442   2.375
 1698SOL     OW 5992   4.705   0.952   0.609
 1698SOL    HW1 5993   4.657   0.871   0.641
 1698SOL    HW2 5994   4.671   1.032   0.659
 1699SOL     OW 5995   2.670   0.968   2.043
 1699SOL    HW1 5996   2.612   1.043   2.076
 1699SOL    HW2 5997   2.639   0.882   2.082
 1700SOL     OW 5998   6.325   1.884   3.685
 1700SOL    HW1 5999   6.243   1.915   3.734
 1700SOL    HW2 6000   6.383   1.962   3.665
 1701SOL     OW 6001   5.015   3.199   5.309
 1701SOL    HW1 6002   5.107   3.238   5.299
 1701SOL    HW2 6003   5.004   3.163   5.401
 1702SOL     OW 6004   6.911   3.229   0.585
 1702SOL    HW1 6005   6.990   3.202   0.531
 1702SOL    HW2 6006   6.832   3.240   0.526
 1703SOL     OW 6007   3.533   4.152   3.380
 1703SOL    HW1 6008   3.471   4.153   3.458
 1703SOL    HW2 6009   3.482   4.175   3.297
 1704SOL     OW 6010   0.433   1.597   1.115
 1704SOL    HW1 6011   0.440   1.498   1.129
 1704SOL    HW2 6012   0.476   1.645   1.192
 1705SOL     OW 6013   3.647   2.061   2.180
 1705SOL    HW1 6014   3.550   2.048   2.163
 1705SOL    HW2 6015   3.687   2.118   2.108
 1706SOL     OW 6016   4.238   6.836   1.508
 1706SOL    HW1 6017   4.306   6.900   1.471
 1706SOL    HW2 6018   4.257   6.744   1.473
 1707SOL     OW 6019   4.472   1.384   2.935
 1707SOL    HW1 6020   4.486   1.361   2.839
 1707SOL    HW2 6021   4.377   1.413   2.948
 1708SOL     OW 6022   5.194   5.759   2.071
 1708SOL    HW1 6023   5.143   5.845   2.069
 1708SOL    HW2 6024   5.197   5.724   2.164
 1709SOL     OW 6025   2.642   5.895   1.795
 1709SOL    HW1 6026   2.660   5.973   1.855
 1709SOL    HW2 6027   2.628   5.812   1.849
 1710SOL     OW 6028   5.679   4.646   3.868
 1710SOL    HW1 6029   5.671   4.557   3.914
 1710SOL    HW2 6030   5.692   4.718   3.936
 1711SOL     OW 6031   1.490   4.073   5.059
 1711SOL    HW1 6032   1.480   4.042   5.154
 1711SOL    HW2 6033   1.405   4.055   5.010
 1712SOL     OW 6034   1.357   3.034   6.692
 1712SOL    HW1 6035   1.281   3.064   6.749
 1712SOL    HW2 6036   1.371   3.099   6.618
 1713SOL     OW 6037   3.290   1.907   0.884
 1713SOL    HW1 6038   3.258   1.831   0.829
 1713SOL    HW2 6039   3.384   1.929   0.859
 1714SOL     OW 6040   4.564   1.654   5.967
 1714SOL    HW1 6041   4.501   1.659   6.044
 1714SOL    HW2 6042   4.638   1.720   5.979
 1715SOL     OW 6043   6.767   3.919   2.630
 1715SOL    HW1 6044   6.709   4.000   2.645
 1715SOL    HW2 6045   6.772   3.899   2.532
 1716SOL     OW 6046   5.029   7.009   1.334
 1716SOL    HW1 6047   5.028   0.070   1.379
 1716SOL    HW2 6048   4.941   6.993   1.289
 1717SOL     OW 6049   1.770   6.311   6.726
 1717SOL    HW1 6050   1.822   6.323   6.642
 1717SOL    HW2 6051   1.828   6.272   6.797
 1718SOL     OW 6052   1.968   1.704   0.989
 1718SOL    HW1 6053   1.982   1.615   1.032
 1718SOL    HW2 6054   1.976   1.695   0.889
 1719SOL     OW 6055   2.305   4.231   1.317
 1719SOL    HW1 6056   2.227   4.257   1.375
 1719SOL    HW2 6057   2.273   4.172   1.244
 1720SOL     OW 6058   6.813   1.113   1.355
 1720SOL    HW1 6059   6.891   1.169   1.384
 1720SOL    HW2 6060   6.826   1.019   1.385
 1721SOL     OW 6061   1.044   6.381   2.618
 1721SOL    HW1 6062   1.037   6.292   2.573
 1721SOL    HW2 6063   1.098   6.443   2.560
 1722SOL     OW 6064   5.041   1.409   3.769
 1722SOL    HW1 6065   5.032   1.442   3.675
 1722SOL    HW2 6066   4.952   1.379   3.803
 1723SOL     OW 6067   6.835   2.965   3.202
 1723SOL    HW1 6068   6.806   2.895   3.266
 1723SOL    HW2 6069   6.792   2.948   3.113
 1724SOL     OW 6070   5.570   1.716   0.970
 1724SOL    HW1 6071   5.614   1.628   0.985
 1724SOL    HW2 6072   5.533   1.719   0.877
 1725SOL     OW 6073   2.886   5.020   0.322
 1725SOL    HW1 6074   2.953   5.043   0.393
 1725SOL    HW2 6075   2.924   5.040   0.232
 1726SOL     OW 6076   6.921   4.179   5.490
 1726SOL    HW1 6077   7.012   4.209   5.519
 1726SOL    HW2 6078   6.910   4.194   5.392
 1727SOL     OW 6079   3.763   2.993   4.635
 1727SOL    HW1 6080   3.839   2.965   4.693
 1727SOL    HW2 6081   3.676   2.967   4.678
 1728SOL     OW 6082   5.492   5.456   4.869
 1728SOL    HW1 6083   5.497   5.402   4.953
 1728SOL    HW2 6084   5.456   5.399   4.795
 1729SOL     OW 6085   2.126   3.550   3.861
 1729SOL    HW1 6086   2.079   3.636   3.879
 1729SOL    HW2 6087   2.100   3.516   3.771
 1730SOL     OW 6088   6.808   0.521   4.427
 1730SOL    HW1 6089   6.721   0.545   4.383
 1730SOL    HW2 6090   6.806   0.425   4.454
 1731SOL     OW 6091   0.997   5.552   2.052
 1731SOL    HW1 6092   1.052   5.495   1.991
 1731SOL    HW2 6093   0.900   5.542   2.029
 1732SOL     OW 6094   2.421   4.782   5.961
 1732SOL    HW1 6095   2.375   4.718   6.023
 1732SOL    HW2 6096   2.494   4.734   5.912
 1733SOL     OW 6097   1.248   3.764   2.820
 1733SOL    HW1 6098   1.208   3.718   2.899
 1733SOL    HW2 6099   1.182   3.830   2.784
 1734SOL     OW 6100   4.910   3.032   1.797
 1734SOL    HW1 6101   4.903   3.038   1.697
 1734SOL    HW2 6102   4.826   2.993   1.834
 1735SOL     OW 6103   5.834   5.560   0.879
 1735SOL    HW1 6104   5.809   5.464   0.864
 1735SOL    HW2 6105   5.754   5.612   0.908
 1736SOL     OW 6106   4.870   1.909   0.612
 1736SOL    HW1 6107   4.889   1.893   0.709
 1736SOL    HW2 6108   4.825   1.998   0.602
 1737SOL     OW 6109   3.124   0.898   4.290
 1737SOL    HW1 6110   3.195   0.952   4.244
 1737SOL    HW2 6111   3.140   0.801   4.273
 1738SOL     OW 6112   1.935   2.305   4.004
 1738SOL    HW1 6113   1.952   2.207   4.014
 1738SOL    HW2 6114   1.837   2.321   3.994
 1739SOL     OW 6115   4.874   2.848   5.302
 1739SOL    HW1 6116   4.788   2.803   5.275
 1739SOL    HW2 6117   4.928   2.868   5.221
 1740SOL     OW 6118   0.370   1.644   6.621
 1740SOL    HW1 6119   0.468   1.657   6.636
 1740SOL    HW2 6120   0.347   1.547   6.628
 1741SOL     OW 6121   2.616   0.985   3.553
 1741SOL    HW1 6122   2.525   0.966   3.589
 1741SOL    HW2 6123   2.678   0.912   3.580
 1742SOL     OW 6124   4.197   6.194   5.990
 1742SOL    HW1 6125   4.248   6.184   6.076
 1742SOL    HW2 6126   4.169   6.104   5.958
 1743SOL     OW 6127   1.927   1.644   1.943
 1743SOL    HW1 6128   1.980   1.720   1.980
 1743SOL    HW2 6129   1.831   1.671   1.934
 1744SOL     OW 6130   0.646   0.088   1.563
 1744SOL    HW1 6131   0.645   0.048   1.655
 1744SOL    HW2 6132   0.645   0.015   1.495
 1745SOL     OW 6133   6.907   0.950   3.970
 1745SOL    HW1 6134   6.867   1.024   3.915
 1745SOL    HW2 6135   6.863   0.948   4.059
 1746SOL     OW 6136   1.923   5.201   5.186
 1746SOL    HW1 6137   1.988   5.272   5.159
 1746SOL    HW2 6138   1.833   5.241   5.203
 1747SOL     OW 6139   5.158   6.919   2.561
 1747SOL    HW1 6140   5.187   6.933   2.655
 1747SOL    HW2 6141   5.177   7.002   2.507
 1748SOL     OW 6142   0.233   0.893   3.449
 1748SOL    HW1 6143   0.187   0.960   3.508
 1748SOL    HW2 6144   0.190   0.803   3.462
 1749SOL     OW 6145   2.759   6.501   5.239
 1749SOL    HW1 6146   2.680   6.440   5.253
 1749SOL    HW2 6147   2.735   6.594   5.265
 1750SOL     OW 6148   6.331   0.580   3.395
 1750SOL    HW1 6149   6.379   0.605   3.311
 1750SOL    HW2 6150   6.283   0.661   3.431
 1751SOL     OW 6151   3.746   5.701   4.562
 1751SOL    HW1 6152   3.647   5.703   4.548
 1751SOL    HW2 6153   3.776   5.606   4.572
 1752SOL     OW 6154   0.023   2.254   2.481
 1752SOL    HW1 6155   6.958   2.231   2.450
 1752SOL    HW2 6156   0.025   2.256   2.581
 1753SOL     OW 6157   0.117   1.990   0.503
 1753SOL    HW1 6158   0.069   2.073   0.474
 1753SOL    HW2 6159   0.054   1.912   0.501
 1754SOL     OW 6160   3.306   3.168   1.814
 1754SOL    HW1 6161   3.209   3.177   1.838
 1754SOL    HW2 6162   3.316   3.096   1.746
 1755SOL     OW 6163   5.921   5.477   1.943
 1755SOL    HW1 6164   5.837   5.424   1.928
 1755SOL    HW2 6165   5.997   5.414   1.959
 1756SOL     OW 6166   4.278   4.364   6.342
 1756SOL    HW1 6167   4.292   4.434   6.411
 1756SOL    HW2 6168   4.198   4.309   6.366
 1757SOL     OW 6169   2.317   5.701   4.550
 1757SOL    HW1 6170   2.388   5.769   4.529
 1757SOL    HW2 6171   2.232   5.749   4.572
 1758SOL     OW 6172   2.272   0.642   3.484
 1758SOL    HW1 6173   2.202   0.648   3.555
 1758SOL    HW2 6174   2.355   0.600   3.521
 1759SOL     OW 6175   0.831   4.755   5.907
 1759SOL    HW1 6176   0.806   4.716   5.996
 1759SOL    HW2 6177   0.814   4.687   5.835
 1760SOL     OW 6178   6.567   1.183   1.263
 1760SOL    HW1 6179   6.552   1.282   1.264
 1760SOL    HW2 6180   6.660   1.162   1.293
 1761SOL     OW 6181   0.085   0.113   0.035
 1761SOL    HW1 6182   0.103   0.211   0.050
 1761SOL    HW2 6183   7.018   0.092   0.059
 1762SOL     OW 6184   6.223   1.350   5.311
 1762SOL    HW1 6185   6.226   1.417   5.236
 1762SOL    HW2 6186   6.305   1.360   5.368
 1763SOL     OW 6187   2.157   3.363   4.503
 1763SOL    HW1 6188   2.174   3.299   4.428
 1763SOL    HW2 6189   2.199   3.451   4.482
 1764SOL     OW 6190   1.336   4.158   2.662
 1764SOL    HW1 6191   1.400   4.154   2.738
 1764SOL    HW2 6192   1.291   4.070   2.651
 1765SOL     OW 6193   3.518   2.134   6.853
 1765SOL    HW1 6194   3.519   2.218   6.908
 1765SOL    HW2 6195   3.605   2.086   6.864
 1766SOL     OW 6196   4.900   3.227   3.684
 1766SOL    HW1 6197   4.838   3.219   3.762
 1766SOL    HW2 6198   4.970   3.155   3.689
 1767SOL     OW 6199   6.239   3.541   2.998
 1767SOL    HW1 6200   6.146   3.559   2.964
 1767SOL    HW2 6201   6.250   3.584   3.087
 1768SOL     OW 6202   3.695   1.695   4.591
 1768SOL    HW1 6203   3.710   1.628   4.664
 1768SOL    HW2 6204   3.695   1.648   4.503
 1769SOL     OW 6205   4.263   2.251   4.856
 1769SOL    HW1 6206   4.308   2.300   4.782
 1769SOL    HW2 6207   4.270   2.305   4.940
 1770SOL     OW 6208   0.462   5.172   4.535
 1770SOL    HW1 6209   0.531   5.100   4.525
 1770SOL    HW2 6210   0.463   5.206   4.629
 1771SOL     OW 6211   2.766   5.299   0.449
 1771SOL    HW1 6212   2.745   5.212   0.402
 1771SOL    HW2 6213   2.688   5.361   0.440
 1772SOL     OW 6214   3.191   6.923   3.766
 1772SOL    HW1 6215   3.111   6.937   3.707
 1772SOL    HW2 6216   3.274   6.930   3.711
 1773SOL     OW 6217   2.725   4.760   6.157
 1773SOL    HW1 6218   2.709   4.662   6.165
 1773SOL    HW2 6219   2.652   4.810   6.203
 1774SOL     OW 6220   4.204   6.844   1.775
 1774SOL    HW1 6221   4.217   6.861   1.677
 1774SOL    HW2 6222   4.145   6.765   1.787
 1775SOL     OW 6223   0.895   4.602   4.221
 1775SOL    HW1 6224   0.827   4.572   4.288
 1775SOL    HW2 6225   0.975   4.543   4.225
 1776SOL     OW 6226   3.187   0.105   3.924
 1776SOL    HW1 6227   3.244   0.153   3.857
 1776SOL    HW2 6228   3.182   0.008   3.901
 1777SOL     OW 6229   2.986   5.451   5.965
 1777SOL    HW1 6230   2.945   5.510   5.895
 1777SOL    HW2 6231   3.005   5.361   5.925
 1778SOL     OW 6232   4.599   3.217   5.807
 1778SOL    HW1 6233   4.565   3.310   5.822
 1778SOL    HW2 6234   4.646   3.212   5.719
 1779SOL     OW 6235   3.883   1.075   4.561
 1779SOL    HW1 6236   3.785   1.092   4.549
 1779SOL    HW2 6237   3.931   1.091   4.475
 1780SOL     OW 6238   3.079   3.097   5.992
 1780SOL    HW1 6239   2.989   3.135   5.966
 1780SOL    HW2 6240   3.143   3.173   6.007
 1781SOL     OW 6241   4.785   5.599   3.827
 1781SOL    HW1 6242   4.744   5.515   3.862
 1781SOL    HW2 6243   4.862   5.626   3.885
 1782SOL     OW 6244   3.667   1.769   2.514
 1782SOL    HW1 6245   3.713   1.849   2.476
 1782SOL    HW2 6246   3.620   1.793   2.599
 1783SOL     OW 6247   1.531   4.514   6.310
 1783SOL    HW1 6248   1.581   4.461   6.379
 1783SOL    HW2 6249   1.594   4.575   6.263
 1784SOL     OW 6250   3.756   1.287   5.743
 1784SOL    HW1 6251   3.786   1.235   5.663
 1784SOL    HW2 6252   3.836   1.324   5.791
 1785SOL     OW 6253   6.618   5.256   3.558
 1785SOL    HW1 6254   6.560   5.242   3.477
 1785SOL    HW2 6255   6.696   5.314   3.534
 1786SOL     OW 6256   1.153   2.621   1.012
 1786SOL    HW1 6257   1.246   2.624   1.048
 1786SOL    HW2 6258   1.136   2.702   0.955
 1787SOL     OW 6259   2.095   0.892   4.993
 1787SOL    HW1 6260   2.185   0.852   4.976
 1787SOL    HW2 6261   2.102   0.992   4.993
 1788SOL     OW 6262   3.531   2.965   6.981
 1788SOL    HW1 6263   3.486   3.054   6.987
 1788SOL    HW2 6264   3.501   2.907   0.028
 1789SOL     OW 6265   6.101   2.148   3.546
 1789SOL    HW1 6266   6.082   2.234   3.593
 1789SOL    HW2 6267   6.187   2.157   3.495
 1790SOL     OW 6268   3.783   6.226   3.910
 1790SOL    HW1 6269   3.801   6.315   3.954
 1790SOL    HW2 6270   3.722   6.239   3.832
 1791SOL     OW 6271   6.787   0.938   3.512
 1791SOL    HW1 6272   6.811   1.005   3.442
 1791SOL    HW2 6273   6.845   0.953   3.593
 1792SOL     OW 6274   6.926   3.071   4.324
 1792SOL    HW1 6275   6.841   3.125   4.326
 1792SOL    HW2 6276   6.972   3.086   4.237
 1793SOL     OW 6277   6.516   6.561   3.261
 1793SOL    HW1 6278   6.548   6.588   3.352
 1793SOL    HW2 6279   6.579   6.596   3.192
 1794SOL     OW 6280   5.772   6.257   6.054
 1794SOL    HW1 6281   5.782   6.318   5.975
 1794SOL    HW2 6282   5.726   6.306   6.128
 1795SOL     OW 6283   0.734   2.675   1.103
 1795SOL    HW1 6284   0.742   2.671   1.003
 1795SOL    HW2 6285   0.741   2.583   1.140
 1796SOL     OW 6286   2.443   0.511   4.309
 1796SOL    HW1 6287   2.439   0.610   4.295
 1796SOL    HW2 6288   2.427   0.465   4.222
 1797SOL     OW 6289   1.325   0.345   7.020
 1797SOL    HW1 6290   1.232   0.361   6.989
 1797SOL    HW2 6291   1.386   0.416   6.984
 1798SOL     OW 6292   5.109   2.144   4.223
 1798SOL    HW1 6293   5.155   2.161   4.310
 1798SOL    HW2 6294   5.027   2.089   4.239
 1799SOL     OW 6295   6.383   1.956   5.756
 1799SOL    HW1 6296   6.315   1.888   5.729
 1799SOL    HW2 6297   6.474   1.916   5.754
 1800SOL     OW 6298   3.810   4.919   2.452
 1800SOL    HW1 6299   3.833   5.015   2.471
 1800SOL    HW2 6300   3.881   4.879   2.393
 1801SOL     OW 6301   0.362   0.639   2.320
 1801SOL    HW1 6302   0.413   0.670   2.239
 1801SOL    HW2 6303   0.271   0.607   2.293
 1802SOL     OW 6304   5.541   5.309   2.776
 1802SOL    HW1 6305   5.547   5.210   2.768
 1802SOL    HW2 6306   5.458   5.333   2.827
 1803SOL     OW 6307   0.347   6.214   6.762
 1803SOL    HW1 6308   0.419   6.282   6.746
 1803SOL    HW2 6309   0.258   6.259   6.761
 1804SOL     OW 6310   2.276   3.808   5.558
 1804SOL    HW1 6311   2.332   3.839   5.481
 1804SOL    HW2 6312   2.333   3.797   5.639
 1805SOL     OW 6313   6.067   4.325   5.605
 1805SOL    HW1 6314   6.023   4.415   5.601
 1805SOL    HW2 6315   6.000   4.256   5.633
 1806SOL     OW 6316   0.998   0.930   0.612
 1806SOL    HW1 6317   0.949   0.966   0.533
 1806SOL    HW2 6318   0.946   0.948   0.696
 1807SOL     OW 6319   4.933   2.649   5.493
 1807SOL    HW1 6320   4.897   2.557   5.480
 1807SOL    HW2 6321   4.951   2.690   5.403
 1808SOL     OW 6322   0.677   3.970   5.988
 1808SOL    HW1 6323   0.673   4.004   6.081
 1808SOL    HW2 6324   0.758   3.913   5.976
 1809SOL     OW 6325   2.210   2.410   4.610
 1809SOL    HW1 6326   2.271   2.387   4.686
 1809SOL    HW2 6327   2.202   2.510   4.603
 1810SOL     OW 6328   3.095   0.240   3.399
 1810SOL    HW1 6329   3.121   0.325   3.353
 1810SOL    HW2 6330   3.077   0.258   3.495
 1811SOL     OW 6331   4.739   4.607   3.666
 1811SOL    HW1 6332   4.665   4.637   3.606
 1811SOL    HW2 6333   4.723   4.513   3.696
 1812SOL     OW 6334   4.241   6.557   5.087
 1812SOL    HW1 6335   4.330   6.593   5.057
 1812SOL    HW2 6336   4.173   6.575   5.015
 1813SOL     OW 6337   6.203   5.106   0.922
 1813SOL    HW1 6338   6.177   5.202   0.912
 1813SOL    HW2 6339   6.201   5.081   1.019
 1814SOL     OW 6340   6.467   1.676   0.221
 1814SOL    HW1 6341   6.478   1.684   0.320
 1814SOL    HW2 6342   6.545   1.721   0.176
 1815SOL     OW 6343   5.907   2.095   1.988
 1815SOL    HW1 6344   5.835   2.153   2.027
 1815SOL    HW2 6345   5.934   2.130   1.899
 1816SOL     OW 6346   2.282   3.841   1.076
 1816SOL    HW1 6347   2.245   3.780   1.146
 1816SOL    HW2 6348   2.253   3.935   1.095
 1817SOL     OW 6349   3.662   0.323   3.230
 1817SOL    HW1 6350   3.599   0.372   3.291
 1817SOL    HW2 6351   3.649   0.355   3.136
 1818SOL     OW 6352   1.706   6.376   2.994
 1818SOL    HW1 6353   1.654   6.408   2.915
 1818SOL    HW2 6354   1.782   6.319   2.962
 1819SOL     OW 6355   0.553   5.170   1.544
 1819SOL    HW1 6356   0.611   5.226   1.486
 1819SOL    HW2 6357   0.466   5.217   1.561
 1820SOL     OW 6358   4.946   0.824   2.154
 1820SOL    HW1 6359   5.033   0.794   2.193
 1820SOL    HW2 6360   4.942   0.801   2.057
 1821SOL     OW 6361   1.731   0.756   1.717
 1821SOL    HW1 6362   1.722   0.692   1.793
 1821SOL    HW2 6363   1.721   0.850   1.750
 1822SOL     OW 6364   2.069   2.638   1.726
 1822SOL    HW1 6365   2.054   2.735   1.703
 1822SOL    HW2 6366   2.115   2.593   1.650
 1823SOL     OW 6367   3.113   6.113   3.082
 1823SOL    HW1 6368   3.210   6.099   3.063
 1823SOL    HW2 6369   3.095   6.098   3.179
 1824SOL     OW 6370   3.091   2.735   1.814
 1824SOL    HW1 6371   3.190   2.723   1.809
 1824SOL    HW2 6372   3.047   2.646   1.822
 1825SOL     OW 6373   1.539   1.390   3.597
 1825SOL    HW1 6374   1.531   1.302   3.643
 1825SOL    HW2 6375   1.636   1.415   3.589
 1826SOL     OW 6376   3.031   7.013   1.019
 1826SOL    HW1 6377   2.950   6.982   1.070
 1826SOL    HW2 6378   3.045   6.954   0.940
 1827SOL     OW 6379   6.732   6.041   1.706
 1827SOL    HW1 6380   6.753   6.127   1.752
 1827SOL    HW2 6381   6.801   5.972   1.729
 1828SOL     OW 6382   1.447   2.488   0.497
 1828SOL    HW1 6383   1.419   2.406   0.446
 1828SOL    HW2 6384   1.539   2.475   0.533
 1829SOL     OW 6385   3.648   0.138   3.415
 1829SOL    HW1 6386   3.668   0.171   3.322
 1829SOL    HW2 6387   3.568   0.186   3.451
 1830SOL     OW 6388   6.080   5.816   3.984
 1830SOL    HW1 6389   6.057   5.827   4.081
 1830SOL    HW2 6390   6.173   5.849   3.967
 1831SOL     OW 6391   6.277   0.289   1.908
 1831SOL    HW1 6392   6.235   0.380   1.903
 1831SOL    HW2 6393   6.315   0.275   1.999
 1832SOL     OW 6394   5.263   1.187   1.039
 1832SOL    HW1 6395   5.182   1.154   0.990
 1832SOL    HW2 6396   5.242   1.273   1.085
 1833SOL     OW 6397   5.530   0.143   5.722
 1833SOL    HW1 6398   5.579   0.178   5.642
 1833SOL    HW2 6399   5.436   0.121   5.695
 1834SOL     OW 6400   2.415   4.048   0.456
 1834SOL    HW1 6401   2.470   4.007   0.383
 1834SOL    HW2 6402   2.373   3.976   0.511
 1835SOL     OW 6403   1.359   3.468   1.685
 1835SOL    HW1 6404   1.283   3.496   1.743
 1835SOL    HW2 6405   1.446   3.487   1.732
 1836SOL     OW 6406   5.240   1.755   0.799
 1836SOL    HW1 6407   5.313   1.703   0.755
 1836SOL    HW2 6408   5.192   1.696   0.865
 1837SOL     OW 6409   0.855   2.205   4.196
 1837SOL    HW1 6410   0.869   2.224   4.098
 1837SOL    HW2 6411   0.936   2.233   4.247
 1838SOL     OW 6412   0.103   1.555   4.397
 1838SOL    HW1 6413   0.078   1.593   4.486
 1838SOL    HW2 6414   0.155   1.470   4.411
 1839SOL     OW 6415   5.248   3.069   5.001
 1839SOL    HW1 6416   5.332   3.080   5.054
 1839SOL    HW2 6417   5.270   3.075   4.903
 1840SOL     OW 6418   3.803   5.952   1.619
 1840SOL    HW1 6419   3.738   6.027   1.606
 1840SOL    HW2 6420   3.778   5.875   1.560
 1841SOL     OW 6421   2.414   1.619   4.226
 1841SOL    HW1 6422   2.491   1.669   4.268
 1841SOL    HW2 6423   2.333   1.628   4.285
 1842SOL     OW 6424   0.889   5.300   0.443
 1842SOL    HW1 6425   0.982   5.331   0.422
 1842SOL    HW2 6426   0.893   5.217   0.499
 1843SOL     OW 6427   6.826   1.873   4.229
 1843SOL    HW1 6428   6.821   1.796   4.165
 1843SOL    HW2 6429   6.740   1.923   4.227
 1844SOL     OW 6430   3.767   0.086   5.561
 1844SOL    HW1 6431   3.675   0.047   5.557
 1844SOL    HW2 6432   3.835   0.012   5.557
 1845SOL     OW 6433   1.898   6.863   4.736
 1845SOL    HW1 6434   1.852   6.943   4.698
 1845SOL    HW2 6435   1.832   6.789   4.747
 1846SOL     OW 6436   4.201   2.288   0.311
 1846SOL    HW1 6437   4.143   2.229   0.366
 1846SOL    HW2 6438   4.145   2.340   0.247
 1847SOL     OW 6439   1.027   0.585   5.977
 1847SOL    HW1 6440   1.027   0.535   6.063
 1847SOL    HW2 6441   1.120   0.616   5.956
 1848SOL     OW 6442   0.786   6.812   2.565
 1848SOL    HW1 6443   0.771   6.738   2.630
 1848SOL    HW2 6444   0.721   6.804   2.489
 1849SOL     OW 6445   3.505   2.057   0.812
 1849SOL    HW1 6446   3.582   2.081   0.870
 1849SOL    HW2 6447   3.538   2.032   0.721
 1850SOL     OW 6448   0.233   3.132   2.551
 1850SOL    HW1 6449   0.155   3.192   2.533
 1850SOL    HW2 6450   0.314   3.187   2.571
 1851SOL     OW 6451   0.232   2.454   1.458
 1851SOL    HW1 6452   0.304   2.423   1.396
 1851SOL    HW2 6453   0.157   2.388   1.457
 1852SOL     OW 6454   5.943   3.797   2.217
 1852SOL    HW1 6455   5.914   3.740   2.140
 1852SOL    HW2 6456   5.885   3.878   2.223
 1853SOL     OW 6457   0.233   3.324   3.277
 1853SOL    HW1 6458   0.328   3.355   3.289
 1853SOL    HW2 6459   0.203   3.276   3.360
 1854SOL     OW 6460   2.472   6.359   3.328
 1854SOL    HW1 6461   2.405   6.430   3.305
 1854SOL    HW2 6462   2.428   6.289   3.385
 1855SOL     OW 6463   5.099   4.228   6.779
 1855SOL    HW1 6464   5.112   4.130   6.795
 1855SOL    HW2 6465   5.027   4.262   6.840
 1856SOL     OW 6466   6.260   3.672   5.633
 1856SOL    HW1 6467   6.251   3.768   5.608
 1856SOL    HW2 6468   6.239   3.660   5.730
 1857SOL     OW 6469   4.112   1.017   5.959
 1857SOL    HW1 6470   4.013   1.010   5.969
 1857SOL    HW2 6471   4.152   0.925   5.963
 1858SOL     OW 6472   5.845   3.391   3.460
 1858SOL    HW1 6473   5.876   3.474   3.414
 1858SOL    HW2 6474   5.839   3.317   3.393
 1859SOL     OW 6475   4.361   1.793   3.383
 1859SOL    HW1 6476   4.373   1.789   3.482
 1859SOL    HW2 6477   4.359   1.700   3.346
 1860SOL     OW 6478   0.005   0.691   3.935
 1860SOL    HW1 6479   7.004   0.786   3.949
 1860SOL    HW2 6480   6.974   0.631   3.989
 1861SOL     OW 6481   5.459   0.164   2.229
 1861SOL    HW1 6482   5.465   0.157   2.130
 1861SOL    HW2 6483   5.526   0.102   2.271
 1862SOL     OW 6484   2.516   0.542   6.269
 1862SOL    HW1 6485   2.572   0.469   6.231
 1862SOL    HW2 6486   2.576   0.610   6.312
 1863SOL     OW 6487   1.746   1.331   0.963
 1863SOL    HW1 6488   1.763   1.246   0.914
 1863SOL    HW2 6489   1.833   1.371   0.992
 1864SOL     OW 6490   0.942   6.916   5.952
 1864SOL    HW1 6491   0.960   6.947   6.046
 1864SOL    HW2 6492   0.848   6.940   5.928
 1865SOL     OW 6493   3.467   6.956   6.020
 1865SOL    HW1 6494   3.505   0.010   6.062
 1865SOL    HW2 6495   3.512   6.875   6.056
 1866SOL     OW 6496   4.069   4.866   3.431
 1866SOL    HW1 6497   4.074   4.795   3.360
 1866SOL    HW2 6498   4.160   4.905   3.446
 1867SOL     OW 6499   0.556   4.019   7.005
 1867SOL    HW1 6500   0.496   3.980   0.046
 1867SOL    HW2 6501   0.522   4.110   6.979
 1868SOL     OW 6502   4.543   4.607   0.121
 1868SOL    HW1 6503   4.445   4.586   0.126
 1868SOL    HW2 6504   4.562   4.690   0.174
 1869SOL     OW 6505   6.113   2.575   5.510
 1869SOL    HW1 6506   6.074   2.484   5.528
 1869SOL    HW2 6507   6.175   2.600   5.584
 1870SOL     OW 6508   2.174   2.803   5.825
 1870SOL    HW1 6509   2.113   2.769   5.754
 1870SOL    HW2 6510   2.223   2.883   5.790
 1871SOL     OW 6511   0.530   0.595   6.905
 1871SOL    HW1 6512   0.443   0.642   6.892
 1871SOL    HW2 6513   0.577   0.633   6.985
 1872SOL     OW 6514   3.465   2.236   6.418
 1872SOL    HW1 6515   3.418   2.283   6.343
 1872SOL    HW2 6516   3.556   2.276   6.431
 1873SOL     OW 6517   4.912   1.653   5.985
 1873SOL    HW1 6518   4.891   1.563   5.946
 1873SOL    HW2 6519   4.985   1.696   5.933
 1874SOL     OW 6520   3.348   1.200   1.282
 1874SOL    HW1 6521   3.440   1.233   1.258
 1874SOL    HW2 6522   3.308   1.261   1.350
 1875SOL     OW 6523   0.401   1.218   0.338
 1875SOL    HW1 6524   0.303   1.212   0.321
 1875SOL    HW2 6525   0.443   1.279   0.271
 1876SOL     OW 6526   4.250   6.858   5.978
 1876SOL    HW1 6527   4.252   6.778   5.918
 1876SOL    HW2 6528   4.202   6.933   5.933
 1877SOL     OW 6529   0.586   6.804   2.355
 1877SOL    HW1 6530   0.644   6.850   2.288
 1877SOL    HW2 6531   0.507   6.861   2.377
 1878SOL     OW 6532   6.741   2.167   3.495
 1878SOL    HW1 6533   6.742   2.259   3.456
 1878SOL    HW2 6534   6.729   2.099   3.422
 1879SOL     OW 6535   1.433   4.334   4.360
 1879SOL    HW1 6536   1.484   4.249   4.366
 1879SOL    HW2 6537   1.476   4.403   4.419
 1880SOL     OW 6538   7.023   1.615   4.627
 1880SOL    HW1 6539   7.019   1.526   4.673
 1880SOL    HW2 6540   6.936   1.633   4.581
 1881SOL     OW 6541   5.823   2.103   3.600
 1881SOL    HW1 6542   5.922   2.093   3.591
 1881SOL    HW2 6543   5.798   2.198   3.585
 1882SOL     OW 6544   1.450   4.090   6.124
 1882SOL    HW1 6545   1.448   4.005   6.176
 1882SOL    HW2 6546   1.414   4.075   6.032
 1883SOL     OW 6547   0.072   1.746   3.220
 1883SOL    HW1 6548   0.148   1.721   3.280
 1883SOL    HW2 6549   7.013   1.734   3.269
 1884SOL     OW 6550   0.133   2.291   1.019
 1884SOL    HW1 6551   0.103   2.384   1.038
 1884SOL    HW2 6552   0.163   2.247   1.104
 1885SOL     OW 6553   1.798   2.215   6.630
 1885SOL    HW1 6554   1.835   2.123   6.644
 1885SOL    HW2 6555   1.865   2.271   6.581
 1886SOL     OW 6556   1.923   0.973   1.720
 1886SOL    HW1 6557   2.001   1.034   1.705
 1886SOL    HW2 6558   1.955   0.887   1.759
 1887SOL     OW 6559   1.217   5.995   4.798
 1887SOL    HW1 6560   1.152   5.982   4.724
 1887SOL    HW2 6561   1.176   6.052   4.869
 1888SOL     OW 6562   3.202   2.302   0.512
 1888SOL    HW1 6563   3.228   2.249   0.593
 1888SOL    HW2 6564   3.277   2.299   0.445
 1889SOL     OW 6565   0.104   2.874   5.826
 1889SOL    HW1 6566   0.026   2.847   5.770
 1889SOL    HW2 6567   0.102   2.973   5.841
 1890SOL     OW 6568   1.564   6.185   4.258
 1890SOL    HW1 6569   1.528   6.194   4.351
 1890SOL    HW2 6570   1.614   6.267   4.233
 1891SOL     OW 6571   5.546   2.308   1.833
 1891SOL    HW1 6572   5.600   2.380   1.788
 1891SOL    HW2 6573   5.480   2.350   1.894
 1892SOL     OW 6574   2.279   0.315   2.661
 1892SOL    HW1 6575   2.286   0.221   2.627
 1892SOL    HW2 6576   2.348   0.372   2.616
 1893SOL     OW 6577   2.925   3.911   0.847
 1893SOL    HW1 6578   2.937   3.991   0.906
 1893SOL    HW2 6579   2.981   3.836   0.882
 1894SOL     OW 6580   3.276   4.173   3.997
 1894SOL    HW1 6581   3.240   4.264   3.980
 1894SOL    HW2 6582   3.204   4.115   4.035
 1895SOL     OW 6583   4.521   0.655   1.972
 1895SOL    HW1 6584   4.566   0.705   1.898
 1895SOL    HW2 6585   4.476   0.720   2.033
 1896SOL     OW 6586   5.039   0.867   1.616
 1896SOL    HW1 6587   5.134   0.841   1.630
 1896SOL    HW2 6588   4.988   0.789   1.579
 1897SOL     OW 6589   2.550   5.682   1.611
 1897SOL    HW1 6590   2.582   5.754   1.671
 1897SOL    HW2 6591   2.468   5.640   1.649
 1898SOL     OW 6592   2.323   5.592   3.727
 1898SOL    HW1 6593   2.361   5.645   3.651
 1898SOL    HW2 6594   2.293   5.502   3.694
 1899SOL     OW 6595   0.500   1.340   1.598
 1899SOL    HW1 6596   0.416   1.342   1.545
 1899SOL    HW2 6597   0.518   1.431   1.636
 1900SOL     OW 6598   2.042   0.480   6.531
 1900SOL    HW1 6599   2.120   0.493   6.470
 1900SOL    HW2 6600   2.069   0.502   6.625
 1901SOL     OW 6601   1.941   2.139   1.074
 1901SOL    HW1 6602   2.028   2.117   1.031
 1901SOL    HW2 6603   1.908   2.227   1.041
 1902SOL     OW 6604   1.835   0.762   5.113
 1902SOL    HW1 6605   1.914   0.794   5.061
 1902SOL    HW2 6606   1.831   0.811   5.200
 1903SOL     OW 6607   0.394   3.765   2.645
 1903SOL    HW1 6608   0.485   3.790   2.610
 1903SOL    HW2 6609   0.360   3.838   2.704
 1904SOL     OW 6610   5.568   5.604   3.675
 1904SOL    HW1 6611   5.469   5.597   3.677
 1904SOL    HW2 6612   5.595   5.672   3.606
 1905SOL     OW 6613   0.955   0.018   3.342
 1905SOL    HW1 6614   1.019   0.022   3.419
 1905SOL    HW2 6615   0.989   6.982   3.274
 1906SOL     OW 6616   1.949   0.089   4.385
 1906SOL    HW1 6617   1.895   0.145   4.322
 1906SOL    HW2 6618   2.043   0.085   4.354
 1907SOL     OW 6619   3.698   1.585   1.962
 1907SOL    HW1 6620   3.617   1.548   1.917
 1907SOL    HW2 6621   3.670   1.645   2.037
 1908SOL     OW 6622   3.708   6.535   5.597
 1908SOL    HW1 6623   3.694   6.601   5.671
 1908SOL    HW2 6624   3.802   6.500   5.601
 1909SOL     OW 6625   0.832   3.687   2.923
 1909SOL    HW1 6626   0.779   3.766   2.891
 1909SOL    HW2 6627   0.870   3.706   3.014
 1910SOL     OW 6628   0.057   5.338   5.974
 1910SOL    HW1 6629   0.136   5.332   6.035
 1910SOL    HW2 6630   0.024   5.433   5.972
 1911SOL     OW 6631   0.218   3.739   5.022
 1911SOL    HW1 6632   0.168   3.655   5.001
 1911SOL    HW2 6633   0.230   3.747   5.121
 1912SOL     OW 6634   3.147   5.705   0.743
 1912SOL    HW1 6635   3.094   5.760   0.679
 1912SOL    HW2 6636   3.107   5.711   0.834
 1913SOL     OW 6637   2.378   0.289   4.743
 1913SOL    HW1 6638   2.309   0.361   4.749
 1913SOL    HW2 6639   2.447   0.303   4.814
 1914SOL     OW 6640   3.979   3.091   6.609
 1914SOL    HW1 6641   3.985   3.040   6.523
 1914SOL    HW2 6642   3.950   3.185   6.590
 1915SOL     OW 6643   3.724   2.354   5.422
 1915SOL    HW1 6644   3.643   2.343   5.366
 1915SOL    HW2 6645   3.698   2.388   5.513
 1916SOL     OW 6646   4.153   5.452   1.400
 1916SOL    HW1 6647   4.242   5.447   1.444
 1916SOL    HW2 6648   4.165   5.471   1.303
 1917SOL     OW 6649   2.236   2.899   6.746
 1917SOL    HW1 6650   2.313   2.848   6.782
 1917SOL    HW2 6651   2.252   2.997   6.759
 1918SOL     OW 6652   1.347   1.687   4.795
 1918SOL    HW1 6653   1.363   1.771   4.743
 1918SOL    HW2 6654   1.404   1.686   4.876
 1919SOL     OW 6655   1.271   1.992   2.169
 1919SOL    HW1 6656   1.340   2.046   2.121
 1919SOL    HW2 6657   1.285   2.002   2.268
 1920SOL     OW 6658   0.328   3.948   2.842
 1920SOL    HW1 6659   0.354   4.002   2.922
 1920SOL    HW2 6660   0.235   3.973   2.814
 1921SOL     OW 6661   1.408   3.753   6.481
 1921SOL    HW1 6662   1.436   3.795   6.395
 1921SOL    HW2 6663   1.315   3.783   6.503
 1922SOL     OW 6664   2.998   3.257   1.603
 1922SOL    HW1 6665   2.976   3.235   1.698
 1922SOL    HW2 6666   2.915   3.258   1.548
 1923SOL     OW 6667   4.131   1.637   6.012
 1923SOL    HW1 6668   4.076   1.632   6.095
 1923SOL    HW2 6669   4.227   1.650   6.036
 1924SOL     OW 6670   4.650   6.602   0.165
 1924SOL    HW1 6671   4.641   6.503   0.177
 1924SOL    HW2 6672   4.746   6.628   0.172
 1925SOL     OW 6673   1.336   4.708   0.615
 1925SOL    HW1 6674   1.328   4.696   0.714
 1925SOL    HW2 6675   1.377   4.626   0.574
 1926SOL     OW 6676   3.080   6.717   2.562
 1926SOL    HW1 6677   3.076   6.742   2.465
 1926SOL    HW2 6678   3.021   6.638   2.579
 1927SOL     OW 6679   2.446   4.787   0.322
 1927SOL    HW1 6680   2.524   4.746   0.275
 1927SOL    HW2 6681   2.466   4.882   0.346
 1928SOL     OW 6682   6.105   4.116   4.567
 1928SOL    HW1 6683   6.065   4.165   4.644
 1928SOL    HW2 6684   6.194   4.156   4.544
 1929SOL     OW 6685   2.748   0.413   1.219
 1929SOL    HW1 6686   2.711   0.496   1.178
 1929SOL    HW2 6687   2.831   0.386   1.171
 1930SOL     OW 6688   5.370   3.866   6.743
 1930SOL    HW1 6689   5.406   3.820   6.662
 1930SOL    HW2 6690   5.433   3.938   6.772
 1931SOL     OW 6691   1.059   2.363   0.889
 1931SOL    HW1 6692   1.077   2.435   0.957
 1931SOL    HW2 6693   0.980   2.390   0.833
 1932SOL     OW 6694   5.048   2.646   3.191
 1932SOL    HW1 6695   5.138   2.605   3.202
 1932SOL    HW2 6696   4.977   2.578   3.208
 1933SOL     OW 6697   1.423   3.067   0.683
 1933SOL    HW1 6698   1.432   3.077   0.584
 1933SOL    HW2 6699   1.389   3.152   0.722
 1934SOL     OW 6700   6.776   1.280   4.858
 1934SOL    HW1 6701   6.687   1.327   4.856
 1934SOL    HW2 6702   6.797   1.254   4.952
 1935SOL     OW 6703   4.753   4.910   3.393
 1935SOL    HW1 6704   4.683   4.863   3.339
 1935SOL    HW2 6705   4.710   4.981   3.449
 1936SOL     OW 6706   4.877   4.123   3.955
 1936SOL    HW1 6707   4.899   4.108   3.858
 1936SOL    HW2 6708   4.808   4.195   3.962
 1937SOL     OW 6709   3.939   6.235   0.151
 1937SOL    HW1 6710   3.917   6.310   0.214
 1937SOL    HW2 6711   4.012   6.179   0.189
 1938SOL     OW 6712   1.504   2.000   1.249
 1938SOL    HW1 6713   1.510   1.904   1.221
 1938SOL    HW2 6714   1.414   2.017   1.289
 1939SOL     OW 6715   6.882   6.551   4.775
 1939SOL    HW1 6716   6.870   6.487   4.851
 1939SOL    HW2 6717   6.889   6.644   4.811
 1940SOL     OW 6718   6.203   4.573   1.347
 1940SOL    HW1 6719   6.183   4.501   1.280
 1940SOL    HW2 6720   6.275   4.542   1.409
 1941SOL     OW 6721   1.633   2.749   4.148
 1941SOL    HW1 6722   1.718   2.789   4.183
 1941SOL    HW2 6723   1.596   2.686   4.215
 1942SOL     OW 6724   5.644   2.722   2.417
 1942SOL    HW1 6725   5.608   2.800   2.469
 1942SOL    HW2 6726   5.633   2.739   2.320
 1943SOL     OW 6727   1.593   0.111   2.997
 1943SOL    HW1 6728   1.547   0.074   3.078
 1943SOL    HW2 6729   1.656   0.184   3.024
 1944SOL     OW 6730   5.814   3.867   0.343
 1944SOL    HW1 6731   5.866   3.897   0.264
 1944SOL    HW2 6732   5.792   3.770   0.334
 1945SOL     OW 6733   3.930   5.717   7.013
 1945SOL    HW1 6734   3.945   5.627   6.973
 1945SOL    HW2 6735   3.843   5.718   0.035
 1946SOL     OW 6736   5.661   0.290   1.107
 1946SOL    HW1 6737   5.575   0.307   1.058
 1946SOL    HW2 6738   5.700   0.204   1.075
 1947SOL     OW 6739   5.297   5.834   4.351
 1947SOL    HW1 6740   5.307   5.920   4.400
 1947SOL    HW2 6741   5.388   5.796   4.332
 1948SOL     OW 6742   6.111   5.265   2.720
 1948SOL    HW1 6743   6.044   5.204   2.678
 1948SOL    HW2 6744   6.133   5.339   2.656
 1949SOL     OW 6745   3.989   3.340   0.174
 1949SOL    HW1 6746   3.996   3.281   0.093
 1949SOL    HW2 6747   3.925   3.414   0.155
 1950SOL     OW 6748   3.425   2.907   2.825
 1950SOL    HW1 6749   3.459   2.986   2.774
 1950SOL    HW2 6750   3.380   2.844   2.763
 1951SOL     OW 6751   6.905   4.529   6.363
 1951SOL    HW1 6752   6.897   4.512   6.461
 1951SOL    HW2 6753   6.971   4.464   6.323
 1952SOL     OW 6754   5.786   4.701   1.188
 1952SOL    HW1 6755   5.788   4.789   1.141
 1952SOL    HW2 6756   5.692   4.669   1.195
 1953SOL     OW 6757   6.843   1.990   5.797
 1953SOL    HW1 6758   6.917   1.923   5.798
 1953SOL    HW2 6759   6.848   2.047   5.879
 1954SOL     OW 6760   6.139   0.262   1.165
 1954SOL    HW1 6761   6.081   0.327   1.116
 1954SOL    HW2 6762   6.235   0.292   1.160
 1955SOL     OW 6763   0.557   0.185   2.384
 1955SOL    HW1 6764   0.493   0.188   2.461
 1955SOL    HW2 6765   0.612   0.268   2.383
 1956SOL     OW 6766   4.527   0.323   1.933
 1956SOL    HW1 6767   4.584   0.303   2.013
 1956SOL    HW2 6768   4.500   0.420   1.936
 1957SOL     OW 6769   4.880   4.533   3.968
 1957SOL    HW1 6770   4.958   4.510   3.909
 1957SOL    HW2 6771   4.904   4.608   4.029
 1958SOL     OW 6772   4.766   1.493   1.820
 1958SOL    HW1 6773   4.796   1.445   1.903
 1958SOL    HW2 6774   4.781   1.591   1.831
 1959SOL     OW 6775   0.633   6.934   3.917
 1959SOL    HW1 6776   0.720   6.983   3.928
 1959SOL    HW2 6777   0.558   7.000   3.912
 1960SOL     OW 6778   0.620   3.888   2.509
 1960SOL    HW1 6779   0.683   3.830   2.560
 1960SOL    HW2 6780   0.669   3.932   2.433
 1961SOL     OW 6781   5.982   3.952   4.408
 1961SOL    HW1 6782   5.935   4.009   4.341
 1961SOL    HW2 6783   6.038   4.010   4.467
 1962SOL     OW 6784   1.347   6.605   2.475
 1962SOL    HW1 6785   1.427   6.650   2.435
 1962SOL    HW2 6786   1.328   6.646   2.564
 1963SOL     OW 6787   1.368   1.545   1.489
 1963SOL    HW1 6788   1.427   1.544   1.570
 1963SOL    HW2 6789   1.343   1.639   1.466
 1964SOL     OW 6790   3.639   5.000   1.483
 1964SOL    HW1 6791   3.671   4.978   1.391
 1964SOL    HW2 6792   3.652   5.097   1.500
 1965SOL     OW 6793   1.818   2.294   4.647
 1965SOL    HW1 6794   1.783   2.283   4.555
 1965SOL    HW2 6795   1.900   2.236   4.658
 1966SOL     OW 6796   1.188   5.697   1.292
 1966SOL    HW1 6797   1.261   5.759   1.265
 1966SOL    HW2 6798   1.129   5.678   1.214
 1967SOL     OW 6799   6.326   2.625   4.272
 1967SOL    HW1 6800   6.340   2.724   4.271
 1967SOL    HW2 6801   6.263   2.600   4.346
 1968SOL     OW 6802   2.460   0.755   5.667
 1968SOL    HW1 6803   2.500   0.677   5.618
 1968SOL    HW2 6804   2.361   0.752   5.661
 1969SOL     OW 6805   2.868   1.296   1.502
 1969SOL    HW1 6806   2.928   1.223   1.535
 1969SOL    HW2 6807   2.898   1.327   1.412
 1970SOL     OW 6808   0.572   0.351   5.116
 1970SOL    HW1 6809   0.565   0.288   5.194
 1970SOL    HW2 6810   0.519   0.315   5.039
 1971SOL     OW 6811   0.204   1.000   5.573
 1971SOL    HW1 6812   0.160   0.956   5.651
 1971SOL    HW2 6813   0.137   1.018   5.501
 1972SOL     OW 6814   6.034   2.418   0.892
 1972SOL    HW1 6815   5.990   2.490   0.945
 1972SOL    HW2 6816   6.071   2.349   0.953
 1973SOL     OW 6817   2.745   4.292   1.570
 1973SOL    HW1 6818   2.753   4.391   1.562
 1973SOL    HW2 6819   2.773   4.249   1.484
 1974SOL     OW 6820   4.897   6.868   4.604
 1974SOL    HW1 6821   4.951   6.914   4.675
 1974SOL    HW2 6822   4.949   6.791   4.567
 1975SOL     OW 6823   2.296   2.025   4.244
 1975SOL    HW1 6824   2.246   1.942   4.269
 1975SOL    HW2 6825   2.256   2.103   4.292
 1976SOL     OW 6826   5.566   5.634   0.887
 1976SOL    HW1 6827   5.522   5.590   0.808
 1976SOL    HW2 6828   5.504   5.632   0.965
 1977SOL     OW 6829   1.960   3.281   5.333
 1977SOL    HW1 6830   1.886   3.317   5.276
 1977SOL    HW2 6831   2.047   3.285   5.282
 1978SOL     OW 6832   1.804   5.625   2.991
 1978SOL    HW1 6833   1.843   5.658   2.905
 1978SOL    HW2 6834   1.814   5.696   3.061
 1979SOL     OW 6835   5.291   5.184   0.013
 1979SOL    HW1 6836   5.234   5.186   6.959
 1979SOL    HW2 6837   5.281   5.271   0.062
 1980SOL     OW 6838   4.341   0.501   3.426
 1980SOL    HW1 6839   4.246   0.514   3.454
 1980SOL    HW2 6840   4.389   0.588   3.432
 1981SOL     OW 6841   5.845   2.605   2.580
 1981SOL    HW1 6842   5.773   2.642   2.521
 1981SOL    HW2 6843   5.919   2.568   2.523
 1982SOL     OW 6844   0.050   3.758   3.760
 1982SOL    HW1 6845   7.016   3.686   3.791
 1982SOL    HW2 6846   7.026   3.841   3.739
 1983SOL     OW 6847   1.683   0.660   1.441
 1983SOL    HW1 6848   1.777   0.647   1.408
 1983SOL    HW2 6849   1.685   0.690   1.536
 1984SOL     OW 6850   4.472   2.539   5.028
 1984SOL    HW1 6851   4.385   2.489   5.029
 1984SOL    HW2 6852   4.459   2.629   5.070
 1985SOL     OW 6853   0.004   6.087   1.803
 1985SOL    HW1 6854   7.023   6.056   1.709
 1985SOL    HW2 6855   7.018   6.010   1.865
 1986SOL     OW 6856   3.188   0.763   6.043
 1986SOL    HW1 6857   3.242   0.690   6.002
 1986SOL    HW2 6858   3.116   0.724   6.100
 1987SOL     OW 6859   2.404   1.618   3.961
 1987SOL    HW1 6860   2.502   1.622   3.940
 1987SOL    HW2 6861   2.391   1.629   4.060
 1988SOL     OW 6862   0.783   1.959   0.769
 1988SOL    HW1 6863   0.827   1.910   0.693
 1988SOL    HW2 6864   0.807   2.055   0.766
 1989SOL     OW 6865   1.991   5.856   4.261
 1989SOL    HW1 6866   1.990   5.956   4.271
 1989SOL    HW2 6867   1.901   5.819   4.282
 1990SOL     OW 6868   3.320   5.680   0.240
 1990SOL    HW1 6869   3.227   5.717   0.247
 1990SOL    HW2 6870   3.380   5.730   0.302
 1991SOL     OW 6871   1.789   5.677   0.172
 1991SOL    HW1 6872   1.766   5.719   0.084
 1991SOL    HW2 6873   1.793   5.578   0.162
 1992SOL     OW 6874   0.086   0.435   0.282
 1992SOL    HW1 6875   0.050   0.358   0.334
 1992SOL    HW2 6876   0.016   0.506   0.276
 1993SOL     OW 6877   3.187   1.374   5.269
 1993SOL    HW1 6878   3.170   1.462   5.313
 1993SOL    HW2 6879   3.141   1.373   5.180
 1994SOL     OW 6880   5.635   2.500   1.521
 1994SOL    HW1 6881   5.549   2.458   1.491
 1994SOL    HW2 6882   5.709   2.471   1.460
 1995SOL     OW 6883   5.439   2.689   3.898
 1995SOL    HW1 6884   5.470   2.683   3.803
 1995SOL    HW2 6885   5.485   2.765   3.943
 1996SOL     OW 6886   2.377   1.829   1.347
 1996SOL    HW1 6887   2.351   1.871   1.435
 1996SOL    HW2 6888   2.413   1.737   1.364
 1997SOL     OW 6889   3.416   1.555   3.971
 1997SOL    HW1 6890   3.381   1.612   4.045
 1997SOL    HW2 6891   3.515   1.546   3.980
 1998SOL     OW 6892   1.318   4.038   0.657
 1998SOL    HW1 6893   1.377   4.085   0.723
 1998SOL    HW2 6894   1.319   4.088   0.570
 1999SOL     OW 6895   0.996   0.500   5.340
 1999SOL    HW1 6896   0.909   0.543   5.366
 1999SOL    HW2 6897   1.014   0.517   5.244
 2000SOL     OW 6898   3.755   3.227   5.708
 2000SOL    HW1 6899   3.790   3.209   5.800
 2000SOL    HW2 6900   3.687   3.301   5.712
 2001SOL     OW 6901   2.228   1.200   0.517
 2001SOL    HW1 6902   2.168   1.153   0.582
 2001SOL    HW2 6903   2.274   1.276   0.563
 2002SOL     OW 6904   0.388   5.087   0.893
 2002SOL    HW1 6905   0.487   5.074   0.899
 2002SOL    HW2 6906   0.342   5.000   0.911
 2003SOL     OW 6907   6.748   4.678   1.674
 2003SOL    HW1 6908   6.760   4.579   1.676
 2003SOL    HW2 6909   6.809   4.721   1.741
 2004SOL     OW 6910   4.313   0.575   4.921
 2004SOL    HW1 6911   4.310   0.648   4.852
 2004SOL    HW2 6912   4.371   0.604   4.997
 2005SOL     OW 6913   0.187   4.923   0.032
 2005SOL    HW1 6914   0.198   5.022   0.048
 2005SOL    HW2 6915   0.122   4.909   6.986
 2006SOL     OW 6916   5.588   6.595   4.089
 2006SOL    HW1 6917   5.578   6.631   4.181
 2006SOL    HW2 6918   5.498   6.581   4.048
 2007SOL     OW 6919   5.358   4.271   1.369
 2007SOL    HW1 6920   5.332   4.351   1.422
 2007SOL    HW2 6921   5.324   4.188   1.413
 2008SOL     OW 6922   2.076   3.469   3.431
 2008SOL    HW1 6923   2.121   3.550   3.468
 2008SOL    HW2 6924   2.070   3.477   3.331
 2009SOL     OW 6925   5.594   6.296   2.468
 2009SOL    HW1 6926   5.641   6.299   2.380
 2009SOL    HW2 6927   5.566   6.388   2.494
 2010SOL     OW 6928   2.168   1.404   1.726
 2010SOL    HW1 6929   2.094   1.462   1.694
 2010SOL    HW2 6930   2.253   1.457   1.728
 2011SOL     OW 6931   0.390   1.042   4.862
 2011SOL    HW1 6932   0.345   1.112   4.919
 2011SOL    HW2 6933   0.415   1.082   4.774
 2012SOL     OW 6934   1.564   3.575   2.422
 2012SOL    HW1 6935   1.541   3.519   2.342
 2012SOL    HW2 6936   1.598   3.516   2.495
 2013SOL     OW 6937   6.641   3.458   3.977
 2013SOL    HW1 6938   6.649   3.393   3.902
 2013SOL    HW2 6939   6.627   3.550   3.940
 2014SOL     OW 6940   3.198   0.058   2.559
 2014SOL    HW1 6941   3.298   0.064   2.550
 2014SOL    HW2 6942   3.168   6.993   2.537
 2015SOL     OW 6943   3.315   6.490   0.184
 2015SOL    HW1 6944   3.272   6.400   0.193
 2015SOL    HW2 6945   3.404   6.480   0.140
 2016SOL     OW 6946   1.538   5.669   5.195
 2016SOL    HW1 6947   1.610   5.730   5.161
 2016SOL    HW2 6948   1.450   5.697   5.156
 2017SOL     OW 6949   4.778   0.368   3.290
 2017SOL    HW1 6950   4.787   0.357   3.389
 2017SOL    HW2 6951   4.683   0.350   3.264
 2018SOL     OW 6952   6.479   2.844   3.901
 2018SOL    HW1 6953   6.445   2.869   3.811
 2018SOL    HW2 6954   6.450   2.912   3.968
 2019SOL     OW 6955   5.948   4.232   6.343
 2019SOL    HW1 6956   5.960   4.235   6.442
 2019SOL    HW2 6957   5.860   4.189   6.322
 2020SOL     OW 6958   1.592   6.209   5.652
 2020SOL    HW1 6959   1.532   6.134   5.682
 2020SOL    HW2 6960   1.610   6.269   5.730
 2021SOL     OW 6961   6.269   6.451   4.181
 2021SOL    HW1 6962   6.235   6.415   4.095
 2021SOL    HW2 6963   6.278   6.550   4.176
 2022SOL     OW 6964   1.711   4.645   4.501
 2022SOL    HW1 6965   1.803   4.631   4.466
 2022SOL    HW2 6966   1.712   4.719   4.568
 2023SOL     OW 6967   0.794   0.001   7.025
 2023SOL    HW1 6968   0.757   6.973   0.070
 2023SOL    HW2 6969   0.885   6.997   7.000
 2024SOL     OW 6970   6.802   5.880   3.851
 2024SOL    HW1 6971   6.789   5.978   3.839
 2024SOL    HW2 6972   6.743   5.830   3.786
 2025SOL     OW 6973   3.137   0.608   3.900
 2025SOL    HW1 6974   3.229   0.617   3.860
 2025SOL    HW2 6975   3.069   0.609   3.827
 2026SOL     OW 6976   6.748   2.084   6.622
 2026SOL    HW1 6977   6.807   2.053   6.696
 2026SOL    HW2 6978   6.796   2.154   6.569
 2027SOL     OW 6979   0.351   6.713   1.556
 2027SOL    HW1 6980   0.293   6.711   1.638
 2027SOL    HW2 6981   0.446   6.697   1.581
 2028SOL     OW 6982   3.494   5.469   3.582
 2028SOL    HW1 6983   3.458   5.455   3.675
 2028SOL    HW2 6984   3.594   5.469   3.584
 2029SOL     OW 6985   6.591   2.577   7.019
 2029SOL    HW1 6986   6.623   2.483   7.002
 2029SOL    HW2 6987   6.499   2.588   6.983
 2030SOL     OW 6988   3.625   0.432   2.710
 2030SOL    HW1 6989   3.622   0.521   2.664
 2030SOL    HW2 6990   3.714   0.389   2.693
 2031SOL     OW 6991   0.051   6.322   2.492
 2031SOL    HW1 6992   6.985   6.300   2.466
 2031SOL    HW2 6993   0.109   6.321   2.411
 2032SOL     OW 6994   3.261   1.484   1.275
 2032SOL    HW1 6995   3.162   1.470   1.264
 2032SOL    HW2 6996   3.278   1.533   1.360
 2033SOL     OW 6997   2.101   0.605   0.864
 2033SOL    HW1 6998   2.146   0.665   0.931
 2033SOL    HW2 6999   2.112   0.643   0.773
 2034SOL     OW 7000   1.537   5.108   5.574
 2034SOL    HW1 7001   1.583   5.023   5.551
 2034SOL    HW2 7002   1.606   5.179   5.593
 2035SOL     OW 7003   6.448   6.636   2.520
 2035SOL    HW1 7004   6.400   6.592   2.444
 2035SOL    HW2 7005   6.429   6.734   2.519
 2036SOL     OW 7006   1.503   3.700   3.628
 2036SOL    HW1 7007   1.544   3.622   3.581
 2036SOL    HW2 7008   1.568   3.738   3.693
 2037SOL     OW 7009   6.461   2.659   6.421
 2037SOL    HW1 7010   6.503   2.608   6.346
 2037SOL    HW2 7011   6.438   2.595   6.495
 2038SOL     OW 7012   2.412   1.043   0.396
 2038SOL    HW1 7013   2.363   1.116   0.443
 2038SOL    HW2 7014   2.466   1.082   0.321
 2039SOL     OW 7015   0.127   6.645   2.767
 2039SOL    HW1 7016   0.169   6.622   2.855
 2039SOL    HW2 7017   0.197   6.645   2.695
 2040SOL     OW 7018   2.233   1.658   0.531
 2040SOL    HW1 7019   2.270   1.580   0.580
 2040SOL    HW2 7020   2.197   1.628   0.442
 2041SOL     OW 7021   1.115   0.238   5.329
 2041SOL    HW1 7022   1.047   0.177   5.368
 2041SOL    HW2 7023   1.108   0.328   5.373
 2042SOL     OW 7024   4.949   0.336   5.820
 2042SOL    HW1 7025   5.000   0.390   5.887
 2042SOL    HW2 7026   4.853   0.331   5.847
 2043SOL     OW 7027   6.343   2.270   2.773
 2043SOL    HW1 7028   6.275   2.200   2.752
 2043SOL    HW2 7029   6.303   2.338   2.834
 2044SOL     OW 7030   6.021   0.997   0.966
 2044SOL    HW1 7031   6.049   1.008   1.062
 2044SOL    HW2 7032   6.060   0.913   0.929
 2045SOL     OW 7033   1.267   5.204   4.398
 2045SOL    HW1 7034   1.171   5.190   4.421
 2045SOL    HW2 7035   1.321   5.217   4.481
 2046SOL     OW 7036   6.396   2.409   5.282
 2046SOL    HW1 7037   6.480   2.363   5.255
 2046SOL    HW2 7038   6.321   2.342   5.286
 2047SOL     OW 7039   6.489   2.640   1.104
 2047SOL    HW1 7040   6.504   2.546   1.137
 2047SOL    HW2 7041   6.403   2.675   1.142
 2048SOL     OW 7042   0.430   0.632   4.788
 2048SOL    HW1 7043   0.370   0.620   4.708
 2048SOL    HW2 7044   0.512   0.576   4.776
 2049SOL     OW 7045   5.261   1.371   3.909
 2049SOL    HW1 7046   5.330   1.433   3.871
 2049SOL    HW2 7047   5.174   1.386   3.864
 2050SOL     OW 7048   0.021   2.695   4.542
 2050SOL    HW1 7049   0.093   2.631   4.568
 2050SOL    HW2 7050   6.986   2.651   4.478
 2051SOL     OW 7051   1.927   6.012   6.778
 2051SOL    HW1 7052   1.928   5.929   6.723
 2051SOL    HW2 7053   1.944   5.989   6.874
 2052SOL     OW 7054   1.626   2.934   0.838
 2052SOL    HW1 7055   1.612   2.836   0.829
 2052SOL    HW2 7056   1.555   2.983   0.787
 2053SOL     OW 7057   1.197   5.329   4.890
 2053SOL    HW1 7058   1.289   5.337   4.928
 2053SOL    HW2 7059   1.145   5.261   4.943
 2054SOL     OW 7060   3.214   3.502   3.218
 2054SOL    HW1 7061   3.210   3.413   3.263
 2054SOL    HW2 7062   3.136   3.512   3.156
 2055SOL     OW 7063   6.563   2.749   5.006
 2055SOL    HW1 7064   6.573   2.813   4.931
 2055SOL    HW2 7065   6.560   2.656   4.970
 2056SOL     OW 7066   4.217   4.647   1.603
 2056SOL    HW1 7067   4.290   4.606   1.548
 2056SOL    HW2 7068   4.258   4.705   1.673
 2057SOL     OW 7069   4.890   3.281   5.076
 2057SOL    HW1 7070   4.825   3.356   5.088
 2057SOL    HW2 7071   4.905   3.236   5.164
 2058SOL     OW 7072   0.606   6.514   2.464
 2058SOL    HW1 7073   0.614   6.468   2.376
 2058SOL    HW2 7074   0.613   6.613   2.450
 2059SOL     OW 7075   2.746   0.090   5.736
 2059SOL    HW1 7076   2.720   0.186   5.738
 2059SOL    HW2 7077   2.710   0.047   5.654
 2060SOL     OW 7078   0.308   3.096   1.743
 2060SOL    HW1 7079   0.281   3.096   1.840
 2060SOL    HW2 7080   0.227   3.095   1.685
 2061SOL     OW 7081   2.258   2.098   2.141
 2061SOL    HW1 7082   2.182   2.161   2.154
 2061SOL    HW2 7083   2.319   2.103   2.220
 2062SOL     OW 7084   6.624   5.940   5.317
 2062SOL    HW1 7085   6.663   6.025   5.284
 2062SOL    HW2 7086   6.581   5.955   5.406
 2063SOL     OW 7087   1.287   6.781   4.565
 2063SOL    HW1 7088   1.266   6.878   4.578
 2063SOL    HW2 7089   1.203   6.727   4.577
 2064SOL     OW 7090   0.832   3.217   4.462
 2064SOL    HW1 7091   0.898   3.272   4.411
 2064SOL    HW2 7092   0.859   3.120   4.458
 2065SOL     OW 7093   5.495   3.436   5.710
 2065SOL    HW1 7094   5.403   3.476   5.709
 2065SOL    HW2 7095   5.543   3.463   5.793
 2066SOL     OW 7096   6.514   4.332   5.694
 2066SOL    HW1 7097   6.574   4.254   5.679
 2066SOL    HW2 7098   6.428   4.301   5.735
 2067SOL     OW 7099   6.231   4.816   1.193
 2067SOL    HW1 7100   6.197   4.726   1.221
 2067SOL    HW2 7101   6.169   4.887   1.226
 2068SOL     OW 7102   3.816   1.267   4.155
 2068SOL    HW1 7103   3.845   1.244   4.248
 2068SOL    HW2 7104   3.892   1.310   4.107
 2069SOL     OW 7105   0.454   2.085   4.092
 2069SOL    HW1 7106   0.395   2.163   4.073
 2069SOL    HW2 7107   0.426   2.041   4.178
 2070SOL     OW 7108   1.523   2.922   1.121
 2070SOL    HW1 7109   1.425   2.936   1.105
 2070SOL    HW2 7110   1.569   2.906   1.033
 2071SOL     OW 7111   5.882   1.958   6.209
 2071SOL    HW1 7112   5.888   2.056   6.227
 2071SOL    HW2 7113   5.973   1.923   6.186
 2072SOL     OW 7114   4.110   5.108   5.412
 2072SOL    HW1 7115   4.073   5.198   5.389
 2072SOL    HW2 7116   4.194   5.119   5.466
 2073SOL     OW 7117   3.430   6.180   5.672
 2073SOL    HW1 7118   3.479   6.232   5.742
 2073SOL    HW2 7119   3.408   6.089   5.708
 2074SOL     OW 7120   1.639   2.450   6.719
 2074SOL    HW1 7121   1.602   2.427   6.809
 2074SOL    HW2 7122   1.706   2.381   6.692
 2075SOL     OW 7123   6.496   2.070   3.276
 2075SOL    HW1 7124   6.591   2.038   3.272
 2075SOL    HW2 7125   6.436   2.000   3.237
 2076SOL     OW 7126   6.402   0.305   5.552
 2076SOL    HW1 7127   6.497   0.312   5.581
 2076SOL    HW2 7128   6.343   0.295   5.633
 2077SOL     OW 7129   5.934   2.095   1.701
 2077SOL    HW1 7130   6.009   2.158   1.682
 2077SOL    HW2 7131   5.951   2.008   1.655
 2078SOL     OW 7132   1.323   5.172   5.790
 2078SOL    HW1 7133   1.413   5.168   5.833
 2078SOL    HW2 7134   1.334   5.197   5.694
 2079SOL     OW 7135   5.956   0.891   2.123
 2079SOL    HW1 7136   5.948   0.791   2.121
 2079SOL    HW2 7137   6.052   0.916   2.137
 2080SOL     OW 7138   3.414   1.647   5.045
 2080SOL    HW1 7139   3.411   1.559   4.999
 2080SOL    HW2 7140   3.345   1.708   5.006
 2081SOL     OW 7141   1.085   6.571   4.180
 2081SOL    HW1 7142   1.184   6.587   4.174
 2081SOL    HW2 7143   1.062   6.484   4.137
 2082SOL     OW 7144   0.690   6.450   3.186
 2082SOL    HW1 7145   0.754   6.383   3.224
 2082SOL    HW2 7146   0.731   6.541   3.188
 2083SOL     OW 7147   0.541   5.813   4.384
 2083SOL    HW1 7148   0.459   5.870   4.380
 2083SOL    HW2 7149   0.588   5.817   4.296
 2084SOL     OW 7150   0.895   2.581   1.505
 2084SOL    HW1 7151   0.947   2.547   1.427
 2084SOL    HW2 7152   0.822   2.517   1.528
 2085SOL     OW 7153   5.087   6.324   0.746
 2085SOL    HW1 7154   5.036   6.265   0.807
 2085SOL    HW2 7155   5.135   6.394   0.799
 2086SOL     OW 7156   3.584   5.824   6.688
 2086SOL    HW1 7157   3.504   5.790   6.737
 2086SOL    HW2 7158   3.654   5.852   6.754
 2087SOL     OW 7159   4.703   1.946   0.366
 2087SOL    HW1 7160   4.767   1.917   0.437
 2087SOL    HW2 7161   4.621   1.889   0.369
 2088SOL     OW 7162   1.019   5.935   5.226
 2088SOL    HW1 7163   0.996   5.839   5.208
 2088SOL    HW2 7164   0.936   5.986   5.245
 2089SOL     OW 7165   4.021   2.364   5.428
 2089SOL    HW1 7166   4.029   2.444   5.488
 2089SOL    HW2 7167   3.925   2.348   5.405
 2090SOL     OW 7168   4.867   3.005   5.535
 2090SOL    HW1 7169   4.858   2.956   5.448
 2090SOL    HW2 7170   4.865   2.940   5.611
 2091SOL     OW 7171   6.674   6.184   0.960
 2091SOL    HW1 7172   6.720   6.262   1.002
 2091SOL    HW2 7173   6.638   6.124   1.032
 2092SOL     OW 7174   5.648   3.729   0.855
 2092SOL    HW1 7175   5.680   3.760   0.944
 2092SOL    HW2 7176   5.712   3.757   0.784
 2093SOL     OW 7177   3.688   2.080   2.481
 2093SOL    HW1 7178   3.651   2.054   2.392
 2093SOL    HW2 7179   3.722   2.174   2.478
 2094SOL     OW 7180   5.727   2.238   0.628
 2094SOL    HW1 7181   5.757   2.181   0.551
 2094SOL    HW2 7182   5.710   2.181   0.708
 2095SOL     OW 7183   6.152   5.859   3.578
 2095SOL    HW1 7184   6.215   5.889   3.649
 2095SOL    HW2 7185   6.191   5.781   3.529
 2096SOL     OW 7186   4.631   6.067   2.995
 2096SOL    HW1 7187   4.669   6.118   3.072
 2096SOL    HW2 7188   4.683   5.982   2.983
 2097SOL     OW 7189   2.724   3.791   6.708
 2097SOL    HW1 7190   2.793   3.756   6.771
 2097SOL    HW2 7191   2.770   3.832   6.629
 2098SOL     OW 7192   4.204   5.717   3.241
 2098SOL    HW1 7193   4.172   5.698   3.334
 2098SOL    HW2 7194   4.239   5.811   3.237
 2099SOL     OW 7195   4.319   1.792   0.004
 2099SOL    HW1 7196   4.388   1.860   0.029
 2099SOL    HW2 7197   4.247   1.792   0.073
 2100SOL     OW 7198   5.146   1.411   0.748
 2100SOL    HW1 7199   5.124   1.322   0.788
 2100SOL    HW2 7200   5.088   1.481   0.789
 2101SOL     OW 7201   6.794   6.417   1.083
 2101SOL    HW1 7202   6.792   6.474   1.165
 2101SOL    HW2 7203   6.888   6.388   1.064
 2102SOL     OW 7204   4.658   3.684   1.384
 2102SOL    HW1 7205   4.579   3.641   1.428
 2102SOL    HW2 7206   4.644   3.782   1.378
 2103SOL     OW 7207   2.961   3.632   0.535
 2103SOL    HW1 7208   2.877   3.670   0.498
 2103SOL    HW2 7209   2.968   3.653   0.633
 2104SOL     OW 7210   1.296   4.883   2.105
 2104SOL    HW1 7211   1.336   4.951   2.167
 2104SOL    HW2 7212   1.230   4.827   2.155
 2105SOL     OW 7213   3.725   4.513   6.987
 2105SOL    HW1 7214   3.693   4.502   6.893
 2105SOL    HW2 7215   3.710   4.428   0.009
 2106SOL     OW 7216   5.505   3.585   1.181
 2106SOL    HW1 7217   5.547   3.500   1.212
 2106SOL    HW2 7218   5.576   3.655   1.171
 2107SOL     OW 7219   5.967   3.095   5.538
 2107SOL    HW1 7220   5.928   3.061   5.623
 2107SOL    HW2 7221   5.898   3.089   5.465
 2108SOL     OW 7222   5.705   6.638   5.928
 2108SOL    HW1 7223   5.712   6.554   5.875
 2108SOL    HW2 7224   5.609   6.666   5.935
 2109SOL     OW 7225   3.234   5.734   2.149
 2109SOL    HW1 7226   3.182   5.801   2.201
 2109SOL    HW2 7227   3.283   5.673   2.211
 2110SOL     OW 7228   4.207   0.683   5.799
 2110SOL    HW1 7229   4.254   0.683   5.711
 2110SOL    HW2 7230   4.108   0.691   5.785
 2111SOL     OW 7231   1.246   2.133   5.841
 2111SOL    HW1 7232   1.258   2.165   5.935
 2111SOL    HW2 7233   1.195   2.202   5.789
 2112SOL     OW 7234   5.584   2.315   6.317
 2112SOL    HW1 7235   5.558   2.325   6.413
 2112SOL    HW2 7236   5.668   2.261   6.310
 2113SOL     OW 7237   1.845   6.817   4.394
 2113SOL    HW1 7238   1.819   6.878   4.319
 2113SOL    HW2 7239   1.914   6.860   4.451
 2114SOL     OW 7240   2.200   2.681   0.139
 2114SOL    HW1 7241   2.145   2.684   0.056
 2114SOL    HW2 7242   2.224   2.586   0.161
 2115SOL     OW 7243   1.279   4.464   1.704
 2115SOL    HW1 7244   1.237   4.510   1.626
 2115SOL    HW2 7245   1.264   4.519   1.786
 2116SOL     OW 7246   0.721   2.706   0.839
 2116SOL    HW1 7247   0.776   2.788   0.831
 2116SOL    HW2 7248   0.630   2.730   0.873
 2117SOL     OW 7249   5.233   2.861   1.703
 2117SOL    HW1 7250   5.153   2.844   1.759
 2117SOL    HW2 7251   5.292   2.780   1.702
 2118SOL     OW 7252   6.143   3.644   2.312
 2118SOL    HW1 7253   6.122   3.618   2.406
 2118SOL    HW2 7254   6.073   3.708   2.279
 2119SOL     OW 7255   1.562   1.376   0.262
 2119SOL    HW1 7256   1.471   1.335   0.266
 2119SOL    HW2 7257   1.617   1.342   0.339
 2120SOL     OW 7258   6.413   1.798   2.775
 2120SOL    HW1 7259   6.327   1.774   2.820
 2120SOL    HW2 7260   6.469   1.716   2.765
 2121SOL     OW 7261   2.284   2.391   6.291
 2121SOL    HW1 7262   2.205   2.347   6.334
 2121SOL    HW2 7263   2.363   2.330   6.294
 2122SOL     OW 7264   5.983   6.620   6.269
 2122SOL    HW1 7265   6.007   6.576   6.356
 2122SOL    HW2 7266   6.026   6.571   6.194
 2123SOL     OW 7267   6.382   6.001   2.589
 2123SOL    HW1 7268   6.442   6.054   2.649
 2123SOL    HW2 7269   6.330   5.935   2.644
 2124SOL     OW 7270   2.925   1.816   5.799
 2124SOL    HW1 7271   2.875   1.729   5.795
 2124SOL    HW2 7272   2.923   1.860   5.710
 2125SOL     OW 7273   1.397   6.317   3.105
 2125SOL    HW1 7274   1.479   6.321   3.162
 2125SOL    HW2 7275   1.413   6.368   3.020
 2126SOL     OW 7276   4.190   3.025   0.191
 2126SOL    HW1 7277   4.150   3.061   0.106
 2126SOL    HW2 7278   4.289   3.029   0.186
 2127SOL     OW 7279   0.515   2.282   5.575
 2127SOL    HW1 7280   0.463   2.311   5.655
 2127SOL    HW2 7281   0.494   2.342   5.497
 2128SOL     OW 7282   5.930   3.721   0.964
 2128SOL    HW1 7283   5.873   3.752   1.040
 2128SOL    HW2 7284   5.960   3.627   0.980
 2129SOL     OW 7285   5.144   4.178   4.389
 2129SOL    HW1 7286   5.070   4.206   4.328
 2129SOL    HW2 7287   5.111   4.107   4.451
 2130SOL     OW 7288   2.554   1.605   1.372
 2130SOL    HW1 7289   2.476   1.550   1.344
 2130SOL    HW2 7290   2.575   1.586   1.468
 2131SOL     OW 7291   5.449   2.142   0.523
 2131SOL    HW1 7292   5.355   2.146   0.555
 2131SOL    HW2 7293   5.476   2.046   0.509
 2132SOL     OW 7294   3.270   1.442   0.030
 2132SOL    HW1 7295   3.187   1.417   7.007
 2132SOL    HW2 7296   3.244   1.481   0.118
 2133SOL     OW 7297   2.205   2.458   1.515
 2133SOL    HW1 7298   2.145   2.396   1.565
 2133SOL    HW2 7299   2.247   2.410   1.438
 2134SOL     OW 7300   1.081   0.660   4.457
 2134SOL    HW1 7301   1.170   0.650   4.503
 2134SOL    HW2 7302   1.039   0.746   4.485
 2135SOL     OW 7303   0.592   1.955   3.894
 2135SOL    HW1 7304   0.540   1.985   3.974
 2135SOL    HW2 7305   0.534   1.898   3.836
 2136SOL     OW 7306   0.875   3.593   4.793
 2136SOL    HW1 7307   0.969   3.581   4.760
 2136SOL    HW2 7308   0.812   3.541   4.735
 2137SOL     OW 7309   0.843   6.983   4.885
 2137SOL    HW1 7310   0.815   6.898   4.930
 2137SOL    HW2 7311   0.910   0.002   4.943
 2138SOL     OW 7312   6.275   2.493   1.623
 2138SOL    HW1 7313   6.287   2.571   1.561
 2138SOL    HW2 7314   6.301   2.409   1.576
 2139SOL     OW 7315   3.719   0.917   3.797
 2139SOL    HW1 7316   3.726   0.987   3.868
 2139SOL    HW2 7317   3.666   0.954   3.720
 2140SOL     OW 7318   3.019   6.357   3.017
 2140SOL    HW1 7319   3.076   6.393   2.943
 2140SOL    HW2 7320   3.050   6.266   3.042
 2141SOL     OW 7321   6.549   3.116   1.952
 2141SOL    HW1 7322   6.513   3.174   2.025
 2141SOL    HW2 7323   6.512   3.146   1.864
 2142SOL     OW 7324   1.408   2.023   3.324
 2142SOL    HW1 7325   1.477   2.029   3.396
 2142SOL    HW2 7326   1.341   2.096   3.336
 2143SOL     OW 7327   3.741   6.286   1.103
 2143SOL    HW1 7328   3.740   6.341   1.020
 2143SOL    HW2 7329   3.647   6.267   1.133
 2144SOL     OW 7330   1.561   0.815   3.254
 2144SOL    HW1 7331   1.491   0.806   3.184
 2144SOL    HW2 7332   1.542   0.751   3.328
 2145SOL     OW 7333   3.466   5.714   3.751
 2145SOL    HW1 7334   3.525   5.786   3.716
 2145SOL    HW2 7335   3.407   5.680   3.677
 2146SOL     OW 7336   3.356   4.082   2.568
 2146SOL    HW1 7337   3.343   4.103   2.664
 2146SOL    HW2 7338   3.310   3.997   2.545
 2147SOL     OW 7339   0.291   1.274   6.873
 2147SOL    HW1 7340   0.333   1.313   6.792
 2147SOL    HW2 7341   0.209   1.326   6.896
 2148SOL     OW 7342   4.989   3.458   3.911
 2148SOL    HW1 7343   5.068   3.455   3.849
 2148SOL    HW2 7344   4.959   3.552   3.922
 2149SOL     OW 7345   3.435   0.586   1.758
 2149SOL    HW1 7346   3.447   0.587   1.858
 2149SOL    HW2 7347   3.466   0.673   1.720
 2150SOL     OW 7348   3.413   2.060   2.693
 2150SOL    HW1 7349   3.408   2.054   2.593
 2150SOL    HW2 7350   3.437   1.970   2.730
 2151SOL     OW 7351   3.421   1.945   5.351
 2151SOL    HW1 7352   3.462   1.854   5.343
 2151SOL    HW2 7353   3.402   1.965   5.447
 2152SOL     OW 7354   5.356   6.377   1.781
 2152SOL    HW1 7355   5.342   6.285   1.745
 2152SOL    HW2 7356   5.453   6.392   1.798
 2153SOL     OW 7357   3.989   1.147   4.332
 2153SOL    HW1 7358   4.086   1.160   4.353
 2153SOL    HW2 7359   3.980   1.098   4.245
 2154SOL     OW 7360   3.264   5.829   4.670
 2154SOL    HW1 7361   3.221   5.804   4.583
 2154SOL    HW2 7362   3.223   5.914   4.705
 2155SOL     OW 7363   1.821   5.184   0.149
 2155SOL    HW1 7364   1.758   5.142   0.083
 2155SOL    HW2 7365   1.911   5.142   0.141
 2156SOL     OW 7366   2.220   0.373   1.688
 2156SOL    HW1 7367   2.251   0.369   1.593
 2156SOL    HW2 7368   2.298   0.392   1.748
 2157SOL     OW 7369   6.553   0.970   4.523
 2157SOL    HW1 7370   6.534   0.912   4.602
 2157SOL    HW2 7371   6.599   1.054   4.553
 2158SOL     OW 7372   3.200   6.550   6.963
 2158SOL    HW1 7373   3.284   6.545   6.908
 2158SOL    HW2 7374   3.225   6.555   0.032
 2159SOL     OW 7375   1.649   6.447   4.908
 2159SOL    HW1 7376   1.574   6.388   4.878
 2159SOL    HW2 7377   1.688   6.412   4.993
 2160SOL     OW 7378   4.440   4.159   1.428
 2160SOL    HW1 7379   4.423   4.244   1.478
 2160SOL    HW2 7380   4.365   4.142   1.365
 2161SOL     OW 7381   4.884   3.463   3.231
 2161SOL    HW1 7382   4.895   3.414   3.317
 2161SOL    HW2 7383   4.860   3.398   3.158
 2162SOL     OW 7384   1.678   0.750   0.027
 2162SOL    HW1 7385   1.651   0.799   0.110
 2162SOL    HW2 7386   1.740   0.675   0.050
 2163SOL     OW 7387   0.939   6.547   6.642
 2163SOL    HW1 7388   0.847   6.583   6.656
 2163SOL    HW2 7389   0.936   6.447   6.644
 2164SOL     OW 7390   2.057   0.749   5.790
 2164SOL    HW1 7391   1.963   0.753   5.756
 2164SOL    HW2 7392   2.097   0.661   5.765
 2165SOL     OW 7393   1.763   1.092   2.394
 2165SOL    HW1 7394   1.863   1.102   2.393
 2165SOL    HW2 7395   1.722   1.153   2.327
 2166SOL     OW 7396   1.930   2.683   5.512
 2166SOL    HW1 7397   1.836   2.713   5.493
 2166SOL    HW2 7398   1.937   2.655   5.608
 2167SOL     OW 7399   3.151   0.371   2.164
 2167SOL    HW1 7400   3.084   0.358   2.237
 2167SOL    HW2 7401   3.215   0.293   2.165
 2168SOL     OW 7402   6.380   2.989   5.178
 2168SOL    HW1 7403   6.369   3.089   5.173
 2168SOL    HW2 7404   6.406   2.954   5.088
 2169SOL     OW 7405   5.283   2.494   6.044
 2169SOL    HW1 7406   5.295   2.590   6.071
 2169SOL    HW2 7407   5.354   2.470   5.977
 2170SOL     OW 7408   5.137   4.673   5.127
 2170SOL    HW1 7409   5.161   4.677   5.224
 2170SOL    HW2 7410   5.209   4.623   5.078
 2171SOL     OW 7411   6.645   2.797   0.135
 2171SOL    HW1 7412   6.684   2.759   0.219
 2171SOL    HW2 7413   6.634   2.724   0.068
 2172SOL     OW 7414   3.028   1.220   0.348
 2172SOL    HW1 7415   2.952   1.273   0.384
 2172SOL    HW2 7416   3.035   1.234   0.249
 2173SOL     OW 7417   4.180   0.153   5.953
 2173SOL    HW1 7418   4.141   0.179   6.041
 2173SOL    HW2 7419   4.211   0.234   5.905
 2174SOL     OW 7420   6.433   4.542   5.865
 2174SOL    HW1 7421   6.458   4.520   5.771
 2174SOL    HW2 7422   6.432   4.458   5.920
 2175SOL     OW 7423   3.193   1.167   3.540
 2175SOL    HW1 7424   3.158   1.083   3.497
 2175SOL    HW2 7425   3.184   1.243   3.476
 2176SOL     OW 7426   1.573   2.167   1.780
 2176SOL    HW1 7427   1.525   2.079   1.784
 2176SOL    HW2 7428   1.651   2.160   1.717
 2177SOL     OW 7429   6.519   1.352   2.065
 2177SOL    HW1 7430   6.458   1.378   2.140
 2177SOL    HW2 7431   6.614   1.375   2.090
 2178SOL     OW 7432   0.854   3.970   0.596
 2178SOL    HW1 7433   0.934   3.946   0.540
 2178SOL    HW2 7434   0.873   3.946   0.692
 2179SOL     OW 7435   1.645   5.418   3.922
 2179SOL    HW1 7436   1.712   5.349   3.950
 2179SOL    HW2 7437   1.621   5.406   3.826
 2180SOL     OW 7438   3.166   3.724   2.894
 2180SOL    HW1 7439   3.113   3.784   2.835
 2180SOL    HW2 7440   3.231   3.778   2.947
 2181SOL     OW 7441   4.483   4.917   6.061
 2181SOL    HW1 7442   4.430   4.862   6.125
 2181SOL    HW2 7443   4.510   5.003   6.104
 2182SOL     OW 7444   0.082   3.552   6.388
 2182SOL    HW1 7445   0.104   3.534   6.292
 2182SOL    HW2 7446   0.036   3.472   6.427
 2183SOL     OW 7447   3.049   3.327   0.855
 2183SOL    HW1 7448   2.996   3.249   0.823
 2183SOL    HW2 7449   3.035   3.338   0.953
 2184SOL     OW 7450   3.855   0.646   6.300
 2184SOL    HW1 7451   3.936   0.653   6.243
 2184SOL    HW2 7452   3.781   0.700   6.260
 2185SOL     OW 7453   1.745   1.604   0.561
 2185SOL    HW1 7454   1.689   1.683   0.586
 2185SOL    HW2 7455   1.833   1.609   0.608
 2186SOL     OW 7456   0.117   4.712   2.351
 2186SOL    HW1 7457   0.199   4.688   2.404
 2186SOL    HW2 7458   0.047   4.748   2.413
 2187SOL     OW 7459   0.293   1.445   1.414
 2187SOL    HW1 7460   0.357   1.504   1.365
 2187SOL    HW2 7461   0.223   1.412   1.351
 2188SOL     OW 7462   4.950   5.871   3.732
 2188SOL    HW1 7463   4.940   5.849   3.635
 2188SOL    HW2 7464   5.030   5.824   3.769
 2189SOL     OW 7465   1.703   6.790   6.022
 2189SOL    HW1 7466   1.761   6.723   6.068
 2189SOL    HW2 7467   1.608   6.779   6.053
 2190SOL     OW 7468   6.044   2.898   1.785
 2190SOL    HW1 7469   5.961   2.938   1.824
 2190SOL    HW2 7470   6.095   2.968   1.734
 2191SOL     OW 7471   3.435   2.565   5.912
 2191SOL    HW1 7472   3.389   2.628   5.974
 2191SOL    HW2 7473   3.368   2.528   5.847
 2192SOL     OW 7474   4.466   6.318   5.252
 2192SOL    HW1 7475   4.524   6.288   5.176
 2192SOL    HW2 7476   4.372   6.288   5.235
 2193SOL     OW 7477   0.129   5.438   5.712
 2193SOL    HW1 7478   0.118   5.431   5.811
 2193SOL    HW2 7479   0.042   5.417   5.668
 2194SOL     OW 7480   1.843   5.867   0.407
 2194SOL    HW1 7481   1.821   5.790   0.347
 2194SOL    HW2 7482   1.929   5.909   0.376
 2195SOL     OW 7483   0.268   6.372   2.042
 2195SOL    HW1 7484   0.259   6.333   1.951
 2195SOL    HW2 7485   0.229   6.465   2.043
 2196SOL     OW 7486   3.141   0.710   5.408
 2196SOL    HW1 7487   3.101   0.742   5.322
 2196SOL    HW2 7488   3.159   0.611   5.401
 2197SOL     OW 7489   4.698   4.302   1.797
 2197SOL    HW1 7490   4.717   4.203   1.796
 2197SOL    HW2 7491   4.607   4.318   1.834
 2198SOL     OW 7492   0.038   3.584   6.769
 2198SOL    HW1 7493   0.009   3.676   6.744
 2198SOL    HW2 7494   0.133   3.570   6.743
 2199SOL     OW 7495   4.990   6.968   0.792
 2199SOL    HW1 7496   5.066   7.019   0.753
 2199SOL    HW2 7497   5.025   6.897   0.854
 2200SOL     OW 7498   4.248   0.902   4.536
 2200SOL    HW1 7499   4.212   0.993   4.557
 2200SOL    HW2 7500   4.281   0.900   4.442
 2201SOL     OW 7501   6.243   3.896   2.457
 2201SOL    HW1 7502   6.292   3.972   2.414
 2201SOL    HW2 7503   6.224   3.826   2.389
 2202SOL     OW 7504   3.561   4.910   4.440
 2202SOL    HW1 7505   3.647   4.863   4.460
 2202SOL    HW2 7506   3.569   4.959   4.354
 2203SOL     OW 7507   3.691   2.146   3.121
 2203SOL    HW1 7508   3.752   2.106   3.053
 2203SOL    HW2 7509   3.627   2.077   3.154
 2204SOL     OW 7510   3.467   1.250   0.042
 2204SOL    HW1 7511   3.511   1.267   6.982
 2204SOL    HW2 7512   3.383   1.304   0.048
 2205SOL     OW 7513   1.690   0.353   6.472
 2205SOL    HW1 7514   1.726   0.356   6.379
 2205SOL    HW2 7515   1.619   0.282   6.479
 2206SOL     OW 7516   2.977   3.664   6.300
 2206SOL    HW1 7517   2.944   3.608   6.377
 2206SOL    HW2 7518   3.030   3.606   6.238
 2207SOL     OW 7519   1.092   4.611   6.157
 2207SOL    HW1 7520   1.185   4.590   6.127
 2207SOL    HW2 7521   1.027   4.562   6.100
 2208SOL     OW 7522   1.038   3.741   1.972
 2208SOL    HW1 7523   1.050   3.773   1.878
 2208SOL    HW2 7524   1.070   3.646   1.978
 2209SOL     OW 7525   1.783   5.857   6.326
 2209SOL    HW1 7526   1.685   5.846   6.310
 2209SOL    HW2 7527   1.802   5.856   6.424
 2210SOL     OW 7528   0.642   5.030   2.971
 2210SOL    HW1 7529   0.694   5.076   2.899
 2210SOL    HW2 7530   0.545   5.051   2.961
 2211SOL     OW 7531   5.790   1.763   5.676
 2211SOL    HW1 7532   5.844   1.799   5.753
 2211SOL    HW2 7533   5.780   1.834   5.607
 2212SOL     OW 7534   0.264   6.403   5.945
 2212SOL    HW1 7535   0.230   6.477   6.004
 2212SOL    HW2 7536   0.261   6.317   5.995
 2213SOL     OW 7537   4.249   2.292   4.311
 2213SOL    HW1 7538   4.179   2.275   4.381
 2213SOL    HW2 7539   4.302   2.373   4.336
 2214SOL     OW 7540   5.223   0.506   5.434
 2214SOL    HW1 7541   5.299   0.568   5.451
 2214SOL    HW2 7542   5.140   0.559   5.419
 2215SOL     OW 7543   6.864   1.745   5.552
 2215SOL    HW1 7544   6.919   1.752   5.636
 2215SOL    HW2 7545   6.837   1.650   5.539
 2216SOL     OW 7546   0.934   0.137   1.034
 2216SOL    HW1 7547   1.012   0.171   1.087
 2216SOL    HW2 7548   0.920   0.197   0.955
 2217SOL     OW 7549   4.129   0.238   0.682
 2217SOL    HW1 7550   4.208   0.230   0.743
 2217SOL    HW2 7551   4.159   0.235   0.587
 2218SOL     OW 7552   1.302   6.115   6.697
 2218SOL    HW1 7553   1.322   6.194   6.755
 2218SOL    HW2 7554   1.281   6.036   6.755
 2219SOL     OW 7555   1.526   4.143   2.850
 2219SOL    HW1 7556   1.557   4.049   2.836
 2219SOL    HW2 7557   1.604   4.205   2.844
 2220SOL     OW 7558   0.440   2.133   4.779
 2220SOL    HW1 7559   0.460   2.215   4.833
 2220SOL    HW2 7560   0.464   2.052   4.832
 2221SOL     OW 7561   6.624   2.015   1.162
 2221SOL    HW1 7562   6.709   2.009   1.215
 2221SOL    HW2 7563   6.548   1.980   1.218
 2222SOL     OW 7564   3.921   0.456   1.708
 2222SOL    HW1 7565   3.928   0.545   1.662
 2222SOL    HW2 7566   3.927   0.383   1.640
 2223SOL     OW 7567   6.405   5.258   3.371
 2223SOL    HW1 7568   6.446   5.333   3.319
 2223SOL    HW2 7569   6.393   5.179   3.312
 2224SOL     OW 7570   2.078   4.626   1.600
 2224SOL    HW1 7571   1.992   4.630   1.549
 2224SOL    HW2 7572   2.108   4.719   1.621
 2225SOL     OW 7573   5.867   4.598   2.380
 2225SOL    HW1 7574   5.952   4.648   2.390
 2225SOL    HW2 7575   5.849   4.546   2.464
 2226SOL     OW 7576   3.833   3.258   1.713
 2226SOL    HW1 7577   3.747   3.212   1.691
 2226SOL    HW2 7578   3.853   3.326   1.643
 2227SOL     OW 7579   6.582   3.909   6.140
 2227SOL    HW1 7580   6.599   3.987   6.080
 2227SOL    HW2 7581   6.574   3.940   6.235
 2228SOL     OW 7582   3.051   4.871   0.109
 2228SOL    HW1 7583   3.136   4.906   0.147
 2228SOL    HW2 7584   3.071   4.796   0.046
 2229SOL     OW 7585   4.755   1.481   4.158
 2229SOL    HW1 7586   4.762   1.457   4.255
 2229SOL    HW2 7587   4.677   1.432   4.119
 2230SOL     OW 7588   1.545   5.492   4.179
 2230SOL    HW1 7589   1.581   5.490   4.086
 2230SOL    HW2 7590   1.504   5.404   4.200
 2231SOL     OW 7591   1.791   1.584   2.263
 2231SOL    HW1 7592   1.875   1.638   2.254
 2231SOL    HW2 7593   1.745   1.607   2.349
 2232SOL     OW 7594   0.523   3.420   3.240
 2232SOL    HW1 7595   0.578   3.340   3.215
 2232SOL    HW2 7596   0.520   3.483   3.162
 2233SOL     OW 7597   3.736   4.970   0.181
 2233SOL    HW1 7598   3.763   5.065   0.165
 2233SOL    HW2 7599   3.709   4.928   0.094
 2234SOL     OW 7600   3.754   2.030   0.952
 2234SOL    HW1 7601   3.793   2.025   1.044
 2234SOL    HW2 7602   3.811   1.979   0.888
 2235SOL     OW 7603   1.142   0.120   6.628
 2235SOL    HW1 7604   1.157   0.033   6.582
 2235SOL    HW2 7605   1.181   0.194   6.573
 2236SOL     OW 7606   0.598   4.215   0.891
 2236SOL    HW1 7607   0.501   4.188   0.894
 2236SOL    HW2 7608   0.629   4.214   0.796
 2237SOL     OW 7609   6.626   3.555   4.707
 2237SOL    HW1 7610   6.588   3.645   4.685
 2237SOL    HW2 7611   6.726   3.558   4.699
 2238SOL     OW 7612   6.941   5.656   2.092
 2238SOL    HW1 7613   6.995   5.597   2.033
 2238SOL    HW2 7614   6.990   5.742   2.109
 2239SOL     OW 7615   4.246   4.863   3.730
 2239SOL    HW1 7616   4.146   4.860   3.728
 2239SOL    HW2 7617   4.276   4.939   3.788
 2240SOL     OW 7618   6.862   5.427   3.423
 2240SOL    HW1 7619   6.818   5.497   3.479
 2240SOL    HW2 7620   6.814   5.419   3.336
 2241SOL     OW 7621   0.238   6.367   2.308
 2241SOL    HW1 7622   0.315   6.416   2.350
 2241SOL    HW2 7623   0.254   6.359   2.209
 2242SOL     OW 7624   5.297   1.983   2.962
 2242SOL    HW1 7625   5.237   1.948   2.890
 2242SOL    HW2 7626   5.326   1.907   3.021
 2243SOL     OW 7627   2.793   6.107   4.647
 2243SOL    HW1 7628   2.785   6.116   4.547
 2243SOL    HW2 7629   2.823   6.015   4.669
 2244SOL     OW 7630   3.773   0.832   4.135
 2244SOL    HW1 7631   3.739   0.832   4.229
 2244SOL    HW2 7632   3.812   0.742   4.114
 2245SOL     OW 7633   6.839   2.021   2.137
 2245SOL    HW1 7634   6.804   2.105   2.180
 2245SOL    HW2 7635   6.938   2.030   2.124
 2246SOL     OW 7636   1.452   2.957   5.239
 2246SOL    HW1 7637   1.543   2.918   5.240
 2246SOL    HW2 7638   1.457   3.051   5.204
 2247SOL     OW 7639   2.596   2.292   5.595
 2247SOL    HW1 7640   2.637   2.382   5.575
 2247SOL    HW2 7641   2.497   2.298   5.587
 2248SOL     OW 7642   5.069   4.203   5.206
 2248SOL    HW1 7643   5.001   4.272   5.182
 2248SOL    HW2 7644   5.022   4.119   5.235
 2249SOL     OW 7645   5.566   5.993   2.752
 2249SOL    HW1 7646   5.571   6.091   2.773
 2249SOL    HW2 7647   5.612   5.975   2.665
 2250SOL     OW 7648   5.752   3.857   1.420
 2250SOL    HW1 7649   5.654   3.844   1.434
 2250SOL    HW2 7650   5.802   3.781   1.462
 2251SOL     OW 7651   6.295   1.746   0.010
 2251SOL    HW1 7652   6.339   1.711   0.093
 2251SOL    HW2 7653   6.196   1.733   0.017
 2252SOL     OW 7654   5.718   2.927   4.987
 2252SOL    HW1 7655   5.810   2.887   4.990
 2252SOL    HW2 7656   5.712   2.992   4.911
 2253SOL     OW 7657   1.980   3.087   6.545
 2253SOL    HW1 7658   1.911   3.113   6.612
 2253SOL    HW2 7659   2.038   3.015   6.583
 2254SOL     OW 7660   2.287   3.426   6.068
 2254SOL    HW1 7661   2.300   3.331   6.040
 2254SOL    HW2 7662   2.321   3.487   5.997
 2255SOL     OW 7663   6.024   2.630   1.636
 2255SOL    HW1 7664   6.101   2.576   1.669
 2255SOL    HW2 7665   6.027   2.721   1.677
 2256SOL     OW 7666   3.015   4.805   2.021
 2256SOL    HW1 7667   2.939   4.746   1.995
 2256SOL    HW2 7668   3.028   4.801   2.120
 2257SOL     OW 7669   1.541   3.358   4.636
 2257SOL    HW1 7670   1.445   3.340   4.614
 2257SOL    HW2 7671   1.548   3.398   4.728
 2258SOL     OW 7672   1.812   4.466   4.931
 2258SOL    HW1 7673   1.840   4.478   5.026
 2258SOL    HW2 7674   1.867   4.393   4.889
 2259SOL     OW 7675   5.679   4.457   6.438
 2259SOL    HW1 7676   5.733   4.538   6.415
 2259SOL    HW2 7677   5.611   4.481   6.507
 2260SOL     OW 7678   3.872   5.052   2.893
 2260SOL    HW1 7679   3.846   5.020   2.985
 2260SOL    HW2 7680   3.966   5.025   2.873
 2261SOL     OW 7681   5.246   6.482   0.925
 2261SOL    HW1 7682   5.332   6.467   0.876
 2261SOL    HW2 7683   5.264   6.481   1.024
 2262SOL     OW 7684   5.781   1.718   4.363
 2262SOL    HW1 7685   5.708   1.720   4.294
 2262SOL    HW2 7686   5.804   1.812   4.389
 2263SOL     OW 7687   2.055   5.680   5.908
 2263SOL    HW1 7688   2.090   5.767   5.944
 2263SOL    HW2 7689   1.957   5.687   5.893
 2264SOL     OW 7690   3.011   3.100   2.434
 2264SOL    HW1 7691   2.945   3.043   2.484
 2264SOL    HW2 7692   3.000   3.195   2.462
 2265SOL     OW 7693   0.059   1.122   2.370
 2265SOL    HW1 7694   7.008   1.183   2.373
 2265SOL    HW2 7695   0.140   1.172   2.401
 2266SOL     OW 7696   6.198   0.839   0.675
 2266SOL    HW1 7697   6.118   0.834   0.616
 2266SOL    HW2 7698   6.233   0.933   0.676
 2267SOL     OW 7699   5.489   2.566   4.888
 2267SOL    HW1 7700   5.404   2.601   4.848
 2267SOL    HW2 7701   5.553   2.543   4.815
 2268SOL     OW 7702   6.751   6.132   0.720
 2268SOL    HW1 7703   6.821   6.196   0.686
 2268SOL    HW2 7704   6.704   6.173   0.798
 2269SOL     OW 7705   6.161   6.011   5.554
 2269SOL    HW1 7706   6.188   5.930   5.501
 2269SOL    HW2 7707   6.169   5.990   5.651
 2270SOL     OW 7708   3.187   3.811   1.850
 2270SOL    HW1 7709   3.162   3.788   1.756
 2270SOL    HW2 7710   3.127   3.885   1.882
 2271SOL     OW 7711   5.948   4.340   1.464
 2271SOL    HW1 7712   5.937   4.439   1.457
 2271SOL    HW2 7713   6.020   4.319   1.530
 2272SOL     OW 7714   5.108   2.252   5.444
 2272SOL    HW1 7715   5.104   2.192   5.364
 2272SOL    HW2 7716   5.183   2.318   5.433
 2273SOL     OW 7717   0.422   0.596   3.023
 2273SOL    HW1 7718   0.383   0.524   2.966
 2273SOL    HW2 7719   0.349   0.650   3.063
 2274SOL     OW 7720   1.908   3.530   4.832
 2274SOL    HW1 7721   1.839   3.472   4.875
 2274SOL    HW2 7722   1.904   3.621   4.873
 2275SOL     OW 7723   4.936   5.979   4.737
 2275SOL    HW1 7724   4.989   5.897   4.762
 2275SOL    HW2 7725   4.874   5.957   4.662
 2276SOL     OW 7726   3.934   4.842   1.104
 2276SOL    HW1 7727   3.915   4.893   1.020
 2276SOL    HW2 7728   4.018   4.789   1.092
 2277SOL     OW 7729   3.298   3.646   5.569
 2277SOL    HW1 7730   3.235   3.711   5.527
 2277SOL    HW2 7731   3.371   3.624   5.504
 2278SOL     OW 7732   5.252   6.084   2.257
 2278SOL    HW1 7733   5.268   6.034   2.342
 2278SOL    HW2 7734   5.263   6.182   2.273
 2279SOL     OW 7735   5.192   3.681   4.509
 2279SOL    HW1 7736   5.285   3.678   4.546
 2279SOL    HW2 7737   5.191   3.643   4.417
 2280SOL     OW 7738   6.671   6.202   5.251
 2280SOL    HW1 7739   6.589   6.248   5.285
 2280SOL    HW2 7740   6.663   6.188   5.152
 2281SOL     OW 7741   3.672   2.025   1.782
 2281SOL    HW1 7742   3.694   2.097   1.848
 2281SOL    HW2 7743   3.576   2.000   1.791
 2282SOL     OW 7744   4.573   5.413   4.803
 2282SOL    HW1 7745   4.563   5.506   4.768
 2282SOL    HW2 7746   4.650   5.408   4.866
 2283SOL     OW 7747   6.541   4.005   3.050
 2283SOL    HW1 7748   6.549   3.927   2.988
 2283SOL    HW2 7749   6.500   4.082   3.001
 2284SOL     OW 7750   2.353   2.598   2.099
 2284SOL    HW1 7751   2.271   2.569   2.049
 2284SOL    HW2 7752   2.431   2.600   2.035
 2285SOL     OW 7753   1.694   3.919   0.549
 2285SOL    HW1 7754   1.730   3.981   0.480
 2285SOL    HW2 7755   1.602   3.889   0.523
 2286SOL     OW 7756   6.817   5.636   4.925
 2286SOL    HW1 7757   6.829   5.578   5.006
 2286SOL    HW2 7758   6.723   5.670   4.922
 2287SOL     OW 7759   2.103   2.909   1.367
 2287SOL    HW1 7760   2.017   2.944   1.330
 2287SOL    HW2 7761   2.104   2.810   1.359
 2288SOL     OW 7762   0.722   6.411   3.521
 2288SOL    HW1 7763   0.696   6.450   3.432
 2288SOL    HW2 7764   0.774   6.478   3.573
 2289SOL     OW 7765   5.435   2.013   1.842
 2289SOL    HW1 7766   5.485   2.039   1.759
 2289SOL    HW2 7767   5.423   1.914   1.844
 2290SOL     OW 7768   2.930   3.371   3.231
 2290SOL    HW1 7769   2.966   3.296   3.175
 2290SOL    HW2 7770   2.896   3.443   3.171
 2291SOL     OW 7771   1.965   1.845   1.280
 2291SOL    HW1 7772   2.012   1.933   1.268
 2291SOL    HW2 7773   1.961   1.798   1.192
 2292SOL     OW 7774   4.778   2.271   4.075
 2292SOL    HW1 7775   4.867   2.269   4.029
 2292SOL    HW2 7776   4.707   2.292   4.008
 2293SOL     OW 7777   5.431   1.345   0.722
 2293SOL    HW1 7778   5.465   1.324   0.813
 2293SOL    HW2 7779   5.335   1.372   0.727
 2294SOL     OW 7780   2.371   2.425   5.539
 2294SOL    HW1 7781   2.416   2.513   5.543
 2294SOL    HW2 7782   2.303   2.425   5.466
 2295SOL     OW 7783   6.727   0.280   1.681
 2295SOL    HW1 7784   6.677   0.365   1.663
 2295SOL    HW2 7785   6.741   0.231   1.595
 2296SOL     OW 7786   2.295   4.972   3.721
 2296SOL    HW1 7787   2.272   5.040   3.791
 2296SOL    HW2 7788   2.250   4.885   3.742
 2297SOL     OW 7789   5.053   4.614   5.664
 2297SOL    HW1 7790   5.106   4.650   5.741
 2297SOL    HW2 7791   5.101   4.536   5.624
 2298SOL     OW 7792   4.054   3.251   4.313
 2298SOL    HW1 7793   4.024   3.159   4.340
 2298SOL    HW2 7794   4.081   3.302   4.394
 2299SOL     OW 7795   5.001   3.477   4.588
 2299SOL    HW1 7796   5.092   3.519   4.593
 2299SOL    HW2 7797   4.935   3.538   4.632
 2300SOL     OW 7798   3.529   6.778   3.154
 2300SOL    HW1 7799   3.566   6.685   3.154
 2300SOL    HW2 7800   3.437   6.778   3.114
 2301SOL     OW 7801   3.046   3.258   4.702
 2301SOL    HW1 7802   3.080   3.210   4.783
 2301SOL    HW2 7803   3.010   3.347   4.729
 2302SOL     OW 7804   3.966   1.422   0.452
 2302SOL    HW1 7805   3.939   1.387   0.541
 2302SOL    HW2 7806   3.906   1.384   0.381
 2303SOL     OW 7807   2.350   2.911   1.251
 2303SOL    HW1 7808   2.366   2.969   1.171
 2303SOL    HW2 7809   2.259   2.931   1.289
 2304SOL     OW 7810   6.575   5.755   3.768
 2304SOL    HW1 7811   6.529   5.695   3.835
 2304SOL    HW2 7812   6.507   5.814   3.725
 2305SOL     OW 7813   1.743   1.067   3.852
 2305SOL    HW1 7814   1.758   1.165   3.840
 2305SOL    HW2 7815   1.824   1.016   3.823
 2306SOL     OW 7816   1.813   4.600   3.260
 2306SOL    HW1 7817   1.899   4.650   3.269
 2306SOL    HW2 7818   1.765   4.631   3.177
 2307SOL     OW 7819   1.359   3.173   5.394
 2307SOL    HW1 7820   1.393   3.082   5.370
 2307SOL    HW2 7821   1.436   3.237   5.397
 2308SOL     OW 7822   2.000   4.993   1.528
 2308SOL    HW1 7823   2.042   4.945   1.605
 2308SOL    HW2 7824   2.025   5.090   1.530
 2309SOL     OW 7825   1.646   0.187   4.038
 2309SOL    HW1 7826   1.627   0.118   3.967
 2309SOL    HW2 7827   1.630   0.278   4.000
 2310SOL     OW 7828   4.572   0.062   1.837
 2310SOL    HW1 7829   4.651   0.065   1.774
 2310SOL    HW2 7830   4.539   0.154   1.854
 2311SOL     OW 7831   2.516   6.056   0.359
 2311SOL    HW1 7832   2.450   6.025   0.427
 2311SOL    HW2 7833   2.504   6.004   0.275
 2312SOL     OW 7834   3.637   6.046   2.544
 2312SOL    HW1 7835   3.629   6.001   2.454
 2312SOL    HW2 7836   3.611   5.981   2.615
 2313SOL     OW 7837   5.193   4.889   2.699
 2313SOL    HW1 7838   5.145   4.921   2.781
 2313SOL    HW2 7839   5.229   4.967   2.649
 2314SOL     OW 7840   3.600   5.612   3.120
 2314SOL    HW1 7841   3.511   5.595   3.077
 2314SOL    HW2 7842   3.673   5.582   3.058
 2315SOL     OW 7843   4.724   3.139   6.210
 2315SOL    HW1 7844   4.629   3.160   6.188
 2315SOL    HW2 7845   4.740   3.157   6.307
 2316SOL     OW 7846   5.231   2.660   3.513
 2316SOL    HW1 7847   5.164   2.734   3.500
 2316SOL    HW2 7848   5.191   2.573   3.485
 2317SOL     OW 7849   1.322   4.791   2.385
 2317SOL    HW1 7850   1.225   4.814   2.380
 2317SOL    HW2 7851   1.377   4.870   2.361
 2318SOL     OW 7852   0.605   1.637   3.077
 2318SOL    HW1 7853   0.672   1.618   3.149
 2318SOL    HW2 7854   0.515   1.601   3.105
 2319SOL     OW 7855   1.911   3.914   4.570
 2319SOL    HW1 7856   1.965   3.966   4.636
 2319SOL    HW2 7857   1.854   3.976   4.517
 2320SOL     OW 7858   0.190   2.252   4.091
 2320SOL    HW1 7859   0.149   2.341   4.105
 2320SOL    HW2 7860   0.142   2.183   4.145
 2321SOL     OW 7861   2.954   7.024   5.022
 2321SOL    HW1 7862   2.914   0.044   4.943
 2321SOL    HW2 7863   2.892   6.952   5.052
 2322SOL     OW 7864   1.281   1.872   5.681
 2322SOL    HW1 7865   1.261   1.946   5.746
 2322SOL    HW2 7866   1.198   1.849   5.630
 2323SOL     OW 7867   4.591   5.382   3.271
 2323SOL    HW1 7868   4.502   5.344   3.245
 2323SOL    HW2 7869   4.584   5.422   3.363
 2324SOL     OW 7870   0.963   5.951   2.537
 2324SOL    HW1 7871   0.906   6.000   2.603
 2324SOL    HW2 7872   1.037   5.904   2.585
 2325SOL     OW 7873   0.912   3.460   1.276
 2325SOL    HW1 7874   0.909   3.511   1.362
 2325SOL    HW2 7875   0.845   3.498   1.212
 2326SOL     OW 7876   1.813   4.870   6.295
 2326SOL    HW1 7877   1.794   4.785   6.245
 2326SOL    HW2 7878   1.779   4.863   6.388
 2327SOL     OW 7879   4.740   2.712   4.353
 2327SOL    HW1 7880   4.758   2.793   4.296
 2327SOL    HW2 7881   4.827   2.675   4.387
 2328SOL     OW 7882   5.046   1.483   2.955
 2328SOL    HW1 7883   5.075   1.420   3.027
 2328SOL    HW2 7884   5.032   1.432   2.870
 2329SOL     OW 7885   1.259   5.325   4.018
 2329SOL    HW1 7886   1.337   5.312   4.079
 2329SOL    HW2 7887   1.292   5.362   3.931
 2330SOL     OW 7888   0.545   4.726   2.039
 2330SOL    HW1 7889   0.609   4.755   1.968
 2330SOL    HW2 7890   0.561   4.629   2.061
 2331SOL     OW 7891   0.069   4.109   5.217
 2331SOL    HW1 7892   0.079   4.053   5.299
 2331SOL    HW2 7893   0.116   4.197   5.231
 2332SOL     OW 7894   5.126   2.845   6.322
 2332SOL    HW1 7895   5.056   2.898   6.275
 2332SOL    HW2 7896   5.186   2.907   6.372
 2333SOL     OW 7897   0.798   5.270   3.257
 2333SOL    HW1 7898   0.791   5.282   3.356
 2333SOL    HW2 7899   0.740   5.193   3.229
 2334SOL     OW 7900   3.475   6.661   6.872
 2334SOL    HW1 7901   3.571   6.658   6.844
 2334SOL    HW2 7902   3.462   6.732   6.941
 2335SOL     OW 7903   5.574   0.119   3.536
 2335SOL    HW1 7904   5.501   0.187   3.528
 2335SOL    HW2 7905   5.590   0.099   3.632
 2336SOL     OW 7906   5.072   1.180   5.933
 2336SOL    HW1 7907   4.984   1.133   5.944
 2336SOL    HW2 7908   5.132   1.158   6.010
 2337SOL     OW 7909   5.626   0.219   3.078
 2337SOL    HW1 7910   5.527   0.221   3.072
 2337SOL    HW2 7911   5.654   0.154   3.149
 2338SOL     OW 7912   0.065   6.430   0.269
 2338SOL    HW1 7913   0.124   6.509   0.252
 2338SOL    HW2 7914   0.110   6.347   0.237
 2339SOL     OW 7915   3.557   4.665   6.601
 2339SOL    HW1 7916   3.564   4.597   6.673
 2339SOL    HW2 7917   3.476   4.646   6.545
 2340SOL     OW 7918   3.260   6.213   5.059
 2340SOL    HW1 7919   3.345   6.262   5.077
 2340SOL    HW2 7920   3.278   6.134   5.001
 2341SOL     OW 7921   5.787   5.049   0.609
 2341SOL    HW1 7922   5.827   5.013   0.693
 2341SOL    HW2 7923   5.688   5.035   0.611
 2342SOL     OW 7924   0.009   0.565   5.258
 2342SOL    HW1 7925   0.012   0.523   5.167
 2342SOL    HW2 7926   6.973   0.642   5.257
 2343SOL     OW 7927   1.411   6.058   1.023
 2343SOL    HW1 7928   1.346   6.122   0.984
 2343SOL    HW2 7929   1.503   6.080   0.991
 2344SOL     OW 7930   2.530   1.569   2.754
 2344SOL    HW1 7931   2.480   1.497   2.804
 2344SOL    HW2 7932   2.584   1.527   2.682
 2345SOL     OW 7933   1.197   0.950   4.778
 2345SOL    HW1 7934   1.159   1.040   4.802
 2345SOL    HW2 7935   1.296   0.959   4.764
 2346SOL     OW 7936   4.810   3.512   5.616
 2346SOL    HW1 7937   4.713   3.487   5.613
 2346SOL    HW2 7938   4.848   3.510   5.523
 2347SOL     OW 7939   1.578   3.532   1.831
 2347SOL    HW1 7940   1.542   3.578   1.912
 2347SOL    HW2 7941   1.652   3.586   1.791
 2348SOL     OW 7942   2.855   6.643   3.577
 2348SOL    HW1 7943   2.782   6.598   3.526
 2348SOL    HW2 7944   2.868   6.597   3.665
 2349SOL     OW 7945   0.012   6.857   5.952
 2349SOL    HW1 7946   6.992   6.770   5.955
 2349SOL    HW2 7947   6.975   6.932   5.960
 2350SOL     OW 7948   2.813   0.571   4.941
 2350SOL    HW1 7949   2.824   0.615   5.030
 2350SOL    HW2 7950   2.859   0.627   4.871
 2351SOL     OW 7951   2.552   4.868   3.634
 2351SOL    HW1 7952   2.552   4.784   3.689
 2351SOL    HW2 7953   2.465   4.916   3.647
 2352SOL     OW 7954   6.936   4.487   3.057
 2352SOL    HW1 7955   6.912   4.416   2.989
 2352SOL    HW2 7956   6.873   4.482   3.134
 2353SOL     OW 7957   2.688   4.061   5.826
 2353SOL    HW1 7958   2.771   4.020   5.863
 2353SOL    HW2 7959   2.706   4.095   5.734
 2354SOL     OW 7960   3.827   2.766   0.691
 2354SOL    HW1 7961   3.803   2.781   0.787
 2354SOL    HW2 7962   3.772   2.827   0.633
 2355SOL     OW 7963   0.495   6.533   0.889
 2355SOL    HW1 7964   0.564   6.535   0.816
 2355SOL    HW2 7965   0.404   6.540   0.850
 2356SOL     OW 7966   2.306   5.255   2.872
 2356SOL    HW1 7967   2.358   5.261   2.786
 2356SOL    HW2 7968   2.229   5.319   2.868
 2357SOL     OW 7969   5.280   4.454   2.566
 2357SOL    HW1 7970   5.220   4.389   2.613
 2357SOL    HW2 7971   5.294   4.534   2.624
 2358SOL     OW 7972   3.383   0.091   4.752
 2358SOL    HW1 7973   3.432   0.007   4.772
 2358SOL    HW2 7974   3.434   0.169   4.790
 2359SOL     OW 7975   2.879   1.541   5.677
 2359SOL    HW1 7976   2.874   1.620   5.616
 2359SOL    HW2 7977   2.826   1.465   5.639
 2360SOL     OW 7978   3.750   4.762   0.561
 2360SOL    HW1 7979   3.788   4.673   0.585
 2360SOL    HW2 7980   3.732   4.815   0.643
 2361SOL     OW 7981   3.222   6.854   2.737
 2361SOL    HW1 7982   3.303   6.887   2.689
 2361SOL    HW2 7983   3.164   6.804   2.673
 2362SOL     OW 7984   4.482   5.956   4.498
 2362SOL    HW1 7985   4.400   5.902   4.478
 2362SOL    HW2 7986   4.486   6.035   4.436
 2363SOL     OW 7987   3.637   2.873   6.617
 2363SOL    HW1 7988   3.725   2.843   6.654
 2363SOL    HW2 7989   3.563   2.837   6.674
 2364SOL     OW 7990   4.933   1.633   2.109
 2364SOL    HW1 7991   4.928   1.534   2.093
 2364SOL    HW2 7992   4.890   1.655   2.196
 2365SOL     OW 7993   4.975   3.345   4.353
 2365SOL    HW1 7994   4.952   3.387   4.440
 2365SOL    HW2 7995   5.071   3.319   4.352
 2366SOL     OW 7996   1.845   4.313   5.524
 2366SOL    HW1 7997   1.815   4.233   5.575
 2366SOL    HW2 7998   1.918   4.286   5.460
 2367SOL     OW 7999   0.845   3.574   6.144
 2367SOL    HW1 8000   0.829   3.664   6.183
 2367SOL    HW2 8001   0.938   3.544   6.164
 2368SOL     OW 8002   5.271   0.448   4.389
 2368SOL    HW1 8003   5.236   0.399   4.469
 2368SOL    HW2 8004   5.237   0.542   4.389
 2369SOL     OW 8005   3.503   1.529   3.718
 2369SOL    HW1 8006   3.576   1.578   3.670
 2369SOL    HW2 8007   3.466   1.586   3.790
 2370SOL     OW 8008   4.701   2.714   1.117
 2370SOL    HW1 8009   4.632   2.759   1.061
 2370SOL    HW2 8010   4.708   2.760   1.205
 2371SOL     OW 8011   0.796   6.479   2.658
 2371SOL    HW1 8012   0.896   6.469   2.650
 2371SOL    HW2 8013   0.759   6.505   2.569
 2372SOL     OW 8014   6.399   1.651   5.877
 2372SOL    HW1 8015   6.382   1.712   5.954
 2372SOL    HW2 8016   6.345   1.567   5.888
 2373SOL     OW 8017   6.224   0.636   6.242
 2373SOL    HW1 8018   6.131   0.600   6.240
 2373SOL    HW2 8019   6.251   0.653   6.337
 2374SOL     OW 8020   6.296   5.653   3.445
 2374SOL    HW1 8021   6.221   5.606   3.398
 2374SOL    HW2 8022   6.369   5.673   3.380
 2375SOL     OW 8023   0.672   0.522   3.995
 2375SOL    HW1 8024   0.588   0.516   4.050
 2375SOL    HW2 8025   0.677   0.443   3.934
 2376SOL     OW 8026   0.050   2.090   2.973
 2376SOL    HW1 8027   0.101   2.122   3.053
 2376SOL    HW2 8028   6.999   2.037   3.002
 2377SOL     OW 8029   3.324   4.691   6.447
 2377SOL    HW1 8030   3.319   4.756   6.371
 2377SOL    HW2 8031   3.265   4.613   6.427
 2378SOL     OW 8032   6.147   2.108   0.449
 2378SOL    HW1 8033   6.198   2.053   0.515
 2378SOL    HW2 8034   6.170   2.078   0.356
 2379SOL     OW 8035   0.210   4.838   0.802
 2379SOL    HW1 8036   0.135   4.903   0.793
 2379SOL    HW2 8037   0.273   4.848   0.725
 2380SOL     OW 8038   6.102   3.116   5.152
 2380SOL    HW1 8039   6.150   3.143   5.069
 2380SOL    HW2 8040   6.046   3.036   5.134
 2381SOL     OW 8041   2.111   4.800   5.187
 2381SOL    HW1 8042   2.143   4.714   5.225
 2381SOL    HW2 8043   2.016   4.815   5.215
 2382SOL     OW 8044   1.842   6.165   2.826
 2382SOL    HW1 8045   1.763   6.164   2.764
 2382SOL    HW2 8046   1.869   6.072   2.848
 2383SOL     OW 8047   5.298   5.951   5.530
 2383SOL    HW1 8048   5.316   5.854   5.548
 2383SOL    HW2 8049   5.356   5.982   5.455
 2384SOL     OW 8050   0.724   2.358   1.458
 2384SOL    HW1 8051   0.650   2.354   1.525
 2384SOL    HW2 8052   0.799   2.299   1.488
 2385SOL     OW 8053   0.313   2.123   0.387
 2385SOL    HW1 8054   0.346   2.079   0.303
 2385SOL    HW2 8055   0.241   2.067   0.427
 2386SOL     OW 8056   2.995   5.236   4.339
 2386SOL    HW1 8057   3.087   5.196   4.337
 2386SOL    HW2 8058   2.985   5.292   4.421
 2387SOL     OW 8059   0.600   2.443   3.973
 2387SOL    HW1 8060   0.582   2.510   3.902
 2387SOL    HW2 8061   0.648   2.364   3.934
 2388SOL     OW 8062   0.276   2.235   6.292
 2388SOL    HW1 8063   0.362   2.274   6.324
 2388SOL    HW2 8064   0.288   2.138   6.275
 2389SOL     OW 8065   5.259   5.096   4.214
 2389SOL    HW1 8066   5.268   5.161   4.140
 2389SOL    HW2 8067   5.252   5.145   4.301
 2390SOL     OW 8068   4.462   3.804   6.403
 2390SOL    HW1 8069   4.369   3.789   6.370
 2390SOL    HW2 8070   4.487   3.732   6.467
 2391SOL     OW 8071   3.738   3.252   0.036
 2391SOL    HW1 8072   3.769   3.157   0.040
 2391SOL    HW2 8073   3.639   3.255   0.047
 2392SOL     OW 8074   3.137   5.119   5.684
 2392SOL    HW1 8075   3.149   5.079   5.593
 2392SOL    HW2 8076   3.050   5.167   5.689
 2393SOL     OW 8077   4.068   5.191   1.987
 2393SOL    HW1 8078   4.131   5.117   2.009
 2393SOL    HW2 8079   4.073   5.211   1.890
 2394SOL     OW 8080   6.980   3.992   3.550
 2394SOL    HW1 8081   0.047   4.003   3.521
 2394SOL    HW2 8082   6.937   4.082   3.555
 2395SOL     OW 8083   0.844   3.349   6.779
 2395SOL    HW1 8084   0.926   3.360   6.835
 2395SOL    HW2 8085   0.855   3.401   6.694
 2396SOL     OW 8086   5.580   0.567   5.459
 2396SOL    HW1 8087   5.603   0.581   5.363
 2396SOL    HW2 8088   5.509   0.632   5.486
 2397SOL     OW 8089   0.456   5.223   5.827
 2397SOL    HW1 8090   0.507   5.138   5.825
 2397SOL    HW2 8091   0.501   5.291   5.769
 2398SOL     OW 8092   2.445   5.716   3.519
 2398SOL    HW1 8093   2.531   5.679   3.485
 2398SOL    HW2 8094   2.381   5.729   3.443
 2399SOL     OW 8095   2.945   1.990   3.799
 2399SOL    HW1 8096   2.909   1.936   3.723
 2399SOL    HW2 8097   2.886   1.980   3.879
 2400SOL     OW 8098   2.119   3.702   0.515
 2400SOL    HW1 8099   2.038   3.649   0.540
 2400SOL    HW2 8100   2.094   3.797   0.500
 2401SOL     OW 8101   3.525   0.197   4.264
 2401SOL    HW1 8102   3.585   0.274   4.240
 2401SOL    HW2 8103   3.490   0.211   4.357
 2402SOL     OW 8104   1.043   2.299   3.118
 2402SOL    HW1 8105   0.963   2.354   3.096
 2402SOL    HW2 8106   1.124   2.338   3.073
 2403SOL     OW 8107   4.026   3.177   1.471
 2403SOL    HW1 8108   4.013   3.229   1.386
 2403SOL    HW2 8109   3.948   3.115   1.484
 2404SOL     OW 8110   6.295   1.488   1.125
 2404SOL    HW1 8111   6.363   1.533   1.068
 2404SOL    HW2 8112   6.281   1.395   1.093
 2405SOL     OW 8113   2.656   4.983   6.647
 2405SOL    HW1 8114   2.604   4.973   6.731
 2405SOL    HW2 8115   2.735   4.922   6.648
 2406SOL     OW 8116   1.581   0.557   3.471
 2406SOL    HW1 8117   1.537   0.638   3.510
 2406SOL    HW2 8118   1.657   0.530   3.529
 2407SOL     OW 8119   4.608   2.143   3.194
 2407SOL    HW1 8120   4.558   2.138   3.107
 2407SOL    HW2 8121   4.542   2.152   3.269
 2408SOL     OW 8122   2.322   5.784   3.270
 2408SOL    HW1 8123   2.332   5.728   3.187
 2408SOL    HW2 8124   2.371   5.870   3.257
 2409SOL     OW 8125   2.653   2.824   1.072
 2409SOL    HW1 8126   2.729   2.881   1.040
 2409SOL    HW2 8127   2.571   2.880   1.083
 2410SOL     OW 8128   6.221   3.543   6.243
 2410SOL    HW1 8129   6.130   3.585   6.248
 2410SOL    HW2 8130   6.284   3.606   6.197
 2411SOL     OW 8131   2.628   4.335   6.523
 2411SOL    HW1 8132   2.690   4.259   6.540
 2411SOL    HW2 8133   2.582   4.360   6.608
 2412SOL     OW 8134   2.762   2.966   0.142
 2412SOL    HW1 8135   2.684   2.916   0.178
 2412SOL    HW2 8136   2.773   2.945   0.045
 2413SOL     OW 8137   6.490   3.239   6.251
 2413SOL    HW1 8138   6.580   3.198   6.263
 2413SOL    HW2 8139   6.455   3.271   6.339
 2414SOL     OW 8140   5.653   2.317   3.771
 2414SOL    HW1 8141   5.610   2.278   3.689
 2414SOL    HW2 8142   5.583   2.350   3.833
 2415SOL     OW 8143   2.246   6.913   0.271
 2415SOL    HW1 8144   2.283   6.902   0.178
 2415SOL    HW2 8145   2.157   6.869   0.277
 2416SOL     OW 8146   0.614   3.186   3.075
 2416SOL    HW1 8147   0.602   3.111   3.011
 2416SOL    HW2 8148   0.696   3.172   3.130
 2417SOL     OW 8149   4.700   2.616   0.022
 2417SOL    HW1 8150   4.789   2.640   7.012
 2417SOL    HW2 8151   4.709   2.601   0.121
 2418SOL     OW 8152   4.112   4.099   5.249
 2418SOL    HW1 8153   4.151   4.188   5.273
 2418SOL    HW2 8154   4.015   4.111   5.228
 2419SOL     OW 8155   2.457   6.747   4.235
 2419SOL    HW1 8156   2.368   6.706   4.257
 2419SOL    HW2 8157   2.464   6.836   4.280
 2420SOL     OW 8158   3.680   5.840   1.830
 2420SOL    HW1 8159   3.651   5.761   1.776
 2420SOL    HW2 8160   3.747   5.893   1.777
 2421SOL     OW 8161   4.211   6.763   3.639
 2421SOL    HW1 8162   4.245   6.838   3.695
 2421SOL    HW2 8163   4.147   6.797   3.571
 2422SOL     OW 8164   3.766   6.857   1.302
 2422SOL    HW1 8165   3.842   6.812   1.349
 2422SOL    HW2 8166   3.679   6.826   1.341
 2423SOL     OW 8167   2.177   5.767   1.905
 2423SOL    HW1 8168   2.195   5.862   1.878
 2423SOL    HW2 8169   2.238   5.741   1.980
 2424SOL     OW 8170   5.514   6.291   6.858
 2424SOL    HW1 8171   5.493   6.293   6.760
 2424SOL    HW2 8172   5.459   6.360   6.905
 2425SOL     OW 8173   4.849   5.669   5.842
 2425SOL    HW1 8174   4.805   5.633   5.924
 2425SOL    HW2 8175   4.826   5.766   5.832
 2426SOL     OW 8176   1.473   5.911   4.723
 2426SOL    HW1 8177   1.380   5.943   4.742
 2426SOL    HW2 8178   1.478   5.812   4.738
 2427SOL     OW 8179   4.766   6.227   6.546
 2427SOL    HW1 8180   4.772   6.130   6.524
 2427SOL    HW2 8181   4.678   6.263   6.516
 2428SOL     OW 8182   0.206   1.267   3.419
 2428SOL    HW1 8183   0.158   1.326   3.355
 2428SOL    HW2 8184   0.143   1.237   3.490
 2429SOL     OW 8185   5.247   4.932   2.264
 2429SOL    HW1 8186   5.216   4.876   2.341
 2429SOL    HW2 8187   5.174   4.995   2.237
 2430SOL     OW 8188   5.873   2.114   0.425
 2430SOL    HW1 8189   5.859   2.101   0.327
 2430SOL    HW2 8190   5.971   2.119   0.445
 2431SOL     OW 8191   5.765   1.594   1.842
 2431SOL    HW1 8192   5.758   1.682   1.889
 2431SOL    HW2 8193   5.861   1.570   1.829
 2432SOL     OW 8194   3.271   5.288   1.677
 2432SOL    HW1 8195   3.208   5.211   1.662
 2432SOL    HW2 8196   3.252   5.330   1.765
 2433SOL     OW 8197   0.270   5.751   0.227
 2433SOL    HW1 8198   0.202   5.725   0.296
 2433SOL    HW2 8199   0.361   5.728   0.261
 2434SOL     OW 8200   4.152   2.016   2.136
 2434SOL    HW1 8201   4.090   1.972   2.201
 2434SOL    HW2 8202   4.099   2.056   2.062
 2435SOL     OW 8203   5.707   5.676   0.355
 2435SOL    HW1 8204   5.699   5.645   0.261
 2435SOL    HW2 8205   5.619   5.710   0.387
 2436SOL     OW 8206   1.841   1.149   1.493
 2436SOL    HW1 8207   1.789   1.221   1.539
 2436SOL    HW2 8208   1.834   1.064   1.545
 2437SOL     OW 8209   5.902   5.716   2.015
 2437SOL    HW1 8210   5.876   5.724   2.111
 2437SOL    HW2 8211   5.899   5.620   1.987
 2438SOL     OW 8212   3.766   2.147   4.949
 2438SOL    HW1 8213   3.705   2.068   4.945
 2438SOL    HW2 8214   3.725   2.216   5.010
 2439SOL     OW 8215   0.026   5.414   6.849
 2439SOL    HW1 8216   0.085   5.336   6.867
 2439SOL    HW2 8217   0.078   5.485   6.802
 2440SOL     OW 8218   4.062   0.515   4.822
 2440SOL    HW1 8219   3.992   0.586   4.826
 2440SOL    HW2 8220   4.149   0.553   4.854
 2441SOL     OW 8221   5.460   0.678   0.227
 2441SOL    HW1 8222   5.440   0.583   0.253
 2441SOL    HW2 8223   5.493   0.728   0.308
 2442SOL     OW 8224   5.998   3.683   3.005
 2442SOL    HW1 8225   6.044   3.759   3.051
 2442SOL    HW2 8226   5.925   3.718   2.947
 2443SOL     OW 8227   2.462   0.952   6.078
 2443SOL    HW1 8228   2.483   0.866   6.033
 2443SOL    HW2 8229   2.528   0.968   6.152
 2444SOL     OW 8230   3.946   4.749   0.189
 2444SOL    HW1 8231   3.962   4.848   0.187
 2444SOL    HW2 8232   3.848   4.731   0.201
 2445SOL     OW 8233   6.223   1.504   1.989
 2445SOL    HW1 8234   6.171   1.493   2.074
 2445SOL    HW2 8235   6.319   1.483   2.006
 2446SOL     OW 8236   0.795   2.574   2.931
 2446SOL    HW1 8237   0.737   2.563   3.012
 2446SOL    HW2 8238   0.780   2.664   2.891
 2447SOL     OW 8239   2.096   0.724   0.556
 2447SOL    HW1 8240   2.171   0.776   0.597
 2447SOL    HW2 8241   2.126   0.690   0.466
 2448SOL     OW 8242   6.001   1.895   4.064
 2448SOL    HW1 8243   5.927   1.894   3.997
 2448SOL    HW2 8244   5.964   1.913   4.155
 2449SOL     OW 8245   1.342   3.624   1.967
 2449SOL    HW1 8246   1.375   3.661   2.054
 2449SOL    HW2 8247   1.262   3.566   1.983
 2450SOL     OW 8248   3.072   5.207   6.808
 2450SOL    HW1 8249   3.103   5.114   6.792
 2450SOL    HW2 8250   3.141   5.257   6.860
 2451SOL     OW 8251   0.804   0.144   4.009
 2451SOL    HW1 8252   0.897   0.109   4.017
 2451SOL    HW2 8253   0.761   0.145   4.099
 2452SOL     OW 8254   2.325   2.156   3.627
 2452SOL    HW1 8255   2.234   2.150   3.587
 2452SOL    HW2 8256   2.343   2.251   3.655
 2453SOL     OW 8257   6.991   2.766   1.025
 2453SOL    HW1 8258   6.935   2.760   0.943
 2453SOL    HW2 8259   6.938   2.807   1.099
 2454SOL     OW 8260   2.486   5.712   6.622
 2454SOL    HW1 8261   2.392   5.721   6.590
 2454SOL    HW2 8262   2.514   5.616   6.618
 2455SOL     OW 8263   3.796   1.076   0.718
 2455SOL    HW1 8264   3.804   1.175   0.715
 2455SOL    HW2 8265   3.729   1.046   0.650
 2456SOL     OW 8266   0.945   3.629   6.655
 2456SOL    HW1 8267   0.871   3.694   6.643
 2456SOL    HW2 8268   0.973   3.626   6.751
 2457SOL     OW 8269   5.853   0.860   5.301
 2457SOL    HW1 8270   5.935   0.912   5.280
 2457SOL    HW2 8271   5.861   0.821   5.393
 2458SOL     OW 8272   1.007   0.444   3.744
 2458SOL    HW1 8273   1.008   0.472   3.648
 2458SOL    HW2 8274   1.079   0.377   3.761
 2459SOL     OW 8275   3.128   6.049   5.964
 2459SOL    HW1 8276   3.040   6.020   6.000
 2459SOL    HW2 8277   3.149   6.141   5.997
 2460SOL     OW 8278   1.187   1.138   0.603
 2460SOL    HW1 8279   1.114   1.070   0.610
 2460SOL    HW2 8280   1.238   1.142   0.689
 2461SOL     OW 8281   5.037   6.912   3.901
 2461SOL    HW1 8282   5.084   6.927   3.814
 2461SOL    HW2 8283   5.089   6.954   3.975
 2462SOL     OW 8284   2.205   5.084   0.618
 2462SOL    HW1 8285   2.186   5.153   0.548
 2462SOL    HW2 8286   2.141   5.095   0.694
 2463SOL     OW 8287   6.986   2.192   0.424
 2463SOL    HW1 8288   6.949   2.135   0.350
 2463SOL    HW2 8289   6.911   2.225   0.481
 2464SOL     OW 8290   1.182   2.944   3.359
 2464SOL    HW1 8291   1.166   2.977   3.265
 2464SOL    HW2 8292   1.277   2.961   3.385
 2465SOL     OW 8293   6.752   6.277   6.331
 2465SOL    HW1 8294   6.681   6.227   6.380
 2465SOL    HW2 8295   6.746   6.257   6.234
 2466SOL     OW 8296   1.641   1.729   2.456
 2466SOL    HW1 8297   1.717   1.783   2.419
 2466SOL    HW2 8298   1.589   1.784   2.521
 2467SOL     OW 8299   4.949   1.960   5.687
 2467SOL    HW1 8300   4.942   2.016   5.604
 2467SOL    HW2 8301   4.945   2.019   5.768
 2468SOL     OW 8302   4.344   6.908   0.341
 2468SOL    HW1 8303   4.250   6.876   0.349
 2468SOL    HW2 8304   4.349   6.984   0.275
 2469SOL     OW 8305   3.881   3.313   5.453
 2469SOL    HW1 8306   3.836   3.270   5.531
 2469SOL    HW2 8307   3.919   3.401   5.481
 2470SOL     OW 8308   3.913   5.235   6.147
 2470SOL    HW1 8309   3.958   5.155   6.108
 2470SOL    HW2 8310   3.957   5.318   6.112
 2471SOL     OW 8311   3.395   6.821   0.127
 2471SOL    HW1 8312   3.416   6.900   0.184
 2471SOL    HW2 8313   3.296   6.811   0.117
 2472SOL     OW 8314   4.162   2.247   3.539
 2472SOL    HW1 8315   4.069   2.211   3.546
 2472SOL    HW2 8316   4.210   2.230   3.625
 2473SOL     OW 8317   1.142   4.361   5.553
 2473SOL    HW1 8318   1.194   4.361   5.638
 2473SOL    HW2 8319   1.203   4.338   5.477
 2474SOL     OW 8320   0.983   5.669   1.108
 2474SOL    HW1 8321   1.012   5.742   1.047
 2474SOL    HW2 8322   0.886   5.680   1.129
 2475SOL     OW 8323   4.220   0.549   2.111
 2475SOL    HW1 8324   4.166   0.632   2.124
 2475SOL    HW2 8325   4.242   0.537   2.015
 2476SOL     OW 8326   5.669   7.011   2.348
 2476SOL    HW1 8327   5.655   6.989   2.445
 2476SOL    HW2 8328   5.721   6.937   2.305
 2477SOL     OW 8329   4.087   0.969   3.616
 2477SOL    HW1 8330   4.165   1.016   3.574
 2477SOL    HW2 8331   4.059   1.017   3.699
 2478SOL     OW 8332   5.954   1.008   1.826
 2478SOL    HW1 8333   6.008   0.994   1.909
 2478SOL    HW2 8334   5.903   0.925   1.806
 2479SOL     OW 8335   1.275   3.139   1.999
 2479SOL    HW1 8336   1.216   3.179   2.069
 2479SOL    HW2 8337   1.363   3.186   1.998
 2480SOL     OW 8338   4.264   3.195   0.962
 2480SOL    HW1 8339   4.344   3.235   0.918
 2480SOL    HW2 8340   4.291   3.114   1.014
 2481SOL     OW 8341   3.323   6.875   1.087
 2481SOL    HW1 8342   3.233   6.861   1.047
 2481SOL    HW2 8343   3.393   6.852   1.020
 2482SOL     OW 8344   5.424   3.207   6.383
 2482SOL    HW1 8345   5.397   3.112   6.400
 2482SOL    HW2 8346   5.443   3.252   6.470
 2483SOL     OW 8347   2.137   1.961   6.767
 2483SOL    HW1 8348   2.103   2.002   6.853
 2483SOL    HW2 8349   2.181   2.032   6.712
 2484SOL     OW 8350   3.346   0.987   0.193
 2484SOL    HW1 8351   3.366   0.959   0.287
 2484SOL    HW2 8352   3.382   1.079   0.177
 2485SOL     OW 8353   5.540   3.032   1.419
 2485SOL    HW1 8354   5.546   3.096   1.342
 2485SOL    HW2 8355   5.620   2.972   1.418
 2486SOL     OW 8356   1.433   4.752   5.225
 2486SOL    HW1 8357   1.519   4.779   5.181
 2486SOL    HW2 8358   1.451   4.681   5.293
 2487SOL     OW 8359   4.545   6.469   0.524
 2487SOL    HW1 8360   4.516   6.423   0.608
 2487SOL    HW2 8361   4.494   6.554   0.513
 2488SOL     OW 8362   0.999   4.122   2.086
 2488SOL    HW1 8363   1.086   4.106   2.132
 2488SOL    HW2 8364   0.951   4.035   2.073
 2489SOL     OW 8365   0.693   5.909   4.165
 2489SOL    HW1 8366   0.732   5.849   4.094
 2489SOL    HW2 8367   0.695   6.004   4.133
 2490SOL     OW 8368   0.042   5.215   1.030
 2490SOL    HW1 8369   0.133   5.229   1.070
 2490SOL    HW2 8370   7.013   5.296   1.049
 2491SOL     OW 8371   3.118   4.240   0.106
 2491SOL    HW1 8372   3.054   4.229   0.182
 2491SOL    HW2 8373   3.067   4.242   0.020
 2492SOL     OW 8374   4.774   3.767   1.014
 2492SOL    HW1 8375   4.693   3.714   0.988
 2492SOL    HW2 8376   4.801   3.742   1.107
 2493SOL     OW 8377   6.640   6.945   1.868
 2493SOL    HW1 8378   6.658   7.026   1.924
 2493SOL    HW2 8379   6.714   6.878   1.881
 2494SOL     OW 8380   5.455   4.065   2.864
 2494SOL    HW1 8381   5.453   4.021   2.774
 2494SOL    HW2 8382   5.363   4.065   2.903
 2495SOL     OW 8383   5.056   6.131   3.266
 2495SOL    HW1 8384   5.120   6.056   3.253
 2495SOL    HW2 8385   4.999   6.114   3.346
 2496SOL     OW 8386   0.655   2.637   6.449
 2496SOL    HW1 8387   0.645   2.640   6.548
 2496SOL    HW2 8388   0.731   2.577   6.424
 2497SOL     OW 8389   0.287   0.255   0.516
 2497SOL    HW1 8390   0.334   0.264   0.428
 2497SOL    HW2 8391   0.274   0.158   0.537
 2498SOL     OW 8392   2.712   1.911   5.316
 2498SOL    HW1 8393   2.700   1.959   5.404
 2498SOL    HW2 8394   2.624   1.871   5.288
 2499SOL     OW 8395   6.008   2.772   2.095
 2499SOL    HW1 8396   5.945   2.742   2.024
 2499SOL    HW2 8397   6.003   2.871   2.104
 2500SOL     OW 8398   3.807   4.135   6.914
 2500SOL    HW1 8399   3.838   4.193   6.838
 2500SOL    HW2 8400   3.811   4.187   6.999
 2501SOL     OW 8401   5.199   5.479   0.984
 2501SOL    HW1 8402   5.103   5.480   1.012
 2501SOL    HW2 8403   5.245   5.560   1.020
 2502SOL     OW 8404   1.310   0.268   4.198
 2502SOL    HW1 8405   1.387   0.278   4.262
 2502SOL    HW2 8406   1.224   0.280   4.248
 2503SOL     OW 8407   2.450   6.340   4.263
 2503SOL    HW1 8408   2.431   6.300   4.173
 2503SOL    HW2 8409   2.497   6.428   4.251
 2504SOL     OW 8410   4.121   5.177   3.523
 2504SOL    HW1 8411   4.159   5.269   3.537
 2504SOL    HW2 8412   4.023   5.185   3.505
 2505SOL     OW 8413   7.027   6.799   2.944
 2505SOL    HW1 8414   0.040   6.748   2.868
 2505SOL    HW2 8415   0.022   6.896   2.934
 2506SOL     OW 8416   6.523   3.713   6.408
 2506SOL    HW1 8417   6.580   3.642   6.368
 2506SOL    HW2 8418   6.579   3.795   6.423
 2507SOL     OW 8419   6.444   3.280   0.084
 2507SOL    HW1 8420   6.388   3.204   0.117
 2507SOL    HW2 8421   6.388   3.340   0.027
 2508SOL     OW 8422   3.163   1.438   3.406
 2508SOL    HW1 8423   3.143   1.494   3.325
 2508SOL    HW2 8424   3.077   1.412   3.450
 2509SOL     OW 8425   0.298   4.124   0.868
 2509SOL    HW1 8426   0.222   4.061   0.883
 2509SOL    HW2 8427   0.334   4.111   0.775
 2510SOL     OW 8428   2.902   5.292   1.172
 2510SOL    HW1 8429   2.908   5.237   1.256
 2510SOL    HW2 8430   2.849   5.374   1.190
 2511SOL     OW 8431   3.613   1.909   3.974
 2511SOL    HW1 8432   3.660   1.850   4.040
 2511SOL    HW2 8433   3.545   1.856   3.924
 2512SOL     OW 8434   4.528   3.664   5.615
 2512SOL    HW1 8435   4.595   3.655   5.689
 2512SOL    HW2 8436   4.574   3.697   5.532
 2513SOL     OW 8437   1.922   4.213   5.050
 2513SOL    HW1 8438   1.981   4.188   5.128
 2513SOL    HW2 8439   1.974   4.271   4.987
 2514SOL     OW 8440   0.509   3.847   4.991
 2514SOL    HW1 8441   0.425   3.793   4.981
 2514SOL    HW2 8442   0.559   3.816   5.072
 2515SOL     OW 8443   1.171   6.774   0.647
 2515SOL    HW1 8444   1.269   6.754   0.652
 2515SOL    HW2 8445   1.138   6.799   0.738
 2516SOL     OW 8446   5.597   1.780   2.606
 2516SOL    HW1 8447   5.684   1.770   2.559
 2516SOL    HW2 8448   5.553   1.691   2.616
 2517SOL     OW 8449   0.575   6.850   6.080
 2517SOL    HW1 8450   0.574   6.753   6.057
 2517SOL    HW2 8451   0.619   6.901   6.007
 2518SOL     OW 8452   1.812   5.023   0.395
 2518SOL    HW1 8453   1.763   4.941   0.365
 2518SOL    HW2 8454   1.812   5.090   0.320
 2519SOL     OW 8455   3.785   6.220   1.977
 2519SOL    HW1 8456   3.839   6.199   1.896
 2519SOL    HW2 8457   3.691   6.242   1.950
 2520SOL     OW 8458   3.212   1.699   0.739
 2520SOL    HW1 8459   3.243   1.746   0.657
 2520SOL    HW2 8460   3.146   1.628   0.714
 2521SOL     OW 8461   2.791   0.709   5.215
 2521SOL    HW1 8462   2.878   0.747   5.247
 2521SOL    HW2 8463   2.717   0.748   5.269
 2522SOL     OW 8464   0.948   2.403   5.397
 2522SOL    HW1 8465   1.034   2.369   5.435
 2522SOL    HW2 8466   0.925   2.491   5.438
 2523SOL     OW 8467   0.521   2.849   1.249
 2523SOL    HW1 8468   0.519   2.903   1.164
 2523SOL    HW2 8469   0.577   2.767   1.235
 2524SOL     OW 8470   0.829   6.383   4.676
 2524SOL    HW1 8471   0.885   6.379   4.759
 2524SOL    HW2 8472   0.732   6.381   4.701
 2525SOL     OW 8473   1.222   2.518   5.505
 2525SOL    HW1 8474   1.273   2.434   5.522
 2525SOL    HW2 8475   1.282   2.585   5.460
 2526SOL     OW 8476   1.376   5.030   6.207
 2526SOL    HW1 8477   1.470   5.021   6.176
 2526SOL    HW2 8478   1.340   5.119   6.178
 2527SOL     OW 8479   5.213   6.154   5.711
 2527SOL    HW1 8480   5.269   6.123   5.788
 2527SOL    HW2 8481   5.228   6.094   5.633
 2528SOL     OW 8482   6.333   4.766   0.033
 2528SOL    HW1 8483   6.237   4.788   0.015
 2528SOL    HW2 8484   6.386   4.777   6.977
 2529SOL     OW 8485   6.586   6.076   6.428
 2529SOL    HW1 8486   6.553   6.076   6.333
 2529SOL    HW2 8487   6.513   6.041   6.487
 2530SOL     OW 8488   2.866   6.289   5.097
 2530SOL    HW1 8489   2.825   6.366   5.146
 2530SOL    HW2 8490   2.940   6.250   5.152
 2531SOL     OW 8491   5.230   5.845   4.857
 2531SOL    HW1 8492   5.307   5.816   4.913
 2531SOL    HW2 8493   5.261   5.913   4.790
 2532SOL     OW 8494   0.465   5.876   0.759
 2532SOL    HW1 8495   0.409   5.800   0.792
 2532SOL    HW2 8496   0.434   5.961   0.801
 2533SOL     OW 8497   3.733   6.536   4.331
 2533SOL    HW1 8498   3.727   6.606   4.260
 2533SOL    HW2 8499   3.643   6.495   4.344
 2534SOL     OW 8500   3.653   0.979   2.285
 2534SOL    HW1 8501   3.627   1.050   2.219
 2534SOL    HW2 8502   3.599   0.897   2.267
 2535SOL     OW 8503   3.398   2.665   5.419
 2535SOL    HW1 8504   3.331   2.610   5.369
 2535SOL    HW2 8505   3.378   2.661   5.517
 2536SOL     OW 8506   1.156   1.664   5.042
 2536SOL    HW1 8507   1.195   1.639   4.953
 2536SOL    HW2 8508   1.122   1.582   5.088
 2537SOL     OW 8509   3.722   0.305   6.598
 2537SOL    HW1 8510   3.682   0.358   6.673
 2537SOL    HW2 8511   3.795   0.359   6.555
 2538SOL     OW 8512   0.767   4.409   3.088
 2538SOL    HW1 8513   0.679   4.415   3.136
 2538SOL    HW2 8514   0.825   4.486   3.115
 2539SOL     OW 8515   6.114   0.911   4.726
 2539SOL    HW1 8516   6.089   0.828   4.677
 2539SOL    HW2 8517   6.170   0.888   4.805
 2540SOL     OW 8518   3.763   1.811   2.905
 2540SOL    HW1 8519   3.816   1.888   2.941
 2540SOL    HW2 8520   3.796   1.787   2.814
 2541SOL     OW 8521   2.521   0.556   5.227
 2541SOL    HW1 8522   2.429   0.579   5.197
 2541SOL    HW2 8523   2.588   0.613   5.179
 2542SOL     OW 8524   3.035   2.196   5.674
 2542SOL    HW1 8525   3.081   2.196   5.762
 2542SOL    HW2 8526   3.039   2.105   5.633
 2543SOL     OW 8527   1.410   0.765   3.025
 2543SOL    HW1 8528   1.310   0.770   3.032
 2543SOL    HW2 8529   1.437   0.674   2.993
 2544SOL     OW 8530   0.237   6.348   1.171
 2544SOL    HW1 8531   0.305   6.379   1.105
 2544SOL    HW2 8532   0.257   6.388   1.260
 2545SOL     OW 8533   1.203   6.966   2.624
 2545SOL    HW1 8534   1.162   6.889   2.672
 2545SOL    HW2 8535   1.135   7.007   2.563
 2546SOL     OW 8536   0.212   0.637   1.761
 2546SOL    HW1 8537   0.252   0.559   1.809
 2546SOL    HW2 8538   0.258   0.721   1.791
 2547SOL     OW 8539   6.615   4.701   0.463
 2547SOL    HW1 8540   6.581   4.725   0.554
 2547SOL    HW2 8541   6.690   4.635   0.473
 2548SOL     OW 8542   1.091   6.637   5.558
 2548SOL    HW1 8543   0.994   6.641   5.534
 2548SOL    HW2 8544   1.108   6.692   5.639
 2549SOL     OW 8545   1.876   0.227   0.979
 2549SOL    HW1 8546   1.915   0.301   1.033
 2549SOL    HW2 8547   1.867   0.257   0.884
 2550SOL     OW 8548   0.007   0.471   6.603
 2550SOL    HW1 8549   0.025   0.553   6.549
 2550SOL    HW2 8550   0.091   0.417   6.610
 2551SOL     OW 8551   2.838   5.296   0.720
 2551SOL    HW1 8552   2.795   5.319   0.633
 2551SOL    HW2 8553   2.934   5.273   0.705
 2552SOL     OW 8554   1.938   6.393   4.530
 2552SOL    HW1 8555   1.970   6.423   4.620
 2552SOL    HW2 8556   1.853   6.341   4.540
 2553SOL     OW 8557   4.990   3.350   5.745
 2553SOL    HW1 8558   4.946   3.313   5.827
 2553SOL    HW2 8559   4.927   3.414   5.700
 2554SOL     OW 8560   1.982   6.869   0.316
 2554SOL    HW1 8561   1.893   6.867   0.270
 2554SOL    HW2 8562   2.001   6.780   0.357
 2555SOL     OW 8563   5.452   0.039   4.951
 2555SOL    HW1 8564   5.375   0.054   4.889
 2555SOL    HW2 8565   5.497   0.126   4.969
 2556SOL     OW 8566   3.925   5.819   0.305
 2556SOL    HW1 8567   4.006   5.873   0.284
 2556SOL    HW2 8568   3.950   5.741   0.363
 2557SOL     OW 8569   2.211   4.651   6.725
 2557SOL    HW1 8570   2.156   4.676   6.645
 2557SOL    HW2 8571   2.247   4.733   6.768
 2558SOL     OW 8572   5.416   1.444   4.907
 2558SOL    HW1 8573   5.425   1.399   4.996
 2558SOL    HW2 8574   5.469   1.394   4.839
 2559SOL     OW 8575   0.532   4.204   4.979
 2559SOL    HW1 8576   0.593   4.269   4.933
 2559SOL    HW2 8577   0.587   4.139   5.031
 2560SOL     OW 8578   5.448   2.909   4.346
 2560SOL    HW1 8579   5.446   3.007   4.328
 2560SOL    HW2 8580   5.530   2.870   4.304
 2561SOL     OW 8581   3.036   6.139   5.233
 2561SOL    HW1 8582   2.987   6.051   5.232
 2561SOL    HW2 8583   3.126   6.126   5.191
 2562SOL     OW 8584   2.267   5.426   1.487
 2562SOL    HW1 8585   2.241   5.511   1.533
 2562SOL    HW2 8586   2.197   5.357   1.505
 2563SOL     OW 8587   3.772   2.060   0.429
 2563SOL    HW1 8588   3.808   2.010   0.350
 2563SOL    HW2 8589   3.733   2.147   0.399
 2564SOL     OW 8590   2.039   5.331   6.444
 2564SOL    HW1 8591   2.137   5.317   6.425
 2564SOL    HW2 8592   1.996   5.376   6.366
 2565SOL     OW 8593   1.142   0.264   0.349
 2565SOL    HW1 8594   1.066   0.257   0.285
 2565SOL    HW2 8595   1.228   0.269   0.298
 2566SOL     OW 8596   2.628   6.722   1.174
 2566SOL    HW1 8597   2.541   6.765   1.147
 2566SOL    HW2 8598   2.611   6.657   1.248
 2567SOL     OW 8599   0.987   0.873   0.988
 2567SOL    HW1 8600   0.914   0.805   1.001
 2567SOL    HW2 8601   0.950   0.951   0.938
 2568SOL     OW 8602   4.282   0.682   6.804
 2568SOL    HW1 8603   4.197   0.695   6.752
 2568SOL    HW2 8604   4.260   0.652   6.897
 2569SOL     OW 8605   2.993   1.414   1.928
 2569SOL    HW1 8606   3.027   1.419   2.021
 2569SOL    HW2 8607   3.007   1.502   1.882
 2570SOL     OW 8608   5.527   0.079   6.648
 2570SOL    HW1 8609   5.623   0.051   6.648
 2570SOL    HW2 8610   5.520   0.177   6.667
 2571SOL     OW 8611   2.438   4.530   4.915
 2571SOL    HW1 8612   2.415   4.439   4.881
 2571SOL    HW2 8613   2.424   4.597   4.842
 2572SOL     OW 8614   2.478   5.824   0.784
 2572SOL    HW1 8615   2.421   5.787   0.858
 2572SOL    HW2 8616   2.567   5.849   0.820
 2573SOL     OW 8617   0.032   1.992   1.464
 2573SOL    HW1 8618   0.102   2.038   1.518
 2573SOL    HW2 8619   7.013   1.924   1.522
 2574SOL     OW 8620   5.852   4.084   0.720
 2574SOL    HW1 8621   5.814   4.137   0.796
 2574SOL    HW2 8622   5.952   4.094   0.719
 2575SOL     OW 8623   5.307   5.443   0.683
 2575SOL    HW1 8624   5.335   5.348   0.668
 2575SOL    HW2 8625   5.237   5.447   0.754
 2576SOL     OW 8626   4.713   6.788   4.807
 2576SOL    HW1 8627   4.750   6.767   4.717
 2576SOL    HW2 8628   4.756   6.871   4.843
 2577SOL     OW 8629   4.316   6.586   2.039
 2577SOL    HW1 8630   4.364   6.611   2.124
 2577SOL    HW2 8631   4.274   6.667   1.999
 2578SOL     OW 8632   4.870   1.722   4.949
 2578SOL    HW1 8633   4.834   1.684   4.863
 2578SOL    HW2 8634   4.922   1.651   4.997
 2579SOL     OW 8635   1.852   6.606   3.077
 2579SOL    HW1 8636   1.791   6.530   3.056
 2579SOL    HW2 8637   1.928   6.606   3.012
 2580SOL     OW 8638   3.450   3.849   6.813
 2580SOL    HW1 8639   3.384   3.923   6.814
 2580SOL    HW2 8640   3.528   3.873   6.872
 2581SOL     OW 8641   1.831   5.122   1.821
 2581SOL    HW1 8642   1.741   5.163   1.837
 2581SOL    HW2 8643   1.825   5.023   1.831
 2582SOL     OW 8644   0.476   4.072   1.370
 2582SOL    HW1 8645   0.544   4.047   1.301
 2582SOL    HW2 8646   0.518   4.134   1.436
 2583SOL     OW 8647   1.364   1.613   6.422
 2583SOL    HW1 8648   1.376   1.712   6.433
 2583SOL    HW2 8649   1.354   1.591   6.325
 2584SOL     OW 8650   4.939   5.068   6.074
 2584SOL    HW1 8651   4.866   5.093   6.010
 2584SOL    HW2 8652   4.946   4.969   6.079
 2585SOL     OW 8653   4.039   3.492   0.487
 2585SOL    HW1 8654   4.035   3.484   0.586
 2585SOL    HW2 8655   4.023   3.587   0.460
 2586SOL     OW 8656   3.660   0.842   4.414
 2586SOL    HW1 8657   3.574   0.793   4.396
 2586SOL    HW2 8658   3.645   0.910   4.485
 2587SOL     OW 8659   6.480   0.565   3.159
 2587SOL    HW1 8660   6.549   0.630   3.128
 2587SOL    HW2 8661   6.511   0.472   3.141
 2588SOL     OW 8662   5.053   1.852   6.668
 2588SOL    HW1 8663   5.109   1.929   6.700
 2588SOL    HW2 8664   5.077   1.831   6.573
 2589SOL     OW 8665   1.263   6.511   5.020
 2589SOL    HW1 8666   1.284   6.541   4.927
 2589SOL    HW2 8667   1.333   6.546   5.083
 2590SOL     OW 8668   3.507   4.672   0.017
 2590SOL    HW1 8669   3.577   4.610   7.012
 2590SOL    HW2 8670   3.533   4.766   7.023
 2591SOL     OW 8671   0.157   4.767   3.191
 2591SOL    HW1 8672   0.165   4.858   3.149
 2591SOL    HW2 8673   0.154   4.697   3.119
 2592SOL     OW 8674   3.046   5.850   0.239
 2592SOL    HW1 8675   3.102   5.881   0.162
 2592SOL    HW2 8676   2.962   5.808   0.205
 2593SOL     OW 8677   4.178   5.764   0.075
 2593SOL    HW1 8678   4.230   5.806   0.001
 2593SOL    HW2 8679   4.082   5.755   0.049
 2594SOL     OW 8680   1.889   4.375   6.256
 2594SOL    HW1 8681   1.840   4.318   6.190
 2594SOL    HW2 8682   1.875   4.339   6.349
 2595SOL     OW 8683   0.321   0.610   4.518
 2595SOL    HW1 8684   0.287   0.524   4.481
 2595SOL    HW2 8685   0.419   0.618   4.500
 2596SOL     OW 8686   3.168   2.296   1.763
 2596SOL    HW1 8687   3.240   2.365   1.763
 2596SOL    HW2 8688   3.084   2.336   1.800
 2597SOL     OW 8689   0.564   4.973   6.115
 2597SOL    HW1 8690   0.490   5.037   6.136
 2597SOL    HW2 8691   0.607   5.001   6.029
 2598SOL     OW 8692   6.601   1.618   2.710
 2598SOL    HW1 8693   6.650   1.540   2.747
 2598SOL    HW2 8694   6.587   1.606   2.611
 2599SOL     OW 8695   1.486   5.705   0.979
 2599SOL    HW1 8696   1.479   5.787   0.921
 2599SOL    HW2 8697   1.410   5.705   1.045
 2600SOL     OW 8698   5.571   2.666   4.580
 2600SOL    HW1 8699   5.555   2.586   4.523
 2600SOL    HW2 8700   5.514   2.742   4.548
 2601SOL     OW 8701   1.922   1.570   1.680
 2601SOL    HW1 8702   1.920   1.605   1.774
 2601SOL    HW2 8703   1.849   1.503   1.669
 2602SOL     OW 8704   1.096   4.846   4.993
 2602SOL    HW1 8705   1.109   4.769   5.055
 2602SOL    HW2 8706   0.998   4.861   4.979
 2603SOL     OW 8707   3.015   0.903   3.139
 2603SOL    HW1 8708   2.921   0.869   3.134
 2603SOL    HW2 8709   3.076   0.840   3.090
 2604SOL     OW 8710   4.965   2.293   2.708
 2604SOL    HW1 8711   4.903   2.347   2.765
 2604SOL    HW2 8712   4.948   2.314   2.611
 2605SOL     OW 8713   1.667   2.698   3.017
 2605SOL    HW1 8714   1.651   2.739   3.107
 2605SOL    HW2 8715   1.649   2.600   3.020
 2606SOL     OW 8716   5.565   4.643   1.442
 2606SOL    HW1 8717   5.602   4.561   1.399
 2606SOL    HW2 8718   5.638   4.690   1.493
 2607SOL     OW 8719   0.865   1.596   1.978
 2607SOL    HW1 8720   0.770   1.608   1.949
 2607SOL    HW2 8721   0.867   1.584   2.077
 2608SOL     OW 8722   3.929   5.753   0.885
 2608SOL    HW1 8723   4.014   5.797   0.858
 2608SOL    HW2 8724   3.877   5.815   0.944
 2609SOL     OW 8725   6.119   1.120   2.344
 2609SOL    HW1 8726   6.168   1.202   2.315
 2609SOL    HW2 8727   6.022   1.143   2.359
 2610SOL     OW 8728   0.759   4.237   4.686
 2610SOL    HW1 8729   0.692   4.233   4.612
 2610SOL    HW2 8730   0.849   4.258   4.649
 2611SOL     OW 8731   4.623   6.109   0.538
 2611SOL    HW1 8732   4.608   6.192   0.591
 2611SOL    HW2 8733   4.624   6.030   0.599
 2612SOL     OW 8734   6.018   6.460   4.581
 2612SOL    HW1 8735   5.951   6.406   4.632
 2612SOL    HW2 8736   6.096   6.402   4.557
 2613SOL     OW 8737   2.247   5.316   5.677
 2613SOL    HW1 8738   2.216   5.354   5.764
 2613SOL    HW2 8739   2.327   5.367   5.645
 2614SOL     OW 8740   6.956   2.381   0.192
 2614SOL    HW1 8741   6.991   2.290   0.169
 2614SOL    HW2 8742   6.926   2.427   0.108
 2615SOL     OW 8743   0.857   3.308   2.297
 2615SOL    HW1 8744   0.844   3.371   2.373
 2615SOL    HW2 8745   0.788   3.324   2.227
 2616SOL     OW 8746   2.599   2.447   6.127
 2616SOL    HW1 8747   2.602   2.537   6.172
 2616SOL    HW2 8748   2.577   2.377   6.195
 2617SOL     OW 8749   4.362   0.699   0.518
 2617SOL    HW1 8750   4.291   0.731   0.456
 2617SOL    HW2 8751   4.339   0.725   0.612
 2618SOL     OW 8752   6.891   0.360   3.913
 2618SOL    HW1 8753   6.915   0.265   3.933
 2618SOL    HW2 8754   6.883   0.410   3.999
 2619SOL     OW 8755   5.146   1.828   1.709
 2619SOL    HW1 8756   5.124   1.817   1.806
 2619SOL    HW2 8757   5.116   1.919   1.679
 2620SOL     OW 8758   6.818   6.799   3.374
 2620SOL    HW1 8759   6.870   6.764   3.296
 2620SOL    HW2 8760   6.882   6.830   3.445
 2621SOL     OW 8761   0.858   5.462   2.296
 2621SOL    HW1 8762   0.860   5.519   2.378
 2621SOL    HW2 8763   0.918   5.500   2.226
 2622SOL     OW 8764   2.421   3.789   6.097
 2622SOL    HW1 8765   2.369   3.746   6.023
 2622SOL    HW2 8766   2.382   3.879   6.116
 2623SOL     OW 8767   0.605   1.251   5.343
 2623SOL    HW1 8768   0.703   1.235   5.360
 2623SOL    HW2 8769   0.574   1.328   5.399
 2624SOL     OW 8770   0.401   2.045   5.355
 2624SOL    HW1 8771   0.431   1.990   5.433
 2624SOL    HW2 8772   0.363   2.131   5.387
 2625SOL     OW 8773   2.496   3.877   5.807
 2625SOL    HW1 8774   2.542   3.964   5.824
 2625SOL    HW2 8775   2.553   3.819   5.749
 2626SOL     OW 8776   6.658   0.434   6.177
 2626SOL    HW1 8777   6.598   0.488   6.118
 2626SOL    HW2 8778   6.639   0.456   6.273
 2627SOL     OW 8779   1.849   0.947   6.010
 2627SOL    HW1 8780   1.923   0.923   6.073
 2627SOL    HW2 8781   1.781   1.002   6.058
 2628SOL     OW 8782   2.057   3.894   5.362
 2628SOL    HW1 8783   2.032   3.798   5.348
 2628SOL    HW2 8784   2.126   3.901   5.434
 2629SOL     OW 8785   3.659   3.271   2.474
 2629SOL    HW1 8786   3.714   3.215   2.412
 2629SOL    HW2 8787   3.610   3.341   2.422
 2630SOL     OW 8788   3.623   1.195   2.572
 2630SOL    HW1 8789   3.674   1.114   2.544
 2630SOL    HW2 8790   3.590   1.243   2.490
 2631SOL     OW 8791   5.463   0.928   6.603
 2631SOL    HW1 8792   5.423   1.019   6.612
 2631SOL    HW2 8793   5.405   0.861   6.650
 2632SOL     OW 8794   5.864   3.276   0.433
 2632SOL    HW1 8795   5.895   3.210   0.501
 2632SOL    HW2 8796   5.773   3.249   0.400
 2633SOL     OW 8797   6.895   2.014   5.020
 2633SOL    HW1 8798   6.925   1.922   4.996
 2633SOL    HW2 8799   6.896   2.073   4.939
 2634SOL     OW 8800   0.486   5.686   3.554
 2634SOL    HW1 8801   0.442   5.616   3.610
 2634SOL    HW2 8802   0.584   5.684   3.569
 2635SOL     OW 8803   6.691   6.168   4.515
 2635SOL    HW1 8804   6.708   6.070   4.503
 2635SOL    HW2 8805   6.756   6.220   4.459
 2636SOL     OW 8806   3.732   0.788   6.890
 2636SOL    HW1 8807   3.759   0.859   6.824
 2636SOL    HW2 8808   3.667   0.726   6.847
 2637SOL     OW 8809   6.262   1.690   4.064
 2637SOL    HW1 8810   6.196   1.660   4.133
 2637SOL    HW2 8811   6.218   1.692   3.975
 2638SOL     OW 8812   0.023   6.756   4.466
 2638SOL    HW1 8813   0.116   6.722   4.451
 2638SOL    HW2 8814   6.993   6.680   4.496
 2639SOL     OW 8815   6.749   6.177   6.757
 2639SOL    HW1 8816   6.710   6.155   6.847
 2639SOL    HW2 8817   6.766   6.093   6.706
 2640SOL     OW 8818   6.876   6.674   5.147
 2640SOL    HW1 8819   6.859   6.760   5.196
 2640SOL    HW2 8820   6.799   6.612   5.161
 2641SOL     OW 8821   5.287   2.211   1.648
 2641SOL    HW1 8822   5.278   2.293   1.591
 2641SOL    HW2 8823   5.326   2.235   1.736
 2642SOL     OW 8824   6.257   0.349   4.011
 2642SOL    HW1 8825   6.255   0.439   4.053
 2642SOL    HW2 8826   6.350   0.312   4.014
 2643SOL     OW 8827   1.231   3.739   3.694
 2643SOL    HW1 8828   1.214   3.652   3.740
 2643SOL    HW2 8829   1.327   3.745   3.667
 2644SOL     OW 8830   4.668   5.074   5.178
 2644SOL    HW1 8831   4.669   5.173   5.190
 2644SOL    HW2 8832   4.738   5.033   5.236
 2645SOL     OW 8833   4.790   5.368   3.473
 2645SOL    HW1 8834   4.775   5.289   3.533
 2645SOL    HW2 8835   4.800   5.337   3.379
 2646SOL     OW 8836   0.238   2.460   6.979
 2646SOL    HW1 8837   0.176   2.536   6.998
 2646SOL    HW2 8838   0.296   2.444   0.031
 2647SOL     OW 8839   6.087   7.018   1.588
 2647SOL    HW1 8840   6.092   0.008   1.490
 2647SOL    HW2 8841   6.167   0.029   1.633
 2648SOL     OW 8842   6.994   6.466   4.536
 2648SOL    HW1 8843   0.065   6.467   4.553
 2648SOL    HW2 8844   6.946   6.492   4.620
 2649SOL     OW 8845   6.055   3.101   1.326
 2649SOL    HW1 8846   5.997   3.076   1.403
 2649SOL    HW2 8847   6.134   3.040   1.322
 2650SOL     OW 8848   2.158   5.581   4.319
 2650SOL    HW1 8849   2.089   5.651   4.335
 2650SOL    HW2 8850   2.225   5.583   4.393
 2651SOL     OW 8851   2.812   1.411   0.836
 2651SOL    HW1 8852   2.853   1.444   0.921
 2651SOL    HW2 8853   2.872   1.431   0.759
 2652SOL     OW 8854   4.839   3.255   5.957
 2652SOL    HW1 8855   4.846   3.240   6.056
 2652SOL    HW2 8856   4.748   3.231   5.926
 2653SOL     OW 8857   4.505   5.980   5.907
 2653SOL    HW1 8858   4.487   6.069   5.950
 2653SOL    HW2 8859   4.601   5.975   5.881
 2654SOL     OW 8860   4.778   6.241   1.320
 2654SOL    HW1 8861   4.710   6.312   1.305
 2654SOL    HW2 8862   4.849   6.247   1.249
 2655SOL     OW 8863   4.834   5.626   3.549
 2655SOL    HW1 8864   4.822   5.540   3.500
 2655SOL    HW2 8865   4.838   5.608   3.647
 2656SOL     OW 8866   3.491   5.710   4.499
 2656SOL    HW1 8867   3.500   5.734   4.402
 2656SOL    HW2 8868   3.420   5.641   4.510
 2657SOL     OW 8869   1.812   3.438   0.485
 2657SOL    HW1 8870   1.813   3.537   0.491
 2657SOL    HW2 8871   1.903   3.404   0.464
 2658SOL     OW 8872   4.690   4.796   0.262
 2658SOL    HW1 8873   4.782   4.766   0.237
 2658SOL    HW2 8874   4.690   4.895   0.278
 2659SOL     OW 8875   4.667   3.205   5.528
 2659SOL    HW1 8876   4.636   3.242   5.440
 2659SOL    HW2 8877   4.753   3.157   5.515
 2660SOL     OW 8878   0.589   0.892   1.556
 2660SOL    HW1 8879   0.607   0.793   1.559
 2660SOL    HW2 8880   0.611   0.932   1.644
 2661SOL     OW 8881   1.863   6.714   1.754
 2661SOL    HW1 8882   1.809   6.660   1.690
 2661SOL    HW2 8883   1.887   6.801   1.713
 2662SOL     OW 8884   2.931   0.055   3.649
 2662SOL    HW1 8885   2.837   0.074   3.622
 2662SOL    HW2 8886   2.983   0.140   3.655
 2663SOL     OW 8887   4.513   5.097   6.582
 2663SOL    HW1 8888   4.598   5.045   6.586
 2663SOL    HW2 8889   4.531   5.188   6.546
 2664SOL     OW 8890   4.111   3.127   5.472
 2664SOL    HW1 8891   4.110   3.131   5.572
 2664SOL    HW2 8892   4.040   3.187   5.435
 2665SOL     OW 8893   2.543   3.524   5.402
 2665SOL    HW1 8894   2.452   3.546   5.367
 2665SOL    HW2 8895   2.598   3.607   5.407
 2666SOL     OW 8896   1.678   4.514   1.816
 2666SOL    HW1 8897   1.672   4.445   1.744
 2666SOL    HW2 8898   1.634   4.480   1.899
 2667SOL     OW 8899   1.007   5.431   3.971
 2667SOL    HW1 8900   0.945   5.412   4.047
 2667SOL    HW2 8901   1.094   5.384   3.986
 2668SOL     OW 8902   6.035   2.821   4.630
 2668SOL    HW1 8903   5.961   2.757   4.652
 2668SOL    HW2 8904   6.080   2.850   4.715
 2669SOL     OW 8905   3.215   5.541   6.781
 2669SOL    HW1 8906   3.267   5.596   6.847
 2669SOL    HW2 8907   3.221   5.445   6.807
 2670SOL     OW 8908   5.790   2.703   4.722
 2670SOL    HW1 8909   5.805   2.616   4.770
 2670SOL    HW2 8910   5.700   2.701   4.678
 2671SOL     OW 8911   4.910   5.466   6.306
 2671SOL    HW1 8912   4.894   5.400   6.233
 2671SOL    HW2 8913   4.827   5.476   6.361
 2672SOL     OW 8914   3.293   6.497   1.599
 2672SOL    HW1 8915   3.236   6.577   1.616
 2672SOL    HW2 8916   3.334   6.504   1.508
 2673SOL     OW 8917   5.744   1.845   1.954
 2673SOL    HW1 8918   5.812   1.914   1.932
 2673SOL    HW2 8919   5.723   1.847   2.051
 2674SOL     OW 8920   1.360   5.031   3.983
 2674SOL    HW1 8921   1.442   5.054   4.036
 2674SOL    HW2 8922   1.295   5.106   3.988
 2675SOL     OW 8923   6.868   6.608   4.308
 2675SOL    HW1 8924   6.938   6.554   4.355
 2675SOL    HW2 8925   6.855   6.695   4.356
 2676SOL     OW 8926   3.487   3.496   2.359
 2676SOL    HW1 8927   3.424   3.573   2.362
 2676SOL    HW2 8928   3.437   3.410   2.369
 2677SOL     OW 8929   2.612   5.030   1.415
 2677SOL    HW1 8930   2.610   4.950   1.475
 2677SOL    HW2 8931   2.701   5.035   1.369
 2678SOL     OW 8932   7.023   2.138   1.777
 2678SOL    HW1 8933   7.020   2.103   1.870
 2678SOL    HW2 8934   0.045   2.224   1.775
 2679SOL     OW 8935   1.862   4.899   2.567
 2679SOL    HW1 8936   1.897   4.881   2.475
 2679SOL    HW2 8937   1.803   4.980   2.565
 2680SOL     OW 8938   1.302   2.342   6.805
 2680SOL    HW1 8939   1.313   2.271   6.734
 2680SOL    HW2 8940   1.265   2.425   6.763
 2681SOL     OW 8941   1.209   2.775   4.906
 2681SOL    HW1 8942   1.306   2.775   4.927
 2681SOL    HW2 8943   1.156   2.777   4.991
 2682SOL     OW 8944   4.949   3.816   3.066
 2682SOL    HW1 8945   4.882   3.811   3.140
 2682SOL    HW2 8946   5.026   3.755   3.086
 2683SOL     OW 8947   2.236   4.910   2.345
 2683SOL    HW1 8948   2.326   4.868   2.344
 2683SOL    HW2 8949   2.222   4.957   2.433
 2684SOL     OW 8950   4.787   0.083   1.658
 2684SOL    HW1 8951   4.801   0.177   1.626
 2684SOL    HW2 8952   4.792   0.020   1.580
 2685SOL     OW 8953   6.175   5.057   5.473
 2685SOL    HW1 8954   6.112   5.105   5.413
 2685SOL    HW2 8955   6.139   5.055   5.566
 2686SOL     OW 8956   1.112   1.803   5.468
 2686SOL    HW1 8957   1.197   1.835   5.425
 2686SOL    HW2 8958   1.090   1.711   5.433
 2687SOL     OW 8959   3.431   5.877   0.415
 2687SOL    HW1 8960   3.467   5.830   0.496
 2687SOL    HW2 8961   3.381   5.959   0.443
 2688SOL     OW 8962   2.658   2.070   0.613
 2688SOL    HW1 8963   2.736   2.064   0.675
 2688SOL    HW2 8964   2.668   2.002   0.540
 2689SOL     OW 8965   0.127   4.113   2.513
 2689SOL    HW1 8966   0.211   4.073   2.476
 2689SOL    HW2 8967   0.068   4.142   2.438
 2690SOL     OW 8968   3.076   3.508   6.959
 2690SOL    HW1 8969   3.059   3.432   6.897
 2690SOL    HW2 8970   3.171   3.539   6.950
 2691SOL     OW 8971   0.127   4.670   3.932
 2691SOL    HW1 8972   0.198   4.649   3.865
 2691SOL    HW2 8973   0.049   4.608   3.919
 2692SOL     OW 8974   2.538   6.972   2.879
 2692SOL    HW1 8975   2.464   6.930   2.827
 2692SOL    HW2 8976   2.504   7.001   2.969
 2693SOL     OW 8977   2.220   4.722   4.102
 2693SOL    HW1 8978   2.176   4.739   4.014
 2693SOL    HW2 8979   2.230   4.624   4.116
 2694SOL     OW 8980   4.053   6.648   3.368
 2694SOL    HW1 8981   4.040   6.712   3.444
 2694SOL    HW2 8982   4.083   6.559   3.404
 2695SOL     OW 8983   5.610   0.154   2.793
 2695SOL    HW1 8984   5.515   0.185   2.782
 2695SOL    HW2 8985   5.644   0.184   2.882
 2696SOL     OW 8986   4.724   3.975   5.462
 2696SOL    HW1 8987   4.642   4.004   5.512
 2696SOL    HW2 8988   4.720   3.876   5.448
 2697SOL     OW 8989   4.324   1.715   2.707
 2697SOL    HW1 8990   4.253   1.754   2.649
 2697SOL    HW2 8991   4.413   1.729   2.663
 2698SOL     OW 8992   1.758   4.930   6.776
 2698SOL    HW1 8993   1.703   4.887   6.704
 2698SOL    HW2 8994   1.788   5.020   6.746
 2699SOL     OW 8995   2.963   6.172   1.160
 2699SOL    HW1 8996   2.976   6.126   1.248
 2699SOL    HW2 8997   3.010   6.121   1.088
 2700SOL     OW 8998   2.656   1.379   1.211
 2700SOL    HW1 8999   2.651   1.456   1.274
 2700SOL    HW2 9000   2.752   1.356   1.195
 2701SOL     OW 9001   5.380   2.126   5.642
 2701SOL    HW1 9002   5.358   2.076   5.558
 2701SOL    HW2 9003   5.296   2.159   5.684
 2702SOL     OW 9004   1.103   2.162   2.875
 2702SOL    HW1 9005   1.073   2.146   2.969
 2702SOL    HW2 9006   1.081   2.082   2.819
 2703SOL     OW 9007   1.393   5.876   1.744
 2703SOL    HW1 9008   1.360   5.784   1.766
 2703SOL    HW2 9009   1.343   5.944   1.798
 2704SOL     OW 9010   6.672   5.665   2.003
 2704SOL    HW1 9011   6.634   5.742   2.055
 2704SOL    HW2 9012   6.750   5.627   2.053
 2705SOL     OW 9013   6.654   0.523   4.997
 2705SOL    HW1 9014   6.733   0.544   4.940
 2705SOL    HW2 9015   6.684   0.513   5.092
 2706SOL     OW 9016   6.518   4.436   3.847
 2706SOL    HW1 9017   6.510   4.529   3.813
 2706SOL    HW2 9018   6.477   4.372   3.782
 2707SOL     OW 9019   4.365   0.107   4.131
 2707SOL    HW1 9020   4.299   0.054   4.079
 2707SOL    HW2 9021   4.383   0.193   4.083
 2708SOL     OW 9022   6.511   2.927   1.103
 2708SOL    HW1 9023   6.451   2.954   1.028
 2708SOL    HW2 9024   6.528   2.828   1.097
 2709SOL     OW 9025   4.988   0.177   6.455
 2709SOL    HW1 9026   5.065   0.148   6.512
 2709SOL    HW2 9027   4.903   0.163   6.504
 2710SOL     OW 9028   1.712   2.604   3.923
 2710SOL    HW1 9029   1.687   2.646   4.011
 2710SOL    HW2 9030   1.695   2.506   3.927
 2711SOL     OW 9031   3.305   0.881   3.374
 2711SOL    HW1 9032   3.260   0.812   3.317
 2711SOL    HW2 9033   3.312   0.967   3.323
 2712SOL     OW 9034   2.444   5.577   2.462
 2712SOL    HW1 9035   2.452   5.675   2.476
 2712SOL    HW2 9036   2.535   5.535   2.462
 2713SOL     OW 9037   4.059   4.022   6.643
 2713SOL    HW1 9038   3.996   3.993   6.571
 2713SOL    HW2 9039   4.125   3.949   6.661
 2714SOL     OW 9040   3.784   3.503   0.109
 2714SOL    HW1 9041   3.776   3.414   0.064
 2714SOL    HW2 9042   3.698   3.526   0.155
 2715SOL     OW 9043   5.691   2.269   1.094
 2715SOL    HW1 9044   5.653   2.317   1.015
 2715SOL    HW2 9045   5.725   2.179   1.065
 2716SOL     OW 9046   5.110   3.036   3.695
 2716SOL    HW1 9047   5.189   3.073   3.645
 2716SOL    HW2 9048   5.136   2.950   3.738
 2717SOL     OW 9049   1.120   6.833   1.850
 2717SOL    HW1 9050   1.166   6.916   1.883
 2717SOL    HW2 9051   1.091   6.778   1.928
 2718SOL     OW 9052   0.262   1.296   5.296
 2718SOL    HW1 9053   0.284   1.392   5.281
 2718SOL    HW2 9054   0.342   1.240   5.275
 2719SOL     OW 9055   1.335   4.245   1.555
 2719SOL    HW1 9056   1.299   4.316   1.616
 2719SOL    HW2 9057   1.274   4.234   1.477
 2720SOL     OW 9058   1.021   0.375   3.190
 2720SOL    HW1 9059   0.977   0.328   3.113
 2720SOL    HW2 9060   0.998   0.472   3.187
 2721SOL     OW 9061   3.267   6.761   3.041
 2721SOL    HW1 9062   3.247   6.811   2.957
 2721SOL    HW2 9063   3.291   6.666   3.018
 2722SOL     OW 9064   4.902   5.290   6.605
 2722SOL    HW1 9065   4.827   5.276   6.541
 2722SOL    HW2 9066   4.966   5.214   6.599
 2723SOL     OW 9067   2.050   6.250   6.761
 2723SOL    HW1 9068   2.007   6.159   6.762
 2723SOL    HW2 9069   2.107   6.259   6.679
 2724SOL     OW 9070   1.644   6.021   6.742
 2724SOL    HW1 9071   1.593   6.106   6.734
 2724SOL    HW2 9072   1.741   6.041   6.754
 2725SOL     OW 9073   5.491   3.948   4.672
 2725SOL    HW1 9074   5.447   3.861   4.651
 2725SOL    HW2 9075   5.579   3.953   4.624
 2726SOL     OW 9076   0.694   2.119   1.836
 2726SOL    HW1 9077   0.752   2.110   1.917
 2726SOL    HW2 9078   0.743   2.088   1.755
 2727SOL     OW 9079   1.424   3.732   4.228
 2727SOL    HW1 9080   1.488   3.747   4.303
 2727SOL    HW2 9081   1.427   3.636   4.199
 2728SOL     OW 9082   5.433   6.284   6.144
 2728SOL    HW1 9083   5.505   6.217   6.162
 2728SOL    HW2 9084   5.451   6.367   6.196
 2729SOL     OW 9085   6.824   6.628   0.296
 2729SOL    HW1 9086   6.914   6.592   0.271
 2729SOL    HW2 9087   6.757   6.601   0.226
 2730SOL     OW 9088   1.053   6.202   2.155
 2730SOL    HW1 9089   0.960   6.192   2.118
 2730SOL    HW2 9090   1.118   6.162   2.092
 2731SOL     OW 9091   3.331   3.816   3.254
 2731SOL    HW1 9092   3.324   3.852   3.347
 2731SOL    HW2 9093   3.282   3.729   3.247
 2732SOL     OW 9094   6.116   2.256   1.084
 2732SOL    HW1 9095   6.051   2.212   1.145
 2732SOL    HW2 9096   6.169   2.187   1.036
 2733SOL     OW 9097   0.040   1.405   5.094
 2733SOL    HW1 9098   7.005   1.328   5.101
 2733SOL    HW2 9099   0.049   1.448   5.184
 2734SOL     OW 9100   3.726   5.770   1.460
 2734SOL    HW1 9101   3.766   5.698   1.404
 2734SOL    HW2 9102   3.653   5.733   1.516
 2735SOL     OW 9103   1.190   1.999   1.424
 2735SOL    HW1 9104   1.178   2.095   1.397
 2735SOL    HW2 9105   1.189   1.993   1.523
 2736SOL     OW 9106   6.137   6.414   4.848
 2736SOL    HW1 9107   6.073   6.430   4.773
 2736SOL    HW2 9108   6.208   6.349   4.819
 2737SOL     OW 9109   2.788   3.384   6.284
 2737SOL    HW1 9110   2.787   3.484   6.293
 2737SOL    HW2 9111   2.715   3.345   6.340
 2738SOL     OW 9112   6.024   6.148   2.330
 2738SOL    HW1 9113   5.978   6.149   2.241
 2738SOL    HW2 9114   5.984   6.218   2.389
 2739SOL     OW 9115   0.667   4.707   0.988
 2739SOL    HW1 9116   0.697   4.792   1.032
 2739SOL    HW2 9117   0.660   4.722   0.889
 2740SOL     OW 9118   6.709   5.096   1.571
 2740SOL    HW1 9119   6.716   5.087   1.670
 2740SOL    HW2 9120   6.730   5.008   1.528
 2741SOL     OW 9121   0.126   1.741   5.139
 2741SOL    HW1 9122   0.219   1.746   5.104
 2741SOL    HW2 9123   0.061   1.760   5.065
 2742SOL     OW 9124   1.951   5.182   1.022
 2742SOL    HW1 9125   1.868   5.238   1.026
 2742SOL    HW2 9126   2.030   5.240   1.041
 2743SOL     OW 9127   6.946   4.802   2.113
 2743SOL    HW1 9128   6.996   4.756   2.187
 2743SOL    HW2 9129   6.866   4.848   2.152
 2744SOL     OW 9130   4.019   3.028   1.793
 2744SOL    HW1 9131   3.986   3.103   1.735
 2744SOL    HW2 9132   4.048   2.952   1.735
 2745SOL     OW 9133   6.702   1.488   5.285
 2745SOL    HW1 9134   6.750   1.480   5.372
 2745SOL    HW2 9135   6.683   1.396   5.249
 2746SOL     OW 9136   0.981   2.490   4.091
 2746SOL    HW1 9137   0.922   2.559   4.133
 2746SOL    HW2 9138   1.027   2.437   4.162
 2747SOL     OW 9139   4.735   5.600   6.866
 2747SOL    HW1 9140   4.803   5.583   6.937
 2747SOL    HW2 9141   4.770   5.669   6.802
 2748SOL     OW 9142   4.432   0.862   1.734
 2748SOL    HW1 9143   4.530   0.858   1.716
 2748SOL    HW2 9144   4.408   0.954   1.766
 2749SOL     OW 9145   0.344   4.548   1.490
 2749SOL    HW1 9146   0.294   4.484   1.548
 2749SOL    HW2 9147   0.430   4.572   1.533
 2750SOL     OW 9148   2.413   4.460   2.253
 2750SOL    HW1 9149   2.413   4.544   2.199
 2750SOL    HW2 9150   2.452   4.479   2.343
 2751SOL     OW 9151   1.171   2.263   1.372
 2751SOL    HW1 9152   1.142   2.331   1.305
 2751SOL    HW2 9153   1.250   2.299   1.424
 2752SOL     OW 9154   3.265   4.303   6.062
 2752SOL    HW1 9155   3.299   4.266   6.149
 2752SOL    HW2 9156   3.330   4.369   6.026
 2753SOL     OW 9157   0.030   6.026   5.148
 2753SOL    HW1 9158   6.993   5.955   5.175
 2753SOL    HW2 9159   0.038   6.028   5.048
 2754SOL     OW 9160   0.198   6.981   6.843
 2754SOL    HW1 9161   0.121   6.930   6.805
 2754SOL    HW2 9162   0.166   0.006   6.922
 2755SOL     OW 9163   3.860   0.103   3.091
 2755SOL    HW1 9164   3.762   0.105   3.067
 2755SOL    HW2 9165   3.878   0.171   3.162
 2756SOL     OW 9166   4.137   6.037   0.219
 2756SOL    HW1 9167   4.147   6.015   0.122
 2756SOL    HW2 9168   4.225   6.027   0.265
 2757SOL     OW 9169   2.406   6.825   1.072
 2757SOL    HW1 9170   2.376   6.903   1.019
 2757SOL    HW2 9171   2.354   6.744   1.046
 2758SOL     OW 9172   4.510   0.183   4.354
 2758SOL    HW1 9173   4.448   0.170   4.276
 2758SOL    HW2 9174   4.578   0.111   4.355
 2759SOL     OW 9175   5.625   6.821   5.357
 2759SOL    HW1 9176   5.683   6.857   5.284
 2759SOL    HW2 9177   5.529   6.837   5.334
 2760SOL     OW 9178   0.837   5.592   1.486
 2760SOL    HW1 9179   0.814   5.577   1.582
 2760SOL    HW2 9180   0.915   5.535   1.461
 2761SOL     OW 9181   2.192   4.766   4.381
 2761SOL    HW1 9182   2.272   4.814   4.418
 2761SOL    HW2 9183   2.196   4.766   4.281
 2762SOL     OW 9184   1.170   0.972   5.132
 2762SOL    HW1 9185   1.175   1.047   5.066
 2762SOL    HW2 9186   1.258   0.924   5.135
 2763SOL     OW 9187   5.513   1.214   3.584
 2763SOL    HW1 9188   5.544   1.141   3.645
 2763SOL    HW2 9189   5.460   1.174   3.509
 2764SOL     OW 9190   6.533   0.322   1.342
 2764SOL    HW1 9191   6.448   0.285   1.378
 2764SOL    HW2 9192   6.587   0.249   1.300
 2765SOL     OW 9193   5.366   0.109   0.710
 2765SOL    HW1 9194   5.454   0.072   0.681
 2765SOL    HW2 9195   5.325   0.047   0.778
 2766SOL     OW 9196   5.092   2.700   0.664
 2766SOL    HW1 9197   5.099   2.723   0.762
 2766SOL    HW2 9198   5.085   2.785   0.611
 2767SOL     OW 9199   6.552   4.785   6.844
 2767SOL    HW1 9200   6.557   4.745   6.752
 2767SOL    HW2 9201   6.592   4.721   6.910
 2768SOL     OW 9202   5.156   0.828   0.160
 2768SOL    HW1 9203   5.252   0.804   0.172
 2768SOL    HW2 9204   5.141   0.864   0.068
 2769SOL     OW 9205   0.335   4.122   3.911
 2769SOL    HW1 9206   0.315   4.030   3.878
 2769SOL    HW2 9207   0.425   4.151   3.876
 2770SOL     OW 9208   2.438   5.540   6.360
 2770SOL    HW1 9209   2.507   5.482   6.404
 2770SOL    HW2 9210   2.366   5.561   6.426
 2771SOL     OW 9211   6.231   0.956   2.167
 2771SOL    HW1 9212   6.312   0.909   2.202
 2771SOL    HW2 9213   6.191   1.013   2.239
 2772SOL     OW 9214   4.628   1.208   0.666
 2772SOL    HW1 9215   4.638   1.263   0.583
 2772SOL    HW2 9216   4.534   1.215   0.699
 2773SOL     OW 9217   5.708   2.630   5.284
 2773SOL    HW1 9218   5.642   2.681   5.229
 2773SOL    HW2 9219   5.791   2.685   5.297
 2774SOL     OW 9220   6.304   3.645   3.253
 2774SOL    HW1 9221   6.309   3.553   3.292
 2774SOL    HW2 9222   6.371   3.704   3.300
 2775SOL     OW 9223   0.048   5.159   6.567
 2775SOL    HW1 9224   0.033   5.113   6.655
 2775SOL    HW2 9225   0.052   5.090   6.494
 2776SOL     OW 9226   5.602   5.038   5.551
 2776SOL    HW1 9227   5.519   5.060   5.500
 2776SOL    HW2 9228   5.581   5.036   5.649
 2777SOL     OW 9229   2.716   1.053   1.783
 2777SOL    HW1 9230   2.794   1.011   1.738
 2777SOL    HW2 9231   2.703   1.010   1.873
 2778SOL     OW 9232   1.303   0.463   4.975
 2778SOL    HW1 9233   1.281   0.387   4.915
 2778SOL    HW2 9234   1.358   0.431   5.052
 2779SOL     OW 9235   5.058   6.742   0.941
 2779SOL    HW1 9236   5.130   6.693   0.891
 2779SOL    HW2 9237   5.033   6.691   1.023
 2780SOL     OW 9238   0.005   5.995   6.486
 2780SOL    HW1 9239   0.012   6.061   6.410
 2780SOL    HW2 9240   6.941   5.997   6.523
 2781SOL     OW 9241   6.016   5.502   1.373
 2781SOL    HW1 9242   5.960   5.585   1.366
 2781SOL    HW2 9243   6.102   5.514   1.324
 2782SOL     OW 9244   3.358   2.035   5.577
 2782SOL    HW1 9245   3.295   2.113   5.573
 2782SOL    HW2 9246   3.436   2.059   5.634
 2783SOL     OW 9247   5.884   3.156   4.590
 2783SOL    HW1 9248   5.897   3.097   4.510
 2783SOL    HW2 9249   5.935   3.118   4.668
 2784SOL     OW 9250   2.962   1.952   0.958
 2784SOL    HW1 9251   3.031   2.023   0.946
 2784SOL    HW2 9252   2.875   1.983   0.920
 2785SOL     OW 9253   5.944   1.724   0.637
 2785SOL    HW1 9254   6.005   1.759   0.708
 2785SOL    HW2 9255   5.866   1.786   0.627
 2786SOL     OW 9256   4.191   5.393   2.150
 2786SOL    HW1 9257   4.144   5.323   2.097
 2786SOL    HW2 9258   4.192   5.479   2.098
 2787SOL     OW 9259   2.985   2.667   0.054
 2787SOL    HW1 9260   3.058   2.610   0.016
 2787SOL    HW2 9261   2.958   2.631   0.144
 2788SOL     OW 9262   2.665   4.605   6.479
 2788SOL    HW1 9263   2.657   4.515   6.437
 2788SOL    HW2 9264   2.657   4.596   6.579
 2789SOL     OW 9265   2.173   2.712   3.106
 2789SOL    HW1 9266   2.258   2.763   3.093
 2789SOL    HW2 9267   2.194   2.615   3.116
 2790SOL     OW 9268   2.516   5.413   2.718
 2790SOL    HW1 9269   2.465   5.477   2.661
 2790SOL    HW2 9270   2.612   5.439   2.719
 2791SOL     OW 9271   1.075   4.117   4.105
 2791SOL    HW1 9272   1.165   4.072   4.110
 2791SOL    HW2 9273   1.088   4.214   4.085
 2792SOL     OW 9274   0.743   0.020   4.612
 2792SOL    HW1 9275   0.784   7.003   4.533
 2792SOL    HW2 9276   0.788   7.017   4.695
 2793SOL     OW 9277   4.859   3.268   3.019
 2793SOL    HW1 9278   4.947   3.316   3.013
 2793SOL    HW2 9279   4.868   3.190   3.081
 2794SOL     OW 9280   0.124   2.568   1.077
 2794SOL    HW1 9281   0.215   2.583   1.039
 2794SOL    HW2 9282   0.071   2.653   1.073
 2795SOL     OW 9283   2.021   2.786   0.392
 2795SOL    HW1 9284   2.036   2.883   0.413
 2795SOL    HW2 9285   1.979   2.741   0.471
 2796SOL     OW 9286   6.019   4.863   2.708
 2796SOL    HW1 9287   6.110   4.889   2.742
 2796SOL    HW2 9288   6.029   4.795   2.636
 2797SOL     OW 9289   4.500   5.171   4.418
 2797SOL    HW1 9290   4.572   5.149   4.484
 2797SOL    HW2 9291   4.413   5.179   4.466
 2798SOL     OW 9292   1.176   4.653   1.423
 2798SOL    HW1 9293   1.159   4.742   1.382
 2798SOL    HW2 9294   1.089   4.605   1.434
 2799SOL     OW 9295   0.146   6.690   0.095
 2799SOL    HW1 9296   0.234   6.645   0.080
 2799SOL    HW2 9297   0.161   6.782   0.130
 2800SOL     OW 9298   4.542   4.975   0.107
 2800SOL    HW1 9299   4.580   4.997   0.197
 2800SOL    HW2 9300   4.442   4.968   0.114
 2801SOL     OW 9301   5.044   5.449   5.008
 2801SOL    HW1 9302   5.051   5.537   5.054
 2801SOL    HW2 9303   5.058   5.375   5.074
 2802SOL     OW 9304   4.668   2.872   6.415
 2802SOL    HW1 9305   4.673   2.967   6.446
 2802SOL    HW2 9306   4.638   2.870   6.320
 2803SOL     OW 9307   3.531   5.992   6.235
 2803SOL    HW1 9308   3.524   6.041   6.322
 2803SOL    HW2 9309   3.474   5.909   6.239
 2804SOL     OW 9310   6.565   4.606   4.922
 2804SOL    HW1 9311   6.542   4.702   4.934
 2804SOL    HW2 9312   6.615   4.573   5.002
 2805SOL     OW 9313   5.039   2.823   2.179
 2805SOL    HW1 9314   4.946   2.788   2.190
 2805SOL    HW2 9315   5.063   2.879   2.258
 2806SOL     OW 9316   0.033   5.113   4.338
 2806SOL    HW1 9317   7.010   5.035   4.302
 2806SOL    HW2 9318   7.001   5.168   4.395
 2807SOL     OW 9319   5.832   5.199   3.664
 2807SOL    HW1 9320   5.769   5.236   3.597
 2807SOL    HW2 9321   5.918   5.250   3.661
 2808SOL     OW 9322   5.381   2.691   2.847
 2808SOL    HW1 9323   5.329   2.608   2.828
 2808SOL    HW2 9324   5.322   2.759   2.890
 2809SOL     OW 9325   5.812   2.714   1.931
 2809SOL    HW1 9326   5.790   2.635   1.874
 2809SOL    HW2 9327   5.817   2.796   1.874
 2810SOL     OW 9328   3.278   5.995   3.691
 2810SOL    HW1 9329   3.297   5.996   3.789
 2810SOL    HW2 9330   3.282   5.900   3.658
 2811SOL     OW 9331   0.711   1.067   3.381
 2811SOL    HW1 9332   0.677   0.974   3.398
 2811SOL    HW2 9333   0.706   1.120   3.466
 2812SOL     OW 9334   5.401   3.298   0.150
 2812SOL    HW1 9335   5.476   3.363   0.136
 2812SOL    HW2 9336   5.402   3.265   0.244
 2813SOL     OW 9337   6.666   0.316   5.770
 2813SOL    HW1 9338   6.739   0.329   5.703
 2813SOL    HW2 9339   6.625   0.226   5.758
 2814SOL     OW 9340   5.035   3.280   6.956
 2814SOL    HW1 9341   5.079   3.220   7.023
 2814SOL    HW2 9342   4.953   3.235   6.919
 2815SOL     OW 9343   6.563   1.144   5.470
 2815SOL    HW1 9344   6.488   1.207   5.495
 2815SOL    HW2 9345   6.605   1.109   5.554
 2816SOL     OW 9346   6.668   5.961   3.460
 2816SOL    HW1 9347   6.762   5.938   3.438
 2816SOL    HW2 9348   6.608   5.931   3.386
 2817SOL     OW 9349   2.760   6.980   1.118
 2817SOL    HW1 9350   2.713   6.895   1.140
 2817SOL    HW2 9351   2.779   0.003   1.202
 2818SOL     OW 9352   0.433   0.200   6.824
 2818SOL    HW1 9353   0.387   0.112   6.812
 2818SOL    HW2 9354   0.531   0.188   6.813
 2819SOL     OW 9355   0.429   1.110   1.334
 2819SOL    HW1 9356   0.515   1.069   1.305
 2819SOL    HW2 9357   0.404   1.184   1.272
 2820SOL     OW 9358   1.640   1.904   3.053
 2820SOL    HW1 9359   1.632   2.003   3.065
 2820SOL    HW2 9360   1.552   1.861   3.070
 2821SOL     OW 9361   4.245   3.293   0.396
 2821SOL    HW1 9362   4.166   3.355   0.405
 2821SOL    HW2 9363   4.224   3.224   0.327
 2822SOL     OW 9364   4.708   2.322   6.977
 2822SOL    HW1 9365   4.706   2.422   6.976
 2822SOL    HW2 9366   4.649   2.288   0.023
 2823SOL     OW 9367   3.545   6.234   0.686
 2823SOL    HW1 9368   3.638   6.231   0.723
 2823SOL    HW2 9369   3.528   6.151   0.633
 2824SOL     OW 9370   3.061   1.220   3.991
 2824SOL    HW1 9371   3.156   1.242   3.970
 2824SOL    HW2 9372   3.050   1.121   4.001
 2825SOL     OW 9373   6.426   0.321   6.770
 2825SOL    HW1 9374   6.380   0.369   6.695
 2825SOL    HW2 9375   6.519   0.299   6.744
 2826SOL     OW 9376   4.943   1.931   0.026
 2826SOL    HW1 9377   4.882   1.981   0.087
 2826SOL    HW2 9378   4.930   1.833   0.038
 2827SOL     OW 9379   6.184   0.754   5.352
 2827SOL    HW1 9380   6.159   0.836   5.302
 2827SOL    HW2 9381   6.273   0.766   5.396
 2828SOL     OW 9382   2.754   1.319   0.387
 2828SOL    HW1 9383   2.683   1.280   0.329
 2828SOL    HW2 9384   2.727   1.310   0.483
 2829SOL     OW 9385   3.524   3.889   6.101
 2829SOL    HW1 9386   3.613   3.847   6.088
 2829SOL    HW2 9387   3.516   3.970   6.042
 2830SOL     OW 9388   1.057   3.456   6.484
 2830SOL    HW1 9389   1.020   3.369   6.519
 2830SOL    HW2 9390   1.022   3.531   6.540
 2831SOL     OW 9391   0.489   6.071   3.553
 2831SOL    HW1 9392   0.541   6.106   3.631
 2831SOL    HW2 9393   0.420   6.005   3.585
 2832SOL     OW 9394   0.910   0.542   2.610
 2832SOL    HW1 9395   1.007   0.560   2.627
 2832SOL    HW2 9396   0.862   0.628   2.591
 2833SOL     OW 9397   4.659   2.505   2.476
 2833SOL    HW1 9398   4.623   2.495   2.569
 2833SOL    HW2 9399   4.681   2.601   2.458
 2834SOL     OW 9400   2.356   6.223   5.572
 2834SOL    HW1 9401   2.291   6.188   5.505
 2834SOL    HW2 9402   2.443   6.176   5.562
 2835SOL     OW 9403   6.785   0.642   2.035
 2835SOL    HW1 9404   6.879   0.610   2.030
 2835SOL    HW2 9405   6.785   0.742   2.048
 2836SOL     OW 9406   5.899   6.810   2.412
 2836SOL    HW1 9407   5.925   6.902   2.442
 2836SOL    HW2 9408   5.973   6.771   2.357
 2837SOL     OW 9409   5.309   4.186   3.508
 2837SOL    HW1 9410   5.378   4.166   3.438
 2837SOL    HW2 9411   5.252   4.263   3.477
 2838SOL     OW 9412   1.837   4.468   1.121
 2838SOL    HW1 9413   1.893   4.492   1.200
 2838SOL    HW2 9414   1.858   4.530   1.046
 2839SOL     OW 9415   5.966   1.811   1.661
 2839SOL    HW1 9416   5.997   1.725   1.622
 2839SOL    HW2 9417   5.952   1.800   1.760
 2840SOL     OW 9418   1.518   0.800   3.639
 2840SOL    HW1 9419   1.474   0.755   3.717
 2840SOL    HW2 9420   1.475   0.889   3.624
 2841SOL     OW 9421   0.621   1.002   6.336
 2841SOL    HW1 9422   0.649   1.069   6.404
 2841SOL    HW2 9423   0.702   0.957   6.298
 2842SOL     OW 9424   6.846   3.927   4.270
 2842SOL    HW1 9425   6.862   3.943   4.368
 2842SOL    HW2 9426   6.761   3.972   4.243
 2843SOL     OW 9427   2.822   1.318   2.625
 2843SOL    HW1 9428   2.871   1.277   2.549
 2843SOL    HW2 9429   2.749   1.376   2.590
 2844SOL     OW 9430   0.593   5.582   0.550
 2844SOL    HW1 9431   0.525   5.569   0.622
 2844SOL    HW2 9432   0.683   5.594   0.592
 2845SOL     OW 9433   0.353   2.561   0.974
 2845SOL    HW1 9434   0.372   2.615   0.892
 2845SOL    HW2 9435   0.413   2.481   0.976
 2846SOL     OW 9436   4.601   0.659   6.755
 2846SOL    HW1 9437   4.591   0.586   6.823
 2846SOL    HW2 9438   4.522   0.720   6.760
 2847SOL     OW 9439   5.329   3.503   3.433
 2847SOL    HW1 9440   5.424   3.529   3.413
 2847SOL    HW2 9441   5.325   3.405   3.451
 2848SOL     OW 9442   1.364   3.245   5.959
 2848SOL    HW1 9443   1.413   3.316   6.009
 2848SOL    HW2 9444   1.427   3.173   5.931
 2849SOL     OW 9445   3.321   6.882   0.577
 2849SOL    HW1 9446   3.403   6.897   0.633
 2849SOL    HW2 9447   3.308   6.960   0.517
 2850SOL     OW 9448   3.152   6.830   2.321
 2850SOL    HW1 9449   3.115   6.909   2.273
 2850SOL    HW2 9450   3.222   6.785   2.265
 2851SOL     OW 9451   0.270   2.559   5.644
 2851SOL    HW1 9452   0.171   2.555   5.635
 2851SOL    HW2 9453   0.309   2.603   5.563
 2852SOL     OW 9454   5.983   4.192   0.189
 2852SOL    HW1 9455   5.928   4.184   0.273
 2852SOL    HW2 9456   6.077   4.216   0.212
 2853SOL     OW 9457   1.830   2.664   0.199
 2853SOL    HW1 9458   1.884   2.704   0.273
 2853SOL    HW2 9459   1.862   2.701   0.112
 2854SOL     OW 9460   3.870   1.182   5.134
 2854SOL    HW1 9461   3.778   1.212   5.159
 2854SOL    HW2 9462   3.908   1.243   5.065
 2855SOL     OW 9463   3.050   0.695   6.477
 2855SOL    HW1 9464   3.000   0.664   6.558
 2855SOL    HW2 9465   3.037   0.794   6.466
 2856SOL     OW 9466   1.813   2.607   6.112
 2856SOL    HW1 9467   1.798   2.594   6.013
 2856SOL    HW2 9468   1.902   2.651   6.127
 2857SOL     OW 9469   3.322   1.796   2.357
 2857SOL    HW1 9470   3.325   1.868   2.288
 2857SOL    HW2 9471   3.306   1.708   2.311
 2858SOL     OW 9472   5.291   4.060   2.345
 2858SOL    HW1 9473   5.192   4.063   2.339
 2858SOL    HW2 9474   5.328   4.013   2.264
 2859SOL     OW 9475   5.177   2.032   0.144
 2859SOL    HW1 9476   5.106   1.994   0.085
 2859SOL    HW2 9477   5.240   2.087   0.089
 2860SOL     OW 9478   3.680   2.045   1.309
 2860SOL    HW1 9479   3.623   2.120   1.274
 2860SOL    HW2 9480   3.689   2.055   1.408
 2861SOL     OW 9481   4.195   4.376   6.076
 2861SOL    HW1 9482   4.195   4.348   6.172
 2861SOL    HW2 9483   4.287   4.365   6.038
 2862SOL     OW 9484   5.292   1.985   3.321
 2862SOL    HW1 9485   5.348   2.018   3.245
 2862SOL    HW2 9486   5.341   2.001   3.407
 2863SOL     OW 9487   4.613   1.783   6.811
 2863SOL    HW1 9488   4.592   1.691   6.847
 2863SOL    HW2 9489   4.541   1.846   6.838
 2864SOL     OW 9490   4.149   1.478   1.208
 2864SOL    HW1 9491   4.052   1.503   1.199
 2864SOL    HW2 9492   4.204   1.537   1.149
 2865SOL     OW 9493   5.452   4.202   5.752
 2865SOL    HW1 9494   5.491   4.289   5.783
 2865SOL    HW2 9495   5.352   4.207   5.754
 2866SOL     OW 9496   6.353   6.030   0.089
 2866SOL    HW1 9497   6.374   6.003   7.023
 2866SOL    HW2 9498   6.354   6.130   0.096
 2867SOL     OW 9499   5.775   3.667   2.521
 2867SOL    HW1 9500   5.754   3.592   2.585
 2867SOL    HW2 9501   5.870   3.658   2.490
 2868SOL     OW 9502   0.326   2.681   5.399
 2868SOL    HW1 9503   0.386   2.732   5.337
 2868SOL    HW2 9504   0.239   2.662   5.352
 2869SOL     OW 9505   6.501   0.966   3.670
 2869SOL    HW1 9506   6.600   0.957   3.665
 2869SOL    HW2 9507   6.474   0.985   3.765
 2870SOL     OW 9508   0.648   1.686   4.409
 2870SOL    HW1 9509   0.679   1.771   4.366
 2870SOL    HW2 9510   0.549   1.688   4.421
 2871SOL     OW 9511   0.594   2.183   0.225
 2871SOL    HW1 9512   0.682   2.159   0.265
 2871SOL    HW2 9513   0.530   2.108   0.239
 2872SOL     OW 9514   2.955   1.398   2.858
 2872SOL    HW1 9515   2.916   1.374   2.769
 2872SOL    HW2 9516   3.033   1.459   2.844
 2873SOL     OW 9517   6.835   4.978   2.734
 2873SOL    HW1 9518   6.867   4.883   2.726
 2873SOL    HW2 9519   6.739   4.979   2.760
 2874SOL     OW 9520   3.896   6.230   3.579
 2874SOL    HW1 9521   3.826   6.299   3.563
 2874SOL    HW2 9522   3.956   6.260   3.653
 2875SOL     OW 9523   4.943   6.722   0.597
 2875SOL    HW1 9524   4.900   6.775   0.670
 2875SOL    HW2 9525   4.885   6.643   0.574
 2876SOL     OW 9526   0.807   0.244   1.787
 2876SOL    HW1 9527   0.866   0.325   1.783
 2876SOL    HW2 9528   0.791   0.210   1.695
 2877SOL     OW 9529   3.588   2.941   5.427
 2877SOL    HW1 9530   3.638   2.918   5.343
 2877SOL    HW2 9531   3.518   2.872   5.444
 2878SOL     OW 9532   4.011   5.008   4.741
 2878SOL    HW1 9533   3.988   4.987   4.836
 2878SOL    HW2 9534   4.065   5.092   4.737
 2879SOL     OW 9535   5.070   4.361   0.963
 2879SOL    HW1 9536   4.989   4.335   1.015
 2879SOL    HW2 9537   5.137   4.402   1.023
 2880SOL     OW 9538   6.197   6.979   1.292
 2880SOL    HW1 9539   6.236   7.004   1.204
 2880SOL    HW2 9540   6.129   6.907   1.280
 2881SOL     OW 9541   5.204   6.459   0.329
 2881SOL    HW1 9542   5.255   6.423   0.251
 2881SOL    HW2 9543   5.145   6.388   0.366
 2882SOL     OW 9544   0.627   4.296   2.408
 2882SOL    HW1 9545   0.624   4.225   2.478
 2882SOL    HW2 9546   0.711   4.289   2.356
 2883SOL     OW 9547   5.669   6.765   3.410
 2883SOL    HW1 9548   5.724   6.819   3.473
 2883SOL    HW2 9549   5.673   6.668   3.436
 2884SOL     OW 9550   0.555   5.470   3.325
 2884SOL    HW1 9551   0.500   5.546   3.289
 2884SOL    HW2 9552   0.639   5.506   3.365
 2885SOL     OW 9553   1.007   3.179   2.719
 2885SOL    HW1 9554   1.040   3.116   2.648
 2885SOL    HW2 9555   1.043   3.151   2.808
 2886SOL     OW 9556   2.699   4.207   6.244
 2886SOL    HW1 9557   2.639   4.162   6.178
 2886SOL    HW2 9558   2.770   4.142   6.274
 2887SOL     OW 9559   1.694   6.949   4.182
 2887SOL    HW1 9560   1.639   6.866   4.191
 2887SOL    HW2 9561   1.633   7.028   4.169
 2888SOL     OW 9562   0.731   4.335   0.373
 2888SOL    HW1 9563   0.806   4.401   0.364
 2888SOL    HW2 9564   0.714   4.292   0.284
 2889SOL     OW 9565   2.123   6.534   2.509
 2889SOL    HW1 9566   2.163   6.454   2.553
 2889SOL    HW2 9567   2.097   6.512   2.415
 2890SOL     OW 9568   2.772   7.022   0.811
 2890SOL    HW1 9569   2.793   0.078   0.760
 2890SOL    HW2 9570   2.820   7.024   0.898
 2891SOL     OW 9571   2.134   3.969   3.564
 2891SOL    HW1 9572   2.046   3.933   3.535
 2891SOL    HW2 9573   2.181   4.009   3.485
 2892SOL     OW 9574   5.485   3.655   6.907
 2892SOL    HW1 9575   5.464   3.578   6.847
 2892SOL    HW2 9576   5.443   3.738   6.870
 2893SOL     OW 9577   0.184   6.618   4.891
 2893SOL    HW1 9578   0.159   6.705   4.850
 2893SOL    HW2 9579   0.212   6.632   4.986
 2894SOL     OW 9580   2.991   3.055   0.406
 2894SOL    HW1 9581   2.972   3.154   0.403
 2894SOL    HW2 9582   2.952   3.016   0.489
 2895SOL     OW 9583   4.275   3.058   6.537
 2895SOL    HW1 9584   4.252   3.026   6.445
 2895SOL    HW2 9585   4.309   2.982   6.592
 2896SOL     OW 9586   3.792   5.400   6.791
 2896SOL    HW1 9587   3.779   5.324   6.727
 2896SOL    HW2 9588   3.866   5.379   6.854
 2897SOL     OW 9589   3.529   5.280   3.397
 2897SOL    HW1 9590   3.434   5.253   3.380
 2897SOL    HW2 9591   3.531   5.354   3.464
 2898SOL     OW 9592   3.970   5.770   4.385
 2898SOL    HW1 9593   3.872   5.774   4.408
 2898SOL    HW2 9594   3.986   5.695   4.321
 2899SOL     OW 9595   0.861   1.714   0.175
 2899SOL    HW1 9596   0.859   1.627   0.223
 2899SOL    HW2 9597   0.906   1.783   0.232
 2900SOL     OW 9598   2.255   4.970   5.463
 2900SOL    HW1 9599   2.159   4.990   5.441
 2900SOL    HW2 9600   2.272   4.987   5.560
 2901SOL     OW 9601   2.162   6.973   3.288
 2901SOL    HW1 9602   2.110   7.006   3.368
 2901SOL    HW2 9603   2.199   6.882   3.308
 2902SOL     OW 9604   5.345   6.575   1.588
 2902SOL    HW1 9605   5.329   6.509   1.660
 2902SOL    HW2 9606   5.424   6.547   1.533
 2903SOL     OW 9607   3.077   0.716   0.564
 2903SOL    HW1 9608   2.991   0.704   0.613
 2903SOL    HW2 9609   3.123   0.800   0.594
 2904SOL     OW 9610   2.321   3.601   5.264
 2904SOL    HW1 9611   2.232   3.564   5.292
 2904SOL    HW2 9612   2.307   3.670   5.192
 2905SOL     OW 9613   1.591   2.446   3.489
 2905SOL    HW1 9614   1.571   2.504   3.410
 2905SOL    HW2 9615   1.661   2.379   3.464
 2906SOL     OW 9616   5.226   5.703   2.334
 2906SOL    HW1 9617   5.258   5.609   2.347
 2906SOL    HW2 9618   5.287   5.765   2.383
 2907SOL     OW 9619   0.715   1.428   4.264
 2907SOL    HW1 9620   0.721   1.527   4.266
 2907SOL    HW2 9621   0.719   1.393   4.358
 2908SOL     OW 9622   4.561   6.699   4.414
 2908SOL    HW1 9623   4.466   6.698   4.383
 2908SOL    HW2 9624   4.622   6.690   4.335
 2909SOL     OW 9625   0.337   6.407   3.865
 2909SOL    HW1 9626   0.273   6.415   3.789
 2909SOL    HW2 9627   0.386   6.494   3.876
 2910SOL     OW 9628   4.686   6.177   4.628
 2910SOL    HW1 9629   4.779   6.211   4.614
 2910SOL    HW2 9630   4.685   6.078   4.617
 2911SOL     OW 9631   1.620   5.405   3.620
 2911SOL    HW1 9632   1.533   5.360   3.599
 2911SOL    HW2 9633   1.613   5.502   3.596
 2912SOL     OW 9634   4.363   0.131   6.585
 2912SOL    HW1 9635   4.356   0.169   6.492
 2912SOL    HW2 9636   4.272   0.107   6.618
 2913SOL     OW 9637   2.019   4.571   2.663
 2913SOL    HW1 9638   2.031   4.522   2.577
 2913SOL    HW2 9639   1.932   4.545   2.705
 2914SOL     OW 9640   6.005   6.784   5.816
 2914SOL    HW1 9641   6.071   6.709   5.821
 2914SOL    HW2 9642   5.981   6.814   5.908
 2915SOL     OW 9643   5.384   1.330   5.173
 2915SOL    HW1 9644   5.467   1.277   5.189
 2915SOL    HW2 9645   5.323   1.322   5.252
 2916SOL     OW 9646   6.507   6.141   6.162
 2916SOL    HW1 9647   6.445   6.206   6.205
 2916SOL    HW2 9648   6.503   6.152   6.063
 2917SOL     OW 9649   4.422   6.672   2.293
 2917SOL    HW1 9650   4.439   6.684   2.391
 2917SOL    HW2 9651   4.426   6.761   2.248
 2918SOL     OW 9652   6.402   4.178   3.719
 2918SOL    HW1 9653   6.466   4.116   3.675
 2918SOL    HW2 9654   6.385   4.256   3.658
 2919SOL     OW 9655   6.818   0.923   1.002
 2919SOL    HW1 9656   6.800   0.836   1.049
 2919SOL    HW2 9657   6.860   0.905   0.913
 2920SOL     OW 9658   3.048   1.883   2.122
 2920SOL    HW1 9659   2.968   1.824   2.117
 2920SOL    HW2 9660   3.019   1.978   2.128
 2921SOL     OW 9661   0.859   0.415   2.943
 2921SOL    HW1 9662   0.781   0.426   2.882
 2921SOL    HW2 9663   0.937   0.378   2.891
 2922SOL     OW 9664   5.605   0.223   6.998
 2922SOL    HW1 9665   5.593   0.256   6.905
 2922SOL    HW2 9666   5.671   0.280   0.018
 2923SOL     OW 9667   0.161   4.858   1.716
 2923SOL    HW1 9668   0.240   4.805   1.745
 2923SOL    HW2 9669   0.118   4.812   1.637
 2924SOL     OW 9670   0.587   1.770   6.895
 2924SOL    HW1 9671   0.523   1.710   6.944
 2924SOL    HW2 9672   0.654   1.806   6.959
 2925SOL     OW 9673   4.849   1.127   3.708
 2925SOL    HW1 9674   4.863   1.109   3.611
 2925SOL    HW2 9675   4.817   1.221   3.721
 2926SOL     OW 9676   0.185   1.341   4.673
 2926SOL    HW1 9677   0.133   1.281   4.612
 2926SOL    HW2 9678   0.275   1.360   4.632
 2927SOL     OW 9679   1.430   1.496   2.398
 2927SOL    HW1 9680   1.489   1.571   2.426
 2927SOL    HW2 9681   1.423   1.430   2.473
 2928SOL     OW 9682   0.024   2.355   6.259
 2928SOL    HW1 9683   0.035   2.451   6.285
 2928SOL    HW2 9684   0.114   2.312   6.247
 2929SOL     OW 9685   0.388   0.690   6.506
 2929SOL    HW1 9686   0.318   0.752   6.540
 2929SOL    HW2 9687   0.373   0.672   6.409
 2930SOL     OW 9688   4.200   6.280   5.217
 2930SOL    HW1 9689   4.138   6.218   5.169
 2930SOL    HW2 9690   4.190   6.372   5.179
 2931SOL     OW 9691   5.627   5.381   0.035
 2931SOL    HW1 9692   5.603   5.320   0.110
 2931SOL    HW2 9693   5.701   5.341   7.010
 2932SOL     OW 9694   1.715   5.353   1.600
 2932SOL    HW1 9695   1.814   5.355   1.613
 2932SOL    HW2 9696   1.682   5.259   1.601
 2933SOL     OW 9697   5.960   3.921   3.435
 2933SOL    HW1 9698   6.017   3.980   3.377
 2933SOL    HW2 9699   5.877   3.969   3.461
 2934SOL     OW 9700   4.366   1.593   0.236
 2934SOL    HW1 9701   4.325   1.645   0.162
 2934SOL    HW2 9702   4.307   1.515   0.259
 2935SOL     OW 9703   6.376   3.414   1.858
 2935SOL    HW1 9704   6.373   3.514   1.867
 2935SOL    HW2 9705   6.470   3.386   1.836
 2936SOL     OW 9706   4.227   5.009   2.147
 2936SOL    HW1 9707   4.237   4.912   2.168
 2936SOL    HW2 9708   4.228   5.062   2.232
 2937SOL     OW 9709   4.033   4.999   0.219
 2937SOL    HW1 9710   3.986   5.008   0.306
 2937SOL    HW2 9711   4.060   5.090   0.186
 2938SOL     OW 9712   5.452   4.631   5.861
 2938SOL    HW1 9713   5.513   4.577   5.919
 2938SOL    HW2 9714   5.491   4.721   5.845
 2939SOL     OW 9715   0.518   0.311   4.419
 2939SOL    HW1 9716   0.419   0.305   4.433
 2939SOL    HW2 9717   0.541   0.400   4.379
 2940SOL     OW 9718   6.041   6.585   6.547
 2940SOL    HW1 9719   5.973   6.552   6.613
 2940SOL    HW2 9720   6.093   6.660   6.587
 2941SOL     OW 9721   2.492   2.565   4.137
 2941SOL    HW1 9722   2.518   2.541   4.043
 2941SOL    HW2 9723   2.571   2.556   4.197
 2942SOL     OW 9724   2.803   2.106   1.369
 2942SOL    HW1 9725   2.815   2.200   1.340
 2942SOL    HW2 9726   2.717   2.070   1.333
 2943SOL     OW 9727   5.822   4.006   2.811
 2943SOL    HW1 9728   5.907   3.984   2.764
 2943SOL    HW2 9729   5.801   3.935   2.878
 2944SOL     OW 9730   2.533   6.054   5.113
 2944SOL    HW1 9731   2.451   6.111   5.099
 2944SOL    HW2 9732   2.587   6.052   5.029
 2945SOL     OW 9733   3.521   4.040   4.009
 2945SOL    HW1 9734   3.486   4.049   4.102
 2945SOL    HW2 9735   3.452   4.073   3.944
 2946SOL     OW 9736   1.183   5.514   0.000
 2946SOL    HW1 9737   1.169   5.603   0.045
 2946SOL    HW2 9738   1.280   5.490   0.004
 2947SOL     OW 9739   0.807   4.044   6.490
 2947SOL    HW1 9740   0.824   4.048   6.588
 2947SOL    HW2 9741   0.876   4.099   6.442
 2948SOL     OW 9742   6.855   5.176   5.358
 2948SOL    HW1 9743   6.880   5.136   5.270
 2948SOL    HW2 9744   6.883   5.114   5.431
 2949SOL     OW 9745   2.614   5.970   1.303
 2949SOL    HW1 9746   2.549   5.975   1.379
 2949SOL    HW2 9747   2.614   6.057   1.253
 2950SOL     OW 9748   4.901   3.667   4.774
 2950SOL    HW1 9749   4.832   3.738   4.764
 2950SOL    HW2 9750   4.888   3.620   4.861
 2951SOL     OW 9751   6.558   2.470   1.386
 2951SOL    HW1 9752   6.505   2.416   1.450
 2951SOL    HW2 9753   6.576   2.415   1.304
 2952SOL     OW 9754   0.762   6.108   5.330
 2952SOL    HW1 9755   0.692   6.062   5.277
 2952SOL    HW2 9756   0.738   6.205   5.339
 2953SOL     OW 9757   4.902   3.098   3.242
 2953SOL    HW1 9758   5.000   3.109   3.254
 2953SOL    HW2 9759   4.860   3.076   3.330
 2954SOL     OW 9760   0.812   5.464   1.856
 2954SOL    HW1 9761   0.846   5.431   1.768
 2954SOL    HW2 9762   0.743   5.401   1.891
 2955SOL     OW 9763   1.080   3.905   1.424
 2955SOL    HW1 9764   1.144   3.853   1.480
 2955SOL    HW2 9765   1.119   3.994   1.401
 2956SOL     OW 9766   5.990   6.194   3.043
 2956SOL    HW1 9767   5.941   6.282   3.039
 2956SOL    HW2 9768   5.984   6.157   3.136
 2957SOL     OW 9769   6.440   3.305   2.103
 2957SOL    HW1 9770   6.457   3.380   2.167
 2957SOL    HW2 9771   6.396   3.341   2.021
 2958SOL     OW 9772   2.404   4.402   4.461
 2958SOL    HW1 9773   2.462   4.365   4.533
 2958SOL    HW2 9774   2.417   4.501   4.455
 2959SOL     OW 9775   4.400   4.648   0.627
 2959SOL    HW1 9776   4.476   4.613   0.571
 2959SOL    HW2 9777   4.322   4.587   0.618
 2960SOL     OW 9778   3.753   6.807   6.498
 2960SOL    HW1 9779   3.752   6.766   6.406
 2960SOL    HW2 9780   3.758   6.906   6.490
 2961SOL     OW 9781   4.986   2.563   4.406
 2961SOL    HW1 9782   5.037   2.513   4.476
 2961SOL    HW2 9783   5.003   2.522   4.317
 2962SOL     OW 9784   4.421   0.581   3.721
 2962SOL    HW1 9785   4.376   0.500   3.760
 2962SOL    HW2 9786   4.438   0.566   3.624
 2963SOL     OW 9787   2.121   1.260   5.929
 2963SOL    HW1 9788   2.134   1.162   5.943
 2963SOL    HW2 9789   2.153   1.309   6.011
 2964SOL     OW 9790   0.133   0.220   2.213
 2964SOL    HW1 9791   0.166   0.284   2.281
 2964SOL    HW2 9792   0.061   0.163   2.252
 2965SOL     OW 9793   0.060   1.070   4.824
 2965SOL    HW1 9794   0.084   1.048   4.730
 2965SOL    HW2 9795   0.102   1.158   4.849
 2966SOL     OW 9796   5.508   5.331   4.490
 2966SOL    HW1 9797   5.523   5.270   4.412
 2966SOL    HW2 9798   5.553   5.418   4.473
 2967SOL     OW 9799   6.189   2.134   4.621
 2967SOL    HW1 9800   6.274   2.109   4.667
 2967SOL    HW2 9801   6.206   2.144   4.523
 2968SOL     OW 9802   1.074   3.781   6.373
 2968SOL    HW1 9803   1.123   3.740   6.295
 2968SOL    HW2 9804   1.052   3.710   6.440
 2969SOL     OW 9805   6.065   1.489   4.788
 2969SOL    HW1 9806   6.159   1.471   4.758
 2969SOL    HW2 9807   6.040   1.425   4.861
 2970SOL     OW 9808   1.160   4.020   6.658
 2970SOL    HW1 9809   1.128   4.007   6.752
 2970SOL    HW2 9810   1.095   3.978   6.595
 2971SOL     OW 9811   6.158   3.263   6.193
 2971SOL    HW1 9812   6.238   3.253   6.134
 2971SOL    HW2 9813   6.161   3.351   6.239
 2972SOL     OW 9814   6.650   4.828   6.179
 2972SOL    HW1 9815   6.720   4.869   6.238
 2972SOL    HW2 9816   6.613   4.747   6.223
 2973SOL     OW 9817   5.615   1.069   4.051
 2973SOL    HW1 9818   5.538   1.009   4.073
 2973SOL    HW2 9819   5.603   1.157   4.098
 2974SOL     OW 9820   0.931   4.028   2.455
 2974SOL    HW1 9821   0.848   4.045   2.402
 2974SOL    HW2 9822   1.011   4.039   2.396
 2975SOL     OW 9823   0.535   2.649   4.644
 2975SOL    HW1 9824   0.600   2.587   4.601
 2975SOL    HW2 9825   0.543   2.739   4.603
 2976SOL     OW 9826   4.342   1.493   3.348
 2976SOL    HW1 9827   4.243   1.506   3.344
 2976SOL    HW2 9828   4.365   1.405   3.307
 2977SOL     OW 9829   1.656   6.395   4.093
 2977SOL    HW1 9830   1.697   6.327   4.032
 2977SOL    HW2 9831   1.693   6.485   4.073
 2978SOL     OW 9832   4.268   4.914   6.523
 2978SOL    HW1 9833   4.361   4.950   6.530
 2978SOL    HW2 9834   4.267   4.818   6.550
 2979SOL     OW 9835   5.031   6.682   4.423
 2979SOL    HW1 9836   5.123   6.669   4.459
 2979SOL    HW2 9837   5.036   6.705   4.325
 2980SOL     OW 9838   0.799   5.901   3.685
 2980SOL    HW1 9839   0.779   5.829   3.751
 2980SOL    HW2 9840   0.785   5.990   3.727
 2981SOL     OW 9841   1.258   1.386   5.916
 2981SOL    HW1 9842   1.161   1.395   5.892
 2981SOL    HW2 9843   1.309   1.346   5.840
 2982SOL     OW 9844   4.795   5.756   3.050
 2982SOL    HW1 9845   4.720   5.789   3.108
 2982SOL    HW2 9846   4.860   5.830   3.035
 2983SOL     OW 9847   1.087   1.537   3.711
 2983SOL    HW1 9848   1.005   1.490   3.743
 2983SOL    HW2 9849   1.168   1.500   3.757
 2984SOL     OW 9850   5.093   5.510   1.684
 2984SOL    HW1 9851   5.056   5.552   1.601
 2984SOL    HW2 9852   5.082   5.411   1.679
 2985SOL     OW 9853   1.287   2.733   5.302
 2985SOL    HW1 9854   1.336   2.820   5.299
 2985SOL    HW2 9855   1.194   2.746   5.268
 2986SOL     OW 9856   2.335   4.055   6.168
 2986SOL    HW1 9857   2.365   4.097   6.253
 2986SOL    HW2 9858   2.397   4.081   6.094
 2987SOL     OW 9859   5.605   0.997   3.701
 2987SOL    HW1 9860   5.668   0.945   3.644
 2987SOL    HW2 9861   5.647   1.015   3.790
 2988SOL     OW 9862   0.782   6.330   2.936
 2988SOL    HW1 9863   0.739   6.354   3.023
 2988SOL    HW2 9864   0.784   6.411   2.877
 2989SOL     OW 9865   6.642   6.413   0.508
 2989SOL    HW1 9866   6.665   6.496   0.559
 2989SOL    HW2 9867   6.598   6.347   0.569
 2990SOL     OW 9868   4.571   1.329   3.687
 2990SOL    HW1 9869   4.509   1.258   3.651
 2990SOL    HW2 9870   4.571   1.407   3.625
 2991SOL     OW 9871   0.003   3.847   6.650
 2991SOL    HW1 9872   0.086   3.903   6.643
 2991SOL    HW2 9873   6.989   3.837   6.560
 2992SOL     OW 9874   1.963   4.905   5.822
 2992SOL    HW1 9875   2.022   4.961   5.879
 2992SOL    HW2 9876   2.018   4.836   5.774
 2993SOL     OW 9877   0.855   5.083   1.664
 2993SOL    HW1 9878   0.786   5.023   1.623
 2993SOL    HW2 9879   0.931   5.096   1.600
 2994SOL     OW 9880   3.873   0.158   0.385
 2994SOL    HW1 9881   3.863   0.185   0.480
 2994SOL    HW2 9882   3.970   0.147   0.364
 2995SOL     OW 9883   1.881   3.670   6.773
 2995SOL    HW1 9884   1.907   3.756   6.728
 2995SOL    HW2 9885   1.867   3.600   6.703
 2996SOL     OW 9886   2.289   6.897   3.706
 2996SOL    HW1 9887   2.280   6.858   3.615
 2996SOL    HW2 9888   2.226   6.851   3.768
 2997SOL     OW 9889   5.189   0.124   2.411
 2997SOL    HW1 9890   5.259   0.113   2.340
 2997SOL    HW2 9891   5.169   0.222   2.423
 2998SOL     OW 9892   5.505   6.392   4.666
 2998SOL    HW1 9893   5.604   6.389   4.657
 2998SOL    HW2 9894   5.481   6.420   4.759
 2999SOL     OW 9895   3.284   4.992   4.228
 2999SOL    HW1 9896   3.273   5.062   4.299
 2999SOL    HW2 9897   3.381   4.970   4.218
 3000SOL     OW 9898   1.974   3.873   6.645
 3000SOL    HW1 9899   2.025   3.868   6.559
 3000SOL    HW2 9900   1.894   3.931   6.633
 3001SOL     OW 9901   5.838   5.760   6.846
 3001SOL    HW1 9902   5.817   5.845   6.798
 3001SOL    HW2 9903   5.933   5.762   6.876
 3002SOL     OW 9904   3.970   0.105   6.371
 3002SOL    HW1 9905   4.066   0.127   6.390
 3002SOL    HW2 9906   3.958   0.092   6.272
 3003SOL     OW 9907   2.118   0.144   6.743
 3003SOL    HW1 9908   2.218   0.144   6.752
 3003SOL    HW2 9909   2.094   0.133   6.647
 3004SOL     OW 9910   1.305   5.502   3.820
 3004SOL    HW1 9911   1.323   5.457   3.733
 3004SOL    HW2 9912   1.362   5.585   3.827
 3005SOL     OW 9913   2.933   2.286   0.607
 3005SOL    HW1 9914   2.884   2.250   0.527
 3005SOL    HW2 9915   3.027   2.308   0.582
 3006SOL     OW 9916   5.703   2.358   6.803
 3006SOL    HW1 9917   5.694   2.265   6.767
 3006SOL    HW2 9918   5.637   2.371   6.877
 3007SOL     OW 9919   5.926   5.154   1.830
 3007SOL    HW1 9920   5.882   5.086   1.889
 3007SOL    HW2 9921   6.024   5.137   1.828
 3008SOL     OW 9922   3.408   0.732   6.393
 3008SOL    HW1 9923   3.437   0.639   6.368
 3008SOL    HW2 9924   3.419   0.793   6.315
 3009SOL     OW 9925   0.356   6.832   3.130
 3009SOL    HW1 9926   0.384   6.736   3.122
 3009SOL    HW2 9927   0.348   6.856   3.227
 3010SOL     OW 9928   3.554   6.678   3.562
 3010SOL    HW1 9929   3.466   6.632   3.550
 3010SOL    HW2 9930   3.616   6.649   3.489
 3011SOL     OW 9931   5.765   1.516   0.689
 3011SOL    HW1 9932   5.736   1.500   0.783
 3011SOL    HW2 9933   5.815   1.603   0.684
 3012SOL     OW 9934   0.909   3.473   5.056
 3012SOL    HW1 9935   0.845   3.521   5.116
 3012SOL    HW2 9936   0.910   3.517   4.967
 3013SOL     OW 9937   5.062   5.549   4.754
 3013SOL    HW1 9938   4.981   5.606   4.743
 3013SOL    HW2 9939   5.056   5.496   4.838
 3014SOL     OW 9940   4.922   3.086   4.335
 3014SOL    HW1 9941   4.972   3.040   4.409
 3014SOL    HW2 9942   4.936   3.185   4.343
 3015SOL     OW 9943   2.626   2.319   0.539
 3015SOL    HW1 9944   2.635   2.366   0.627
 3015SOL    HW2 9945   2.642   2.221   0.551
 3016SOL     OW 9946   2.757   5.900   3.753
 3016SOL    HW1 9947   2.826   5.959   3.795
 3016SOL    HW2 9948   2.740   5.821   3.813
 3017SOL     OW 9949   1.045   5.188   1.974
 3017SOL    HW1 9950   1.001   5.114   1.924
 3017SOL    HW2 9951   1.031   5.176   2.072
 3018SOL     OW 9952   1.833   6.810   5.078
 3018SOL    HW1 9953   1.749   6.820   5.025
 3018SOL    HW2 9954   1.812   6.771   5.168
 3019SOL     OW 9955   2.063   6.723   0.003
 3019SOL    HW1 9956   2.088   6.811   6.992
 3019SOL    HW2 9957   1.965   6.720   0.021
 3020SOL     OW 9958   3.639   3.882   1.733
 3020SOL    HW1 9959   3.660   3.793   1.694
 3020SOL    HW2 9960   3.603   3.870   1.826
 3021SOL     OW 9961   3.487   0.540   0.056
 3021SOL    HW1 9962   3.493   0.562   0.153
 3021SOL    HW2 9963   3.542   0.458   0.037
 3022SOL     OW 9964   4.104   5.415   3.912
 3022SOL    HW1 9965   4.084   5.329   3.958
 3022SOL    HW2 9966   4.102   5.401   3.813
 3023SOL     OW 9967   4.680   0.118   2.186
 3023SOL    HW1 9968   4.605   0.091   2.246
 3023SOL    HW2 9969   4.764   0.125   2.240
 3024SOL     OW 9970   3.741   6.777   5.780
 3024SOL    HW1 9971   3.737   6.727   5.867
 3024SOL    HW2 9972   3.650   6.809   5.756
 3025SOL     OW 9973   3.908   1.699   0.539
 3025SOL    HW1 9974   3.942   1.605   0.546
 3025SOL    HW2 9975   3.809   1.699   0.546
 3026SOL     OW 9976   1.963   1.635   0.706
 3026SOL    HW1 9977   2.010   1.722   0.692
 3026SOL    HW2 9978   2.031   1.561   0.708
 3027SOL     OW 9979   4.024   0.211   1.931
 3027SOL    HW1 9980   4.107   0.226   1.876
 3027SOL    HW2 9981   4.023   0.117   1.965
 3028SOL     OW 9982   2.084   3.820   6.064
 3028SOL    HW1 9983   2.078   3.901   6.122
 3028SOL    HW2 9984   2.097   3.739   6.121
 3029SOL     OW 9985   0.318   4.804   4.739
 3029SOL    HW1 9986   0.290   4.878   4.677
 3029SOL    HW2 9987   0.240   4.774   4.794
 3030SOL     OW 9988   1.099   2.488   6.003
 3030SOL    HW1 9989   1.198   2.474   6.013
 3030SOL    HW2 9990   1.072   2.467   5.909
 3031SOL     OW 9991   6.963   3.003   0.714
 3031SOL    HW1 9992   0.011   2.954   0.671
 3031SOL    HW2 9993   6.943   3.086   0.662
 3032SOL     OW 9994   4.534   6.866   1.692
 3032SOL    HW1 9995   4.482   6.922   1.626
 3032SOL    HW2 9996   4.554   6.920   1.773
 3033SOL     OW 9997   0.023   2.282   1.481
 3033SOL    HW1 9998   7.010   2.330   1.403
 3033SOL    HW2 9999   6.999   2.199   1.499
 3034SOL     OW10000   1.860   5.743   3.578
 3034SOL    HW110001   1.922   5.757   3.655
 3034SOL    HW210002   1.908   5.761   3.492
 3035SOL     OW10003   6.941   2.992   0.218
 3035SOL    HW110004   6.877   2.954   0.285
 3035SOL    HW210005   6.909   2.972   0.126
 3036SOL     OW10006   1.681   3.127   6.114
 3036SOL    HW110007   1.662   3.222   6.136
 3036SOL    HW210008   1.768   3.121   6.065
 3037SOL     OW10009   0.376   6.070   4.396
 3037SOL    HW110010   0.355   6.054   4.299
 3037SOL    HW210011   0.297   6.113   4.440
 3038SOL     OW10012   5.762   5.928   6.367
 3038SOL    HW110013   5.813   5.842   6.361
 3038SOL    HW210014   5.761   5.960   6.462
 3039SOL     OW10015   0.188   3.646   1.856
 3039SOL    HW110016   0.181   3.582   1.779
 3039SOL    HW210017   0.108   3.705   1.858
 3040SOL     OW10018   4.829   3.487   6.653
 3040SOL    HW110019   4.735   3.492   6.617
 3040SOL    HW210020   4.844   3.565   6.714
 3041SOL     OW10021   2.246   2.966   4.807
 3041SOL    HW110022   2.318   2.923   4.753
 3041SOL    HW210023   2.276   2.976   4.902
 3042SOL     OW10024   5.303   7.017   1.339
 3042SOL    HW110025   5.203   7.015   1.343
 3042SOL    HW210026   5.339   6.925   1.353
 3043SOL     OW10027   0.744   5.713   1.245
 3043SOL    HW110028   0.679   5.640   1.224
 3043SOL    HW210029   0.788   5.695   1.333
 3044SOL     OW10030   3.134   4.755   6.180
 3044SOL    HW110031   3.053   4.735   6.125
 3044SOL    HW210032   3.207   4.791   6.122
 3045SOL     OW10033   5.001   1.290   3.134
 3045SOL    HW110034   4.950   1.205   3.118
 3045SOL    HW210035   4.976   1.327   3.224
 3046SOL     OW10036   2.530   1.985   6.775
 3046SOL    HW110037   2.486   1.991   6.685
 3046SOL    HW210038   2.622   2.024   6.769
 3047SOL     OW10039   5.400   6.600   2.262
 3047SOL    HW110040   5.402   6.575   2.359
 3047SOL    HW210041   5.349   6.685   2.251
 3048SOL     OW10042   3.917   2.681   1.505
 3048SOL    HW110043   3.935   2.722   1.415
 3048SOL    HW210044   3.818   2.676   1.520
 3049SOL     OW10045   0.982   6.521   1.822
 3049SOL    HW110046   0.974   6.596   1.887
 3049SOL    HW210047   0.911   6.529   1.752
 3050SOL     OW10048   3.326   0.785   2.471
 3050SOL    HW110049   3.336   0.796   2.570
 3050SOL    HW210050   3.322   0.687   2.449
 3051SOL     OW10051   2.321   3.813   6.524
 3051SOL    HW110052   2.310   3.797   6.622
 3051SOL    HW210053   2.407   3.861   6.506
 3052SOL     OW10054   4.697   0.399   2.281
 3052SOL    HW110055   4.709   0.304   2.250
 3052SOL    HW210056   4.608   0.433   2.250
 3053SOL     OW10057   0.140   1.495   6.518
 3053SOL    HW110058   0.213   1.443   6.474
 3053SOL    HW210059   0.062   1.503   6.455
 3054SOL     OW10060   6.779   2.653   1.396
 3054SOL    HW110061   6.850   2.611   1.339
 3054SOL    HW210062   6.701   2.590   1.403
 3055SOL     OW10063   5.037   6.535   3.974
 3055SOL    HW110064   5.022   6.581   3.886
 3055SOL    HW210065   5.018   6.599   4.048
 3056SOL     OW10066   6.625   1.850   5.700
 3056SOL    HW110067   6.699   1.900   5.745
 3056SOL    HW210068   6.655   1.757   5.680
 3057SOL     OW10069   4.044   5.958   3.649
 3057SOL    HW110070   3.968   5.961   3.584
 3057SOL    HW210071   4.075   6.051   3.668
 3058SOL     OW10072   6.808   5.925   0.917
 3058SOL    HW110073   6.784   6.011   0.870
 3058SOL    HW210074   6.861   5.946   0.999
 3059SOL     OW10075   2.281   2.402   4.164
 3059SOL    HW110076   2.371   2.446   4.163
 3059SOL    HW210077   2.215   2.462   4.119
 3060SOL     OW10078   0.894   5.876   0.522
 3060SOL    HW110079   0.811   5.930   0.533
 3060SOL    HW210080   0.879   5.783   0.555
 3061SOL     OW10081   5.639   0.746   5.183
 3061SOL    HW110082   5.632   0.780   5.090
 3061SOL    HW210083   5.716   0.791   5.229
 3062SOL     OW10084   1.602   6.736   6.962
 3062SOL    HW110085   1.635   6.672   6.894
 3062SOL    HW210086   1.504   6.752   6.949
 3063SOL     OW10087   2.757   5.383   1.920
 3063SOL    HW110088   2.852   5.359   1.941
 3063SOL    HW210089   2.698   5.306   1.943
 3064SOL     OW10090   5.300   3.729   4.020
 3064SOL    HW110091   5.295   3.672   4.102
 3064SOL    HW210092   5.216   3.783   4.012
 3065SOL     OW10093   2.137   0.587   6.773
 3065SOL    HW110094   2.216   0.542   6.816
 3065SOL    HW210095   2.157   0.685   6.762
 3066SOL     OW10096   4.943   5.119   0.483
 3066SOL    HW110097   4.926   5.022   0.500
 3066SOL    HW210098   5.035   5.143   0.514
 3067SOL     OW10099   3.847   2.168   4.645
 3067SOL    HW110100   3.756   2.165   4.603
 3067SOL    HW210101   3.840   2.203   4.738
 3068SOL     OW10102   5.283   6.057   1.061
 3068SOL    HW110103   5.272   6.074   1.159
 3068SOL    HW210104   5.372   6.091   1.031
 3069SOL     OW10105   6.567   6.261   2.080
 3069SOL    HW110106   6.566   6.360   2.095
 3069SOL    HW210107   6.474   6.229   2.063
 3070SOL     OW10108   0.988   0.806   2.537
 3070SOL    HW110109   1.072   0.761   2.506
 3070SOL    HW210110   0.969   0.885   2.478
 3071SOL     OW10111   5.671   5.797   3.472
 3071SOL    HW110112   5.628   5.886   3.455
 3071SOL    HW210113   5.771   5.807   3.467
 3072SOL     OW10114   1.494   6.646   0.643
 3072SOL    HW110115   1.550   6.573   0.605
 3072SOL    HW210116   1.542   6.691   0.717
 3073SOL     OW10117   6.984   3.551   5.372
 3073SOL    HW110118   6.921   3.568   5.448
 3073SOL    HW210119   0.015   3.631   5.360
 3074SOL     OW10120   5.044   2.977   0.631
 3074SOL    HW110121   5.144   2.979   0.633
 3074SOL    HW210122   5.009   3.070   0.635
 3075SOL     OW10123   2.363   5.996   1.888
 3075SOL    HW110124   2.345   6.092   1.909
 3075SOL    HW210125   2.429   5.991   1.813
 3076SOL     OW10126   0.036   1.211   4.474
 3076SOL    HW110127   0.100   1.230   4.399
 3076SOL    HW210128   6.973   1.244   4.450
 3077SOL     OW10129   4.847   5.611   2.686
 3077SOL    HW110130   4.807   5.696   2.652
 3077SOL    HW210131   4.784   5.568   2.751
 3078SOL     OW10132   1.302   3.240   1.068
 3078SOL    HW110133   1.353   3.269   1.148
 3078SOL    HW210134   1.204   3.240   1.089
 3079SOL     OW10135   2.351   2.013   4.831
 3079SOL    HW110136   2.295   1.980   4.907
 3079SOL    HW210137   2.311   1.983   4.744
 3080SOL     OW10138   4.722   4.346   3.671
 3080SOL    HW110139   4.819   4.364   3.655
 3080SOL    HW210140   4.711   4.304   3.761
 3081SOL     OW10141   0.290   2.537   6.049
 3081SOL    HW110142   0.322   2.566   6.139
 3081SOL    HW210143   0.364   2.548   5.982
 3082SOL     OW10144   3.544   6.972   3.834
 3082SOL    HW110145   3.558   0.043   3.836
 3082SOL    HW210146   3.522   6.944   3.740
 3083SOL     OW10147   4.375   6.035   3.607
 3083SOL    HW110148   4.355   6.021   3.704
 3083SOL    HW210149   4.351   6.128   3.581
 3084SOL     OW10150   4.880   4.080   4.635
 3084SOL    HW110151   4.836   4.060   4.547
 3084SOL    HW210152   4.867   4.176   4.658
 3085SOL     OW10153   0.695   4.783   1.828
 3085SOL    HW110154   0.676   4.838   1.747
 3085SOL    HW210155   0.791   4.755   1.827
 3086SOL     OW10156   3.893   1.809   1.910
 3086SOL    HW110157   3.970   1.802   1.847
 3086SOL    HW210158   3.835   1.886   1.883
 3087SOL     OW10159   1.133   5.134   3.694
 3087SOL    HW110160   1.120   5.203   3.624
 3087SOL    HW210161   1.225   5.095   3.686
 3088SOL     OW10162   2.314   5.063   5.722
 3088SOL    HW110163   2.288   5.159   5.723
 3088SOL    HW210164   2.322   5.029   5.816
 3089SOL     OW10165   1.163   3.145   0.427
 3089SOL    HW110166   1.240   3.204   0.404
 3089SOL    HW210167   1.117   3.115   0.343
 3090SOL     OW10168   1.974   2.224   2.119
 3090SOL    HW110169   1.875   2.236   2.110
 3090SOL    HW210170   2.017   2.237   2.030
 3091SOL     OW10171   1.386   6.978   0.207
 3091SOL    HW110172   1.391   6.894   0.261
 3091SOL    HW210173   1.471   0.001   0.218
 3092SOL     OW10174   4.929   6.553   0.227
 3092SOL    HW110175   4.966   6.501   0.150
 3092SOL    HW210176   4.995   6.551   0.302
 3093SOL     OW10177   5.486   5.945   5.786
 3093SOL    HW110178   5.502   6.044   5.786
 3093SOL    HW210179   5.504   5.908   5.877
 3094SOL     OW10180   2.900   6.785   4.585
 3094SOL    HW110181   2.838   6.827   4.518
 3094SOL    HW210182   2.983   6.840   4.593
 3095SOL     OW10183   2.365   5.885   4.273
 3095SOL    HW110184   2.357   5.974   4.229
 3095SOL    HW210185   2.333   5.892   4.368
 3096SOL     OW10186   0.950   0.244   4.764
 3096SOL    HW110187   0.893   0.286   4.834
 3096SOL    HW210188   0.928   0.285   4.675
 3097SOL     OW10189   0.452   2.075   0.902
 3097SOL    HW110190   0.487   2.026   0.981
 3097SOL    HW210191   0.471   2.023   0.819
 3098SOL     OW10192   2.344   3.199   0.836
 3098SOL    HW110193   2.246   3.219   0.836
 3098SOL    HW210194   2.388   3.249   0.761
 3099SOL     OW10195   0.101   6.132   4.483
 3099SOL    HW110196   0.100   6.093   4.575
 3099SOL    HW210197   0.067   6.064   4.418
 3100SOL     OW10198   6.733   6.975   4.611
 3100SOL    HW110199   6.791   7.011   4.684
 3100SOL    HW210200   6.736   6.875   4.611
 3101SOL     OW10201   5.537   6.198   5.856
 3101SOL    HW110202   5.623   6.249   5.845
 3101SOL    HW210203   5.502   6.213   5.949
 3102SOL     OW10204   0.346   5.065   2.903
 3102SOL    HW110205   0.364   4.987   2.842
 3102SOL    HW210206   0.347   5.149   2.850
 3103SOL     OW10207   3.455   0.843   1.693
 3103SOL    HW110208   3.360   0.871   1.705
 3103SOL    HW210209   3.491   0.882   1.608
 3104SOL     OW10210   5.161   6.702   5.463
 3104SOL    HW110211   5.199   6.704   5.555
 3104SOL    HW210212   5.232   6.674   5.398
 3105SOL     OW10213   6.243   4.715   2.086
 3105SOL    HW110214   6.190   4.650   2.140
 3105SOL    HW210215   6.184   4.757   2.017
 3106SOL     OW10216   6.056   1.045   2.917
 3106SOL    HW110217   6.012   0.971   2.968
 3106SOL    HW210218   6.145   1.065   2.958
 3107SOL     OW10219   4.326   1.000   4.038
 3107SOL    HW110220   4.346   0.928   3.971
 3107SOL    HW210221   4.229   1.025   4.033
 3108SOL     OW10222   1.485   0.246   4.416
 3108SOL    HW110223   1.420   0.174   4.439
 3108SOL    HW210224   1.529   0.279   4.500
 3109SOL     OW10225   5.705   5.949   2.513
 3109SOL    HW110226   5.759   5.867   2.497
 3109SOL    HW210227   5.763   6.030   2.501
 3110SOL     OW10228   1.464   1.682   3.338
 3110SOL    HW110229   1.364   1.678   3.343
 3110SOL    HW210230   1.492   1.736   3.258
 3111SOL     OW10231   6.362   6.095   4.248
 3111SOL    HW110232   6.370   6.047   4.335
 3111SOL    HW210233   6.446   6.147   4.231
 3112SOL     OW10234   5.015   2.481   6.125
 3112SOL    HW110235   5.101   2.468   6.075
 3112SOL    HW210236   5.031   2.464   6.223
 3113SOL     OW10237   1.711   6.178   3.914
 3113SOL    HW110238   1.659   6.210   3.835
 3113SOL    HW210239   1.736   6.082   3.900
 3114SOL     OW10240   3.995   2.075   6.725
 3114SOL    HW110241   3.916   2.136   6.714
 3114SOL    HW210242   4.058   2.089   6.650
 3115SOL     OW10243   4.599   3.689   6.905
 3115SOL    HW110244   4.550   3.663   6.822
 3115SOL    HW210245   4.697   3.674   6.893
 3116SOL     OW10246   6.928   3.641   0.114
 3116SOL    HW110247   6.856   3.710   0.123
 3116SOL    HW210248   6.937   3.615   0.018
 3117SOL     OW10249   4.684   3.713   5.396
 3117SOL    HW110250   4.618   3.690   5.324
 3117SOL    HW210251   4.754   3.642   5.400
 3118SOL     OW10252   0.248   4.698   0.376
 3118SOL    HW110253   0.321   4.693   0.308
 3118SOL    HW210254   0.277   4.754   0.453
 3119SOL     OW10255   2.327   3.521   5.619
 3119SOL    HW110256   2.279   3.443   5.578
 3119SOL    HW210257   2.313   3.602   5.562
 3120SOL     OW10258   3.106   6.881   4.262
 3120SOL    HW110259   3.116   6.792   4.307
 3120SOL    HW210260   3.195   6.914   4.234
 3121SOL     OW10261   0.337   1.546   2.569
 3121SOL    HW110262   0.288   1.620   2.614
 3121SOL    HW210263   0.392   1.497   2.636
 3122SOL     OW10264   2.750   6.138   5.961
 3122SOL    HW110265   2.767   6.166   5.866
 3122SOL    HW210266   2.749   6.039   5.967
 3123SOL     OW10267   3.067   0.636   4.185
 3123SOL    HW110268   3.071   0.607   4.089
 3123SOL    HW210269   2.971   0.645   4.213
 3124SOL     OW10270   4.223   6.756   4.705
 3124SOL    HW110271   4.307   6.779   4.655
 3124SOL    HW210272   4.236   6.668   4.752
 3125SOL     OW10273   6.523   1.859   5.252
 3125SOL    HW110274   6.506   1.843   5.350
 3125SOL    HW210275   6.580   1.940   5.242
 3126SOL     OW10276   5.091   5.079   6.534
 3126SOL    HW110277   5.119   5.098   6.439
 3126SOL    HW210278   5.128   4.991   6.562
 3127SOL     OW10279   0.738   2.284   3.190
 3127SOL    HW110280   0.814   2.346   3.209
 3127SOL    HW210281   0.666   2.296   3.258
 3128SOL     OW10282   2.002   6.954   6.852
 3128SOL    HW110283   2.047   0.014   6.835
 3128SOL    HW210284   1.922   6.969   6.910
 3129SOL     OW10285   0.965   4.310   6.318
 3129SOL    HW110286   1.060   4.279   6.306
 3129SOL    HW210287   0.925   4.329   6.229
 3130SOL     OW10288   1.992   4.393   2.066
 3130SOL    HW110289   1.914   4.408   2.127
 3130SOL    HW210290   1.973   4.435   1.977
 3131SOL     OW10291   0.469   2.521   1.847
 3131SOL    HW110292   0.557   2.568   1.853
 3131SOL    HW210293   0.466   2.448   1.915
 3132SOL     OW10294   4.903   4.781   6.022
 3132SOL    HW110295   5.000   4.777   5.999
 3132SOL    HW210296   4.874   4.691   6.056
 3133SOL     OW10297   3.198   2.119   3.133
 3133SOL    HW110298   3.284   2.136   3.084
 3133SOL    HW210299   3.121   2.154   3.078
 3134SOL     OW10300   4.610   5.074   1.495
 3134SOL    HW110301   4.653   5.076   1.585
 3134SOL    HW210302   4.659   5.010   1.436
 3135SOL     OW10303   5.142   0.958   5.201
 3135SOL    HW110304   5.198   0.879   5.177
 3135SOL    HW210305   5.168   1.036   5.145
 3136SOL     OW10306   5.452   0.360   6.666
 3136SOL    HW110307   5.420   0.412   6.745
 3136SOL    HW210308   5.433   0.410   6.582
 3137SOL     OW10309   6.050   0.674   3.306
 3137SOL    HW110310   6.101   0.674   3.220
 3137SOL    HW210311   6.023   0.580   3.329
 3138SOL     OW10312   6.795   2.305   3.918
 3138SOL    HW110313   6.745   2.337   3.838
 3138SOL    HW210314   6.885   2.349   3.922
 3139SOL     OW10315   4.661   6.750   0.685
 3139SOL    HW110316   4.567   6.721   0.666
 3139SOL    HW210317   4.699   6.796   0.605
 3140SOL     OW10318   5.818   0.088   6.724
 3140SOL    HW110319   5.821   0.037   6.810
 3140SOL    HW210320   5.851   0.030   6.650
 3141SOL     OW10321   0.611   6.195   6.275
 3141SOL    HW110322   0.632   6.178   6.179
 3141SOL    HW210323   0.512   6.201   6.288
 3142SOL     OW10324   4.546   6.363   1.630
 3142SOL    HW110325   4.523   6.460   1.624
 3142SOL    HW210326   4.644   6.351   1.610
 3143SOL     OW10327   0.405   2.459   6.753
 3143SOL    HW110328   0.311   2.444   6.724
 3143SOL    HW210329   0.426   2.399   6.831
 3144SOL     OW10330   2.705   3.984   0.663
 3144SOL    HW110331   2.781   3.971   0.727
 3144SOL    HW210332   2.688   4.082   0.653
 3145SOL     OW10333   1.708   5.123   2.602
 3145SOL    HW110334   1.767   5.201   2.623
 3145SOL    HW210335   1.623   5.157   2.560
 3146SOL     OW10336   1.352   0.025   3.151
 3146SOL    HW110337   1.313   0.034   3.059
 3146SOL    HW210338   1.327   0.105   3.206
 3147SOL     OW10339   3.984   5.243   6.954
 3147SOL    HW110340   4.038   5.262   0.008
 3147SOL    HW210341   3.938   5.155   6.964
 3148SOL     OW10342   5.136   5.774   4.602
 3148SOL    HW110343   5.110   5.687   4.645
 3148SOL    HW210344   5.234   5.787   4.611
 3149SOL     OW10345   3.134   0.488   5.242
 3149SOL    HW110346   3.109   0.488   5.145
 3149SOL    HW210347   3.232   0.471   5.251
 3150SOL     OW10348   6.419   5.626   4.030
 3150SOL    HW110349   6.500   5.636   4.089
 3150SOL    HW210350   6.373   5.714   4.022
 3151SOL     OW10351   3.540   0.739   6.658
 3151SOL    HW110352   3.496   0.738   6.568
 3151SOL    HW210353   3.551   0.646   6.691
 3152SOL     OW10354   1.569   5.126   1.570
 3152SOL    HW110355   1.489   5.095   1.518
 3152SOL    HW210356   1.633   5.050   1.581
 3153SOL     OW10357   6.601   4.282   1.549
 3153SOL    HW110358   6.651   4.323   1.625
 3153SOL    HW210359   6.663   4.270   1.471
 3154SOL     OW10360   6.139   1.487   0.309
 3154SOL    HW110361   6.072   1.529   0.248
 3154SOL    HW210362   6.188   1.415   0.261
 3155SOL     OW10363   6.823   5.182   1.288
 3155SOL    HW110364   6.773   5.159   1.205
 3155SOL    HW210365   6.758   5.210   1.359
 3156SOL     OW10366   3.368   2.874   3.835
 3156SOL    HW110367   3.419   2.838   3.757
 3156SOL    HW210368   3.276   2.899   3.807
 3157SOL     OW10369   1.852   2.948   4.582
 3157SOL    HW110370   1.907   3.018   4.628
 3157SOL    HW210371   1.850   2.865   4.637
 3158SOL     OW10372   4.264   0.285   1.824
 3158SOL    HW110373   4.351   0.265   1.868
 3158SOL    HW210374   4.237   0.379   1.844
 3159SOL     OW10375   5.581   1.053   0.024
 3159SOL    HW110376   5.664   1.090   0.067
 3159SOL    HW210377   5.599   0.959   7.021
 3160SOL     OW10378   6.522   5.978   5.572
 3160SOL    HW110379   6.553   5.893   5.615
 3160SOL    HW210380   6.429   5.999   5.603
 3161SOL     OW10381   1.172   1.191   2.940
 3161SOL    HW110382   1.094   1.233   2.986
 3161SOL    HW210383   1.240   1.164   3.008
 3162SOL     OW10384   1.109   6.000   0.744
 3162SOL    HW110385   1.039   6.071   0.749
 3162SOL    HW210386   1.105   5.957   0.654
 3163SOL     OW10387   3.729   2.483   0.144
 3163SOL    HW110388   3.744   2.456   0.049
 3163SOL    HW210389   3.686   2.574   0.146
 3164SOL     OW10390   4.534   4.489   1.422
 3164SOL    HW110391   4.527   4.588   1.430
 3164SOL    HW210392   4.499   4.447   1.506
 3165SOL     OW10393   1.204   6.117   1.960
 3165SOL    HW110394   1.198   6.168   1.874
 3165SOL    HW210395   1.147   6.035   1.955
 3166SOL     OW10396   5.014   1.721   6.389
 3166SOL    HW110397   4.915   1.720   6.379
 3166SOL    HW210398   5.051   1.802   6.344
 3167SOL     OW10399   0.220   4.356   1.641
 3167SOL    HW110400   0.218   4.417   1.720
 3167SOL    HW210401   0.252   4.265   1.669
 3168SOL     OW10402   5.546   3.282   0.383
 3168SOL    HW110403   5.498   3.370   0.383
 3168SOL    HW210404   5.491   3.214   0.431
 3169SOL     OW10405   1.164   3.056   5.558
 3169SOL    HW110406   1.089   3.122   5.552
 3169SOL    HW210407   1.228   3.072   5.483
 3170SOL     OW10408   4.264   0.820   0.778
 3170SOL    HW110409   4.196   0.893   0.770
 3170SOL    HW210410   4.221   0.732   0.758
 3171SOL     OW10411   6.917   6.781   1.105
 3171SOL    HW110412   7.001   6.728   1.094
 3171SOL    HW210413   6.880   6.804   1.015
 3172SOL     OW10414   0.596   5.930   5.635
 3172SOL    HW110415   0.538   6.003   5.671
 3172SOL    HW210416   0.689   5.964   5.622
 3173SOL     OW10417   2.814   1.805   1.154
 3173SOL    HW110418   2.877   1.803   1.231
 3173SOL    HW210419   2.853   1.861   1.081
 3174SOL     OW10420   2.411   2.766   6.912
 3174SOL    HW110421   2.379   2.755   7.006
 3174SOL    HW210422   2.510   2.779   6.911
 3175SOL     OW10423   7.021   6.564   0.535
 3175SOL    HW110424   0.040   6.485   0.494
 3175SOL    HW210425   0.035   6.648   0.500
 3176SOL     OW10426   1.994   5.194   4.651
 3176SOL    HW110427   2.084   5.201   4.607
 3176SOL    HW210428   1.929   5.254   4.603
 3177SOL     OW10429   4.766   5.451   5.668
 3177SOL    HW110430   4.773   5.508   5.750
 3177SOL    HW210431   4.807   5.499   5.590
 3178SOL     OW10432   6.721   3.044   1.594
 3178SOL    HW110433   6.812   3.061   1.631
 3178SOL    HW210434   6.688   2.955   1.626
 3179SOL     OW10435   1.816   2.933   1.783
 3179SOL    HW110436   1.797   3.031   1.773
 3179SOL    HW210437   1.750   2.881   1.730
 3180SOL     OW10438   4.713   0.301   6.829
 3180SOL    HW110439   4.662   0.340   6.753
 3180SOL    HW210440   4.655   0.299   6.911
 3181SOL     OW10441   0.640   0.240   2.945
 3181SOL    HW110442   0.653   0.213   2.849
 3181SOL    HW210443   0.720   0.214   2.998
 3182SOL     OW10444   1.597   1.051   5.852
 3182SOL    HW110445   1.574   1.142   5.817
 3182SOL    HW210446   1.621   1.057   5.948
 3183SOL     OW10447   5.122   3.602   1.461
 3183SOL    HW110448   5.150   3.510   1.490
 3183SOL    HW210449   5.088   3.653   1.540
 3184SOL     OW10450   2.583   2.067   2.703
 3184SOL    HW110451   2.655   2.014   2.657
 3184SOL    HW210452   2.494   2.038   2.669
 3185SOL     OW10453   5.974   0.526   6.279
 3185SOL    HW110454   5.942   0.482   6.196
 3185SOL    HW210455   5.899   0.576   6.322
 3186SOL     OW10456   3.136   0.704   2.892
 3186SOL    HW110457   3.227   0.739   2.869
 3186SOL    HW210458   3.145   0.618   2.942
 3187SOL     OW10459   4.695   4.384   0.204
 3187SOL    HW110460   4.684   4.311   0.137
 3187SOL    HW210461   4.642   4.464   0.176
 3188SOL     OW10462   3.434   5.869   3.267
 3188SOL    HW110463   3.406   5.802   3.336
 3188SOL    HW210464   3.525   5.902   3.289
 3189SOL     OW10465   2.363   0.911   2.828
 3189SOL    HW110466   2.441   0.888   2.770
 3189SOL    HW210467   2.365   0.854   2.911
 3190SOL     OW10468   1.074   6.595   1.507
 3190SOL    HW110469   1.153   6.584   1.567
 3190SOL    HW210470   0.996   6.543   1.544
 3191SOL     OW10471   3.514   6.774   0.904
 3191SOL    HW110472   3.552   6.841   0.840
 3191SOL    HW210473   3.452   6.712   0.856
 3192SOL     OW10474   0.561   2.255   1.096
 3192SOL    HW110475   0.486   2.237   1.032
 3192SOL    HW210476   0.635   2.190   1.080
 3193SOL     OW10477   4.361   1.854   6.204
 3193SOL    HW110478   4.360   1.755   6.189
 3193SOL    HW210479   4.303   1.877   6.282
 3194SOL     OW10480   1.041   2.947   6.399
 3194SOL    HW110481   0.950   2.910   6.414
 3194SOL    HW210482   1.099   2.878   6.356
 3195SOL     OW10483   1.491   2.150   2.664
 3195SOL    HW110484   1.428   2.216   2.624
 3195SOL    HW210485   1.560   2.198   2.719
 3196SOL     OW10486   6.666   0.235   4.943
 3196SOL    HW110487   6.665   0.332   4.969
 3196SOL    HW210488   6.632   0.180   5.019
 3197SOL     OW10489   1.464   5.716   3.860
 3197SOL    HW110490   1.442   5.799   3.911
 3197SOL    HW210491   1.536   5.666   3.908
 3198SOL     OW10492   6.419   2.173   6.934
 3198SOL    HW110493   6.358   2.251   6.921
 3198SOL    HW210494   6.370   2.089   6.910
 3199SOL     OW10495   4.654   2.544   2.026
 3199SOL    HW110496   4.613   2.486   1.955
 3199SOL    HW210497   4.733   2.498   2.065
 3200SOL     OW10498   6.798   1.821   1.565
 3200SOL    HW110499   6.800   1.792   1.469
 3200SOL    HW210500   6.721   1.882   1.580
 3201SOL     OW10501   5.350   4.317   4.468
 3201SOL    HW110502   5.265   4.270   4.445
 3201SOL    HW210503   5.387   4.361   4.386
 3202SOL     OW10504   1.626   4.703   1.642
 3202SOL    HW110505   1.555   4.666   1.582
 3202SOL    HW210506   1.655   4.633   1.707
 3203SOL     OW10507   5.820   0.922   1.262
 3203SOL    HW110508   5.798   0.851   1.328
 3203SOL    HW210509   5.917   0.917   1.238
 3204SOL     OW10510   5.240   6.173   1.603
 3204SOL    HW110511   5.300   6.112   1.655
 3204SOL    HW210512   5.269   6.173   1.507
 3205SOL     OW10513   0.084   4.298   6.624
 3205SOL    HW110514   0.002   4.286   6.680
 3205SOL    HW210515   0.157   4.336   6.679
 3206SOL     OW10516   6.824   0.049   6.079
 3206SOL    HW110517   6.835   6.989   6.126
 3206SOL    HW210518   6.741   0.047   6.023
 3207SOL     OW10519   0.663   1.262   6.705
 3207SOL    HW110520   0.718   1.341   6.733
 3207SOL    HW210521   0.710   1.213   6.632
 3208SOL     OW10522   4.497   6.102   5.464
 3208SOL    HW110523   4.580   6.107   5.520
 3208SOL    HW210524   4.500   6.173   5.394
 3209SOL     OW10525   2.792   6.116   3.363
 3209SOL    HW110526   2.793   6.018   3.382
 3209SOL    HW210527   2.806   6.166   3.448
 3210SOL     OW10528   1.019   3.324   1.782
 3210SOL    HW110529   0.956   3.300   1.855
 3210SOL    HW210530   0.969   3.327   1.695
 3211SOL     OW10531   2.282   4.275   0.377
 3211SOL    HW110532   2.315   4.349   0.435
 3211SOL    HW210533   2.344   4.197   0.384
 3212SOL     OW10534   3.964   1.368   6.712
 3212SOL    HW110535   4.058   1.334   6.717
 3212SOL    HW210536   3.920   1.357   6.801
 3213SOL     OW10537   5.596   4.584   2.716
 3213SOL    HW110538   5.502   4.602   2.747
 3213SOL    HW210539   5.620   4.489   2.736
 3214SOL     OW10540   4.655   6.342   0.254
 3214SOL    HW110541   4.612   6.377   0.338
 3214SOL    HW210542   4.600   6.267   0.218
 3215SOL     OW10543   6.716   3.642   1.053
 3215SOL    HW110544   6.619   3.626   1.037
 3215SOL    HW210545   6.768   3.615   0.972
 3216SOL     OW10546   5.661   5.365   2.357
 3216SOL    HW110547   5.578   5.310   2.347
 3216SOL    HW210548   5.644   5.440   2.420
 3217SOL     OW10549   1.116   4.483   3.055
 3217SOL    HW110550   1.114   4.557   2.988
 3217SOL    HW210551   1.067   4.511   3.137
 3218SOL     OW10552   4.380   5.969   3.364
 3218SOL    HW110553   4.454   5.905   3.344
 3218SOL    HW210554   4.379   5.989   3.462
 3219SOL     OW10555   0.221   0.358   3.584
 3219SOL    HW110556   0.263   0.360   3.493
 3219SOL    HW210557   0.291   0.340   3.653
 3220SOL     OW10558   6.477   5.252   5.899
 3220SOL    HW110559   6.497   5.184   5.970
 3220SOL    HW210560   6.387   5.235   5.861
 3221SOL     OW10561   3.296   6.199   2.369
 3221SOL    HW110562   3.238   6.129   2.326
 3221SOL    HW210563   3.385   6.201   2.324
 3222SOL     OW10564   4.595   1.839   3.254
 3222SOL    HW110565   4.508   1.850   3.301
 3222SOL    HW210566   4.627   1.928   3.221
 3223SOL     OW10567   1.829   5.370   6.797
 3223SOL    HW110568   1.846   5.287   6.744
 3223SOL    HW210569   1.882   5.368   6.881
 3224SOL     OW10570   4.573   5.077   6.275
 3224SOL    HW110571   4.477   5.075   6.302
 3224SOL    HW210572   4.611   5.168   6.294
 3225SOL     OW10573   4.161   2.140   5.852
 3225SOL    HW110574   4.066   2.148   5.822
 3225SOL    HW210575   4.210   2.224   5.826
 3226SOL     OW10576   2.308   1.671   4.522
 3226SOL    HW110577   2.358   1.584   4.532
 3226SOL    HW210578   2.215   1.661   4.557
 3227SOL     OW10579   3.215   2.010   6.674
 3227SOL    HW110580   3.173   2.092   6.636
 3227SOL    HW210581   3.295   2.035   6.729
 3228SOL     OW10582   5.354   3.380   4.127
 3228SOL    HW110583   5.409   3.384   4.044
 3228SOL    HW210584   5.357   3.288   4.166
 3229SOL     OW10585   3.190   1.697   5.911
 3229SOL    HW110586   3.142   1.664   5.992
 3229SOL    HW210587   3.128   1.754   5.857
 3230SOL     OW10588   0.334   2.378   3.871
 3230SOL    HW110589   0.414   2.407   3.923
 3230SOL    HW210590   0.268   2.335   3.933
 3231SOL     OW10591   4.225   5.619   1.973
 3231SOL    HW110592   4.153   5.634   1.905
 3231SOL    HW210593   4.266   5.706   1.999
 3232SOL     OW10594   4.780   5.181   4.537
 3232SOL    HW110595   4.769   5.280   4.524
 3232SOL    HW210596   4.738   5.154   4.623
 3233SOL     OW10597   1.029   3.780   0.840
 3233SOL    HW110598   0.940   3.815   0.869
 3233SOL    HW210599   1.085   3.760   0.920
 3234SOL     OW10600   6.759   2.269   0.574
 3234SOL    HW110601   6.670   2.235   0.545
 3234SOL    HW210602   6.749   2.360   0.615
 3235SOL     OW10603   5.770   6.007   1.978
 3235SOL    HW110604   5.824   6.085   1.947
 3235SOL    HW210605   5.831   5.928   1.989
 3236SOL     OW10606   1.736   3.632   1.512
 3236SOL    HW110607   1.741   3.725   1.547
 3236SOL    HW210608   1.776   3.569   1.578
 3237SOL     OW10609   4.986   0.348   3.732
 3237SOL    HW110610   5.077   0.316   3.704
 3237SOL    HW210611   4.996   0.411   3.809
 3238SOL     OW10612   0.162   5.395   6.538
 3238SOL    HW110613   0.076   5.442   6.518
 3238SOL    HW210614   0.142   5.304   6.575
 3239SOL     OW10615   5.953   1.363   0.514
 3239SOL    HW110616   6.012   1.402   0.443
 3239SOL    HW210617   5.878   1.425   0.534
 3240SOL     OW10618   0.470   6.885   5.035
 3240SOL    HW110619   0.536   6.825   4.989
 3240SOL    HW210620   0.439   6.955   4.971
 3241SOL     OW10621   5.040   1.541   4.175
 3241SOL    HW110622   4.943   1.533   4.150
 3241SOL    HW210623   5.097   1.511   4.099
 3242SOL     OW10624   3.356   4.771   0.853
 3242SOL    HW110625   3.284   4.752   0.920
 3242SOL    HW210626   3.315   4.781   0.762
 3243SOL     OW10627   5.859   5.136   6.965
 3243SOL    HW110628   5.896   5.097   0.022
 3243SOL    HW210629   5.761   5.114   6.959
 3244SOL     OW10630   5.164   5.353   6.404
 3244SOL    HW110631   5.103   5.431   6.386
 3244SOL    HW210632   5.185   5.349   6.501
 3245SOL     OW10633   4.407   2.476   6.127
 3245SOL    HW110634   4.417   2.431   6.216
 3245SOL    HW210635   4.442   2.416   6.055
 3246SOL     OW10636   5.964   0.609   2.894
 3246SOL    HW110637   5.961   0.683   2.961
 3246SOL    HW210638   5.896   0.540   2.917
 3247SOL     OW10639   0.101   4.705   2.644
 3247SOL    HW110640   0.084   4.607   2.638
 3247SOL    HW210641   0.087   4.736   2.738
 3248SOL     OW10642   5.735   3.478   2.179
 3248SOL    HW110643   5.786   3.547   2.126
 3248SOL    HW210644   5.643   3.512   2.198
 3249SOL     OW10645   3.947   4.857   5.798
 3249SOL    HW110646   3.960   4.817   5.707
 3249SOL    HW210647   4.021   4.827   5.858
 3250SOL     OW10648   5.644   0.016   3.306
 3250SOL    HW110649   5.574   6.981   3.272
 3250SOL    HW210650   5.613   0.055   3.393
 3251SOL     OW10651   3.776   1.365   2.734
 3251SOL    HW110652   3.729   1.297   2.679
 3251SOL    HW210653   3.733   1.372   2.824
 3252SOL     OW10654   3.612   1.191   2.088
 3252SOL    HW110655   3.704   1.229   2.093
 3252SOL    HW210656   3.600   1.143   2.001
 3253SOL     OW10657   4.942   2.632   2.518
 3253SOL    HW110658   4.948   2.545   2.470
 3253SOL    HW210659   4.851   2.673   2.503
 3254SOL     OW10660   3.747   5.170   4.330
 3254SOL    HW110661   3.676   5.109   4.295
 3254SOL    HW210662   3.734   5.181   4.429
 3255SOL     OW10663   4.408   5.397   0.958
 3255SOL    HW110664   4.442   5.385   0.864
 3255SOL    HW210665   4.485   5.398   1.021
 3256SOL     OW10666   5.512   0.023   6.383
 3256SOL    HW110667   5.498   0.113   6.342
 3256SOL    HW210668   5.492   0.027   6.481
 3257SOL     OW10669   1.268   2.224   0.814
 3257SOL    HW110670   1.284   2.155   0.884
 3257SOL    HW210671   1.186   2.277   0.837
 3258SOL     OW10672   4.621   6.434   2.013
 3258SOL    HW110673   4.582   6.525   2.008
 3258SOL    HW210674   4.581   6.376   1.942
 3259SOL     OW10675   4.136   5.978   4.353
 3259SOL    HW110676   4.091   6.063   4.380
 3259SOL    HW210677   4.080   5.900   4.381
 3260SOL     OW10678   2.023   2.419   1.231
 3260SOL    HW110679   1.950   2.420   1.162
 3260SOL    HW210680   2.112   2.425   1.185
 3261SOL     OW10681   3.968   6.173   0.592
 3261SOL    HW110682   4.030   6.252   0.587
 3261SOL    HW210683   3.895   6.184   0.523
 3262SOL     OW10684   3.621   1.639   3.083
 3262SOL    HW110685   3.655   1.640   3.176
 3262SOL    HW210686   3.658   1.717   3.032
 3263SOL     OW10687   5.035   0.194   3.405
 3263SOL    HW110688   4.992   0.258   3.341
 3263SOL    HW210689   5.118   0.157   3.364
 3264SOL     OW10690   0.778   5.224   6.744
 3264SOL    HW110691   0.700   5.169   6.715
 3264SOL    HW210692   0.752   5.282   6.821
 3265SOL     OW10693   4.138   1.917   6.352
 3265SOL    HW110694   4.090   1.838   6.390
 3265SOL    HW210695   4.076   1.968   6.292
 3266SOL     OW10696   0.044   2.446   0.456
 3266SOL    HW110697   0.002   2.361   0.422
 3266SOL    HW210698   0.023   2.456   0.553
 3267SOL     OW10699   3.521   2.551   1.199
 3267SOL    HW110700   3.428   2.583   1.186
 3267SOL    HW210701   3.582   2.599   1.136
 3268SOL     OW10702   1.413   3.942   6.725
 3268SOL    HW110703   1.464   3.931   6.640
 3268SOL    HW210704   1.332   3.998   6.708
 3269SOL     OW10705   4.410   4.580   1.834
 3269SOL    HW110706   4.412   4.680   1.839
 3269SOL    HW210707   4.398   4.542   1.926
 3270SOL     OW10708   0.407   5.610   4.555
 3270SOL    HW110709   0.469   5.667   4.501
 3270SOL    HW210710   0.313   5.644   4.546
 3271SOL     OW10711   5.723   1.913   2.890
 3271SOL    HW110712   5.811   1.921   2.936
 3271SOL    HW210713   5.673   2.000   2.899
 3272SOL     OW10714   3.764   5.672   0.687
 3272SOL    HW110715   3.818   5.694   0.767
 3272SOL    HW210716   3.668   5.658   0.714
 3273SOL     OW10717   0.813   6.479   1.621
 3273SOL    HW110718   0.781   6.457   1.529
 3273SOL    HW210719   0.802   6.400   1.680
 3274SOL     OW10720   4.112   2.405   0.088
 3274SOL    HW110721   4.017   2.431   0.075
 3274SOL    HW210722   4.165   2.428   0.006
 3275SOL     OW10723   1.632   0.141   6.910
 3275SOL    HW110724   1.670   0.198   6.837
 3275SOL    HW210725   1.704   0.084   6.949
 3276SOL     OW10726   3.173   4.724   6.662
 3276SOL    HW110727   3.112   4.645   6.673
 3276SOL    HW210728   3.237   4.707   6.587
 3277SOL     OW10729   5.953   0.295   6.468
 3277SOL    HW110730   5.919   0.206   6.436
 3277SOL    HW210731   5.954   0.360   6.392
 3278SOL     OW10732   6.855   1.198   5.349
 3278SOL    HW110733   6.904   1.256   5.415
 3278SOL    HW210734   6.787   1.144   5.398
 3279SOL     OW10735   0.151   0.421   0.704
 3279SOL    HW110736   0.103   0.507   0.687
 3279SOL    HW210737   0.205   0.395   0.624
 3280SOL     OW10738   2.421   5.247   6.697
 3280SOL    HW110739   2.467   5.336   6.699
 3280SOL    HW210740   2.412   5.212   6.791
 3281SOL     OW10741   2.042   5.951   1.124
 3281SOL    HW110742   2.134   5.951   1.162
 3281SOL    HW210743   1.984   6.013   1.176
 3282SOL     OW10744   2.805   6.049   4.367
 3282SOL    HW110745   2.850   5.960   4.356
 3282SOL    HW210746   2.821   6.105   4.285
 3283SOL     OW10747   3.311   1.655   2.618
 3283SOL    HW110748   3.384   1.659   2.685
 3283SOL    HW210749   3.331   1.718   2.543
 3284SOL     OW10750   6.628   6.611   0.105
 3284SOL    HW110751   6.616   6.634   0.008
 3284SOL    HW210752   6.545   6.637   0.155
 3285SOL     OW10753   6.807   2.579   3.120
 3285SOL    HW110754   6.781   2.484   3.137
 3285SOL    HW210755   6.893   2.580   3.068
 3286SOL     OW10756   4.082   3.410   3.552
 3286SOL    HW110757   4.085   3.379   3.647
 3286SOL    HW210758   4.057   3.506   3.548
 3287SOL     OW10759   0.715   5.577   0.097
 3287SOL    HW110760   0.700   5.676   0.102
 3287SOL    HW210761   0.673   5.533   0.177
 3288SOL     OW10762   0.276   5.963   6.857
 3288SOL    HW110763   0.312   6.052   6.831
 3288SOL    HW210764   0.251   5.911   6.775
 3289SOL     OW10765   1.229   6.785   5.374
 3289SOL    HW110766   1.177   6.727   5.436
 3289SOL    HW210767   1.275   6.858   5.426
 3290SOL     OW10768   0.509   6.499   1.858
 3290SOL    HW110769   0.438   6.432   1.837
 3290SOL    HW210770   0.551   6.531   1.773
 3291SOL     OW10771   1.259   6.490   6.610
 3291SOL    HW110772   1.165   6.521   6.596
 3291SOL    HW210773   1.320   6.569   6.608
 3292SOL     OW10774   0.531   1.120   6.911
 3292SOL    HW110775   0.601   1.168   6.858
 3292SOL    HW210776   0.447   1.174   6.913
 3293SOL     OW10777   6.913   1.877   3.058
 3293SOL    HW110778   6.873   1.822   2.985
 3293SOL    HW210779   6.972   1.820   3.115
 3294SOL     OW10780   6.822   0.315   6.492
 3294SOL    HW110781   6.857   0.245   6.430
 3294SOL    HW210782   6.897   0.374   6.522
 3295SOL     OW10783   2.600   1.948   1.231
 3295SOL    HW110784   2.668   1.884   1.194
 3295SOL    HW210785   2.524   1.897   1.271
 3296SOL     OW10786   2.566   6.570   1.375
 3296SOL    HW110787   2.641   6.557   1.440
 3296SOL    HW210788   2.481   6.536   1.416
 3297SOL     OW10789   2.858   1.903   4.923
 3297SOL    HW110790   2.787   1.972   4.936
 3297SOL    HW210791   2.842   1.827   4.986
 3298SOL     OW10792   6.280   3.038   2.743
 3298SOL    HW110793   6.249   3.003   2.655
 3298SOL    HW210794   6.306   3.134   2.733
 3299SOL     OW10795   2.006   0.374   3.498
 3299SOL    HW110796   2.050   0.464   3.495
 3299SOL    HW210797   2.060   0.310   3.443
 3300SOL     OW10798   6.826   0.653   6.004
 3300SOL    HW110799   6.745   0.595   6.001
 3300SOL    HW210800   6.901   0.607   5.957
 3301SOL     OW10801   1.606   3.826   3.861
 3301SOL    HW110802   1.686   3.819   3.921
 3301SOL    HW210803   1.581   3.922   3.849
 3302SOL     OW10804   1.075   4.946   4.575
 3302SOL    HW110805   1.064   4.846   4.579
 3302SOL    HW210806   1.168   4.971   4.601
 3303SOL     OW10807   3.438   2.983   2.386
 3303SOL    HW110808   3.534   2.957   2.382
 3303SOL    HW210809   3.426   3.076   2.351
 3304SOL     OW10810   0.788   5.241   3.544
 3304SOL    HW110811   0.808   5.322   3.599
 3304SOL    HW210812   0.688   5.230   3.536
 3305SOL     OW10813   2.266   1.550   2.441
 3305SOL    HW110814   2.217   1.488   2.503
 3305SOL    HW210815   2.355   1.510   2.418
 3306SOL     OW10816   2.216   3.984   2.905
 3306SOL    HW110817   2.187   3.943   2.818
 3306SOL    HW210818   2.138   3.986   2.968
 3307SOL     OW10819   6.970   5.822   6.853
 3307SOL    HW110820   0.014   5.891   6.852
 3307SOL    HW210821   7.007   5.734   6.825
 3308SOL     OW10822   4.479   5.518   0.327
 3308SOL    HW110823   4.431   5.434   0.352
 3308SOL    HW210824   4.472   5.532   0.228
 3309SOL     OW10825   0.811   5.086   2.542
 3309SOL    HW110826   0.855   5.102   2.454
 3309SOL    HW210827   0.725   5.036   2.528
 3310SOL     OW10828   0.408   3.465   2.833
 3310SOL    HW110829   0.335   3.532   2.831
 3310SOL    HW210830   0.487   3.503   2.881
 3311SOL     OW10831   2.527   5.399   0.660
 3311SOL    HW110832   2.571   5.474   0.709
 3311SOL    HW210833   2.469   5.435   0.587
 3312SOL     OW10834   3.025   4.138   6.334
 3312SOL    HW110835   3.011   4.218   6.275
 3312SOL    HW210836   3.023   4.055   6.279
 3313SOL     OW10837   1.072   5.392   3.572
 3313SOL    HW110838   1.074   5.478   3.520
 3313SOL    HW210839   0.999   5.396   3.640
 3314SOL     OW10840   1.866   2.734   4.755
 3314SOL    HW110841   1.907   2.696   4.838
 3314SOL    HW210842   1.867   2.664   4.683
 3315SOL     OW10843   0.218   2.896   4.152
 3315SOL    HW110844   0.153   2.953   4.202
 3315SOL    HW210845   0.268   2.837   4.217
 3316SOL     OW10846   3.998   1.395   5.863
 3316SOL    HW110847   4.064   1.425   5.932
 3316SOL    HW210848   4.035   1.413   5.771
 3317SOL     OW10849   4.460   2.786   1.648
 3317SOL    HW110850   4.468   2.850   1.572
 3317SOL    HW210851   4.523   2.811   1.721
 3318SOL     OW10852   2.634   6.818   6.514
 3318SOL    HW110853   2.664   6.910   6.540
 3318SOL    HW210854   2.702   6.776   6.455
 3319SOL     OW10855   6.633   6.649   3.504
 3319SOL    HW110856   6.582   6.717   3.556
 3319SOL    HW210857   6.710   6.692   3.458
 3320SOL     OW10858   5.912   1.217   5.224
 3320SOL    HW110859   5.960   1.130   5.212
 3320SOL    HW210860   5.849   1.209   5.302
 3321SOL     OW10861   3.241   3.010   2.563
 3321SOL    HW110862   3.173   3.045   2.499
 3321SOL    HW210863   3.322   2.979   2.512
 3322SOL     OW10864   4.921   2.076   1.298
 3322SOL    HW110865   4.959   2.038   1.382
 3322SOL    HW210866   4.915   2.175   1.305
 3323SOL     OW10867   2.252   4.031   0.166
 3323SOL    HW110868   2.348   4.020   0.192
 3323SOL    HW210869   2.202   3.946   0.181
 3324SOL     OW10870   1.173   4.230   0.250
 3324SOL    HW110871   1.259   4.270   0.217
 3324SOL    HW210872   1.175   4.131   0.235
 3325SOL     OW10873   2.539   3.003   0.432
 3325SOL    HW110874   2.456   2.961   0.396
 3325SOL    HW210875   2.618   2.947   0.406
 3326SOL     OW10876   5.583   1.671   1.433
 3326SOL    HW110877   5.535   1.685   1.347
 3326SOL    HW210878   5.526   1.702   1.509
 3327SOL     OW10879   2.283   6.317   1.409
 3327SOL    HW110880   2.346   6.309   1.332
 3327SOL    HW210881   2.290   6.409   1.449
 3328SOL     OW10882   4.422   1.647   1.937
 3328SOL    HW110883   4.387   1.741   1.933
 3328SOL    HW210884   4.503   1.639   1.879
 3329SOL     OW10885   4.265   0.316   5.077
 3329SOL    HW110886   4.299   0.363   5.159
 3329SOL    HW210887   4.268   0.378   5.000
 3330SOL     OW10888   6.065   6.643   2.279
 3330SOL    HW110889   6.152   6.666   2.235
 3330SOL    HW210890   5.999   6.617   2.209
 3331SOL     OW10891   1.438   3.339   3.143
 3331SOL    HW110892   1.460   3.427   3.102
 3331SOL    HW210893   1.439   3.347   3.243
 3332SOL     OW10894   5.465   4.439   0.500
 3332SOL    HW110895   5.546   4.449   0.443
 3332SOL    HW210896   5.419   4.353   0.477
 3333SOL     OW10897   3.630   3.746   0.420
 3333SOL    HW110898   3.668   3.695   0.498
 3333SOL    HW210899   3.643   3.844   0.435
 3334SOL     OW10900   1.595   2.788   2.113
 3334SOL    HW110901   1.693   2.774   2.105
 3334SOL    HW210902   1.563   2.752   2.201
 3335SOL     OW10903   3.485   4.770   5.691
 3335SOL    HW110904   3.537   4.852   5.713
 3335SOL    HW210905   3.423   4.749   5.767
 3336SOL     OW10906   2.442   0.063   3.984
 3336SOL    HW110907   2.373   7.020   3.997
 3336SOL    HW210908   2.520   0.045   4.044
 3337SOL     OW10909   3.732   2.892   2.730
 3337SOL    HW110910   3.644   2.917   2.771
 3337SOL    HW210911   3.800   2.962   2.753
 3338SOL     OW10912   1.056   2.246   1.786
 3338SOL    HW110913   1.148   2.210   1.773
 3338SOL    HW210914   1.046   2.280   1.880
 3339SOL     OW10915   1.644   6.844   5.515
 3339SOL    HW110916   1.697   6.921   5.480
 3339SOL    HW210917   1.677   6.819   5.606
 3340SOL     OW10918   4.957   0.572   4.224
 3340SOL    HW110919   4.987   0.655   4.271
 3340SOL    HW210920   4.873   0.538   4.267
 3341SOL     OW10921   2.287   4.486   3.146
 3341SOL    HW110922   2.293   4.386   3.148
 3341SOL    HW210923   2.277   4.516   3.051
 3342SOL     OW10924   6.496   0.147   2.932
 3342SOL    HW110925   6.402   0.166   2.905
 3342SOL    HW210926   6.514   0.049   2.926
 3343SOL     OW10927   5.021   5.718   6.140
 3343SOL    HW110928   4.988   5.641   6.194
 3343SOL    HW210929   5.119   5.732   6.159
 3344SOL     OW10930   6.151   2.911   2.948
 3344SOL    HW110931   6.233   2.923   2.893
 3344SOL    HW210932   6.177   2.891   3.043
 3345SOL     OW10933   0.786   3.890   6.924
 3345SOL    HW110934   0.720   3.953   6.964
 3345SOL    HW210935   0.785   3.804   6.975
 3346SOL     OW10936   2.161   0.973   0.123
 3346SOL    HW110937   2.250   0.928   0.119
 3346SOL    HW210938   2.169   1.066   0.089
 3347SOL     OW10939   1.398   2.761   6.082
 3347SOL    HW110940   1.366   2.797   6.170
 3347SOL    HW210941   1.471   2.820   6.047
 3348SOL     OW10942   4.058   4.228   6.407
 3348SOL    HW110943   4.074   4.175   6.491
 3348SOL    HW210944   3.980   4.189   6.358
 3349SOL     OW10945   2.284   4.271   3.745
 3349SOL    HW110946   2.257   4.234   3.834
 3349SOL    HW210947   2.205   4.312   3.700
 3350SOL     OW10948   0.911   4.240   5.667
 3350SOL    HW110949   0.939   4.318   5.611
 3350SOL    HW210950   0.938   4.155   5.622
 3351SOL     OW10951   5.394   0.850   1.491
 3351SOL    HW110952   5.431   0.915   1.557
 3351SOL    HW210953   5.365   0.898   1.409
 3352SOL     OW10954   5.528   2.900   0.863
 3352SOL    HW110955   5.567   2.976   0.810
 3352SOL    HW210956   5.593   2.824   0.866
 3353SOL     OW10957   1.961   6.959   0.867
 3353SOL    HW110958   2.046   6.917   0.899
 3353SOL    HW210959   1.947   0.018   0.915
 3354SOL     OW10960   4.343   3.156   5.334
 3354SOL    HW110961   4.249   3.153   5.369
 3354SOL    HW210962   4.372   3.064   5.307
 3355SOL     OW10963   2.304   1.702   5.687
 3355SOL    HW110964   2.290   1.603   5.683
 3355SOL    HW210965   2.242   1.742   5.754
 3356SOL     OW10966   0.944   7.011   6.252
 3356SOL    HW110967   0.924   0.023   6.342
 3356SOL    HW210968   1.002   0.046   6.200
 3357SOL     OW10969   3.234   3.969   1.210
 3357SOL    HW110970   3.214   4.045   1.273
 3357SOL    HW210971   3.149   3.926   1.181
 3358SOL     OW10972   6.020   1.140   3.372
 3358SOL    HW110973   6.022   1.090   3.458
 3358SOL    HW210974   5.927   1.143   3.337
 3359SOL     OW10975   0.663   4.849   4.127
 3359SOL    HW110976   0.600   4.913   4.170
 3359SOL    HW210977   0.743   4.898   4.094
 3360SOL     OW10978   0.808   2.259   6.616
 3360SOL    HW110979   0.886   2.236   6.673
 3360SOL    HW210980   0.812   2.207   6.530
 3361SOL     OW10981   1.032   0.272   4.286
 3361SOL    HW110982   1.019   0.198   4.220
 3361SOL    HW210983   0.957   0.272   4.352
 3362SOL     OW10984   3.807   1.699   3.864
 3362SOL    HW110985   3.846   1.785   3.898
 3362SOL    HW210986   3.881   1.637   3.837
 3363SOL     OW10987   6.793   3.002   2.083
 3363SOL    HW110988   6.760   3.032   1.994
 3363SOL    HW210989   6.859   2.928   2.072
 3364SOL     OW10990   1.240   4.395   2.070
 3364SOL    HW110991   1.226   4.299   2.048
 3364SOL    HW210992   1.243   4.407   2.169
 3365SOL     OW10993   1.828   2.894   4.297
 3365SOL    HW110994   1.886   2.822   4.259
 3365SOL    HW210995   1.851   2.909   4.393
 3366SOL     OW10996   6.635   4.080   4.193
 3366SOL    HW110997   6.722   4.129   4.183
 3366SOL    HW210998   6.597   4.060   4.103
 3367SOL     OW10999   3.233   3.534   4.195
 3367SOL    HW111000   3.138   3.524   4.167
 3367SOL    HW211001   3.239   3.529   4.295
 3368SOL     OW11002   1.299   6.342   6.836
 3368SOL    HW111003   1.296   6.388   6.747
 3368SOL    HW211004   1.222   6.372   6.892
 3369SOL     OW11005   4.673   1.805   1.802
 3369SOL    HW111006   4.596   1.783   1.741
 3369SOL    HW211007   4.640   1.858   1.880
 3370SOL     OW11008   6.126   6.461   1.784
 3370SOL    HW111009   6.209   6.515   1.773
 3370SOL    HW211010   6.046   6.518   1.761
 3371SOL     OW11011   2.019   3.670   1.994
 3371SOL    HW111012   2.040   3.725   2.075
 3371SOL    HW211013   2.082   3.593   1.989
 3372SOL     OW11014   6.695   2.412   0.912
 3372SOL    HW111015   6.795   2.416   0.909
 3372SOL    HW211016   6.657   2.492   0.865
 3373SOL     OW11017   1.027   1.507   2.324
 3373SOL    HW111018   0.929   1.523   2.335
 3373SOL    HW211019   1.066   1.576   2.262
 3374SOL     OW11020   0.762   0.310   3.791
 3374SOL    HW111021   0.776   0.249   3.869
 3374SOL    HW211022   0.849   0.353   3.766
 3375SOL     OW11023   7.024   4.646   0.158
 3375SOL    HW111024   0.043   4.577   0.103
 3375SOL    HW211025   6.925   4.637   0.144
 3376SOL     OW11026   2.878   3.560   5.297
 3376SOL    HW111027   2.850   3.464   5.306
 3376SOL    HW211028   2.975   3.568   5.321
 3377SOL     OW11029   6.589   5.421   4.284
 3377SOL    HW111030   6.657   5.492   4.263
 3377SOL    HW211031   6.526   5.456   4.353
 3378SOL     OW11032   0.682   6.657   6.626
 3378SOL    HW111033   0.585   6.634   6.628
 3378SOL    HW211034   0.706   6.693   6.536
 3379SOL     OW11035   0.830   3.142   4.824
 3379SOL    HW111036   0.784   3.054   4.840
 3379SOL    HW211037   0.854   3.150   4.727
 3380SOL     OW11038   3.672   4.962   5.733
 3380SOL    HW111039   3.684   5.056   5.764
 3380SOL    HW211040   3.748   4.906   5.765
 3381SOL     OW11041   0.241   2.574   1.718
 3381SOL    HW111042   0.255   2.529   1.630
 3381SOL    HW211043   0.324   2.568   1.772
 3382SOL     OW11044   6.960   3.195   1.060
 3382SOL    HW111045   6.865   3.174   1.084
 3382SOL    HW211046   7.006   3.111   1.032
 3383SOL     OW11047   3.514   4.887   0.346
 3383SOL    HW111048   3.598   4.911   0.298
 3383SOL    HW211049   3.516   4.925   0.438
 3384SOL     OW11050   2.710   4.661   1.048
 3384SOL    HW111051   2.636   4.653   1.115
 3384SOL    HW211052   2.675   4.704   0.965
 3385SOL     OW11053   6.845   2.877   3.636
 3385SOL    HW111054   6.928   2.839   3.677
 3385SOL    HW211055   6.864   2.968   3.599
 3386SOL     OW11056   6.754   4.724   0.180
 3386SOL    HW111057   6.662   4.687   0.190
 3386SOL    HW211058   6.783   4.764   0.267
 3387SOL     OW11059   5.112   0.905   2.998
 3387SOL    HW111060   5.071   0.925   2.909
 3387SOL    HW211061   5.039   0.885   3.064
 3388SOL     OW11062   5.109   4.577   1.372
 3388SOL    HW111063   5.195   4.547   1.413
 3388SOL    HW211064   5.032   4.536   1.421
 3389SOL     OW11065   6.102   5.849   0.150
 3389SOL    HW111066   6.151   5.912   0.090
 3389SOL    HW211067   6.050   5.902   0.217
 3390SOL     OW11068   4.115   6.527   6.079
 3390SOL    HW111069   4.040   6.591   6.062
 3390SOL    HW211070   4.081   6.433   6.071
 3391SOL     OW11071   5.567   2.209   3.504
 3391SOL    HW111072   5.552   2.112   3.519
 3391SOL    HW211073   5.479   2.255   3.490
 3392SOL     OW11074   3.562   6.980   4.541
 3392SOL    HW111075   3.577   6.891   4.497
 3392SOL    HW211076   3.493   0.003   4.489
 3393SOL     OW11077   5.440   6.715   0.446
 3393SOL    HW111078   5.517   6.658   0.474
 3393SOL    HW211079   5.354   6.667   0.466
 3394SOL     OW11080   3.380   5.271   1.335
 3394SOL    HW111081   3.408   5.290   1.429
 3394SOL    HW211082   3.313   5.197   1.334
 3395SOL     OW11083   4.134   1.290   3.531
 3395SOL    HW111084   4.176   1.210   3.488
 3395SOL    HW211085   4.061   1.325   3.473
 3396SOL     OW11086   5.280   0.675   3.896
 3396SOL    HW111087   5.361   0.710   3.944
 3396SOL    HW211088   5.277   0.576   3.904
 3397SOL     OW11089   2.059   6.217   6.193
 3397SOL    HW111090   2.150   6.224   6.232
 3397SOL    HW211091   2.064   6.230   6.093
 3398SOL     OW11092   0.563   1.478   5.515
 3398SOL    HW111093   0.498   1.480   5.591
 3398SOL    HW211094   0.567   1.569   5.472
 3399SOL     OW11095   6.943   5.056   3.001
 3399SOL    HW111096   6.935   5.036   2.904
 3399SOL    HW211097   0.011   5.050   3.028
 3400SOL     OW11098   5.742   3.437   6.299
 3400SOL    HW111099   5.744   3.338   6.293
 3400SOL    HW211100   5.808   3.467   6.369
 3401SOL     OW11101   6.793   3.762   6.191
 3401SOL    HW111102   6.763   3.673   6.158
 3401SOL    HW211103   6.729   3.833   6.159
 3402SOL     OW11104   6.712   5.628   0.885
 3402SOL    HW111105   6.682   5.570   0.961
 3402SOL    HW211106   6.794   5.589   0.843
 3403SOL     OW11107   4.724   5.862   6.167
 3403SOL    HW111108   4.791   5.935   6.150
 3403SOL    HW211109   4.639   5.903   6.201
 3404SOL     OW11110   5.419   2.933   6.422
 3404SOL    HW111111   5.504   2.953   6.472
 3404SOL    HW211112   5.352   2.894   6.486
 3405SOL     OW11113   5.718   5.433   6.023
 3405SOL    HW111114   5.806   5.469   5.992
 3405SOL    HW211115   5.645   5.472   5.968
 3406SOL     OW11116   2.138   3.383   2.401
 3406SOL    HW111117   2.218   3.428   2.359
 3406SOL    HW211118   2.166   3.339   2.486
 3407SOL     OW11119   2.483   4.552   0.712
 3407SOL    HW111120   2.454   4.549   0.617
 3407SOL    HW211121   2.502   4.647   0.738
 3408SOL     OW11122   4.523   2.329   3.983
 3408SOL    HW111123   4.424   2.330   4.000
 3408SOL    HW211124   4.563   2.415   4.015
 3409SOL     OW11125   3.755   6.616   0.481
 3409SOL    HW111126   3.817   6.678   0.530
 3409SOL    HW211127   3.681   6.587   0.542
 3410SOL     OW11128   5.577   6.632   2.925
 3410SOL    HW111129   5.577   6.667   2.831
 3410SOL    HW211130   5.669   6.638   2.963
 3411SOL     OW11131   0.255   2.957   0.582
 3411SOL    HW111132   0.294   2.972   0.491
 3411SOL    HW211133   0.223   3.044   0.619
 3412SOL     OW11134   5.421   3.626   1.628
 3412SOL    HW111135   5.423   3.624   1.728
 3412SOL    HW211136   5.415   3.533   1.592
 3413SOL     OW11137   6.208   1.813   6.484
 3413SOL    HW111138   6.142   1.749   6.445
 3413SOL    HW211139   6.162   1.900   6.503
 3414SOL     OW11140   3.584   2.363   6.066
 3414SOL    HW111141   3.518   2.364   5.992
 3414SOL    HW211142   3.600   2.456   6.099
 3415SOL     OW11143   1.700   2.189   4.388
 3415SOL    HW111144   1.640   2.244   4.330
 3415SOL    HW211145   1.704   2.095   4.352
 3416SOL     OW11146   6.291   0.058   0.292
 3416SOL    HW111147   6.201   0.086   0.260
 3416SOL    HW211148   6.358   0.128   0.269
 3417SOL     OW11149   0.363   6.942   2.398
 3417SOL    HW111150   0.345   7.003   2.476
 3417SOL    HW211151   0.281   6.889   2.379
 3418SOL     OW11152   3.846   5.518   3.265
 3418SOL    HW111153   3.832   5.609   3.304
 3418SOL    HW211154   3.757   5.480   3.238
 3419SOL     OW11155   4.016   5.604   5.717
 3419SOL    HW111156   3.976   5.638   5.802
 3419SOL    HW211157   3.982   5.657   5.640
 3420SOL     OW11158   4.867   2.827   3.688
 3420SOL    HW111159   4.800   2.752   3.694
 3420SOL    HW211160   4.862   2.882   3.772
 3421SOL     OW11161   5.558   1.790   3.150
 3421SOL    HW111162   5.534   1.884   3.176
 3421SOL    HW211163   5.538   1.776   3.053
 3422SOL     OW11164   2.353   0.375   6.829
 3422SOL    HW111165   2.366   0.369   6.730
 3422SOL    HW211166   2.368   0.286   6.871
 3423SOL     OW11167   0.689   4.308   5.818
 3423SOL    HW111168   0.770   4.252   5.801
 3423SOL    HW211169   0.710   4.404   5.797
 3424SOL     OW11170   3.765   0.072   1.575
 3424SOL    HW111171   3.823   7.019   1.564
 3424SOL    HW211172   3.682   0.046   1.625
 3425SOL     OW11173   4.765   4.813   1.673
 3425SOL    HW111174   4.712   4.729   1.683
 3425SOL    HW211175   4.727   4.868   1.598
 3426SOL     OW11176   5.085   3.531   0.876
 3426SOL    HW111177   5.078   3.630   0.874
 3426SOL    HW211178   5.177   3.505   0.905
 3427SOL     OW11179   1.363   2.432   1.873
 3427SOL    HW111180   1.348   2.493   1.951
 3427SOL    HW211181   1.431   2.473   1.811
 3428SOL     OW11182   5.200   4.725   5.950
 3428SOL    HW111183   5.225   4.812   5.993
 3428SOL    HW211184   5.279   4.687   5.902
 3429SOL     OW11185   0.650   0.973   1.041
 3429SOL    HW111186   0.648   0.977   1.141
 3429SOL    HW211187   0.569   0.924   1.008
 3430SOL     OW11188   2.184   4.746   5.776
 3430SOL    HW111189   2.214   4.683   5.704
 3430SOL    HW211190   2.251   4.747   5.850
 3431SOL     OW11191   2.092   6.737   2.194
 3431SOL    HW111192   2.063   6.796   2.269
 3431SOL    HW211193   2.047   6.648   2.202
 3432SOL     OW11194   2.384   4.432   6.713
 3432SOL    HW111195   2.309   4.497   6.715
 3432SOL    HW211196   2.451   4.457   6.784
 3433SOL     OW11197   1.949   0.851   6.243
 3433SOL    HW111198   1.994   0.920   6.299
 3433SOL    HW211199   1.911   0.780   6.302
 3434SOL     OW11200   2.784   2.127   1.863
 3434SOL    HW111201   2.733   2.148   1.779
 3434SOL    HW211202   2.816   2.213   1.904
 3435SOL     OW11203   2.400   0.748   0.350
 3435SOL    HW111204   2.486   0.719   0.310
 3435SOL    HW211205   2.408   0.843   0.382
 3436SOL     OW11206   4.197   5.258   6.804
 3436SOL    HW111207   4.247   5.336   6.842
 3436SOL    HW211208   4.120   5.235   6.863
 3437SOL     OW11209   1.589   6.523   5.662
 3437SOL    HW111210   1.596   6.457   5.737
 3437SOL    HW211211   1.515   6.587   5.682
 3438SOL     OW11212   0.624   3.483   1.682
 3438SOL    HW111213   0.590   3.390   1.671
 3438SOL    HW211214   0.636   3.503   1.779
 3439SOL     OW11215   2.699   6.059   3.108
 3439SOL    HW111216   2.757   6.071   3.188
 3439SOL    HW211217   2.680   6.148   3.067
 3440SOL     OW11218   4.132   3.316   4.655
 3440SOL    HW111219   4.101   3.310   4.749
 3440SOL    HW211220   4.173   3.405   4.639
 3441SOL     OW11221   6.977   6.408   6.435
 3441SOL    HW111222   6.879   6.391   6.442
 3441SOL    HW211223   7.012   6.436   6.525
 3442SOL     OW11224   3.466   3.881   1.101
 3442SOL    HW111225   3.395   3.902   1.168
 3442SOL    HW211226   3.480   3.960   1.041
 3443SOL     OW11227   3.583   5.856   2.719
 3443SOL    HW111228   3.493   5.880   2.681
 3443SOL    HW211229   3.574   5.840   2.818
 3444SOL     OW11230   5.326   4.510   1.511
 3444SOL    HW111231   5.414   4.553   1.494
 3444SOL    HW211232   5.281   4.554   1.588
 3445SOL     OW11233   6.741   4.970   4.077
 3445SOL    HW111234   6.684   5.051   4.085
 3445SOL    HW211235   6.829   4.987   4.121
 3446SOL     OW11236   5.687   0.476   1.548
 3446SOL    HW111237   5.775   0.459   1.594
 3446SOL    HW211238   5.664   0.397   1.492
 3447SOL     OW11239   5.450   0.371   0.199
 3447SOL    HW111240   5.363   0.416   0.175
 3447SOL    HW211241   5.441   0.273   0.183
 3448SOL     OW11242   1.924   6.529   5.377
 3448SOL    HW111243   1.855   6.598   5.358
 3448SOL    HW211244   1.902   6.482   5.462
 3449SOL     OW11245   5.740   5.241   5.468
 3449SOL    HW111246   5.689   5.162   5.504
 3449SOL    HW211247   5.681   5.293   5.406
 3450SOL     OW11248   1.426   0.708   6.471
 3450SOL    HW111249   1.362   0.784   6.476
 3450SOL    HW211250   1.457   0.696   6.376
 3451SOL     OW11251   1.577   5.597   0.642
 3451SOL    HW111252   1.626   5.516   0.674
 3451SOL    HW211253   1.501   5.616   0.703
 3452SOL     OW11254   5.617   0.765   5.924
 3452SOL    HW111255   5.528   0.773   5.880
 3452SOL    HW211256   5.605   0.731   6.017
 3453SOL     OW11257   5.069   6.514   6.179
 3453SOL    HW111258   5.116   6.572   6.113
 3453SOL    HW211259   5.103   6.420   6.170
 3454SOL     OW11260   1.665   2.777   3.291
 3454SOL    HW111261   1.761   2.747   3.294
 3454SOL    HW211262   1.638   2.811   3.381
 3455SOL     OW11263   2.047   2.192   4.755
 3455SOL    HW111264   2.074   2.120   4.819
 3455SOL    HW211265   2.115   2.266   4.757
 3456SOL     OW11266   4.418   4.529   2.119
 3456SOL    HW111267   4.510   4.568   2.129
 3456SOL    HW211268   4.425   4.438   2.077
 3457SOL     OW11269   3.663   5.314   4.969
 3457SOL    HW111270   3.633   5.351   5.057
 3457SOL    HW211271   3.758   5.284   4.977
 3458SOL     OW11272   4.230   2.209   2.334
 3458SOL    HW111273   4.297   2.281   2.322
 3458SOL    HW211274   4.238   2.143   2.259
 3459SOL     OW11275   4.744   1.585   3.293
 3459SOL    HW111276   4.729   1.525   3.214
 3459SOL    HW211277   4.709   1.676   3.273
 3460SOL     OW11278   3.552   1.705   5.617
 3460SOL    HW111279   3.515   1.680   5.528
 3460SOL    HW211280   3.652   1.694   5.615
 3461SOL     OW11281   5.287   4.909   0.019
 3461SOL    HW111282   5.274   5.007   0.027
 3461SOL    HW211283   5.384   4.890   0.000
 3462SOL     OW11284   1.709   3.698   6.148
 3462SOL    HW111285   1.761   3.693   6.063
 3462SOL    HW211286   1.772   3.697   6.225
 3463SOL     OW11287   0.143   3.883   0.921
 3463SOL    HW111288   0.187   3.880   1.011
 3463SOL    HW211289   0.182   3.812   0.862
 3464SOL     OW11290   0.030   4.798   6.472
 3464SOL    HW111291   0.073   4.731   6.412
 3464SOL    HW211292   0.007   4.880   6.419
 3465SOL     OW11293   2.069   2.009   1.565
 3465SOL    HW111294   2.134   1.939   1.594
 3465SOL    HW211295   2.080   2.026   1.467
 3466SOL     OW11296   6.767   5.683   5.904
 3466SOL    HW111297   6.747   5.593   5.943
 3466SOL    HW211298   6.814   5.739   5.973
 3467SOL     OW11299   2.423   2.012   6.535
 3467SOL    HW111300   2.343   2.062   6.570
 3467SOL    HW211301   2.392   1.940   6.472
 3468SOL     OW11302   2.918   5.614   3.203
 3468SOL    HW111303   2.879   5.667   3.127
 3468SOL    HW211304   3.014   5.637   3.214
 3469SOL     OW11305   6.585   2.452   4.412
 3469SOL    HW111306   6.547   2.468   4.321
 3469SOL    HW211307   6.558   2.362   4.445
 3470SOL     OW11308   0.663   5.369   1.343
 3470SOL    HW111309   0.637   5.346   1.249
 3470SOL    HW211310   0.763   5.375   1.349
 3471SOL     OW11311   4.032   5.375   5.391
 3471SOL    HW111312   4.000   5.441   5.323
 3471SOL    HW211313   3.972   5.378   5.471
 3472SOL     OW11314   1.924   1.052   4.239
 3472SOL    HW111315   2.002   1.064   4.301
 3472SOL    HW211316   1.895   1.141   4.205
 3473SOL     OW11317   5.501   1.819   5.623
 3473SOL    HW111318   5.600   1.807   5.616
 3473SOL    HW211319   5.480   1.878   5.701
 3474SOL     OW11320   2.920   5.051   1.957
 3474SOL    HW111321   2.953   4.964   1.992
 3474SOL    HW211322   2.845   5.035   1.892
 3475SOL     OW11323   0.784   6.649   3.776
 3475SOL    HW111324   0.701   6.652   3.832
 3475SOL    HW211325   0.847   6.581   3.815
 3476SOL     OW11326   3.804   0.600   5.108
 3476SOL    HW111327   3.850   0.665   5.167
 3476SOL    HW211328   3.800   0.636   5.015
 3477SOL     OW11329   3.409   5.531   0.906
 3477SOL    HW111330   3.452   5.560   0.820
 3477SOL    HW211331   3.316   5.567   0.910
 3478SOL     OW11332   2.405   6.133   5.853
 3478SOL    HW111333   2.330   6.156   5.791
 3478SOL    HW211334   2.434   6.214   5.902
 3479SOL     OW11335   0.703   0.223   2.674
 3479SOL    HW111336   0.648   0.240   2.592
 3479SOL    HW211337   0.683   0.132   2.709
 3480SOL     OW11338   7.028   1.432   4.163
 3480SOL    HW111339   6.940   1.420   4.210
 3480SOL    HW211340   0.051   1.507   4.205
 3481SOL     OW11341   4.019   6.873   6.516
 3481SOL    HW111342   4.053   6.869   6.422
 3481SOL    HW211343   3.926   6.836   6.519
 3482SOL     OW11344   5.834   1.439   1.225
 3482SOL    HW111345   5.924   1.427   1.267
 3482SOL    HW211346   5.796   1.528   1.252
 3483SOL     OW11347   2.586   0.391   0.910
 3483SOL    HW111348   2.606   0.304   0.956
 3483SOL    HW211349   2.488   0.411   0.918
 3484SOL     OW11350   3.000   3.176   3.034
 3484SOL    HW111351   3.056   3.130   3.103
 3484SOL    HW211352   2.999   3.122   2.950
 3485SOL     OW11353   1.789   1.176   4.943
 3485SOL    HW111354   1.744   1.149   5.029
 3485SOL    HW211355   1.791   1.275   4.936
 3486SOL     OW11356   3.953   1.539   1.803
 3486SOL    HW111357   3.874   1.558   1.861
 3486SOL    HW211358   4.029   1.599   1.829
 3487SOL     OW11359   5.868   1.930   6.510
 3487SOL    HW111360   5.899   1.915   6.416
 3487SOL    HW211361   5.771   1.953   6.510
 3488SOL     OW11362   6.690   3.333   3.731
 3488SOL    HW111363   6.656   3.239   3.734
 3488SOL    HW211364   6.678   3.369   3.638
 3489SOL     OW11365   3.200   6.620   0.410
 3489SOL    HW111366   3.280   6.652   0.461
 3489SOL    HW211367   3.230   6.569   0.329
 3490SOL     OW11368   4.731   4.126   0.633
 3490SOL    HW111369   4.750   4.113   0.731
 3490SOL    HW211370   4.775   4.052   0.582
 3491SOL     OW11371   6.856   2.925   5.496
 3491SOL    HW111372   6.865   2.864   5.575
 3491SOL    HW211373   6.761   2.925   5.465
 3492SOL     OW11374   1.079   5.598   6.788
 3492SOL    HW111375   1.136   5.552   6.856
 3492SOL    HW211376   1.058   5.691   6.818
 3493SOL     OW11377   5.974   4.971   0.824
 3493SOL    HW111378   6.054   5.028   0.842
 3493SOL    HW211379   6.002   4.875   0.815
 3494SOL     OW11380   3.928   0.059   1.014
 3494SOL    HW111381   3.958   6.992   1.023
 3494SOL    HW211382   3.995   0.119   1.059
 3495SOL     OW11383   4.043   4.747   1.896
 3495SOL    HW111384   3.962   4.804   1.898
 3495SOL    HW211385   4.020   4.657   1.859
 3496SOL     OW11386   1.255   2.829   1.524
 3496SOL    HW111387   1.163   2.822   1.562
 3496SOL    HW211388   1.270   2.922   1.489
 3497SOL     OW11389   4.496   0.743   3.469
 3497SOL    HW111390   4.547   0.802   3.407
 3497SOL    HW211391   4.518   0.766   3.564
 3498SOL     OW11392   2.879   1.567   1.043
 3498SOL    HW111393   2.974   1.585   1.017
 3498SOL    HW211394   2.839   1.649   1.083
 3499SOL     OW11395   6.847   3.607   4.325
 3499SOL    HW111396   6.748   3.592   4.312
 3499SOL    HW211397   6.871   3.699   4.294
 3500SOL     OW11398   6.427   4.270   6.032
 3500SOL    HW111399   6.472   4.250   6.119
 3500SOL    HW211400   6.331   4.244   6.037
 3501SOL     OW11401   0.854   4.690   5.302
 3501SOL    HW111402   0.829   4.785   5.280
 3501SOL    HW211403   0.941   4.689   5.350
 3502SOL     OW11404   0.413   2.170   1.797
 3502SOL    HW111405   0.393   2.221   1.880
 3502SOL    HW211406   0.504   2.129   1.804
 3503SOL     OW11407   5.010   5.922   5.596
 3503SOL    HW111408   5.014   6.022   5.594
 3503SOL    HW211409   5.101   5.886   5.619
 3504SOL     OW11410   2.870   3.615   1.190
 3504SOL    HW111411   2.829   3.670   1.117
 3504SOL    HW211412   2.904   3.675   1.262
 3505SOL     OW11413   5.046   5.908   5.050
 3505SOL    HW111414   4.981   5.973   5.012
 3505SOL    HW211415   5.107   5.877   4.977
 3506SOL     OW11416   4.222   5.744   4.551
 3506SOL    HW111417   4.135   5.754   4.503
 3506SOL    HW211418   4.234   5.821   4.614
 3507SOL     OW11419   1.092   0.890   6.405
 3507SOL    HW111420   1.098   0.844   6.494
 3507SOL    HW211421   1.160   0.963   6.401
 3508SOL     OW11422   5.154   2.434   0.082
 3508SOL    HW111423   5.208   2.368   0.135
 3508SOL    HW211424   5.091   2.386   0.022
 3509SOL     OW11425   6.050   6.342   6.811
 3509SOL    HW111426   6.045   6.433   6.851
 3509SOL    HW211427   6.126   6.339   6.745
 3510SOL     OW11428   1.758   2.165   1.581
 3510SOL    HW111429   1.776   2.258   1.547
 3510SOL    HW211430   1.764   2.101   1.505
 3511SOL     OW11431   1.710   3.357   0.000
 3511SOL    HW111432   1.630   3.298   7.014
 3511SOL    HW211433   1.743   3.345   0.094
 3512SOL     OW11434   1.085   3.530   0.485
 3512SOL    HW111435   1.121   3.578   0.565
 3512SOL    HW211436   1.140   3.448   0.468
 3513SOL     OW11437   6.675   4.108   1.014
 3513SOL    HW111438   6.628   4.040   0.957
 3513SOL    HW211439   6.773   4.091   1.012
 3514SOL     OW11440   0.705   6.406   1.350
 3514SOL    HW111441   0.670   6.436   1.262
 3514SOL    HW211442   0.764   6.326   1.337
 3515SOL     OW11443   3.349   5.992   2.587
 3515SOL    HW111444   3.260   5.954   2.612
 3515SOL    HW211445   3.340   6.042   2.501
 3516SOL     OW11446   3.490   0.426   0.628
 3516SOL    HW111447   3.468   0.392   0.719
 3516SOL    HW211448   3.406   0.447   0.579
 3517SOL     OW11449   0.600   1.529   0.341
 3517SOL    HW111450   0.574   1.495   0.251
 3517SOL    HW211451   0.590   1.457   0.409
 3518SOL     OW11452   4.899   3.922   6.432
 3518SOL    HW111453   4.959   3.843   6.443
 3518SOL    HW211454   4.825   3.899   6.369
 3519SOL     OW11455   0.940   6.290   6.789
 3519SOL    HW111456   0.987   6.341   6.860
 3519SOL    HW211457   0.863   6.240   6.829
 3520SOL     OW11458   4.159   4.679   1.039
 3520SOL    HW111459   4.234   4.730   0.998
 3520SOL    HW211460   4.119   4.617   0.971
 3521SOL     OW11461   5.506   2.829   1.873
 3521SOL    HW111462   5.448   2.751   1.850
 3521SOL    HW211463   5.594   2.820   1.826
 3522SOL     OW11464   2.597   5.173   1.955
 3522SOL    HW111465   2.506   5.212   1.966
 3522SOL    HW211466   2.598   5.079   1.989
 3523SOL     OW11467   3.145   4.737   5.213
 3523SOL    HW111468   3.074   4.671   5.188
 3523SOL    HW211469   3.126   4.824   5.166
 3524SOL     OW11470   2.797   0.546   0.901
 3524SOL    HW111471   2.715   0.490   0.913
 3524SOL    HW211472   2.875   0.501   0.945
 3525SOL     OW11473   0.224   2.802   1.933
 3525SOL    HW111474   0.279   2.788   1.852
 3525SOL    HW211475   0.232   2.897   1.963
 3526SOL     OW11476   0.849   0.689   3.022
 3526SOL    HW111477   0.883   0.758   2.957
 3526SOL    HW211478   0.853   0.599   2.979
 3527SOL     OW11479   5.057   2.679   6.531
 3527SOL    HW111480   5.088   2.722   6.446
 3527SOL    HW211481   5.069   2.742   6.607
 3528SOL     OW11482   0.605   5.900   2.840
 3528SOL    HW111483   0.597   5.897   2.939
 3528SOL    HW211484   0.525   5.858   2.798
 3529SOL     OW11485   4.516   6.989   5.740
 3529SOL    HW111486   4.493   6.907   5.689
 3529SOL    HW211487   4.465   0.039   5.703
 3530SOL     OW11488   2.741   5.763   2.547
 3530SOL    HW111489   2.807   5.837   2.527
 3530SOL    HW211490   2.767   5.681   2.496
 3531SOL     OW11491   5.151   4.143   0.288
 3531SOL    HW111492   5.100   4.057   0.280
 3531SOL    HW211493   5.098   4.217   0.246
 3532SOL     OW11494   2.555   0.716   6.880
 3532SOL    HW111495   2.611   0.662   6.944
 3532SOL    HW211496   2.597   0.715   6.790
 3533SOL     OW11497   0.810   1.864   2.957
 3533SOL    HW111498   0.879   1.904   2.895
 3533SOL    HW211499   0.809   1.765   2.946
 3534SOL     OW11500   6.035   1.265   5.477
 3534SOL    HW111501   5.962   1.280   5.410
 3534SOL    HW211502   6.115   1.318   5.450
 3535SOL     OW11503   6.535   5.248   6.468
 3535SOL    HW111504   6.485   5.266   6.552
 3535SOL    HW211505   6.632   5.266   6.483
 3536SOL     OW11506   1.778   3.007   3.175
 3536SOL    HW111507   1.763   3.091   3.227
 3536SOL    HW211508   1.736   2.930   3.223
 3537SOL     OW11509   2.327   5.751   1.009
 3537SOL    HW111510   2.238   5.757   0.965
 3537SOL    HW211511   2.344   5.657   1.039
 3538SOL     OW11512   3.038   6.764   3.236
 3538SOL    HW111513   3.124   6.772   3.187
 3538SOL    HW211514   3.048   6.801   3.328
 3539SOL     OW11515   5.701   4.088   5.807
 3539SOL    HW111516   5.689   4.047   5.898
 3539SOL    HW211517   5.612   4.114   5.770
 3540SOL     OW11518   2.016   3.006   0.086
 3540SOL    HW111519   2.039   3.060   0.005
 3540SOL    HW211520   2.025   2.909   0.064
 3541SOL     OW11521   2.724   3.231   0.765
 3541SOL    HW111522   2.704   3.311   0.822
 3541SOL    HW211523   2.708   3.254   0.669
 3542SOL     OW11524   6.006   2.826   7.021
 3542SOL    HW111525   6.103   2.851   7.027
 3542SOL    HW211526   5.974   2.841   6.928
 3543SOL     OW11527   1.744   3.522   3.234
 3543SOL    HW111528   1.771   3.610   3.273
 3543SOL    HW211529   1.775   3.516   3.140
 3544SOL     OW11530   3.229   4.063   6.823
 3544SOL    HW111531   3.215   4.050   6.725
 3544SOL    HW211532   3.179   3.993   6.873
 3545SOL     OW11533   3.572   5.257   0.412
 3545SOL    HW111534   3.493   5.304   0.452
 3545SOL    HW211535   3.627   5.218   0.485
 3546SOL     OW11536   6.513   3.845   3.318
 3546SOL    HW111537   6.496   3.902   3.238
 3546SOL    HW211538   6.605   3.807   3.312
 3547SOL     OW11539   6.766   3.445   5.231
 3547SOL    HW111540   6.806   3.457   5.140
 3547SOL    HW211541   6.820   3.496   5.298
 3548SOL     OW11542   4.748   1.861   6.075
 3548SOL    HW111543   4.831   1.805   6.082
 3548SOL    HW211544   4.767   1.943   6.022
 3549SOL     OW11545   2.046   5.677   6.330
 3549SOL    HW111546   2.065   5.774   6.310
 3549SOL    HW211547   1.948   5.663   6.332
 3550SOL     OW11548   4.687   1.947   4.937
 3550SOL    HW111549   4.709   1.965   4.841
 3550SOL    HW211550   4.749   1.878   4.974
 3551SOL     OW11551   3.735   2.064   5.590
 3551SOL    HW111552   3.834   2.077   5.595
 3551SOL    HW211553   3.710   2.026   5.501
 3552SOL     OW11554   6.605   5.569   1.302
 3552SOL    HW111555   6.548   5.650   1.285
 3552SOL    HW211556   6.552   5.487   1.281
 3553SOL     OW11557   3.536   6.393   5.825
 3553SOL    HW111558   3.633   6.404   5.803
 3553SOL    HW211559   3.526   6.346   5.913
 3554SOL     OW11560   3.946   3.611   1.142
 3554SOL    HW111561   3.952   3.633   1.045
 3554SOL    HW211562   3.859   3.646   1.179
 3555SOL     OW11563   1.423   2.292   4.258
 3555SOL    HW111564   1.367   2.231   4.314
 3555SOL    HW211565   1.408   2.273   4.161
 3556SOL     OW11566   3.630   1.293   4.861
 3556SOL    HW111567   3.625   1.194   4.861
 3556SOL    HW211568   3.565   1.331   4.927
 3557SOL     OW11569   0.194   0.631   2.819
 3557SOL    HW111570   0.130   0.611   2.894
 3557SOL    HW211571   0.274   0.571   2.827
 3558SOL     OW11572   2.651   6.249   0.517
 3558SOL    HW111573   2.609   6.169   0.473
 3558SOL    HW211574   2.684   6.311   0.446
 3559SOL     OW11575   3.515   6.421   4.434
 3559SOL    HW111576   3.419   6.392   4.439
 3559SOL    HW211577   3.573   6.343   4.411
 3560SOL     OW11578   1.882   4.737   4.833
 3560SOL    HW111579   1.925   4.650   4.858
 3560SOL    HW211580   1.952   4.806   4.818
 3561SOL     OW11581   5.746   4.477   4.991
 3561SOL    HW111582   5.685   4.519   4.923
 3561SOL    HW211583   5.835   4.522   4.988
 3562SOL     OW11584   2.474   1.406   4.520
 3562SOL    HW111585   2.558   1.447   4.554
 3562SOL    HW211586   2.452   1.324   4.572
 3563SOL     OW11587   6.211   2.332   5.870
 3563SOL    HW111588   6.176   2.317   5.778
 3563SOL    HW211589   6.262   2.251   5.900
 3564SOL     OW11590   0.515   4.655   3.049
 3564SOL    HW111591   0.559   4.665   3.138
 3564SOL    HW211592   0.416   4.648   3.060
 3565SOL     OW11593   3.146   4.975   3.225
 3565SOL    HW111594   3.077   4.926   3.172
 3565SOL    HW211595   3.232   4.977   3.174
 3566SOL     OW11596   6.893   1.177   5.095
 3566SOL    HW111597   6.865   1.173   5.191
 3566SOL    HW211598   6.898   1.083   5.059
 3567SOL     OW11599   0.717   3.796   6.591
 3567SOL    HW111600   0.645   3.822   6.656
 3567SOL    HW211601   0.738   3.874   6.532
 3568SOL     OW11602   6.740   4.501   5.756
 3568SOL    HW111603   6.670   4.449   5.708
 3568SOL    HW211604   6.729   4.489   5.855
 3569SOL     OW11605   2.519   1.905   6.099
 3569SOL    HW111606   2.514   1.963   6.017
 3569SOL    HW211607   2.612   1.869   6.109
 3570SOL     OW11608   5.599   0.216   5.103
 3570SOL    HW111609   5.565   0.170   5.185
 3570SOL    HW211610   5.679   0.271   5.126
 3571SOL     OW11611   6.915   6.100   0.027
 3571SOL    HW111612   6.867   6.186   0.013
 3571SOL    HW211613   6.990   6.093   6.990
 3572SOL     OW11614   5.426   3.797   3.779
 3572SOL    HW111615   5.354   3.851   3.737
 3572SOL    HW211616   5.392   3.757   3.864
 3573SOL     OW11617   0.774   4.031   4.424
 3573SOL    HW111618   0.777   4.122   4.383
 3573SOL    HW211619   0.698   3.978   4.384
 3574SOL     OW11620   0.513   4.722   0.318
 3574SOL    HW111621   0.585   4.779   0.356
 3574SOL    HW211622   0.528   4.710   0.220
 3575SOL     OW11623   6.367   5.045   3.181
 3575SOL    HW111624   6.432   5.053   3.105
 3575SOL    HW211625   6.274   5.048   3.145
 3576SOL     OW11626   1.485   1.667   5.686
 3576SOL    HW111627   1.573   1.710   5.708
 3576SOL    HW211628   1.413   1.736   5.685
 3577SOL     OW11629   1.504   2.484   6.463
 3577SOL    HW111630   1.447   2.564   6.448
 3577SOL    HW211631   1.547   2.490   6.553
 3578SOL     OW11632   4.274   3.380   6.806
 3578SOL    HW111633   4.256   3.451   6.873
 3578SOL    HW211634   4.199   3.376   6.740
 3579SOL     OW11635   6.642   3.944   5.173
 3579SOL    HW111636   6.556   3.993   5.174
 3579SOL    HW211637   6.630   3.855   5.129
 3580SOL     OW11638   5.987   2.183   1.365
 3580SOL    HW111639   6.076   2.144   1.387
 3580SOL    HW211640   5.927   2.112   1.327
 3581SOL     OW11641   6.927   0.417   3.360
 3581SOL    HW111642   6.851   0.389   3.301
 3581SOL    HW211643   6.907   0.394   3.455
 3582SOL     OW11644   0.572   1.969   6.173
 3582SOL    HW111645   0.620   2.050   6.140
 3582SOL    HW211646   0.476   1.993   6.191
 3583SOL     OW11647   0.765   4.190   0.119
 3583SOL    HW111648   0.857   4.200   0.081
 3583SOL    HW211649   0.706   4.146   0.051
 3584SOL     OW11650   6.145   6.346   6.466
 3584SOL    HW111651   6.079   6.302   6.405
 3584SOL    HW211652   6.109   6.436   6.494
 3585SOL     OW11653   3.254   5.147   5.105
 3585SOL    HW111654   3.184   5.192   5.049
 3585SOL    HW211655   3.271   5.201   5.188
 3586SOL     OW11656   6.202   2.964   5.454
 3586SOL    HW111657   6.201   3.009   5.364
 3586SOL    HW211658   6.116   2.983   5.502
 3587SOL     OW11659   2.992   6.037   0.889
 3587SOL    HW111660   2.950   6.108   0.832
 3587SOL    HW211661   3.091   6.040   0.878
 3588SOL     OW11662   1.541   2.366   5.689
 3588SOL    HW111663   1.513   2.273   5.669
 3588SOL    HW211664   1.503   2.428   5.619
 3589SOL     OW11665   3.095   0.888   4.569
 3589SOL    HW111666   3.083   0.880   4.470
 3589SOL    HW211667   3.060   0.976   4.600
 3590SOL     OW11668   0.322   4.532   6.519
 3590SOL    HW111669   0.406   4.488   6.486
 3590SOL    HW211670   0.266   4.560   6.441
 3591SOL     OW11671   5.733   2.945   7.024
 3591SOL    HW111672   5.785   2.862   0.020
 3591SOL    HW211673   5.788   3.001   6.962
 3592SOL     OW11674   5.278   3.204   3.453
 3592SOL    HW111675   5.238   3.171   3.368
 3592SOL    HW211676   5.351   3.141   3.483
 3593SOL     OW11677   2.817   6.375   4.327
 3593SOL    HW111678   2.737   6.421   4.288
 3593SOL    HW211679   2.889   6.371   4.258
 3594SOL     OW11680   3.838   1.051   3.245
 3594SOL    HW111681   3.876   1.006   3.164
 3594SOL    HW211682   3.779   1.127   3.216
 3595SOL     OW11683   2.411   5.938   5.371
 3595SOL    HW111684   2.336   6.001   5.391
 3595SOL    HW211685   2.453   5.963   5.284
 3596SOL     OW11686   6.333   1.170   2.612
 3596SOL    HW111687   6.269   1.244   2.596
 3596SOL    HW211688   6.286   1.093   2.654
 3597SOL     OW11689   3.072   6.183   4.466
 3597SOL    HW111690   2.975   6.165   4.449
 3597SOL    HW211691   3.097   6.148   4.556
 3598SOL     OW11692   0.867   0.754   5.591
 3598SOL    HW111693   0.829   0.711   5.672
 3598SOL    HW211694   0.827   0.712   5.509
 3599SOL     OW11695   1.080   2.238   5.612
 3599SOL    HW111696   1.047   2.197   5.527
 3599SOL    HW211697   1.011   2.226   5.684
 3600SOL     OW11698   6.902   3.277   0.271
 3600SOL    HW111699   6.956   3.194   0.255
 3600SOL    HW211700   6.813   3.267   0.226
 3601SOL     OW11701   6.865   4.143   0.563
 3601SOL    HW111702   6.911   4.219   0.518
 3601SOL    HW211703   6.896   4.056   0.524
 3602SOL     OW11704   2.159   1.095   0.810
 3602SOL    HW111705   2.223   1.160   0.852
 3602SOL    HW211706   2.100   1.055   0.881
 3603SOL     OW11707   3.783   5.836   4.147
 3603SOL    HW111708   3.806   5.740   4.164
 3603SOL    HW211709   3.787   5.853   4.048
 3604SOL     OW11710   6.811   3.752   3.588
 3604SOL    HW111711   6.866   3.828   3.553
 3604SOL    HW211712   6.871   3.676   3.613
 3605SOL     OW11713   6.068   4.526   5.908
 3605SOL    HW111714   6.003   4.503   5.981
 3605SOL    HW211715   6.119   4.444   5.882
 3606SOL     OW11716   6.817   4.962   5.945
 3606SOL    HW111717   6.835   4.915   6.031
 3606SOL    HW211718   6.744   4.914   5.896
 3607SOL     OW11719   5.069   0.152   0.438
 3607SOL    HW111720   5.124   0.228   0.471
 3607SOL    HW211721   5.128   0.078   0.409
 3608SOL     OW11722   6.573   1.885   2.075
 3608SOL    HW111723   6.636   1.936   2.133
 3608SOL    HW211724   6.482   1.884   2.117
 3609SOL     OW11725   6.820   0.969   4.221
 3609SOL    HW111726   6.720   0.959   4.215
 3609SOL    HW211727   6.852   0.931   4.308
 3610SOL     OW11728   0.936   0.729   5.122
 3610SOL    HW111729   0.965   0.824   5.109
 3610SOL    HW211730   0.837   0.723   5.111
 3611SOL     OW11731   3.694   4.888   5.188
 3611SOL    HW111732   3.707   4.976   5.233
 3611SOL    HW211733   3.597   4.864   5.189
 3612SOL     OW11734   0.342   6.784   6.196
 3612SOL    HW111735   0.429   6.820   6.164
 3612SOL    HW211736   0.285   6.858   6.231
 3613SOL     OW11737   5.403   4.827   0.944
 3613SOL    HW111738   5.436   4.733   0.942
 3613SOL    HW211739   5.303   4.827   0.944
 3614SOL     OW11740   3.760   3.181   3.891
 3614SOL    HW111741   3.727   3.220   3.805
 3614SOL    HW211742   3.753   3.082   3.887
 3615SOL     OW11743   5.686   6.409   6.272
 3615SOL    HW111744   5.734   6.489   6.307
 3615SOL    HW211745   5.588   6.422   6.283
 3616SOL     OW11746   6.261   2.219   6.558
 3616SOL    HW111747   6.281   2.248   6.652
 3616SOL    HW211748   6.197   2.142   6.560
 3617SOL     OW11749   5.617   1.903   6.146
 3617SOL    HW111750   5.541   1.898   6.210
 3617SOL    HW211751   5.686   1.966   6.182
 3618SOL     OW11752   1.943   2.042   5.335
 3618SOL    HW111753   1.889   1.997   5.406
 3618SOL    HW211754   1.978   1.973   5.272
 3619SOL     OW11755   6.505   2.088   3.641
 3619SOL    HW111756   6.436   2.145   3.598
 3619SOL    HW211757   6.595   2.130   3.627
 3620SOL     OW11758   6.002   6.269   6.224
 3620SOL    HW111759   5.918   6.248   6.174
 3620SOL    HW211760   6.054   6.339   6.174
 3621SOL     OW11761   2.720   2.414   6.430
 3621SOL    HW111762   2.809   2.407   6.385
 3621SOL    HW211763   2.688   2.323   6.456
 3622SOL     OW11764   2.127   2.134   3.216
 3622SOL    HW111765   2.219   2.096   3.211
 3622SOL    HW211766   2.087   2.134   3.124
 3623SOL     OW11767   5.910   5.586   4.033
 3623SOL    HW111768   5.966   5.666   4.012
 3623SOL    HW211769   5.956   5.504   3.997
 3624SOL     OW11770   2.470   6.106   2.413
 3624SOL    HW111771   2.464   6.206   2.408
 3624SOL    HW211772   2.469   6.068   2.320
 3625SOL     OW11773   6.112   3.200   6.950
 3625SOL    HW111774   6.021   3.174   6.918
 3625SOL    HW211775   6.103   3.263   7.027
 3626SOL     OW11776   1.552   4.164   5.515
 3626SOL    HW111777   1.604   4.183   5.431
 3626SOL    HW211778   1.614   4.129   5.585
 3627SOL     OW11779   4.040   3.478   3.265
 3627SOL    HW111780   3.991   3.395   3.294
 3627SOL    HW211781   4.063   3.533   3.345
 3628SOL     OW11782   2.109   6.587   1.818
 3628SOL    HW111783   2.025   6.640   1.827
 3628SOL    HW211784   2.186   6.648   1.799
 3629SOL     OW11785   6.297   2.073   5.029
 3629SOL    HW111786   6.249   2.013   5.093
 3629SOL    HW211787   6.231   2.115   4.967
 3630SOL     OW11788   5.609   2.912   4.006
 3630SOL    HW111789   5.597   3.008   4.033
 3630SOL    HW211790   5.685   2.905   3.942
 3631SOL     OW11791   2.006   0.369   3.827
 3631SOL    HW111792   1.973   0.426   3.903
 3631SOL    HW211793   1.935   0.362   3.757
 3632SOL     OW11794   5.244   0.665   0.813
 3632SOL    HW111795   5.210   0.634   0.902
 3632SOL    HW211796   5.289   0.753   0.823
 3633SOL     OW11797   2.920   2.263   6.068
 3633SOL    HW111798   2.930   2.196   6.142
 3633SOL    HW211799   2.858   2.226   5.999
 3634SOL     OW11800   0.693   5.711   5.023
 3634SOL    HW111801   0.702   5.619   4.985
 3634SOL    HW211802   0.741   5.716   5.111
 3635SOL     OW11803   2.873   0.461   5.300
 3635SOL    HW111804   2.968   0.490   5.286
 3635SOL    HW211805   2.811   0.537   5.278
 3636SOL     OW11806   1.177   6.179   5.901
 3636SOL    HW111807   1.130   6.139   5.822
 3636SOL    HW211808   1.252   6.121   5.929
 3637SOL     OW11809   6.412   1.898   1.272
 3637SOL    HW111810   6.370   1.841   1.343
 3637SOL    HW211811   6.362   1.886   1.186
 3638SOL     OW11812   6.913   4.817   4.618
 3638SOL    HW111813   6.843   4.758   4.658
 3638SOL    HW211814   6.963   4.767   4.547
 3639SOL     OW11815   3.934   3.763   0.891
 3639SOL    HW111816   3.981   3.837   0.938
 3639SOL    HW211817   3.838   3.788   0.876
 3640SOL     OW11818   3.494   6.861   6.572
 3640SOL    HW111819   3.589   6.833   6.563
 3640SOL    HW211820   3.457   6.826   6.658
 3641SOL     OW11821   4.599   2.507   4.804
 3641SOL    HW111822   4.542   2.474   4.729
 3641SOL    HW211823   4.546   2.504   4.889
 3642SOL     OW11824   5.049   1.490   6.174
 3642SOL    HW111825   4.986   1.425   6.217
 3642SOL    HW211826   5.003   1.578   6.162
 3643SOL     OW11827   2.521   5.833   4.880
 3643SOL    HW111828   2.446   5.897   4.865
 3643SOL    HW211829   2.530   5.814   4.978
 3644SOL     OW11830   7.025   1.276   1.422
 3644SOL    HW111831   7.009   1.355   1.363
 3644SOL    HW211832   0.013   1.308   1.515
 3645SOL     OW11833   5.852   1.075   3.857
 3645SOL    HW111834   5.849   1.139   3.781
 3645SOL    HW211835   5.791   1.107   3.930
 3646SOL     OW11836   6.730   5.067   6.264
 3646SOL    HW111837   6.697   5.128   6.336
 3646SOL    HW211838   6.656   5.049   6.199
 3647SOL     OW11839   1.996   4.043   0.668
 3647SOL    HW111840   1.968   4.015   0.577
 3647SOL    HW211841   2.065   3.979   0.704
 3648SOL     OW11842   3.537   5.846   2.979
 3648SOL    HW111843   3.564   5.768   3.036
 3648SOL    HW211844   3.463   5.896   3.024
 3649SOL     OW11845   4.858   3.029   1.532
 3649SOL    HW111846   4.765   3.065   1.539
 3649SOL    HW211847   4.916   3.097   1.487
 3650SOL     OW11848   6.994   5.620   0.161
 3650SOL    HW111849   6.939   5.675   0.098
 3650SOL    HW211850   6.979   5.653   0.254
 3651SOL     OW11851   0.515   5.304   2.937
 3651SOL    HW111852   0.473   5.293   2.847
 3651SOL    HW211853   0.613   5.321   2.926
 3652SOL     OW11854   5.426   6.055   3.070
 3652SOL    HW111855   5.432   6.121   3.145
 3652SOL    HW211856   5.460   5.966   3.102
 3653SOL     OW11857   6.537   0.667   3.709
 3653SOL    HW111858   6.604   0.610   3.662
 3653SOL    HW211859   6.496   0.730   3.644
 3654SOL     OW11860   2.070   0.133   0.253
 3654SOL    HW111861   2.039   0.038   0.252
 3654SOL    HW211862   2.169   0.136   0.240
 3655SOL     OW11863   1.124   6.799   3.732
 3655SOL    HW111864   1.109   6.809   3.830
 3655SOL    HW211865   1.042   6.759   3.690
 3656SOL     OW11866   1.518   3.301   2.059
 3656SOL    HW111867   1.537   3.363   1.982
 3656SOL    HW211868   1.578   3.221   2.053
 3657SOL     OW11869   5.015   5.928   5.947
 3657SOL    HW111870   5.102   5.970   5.970
 3657SOL    HW211871   5.001   5.847   6.005
 3658SOL     OW11872   0.954   5.939   3.477
 3658SOL    HW111873   0.988   5.846   3.467
 3658SOL    HW211874   0.886   5.941   3.550
 3659SOL     OW11875   3.178   3.345   5.981
 3659SOL    HW111876   3.106   3.396   5.934
 3659SOL    HW211877   3.248   3.316   5.915
 3660SOL     OW11878   4.988   6.622   2.081
 3660SOL    HW111879   4.963   6.568   2.161
 3660SOL    HW211880   5.054   6.570   2.026
 3661SOL     OW11881   4.740   1.735   6.357
 3661SOL    HW111882   4.689   1.802   6.410
 3661SOL    HW211883   4.698   1.724   6.267
 3662SOL     OW11884   4.001   0.804   3.849
 3662SOL    HW111885   3.902   0.814   3.850
 3662SOL    HW211886   4.037   0.841   3.763
 3663SOL     OW11887   1.862   1.249   0.432
 3663SOL    HW111888   1.766   1.223   0.437
 3663SOL    HW211889   1.897   1.266   0.524
 3664SOL     OW11890   4.939   2.363   1.248
 3664SOL    HW111891   4.908   2.368   1.153
 3664SOL    HW211892   5.007   2.434   1.265
 3665SOL     OW11893   0.514   5.776   5.405
 3665SOL    HW111894   0.416   5.795   5.411
 3665SOL    HW211895   0.558   5.802   5.491
 3666SOL     OW11896   1.834   4.196   2.809
 3666SOL    HW111897   1.913   4.252   2.834
 3666SOL    HW211898   1.836   4.177   2.711
 3667SOL     OW11899   6.253   0.451   0.752
 3667SOL    HW111900   6.290   0.371   0.799
 3667SOL    HW211901   6.288   0.534   0.795
 3668SOL     OW11902   1.683   0.501   1.802
 3668SOL    HW111903   1.771   0.508   1.755
 3668SOL    HW211904   1.613   0.471   1.737
 3669SOL     OW11905   6.450   0.812   4.718
 3669SOL    HW111906   6.367   0.862   4.692
 3669SOL    HW211907   6.430   0.714   4.722
 3670SOL     OW11908   2.029   4.389   0.553
 3670SOL    HW111909   2.128   4.385   0.544
 3670SOL    HW211910   1.999   4.334   0.631
 3671SOL     OW11911   6.540   0.303   4.073
 3671SOL    HW111912   6.560   0.375   4.140
 3671SOL    HW211913   6.617   0.240   4.067
 3672SOL     OW11914   5.706   1.474   0.998
 3672SOL    HW111915   5.648   1.393   0.985
 3672SOL    HW211916   5.772   1.456   1.070
 3673SOL     OW11917   3.483   0.119   5.785
 3673SOL    HW111918   3.435   0.064   5.716
 3673SOL    HW211919   3.499   0.211   5.749
 3674SOL     OW11920   0.649   0.374   5.529
 3674SOL    HW111921   0.565   0.428   5.533
 3674SOL    HW211922   0.638   0.302   5.461
 3675SOL     OW11923   2.200   3.189   5.182
 3675SOL    HW111924   2.273   3.239   5.228
 3675SOL    HW211925   2.206   3.092   5.206
 3676SOL     OW11926   4.380   5.040   4.655
 3676SOL    HW111927   4.474   5.010   4.638
 3676SOL    HW211928   4.321   4.960   4.669
 3677SOL     OW11929   1.113   6.357   2.877
 3677SOL    HW111930   1.043   6.408   2.927
 3677SOL    HW211931   1.088   6.354   2.780
 3678SOL     OW11932   0.973   3.307   3.772
 3678SOL    HW111933   1.011   3.225   3.814
 3678SOL    HW211934   1.041   3.380   3.773
 3679SOL     OW11935   1.243   0.567   3.412
 3679SOL    HW111936   1.159   0.517   3.434
 3679SOL    HW211937   1.219   0.658   3.377
 3680SOL     OW11938   5.587   2.575   3.373
 3680SOL    HW111939   5.631   2.651   3.327
 3680SOL    HW211940   5.614   2.489   3.329
 3681SOL     OW11941   0.648   0.632   5.123
 3681SOL    HW111942   0.588   0.703   5.087
 3681SOL    HW211943   0.596   0.547   5.135
 3682SOL     OW11944   6.200   2.514   6.573
 3682SOL    HW111945   6.172   2.607   6.598
 3682SOL    HW211946   6.282   2.489   6.624
 3683SOL     OW11947   0.252   0.103   4.357
 3683SOL    HW111948   0.330   0.042   4.374
 3683SOL    HW211949   0.170   0.048   4.338
 3684SOL     OW11950   1.726   3.682   0.009
 3684SOL    HW111951   1.788   3.681   6.959
 3684SOL    HW211952   1.670   3.599   0.009
 3685SOL     OW11953   6.381   6.342   6.321
 3685SOL    HW111954   6.444   6.380   6.388
 3685SOL    HW211955   6.295   6.318   6.366
 3686SOL     OW11956   6.341   5.444   3.623
 3686SOL    HW111957   6.369   5.371   3.561
 3686SOL    HW211958   6.295   5.516   3.572
 3687SOL     OW11959   3.386   6.152   5.418
 3687SOL    HW111960   3.409   6.170   5.514
 3687SOL    HW211961   3.310   6.210   5.391
 3688SOL     OW11962   1.408   3.742   6.916
 3688SOL    HW111963   1.448   3.814   6.859
 3688SOL    HW211964   1.418   3.654   6.869
 3689SOL     OW11965   1.280   0.344   6.520
 3689SOL    HW111966   1.365   0.390   6.546
 3689SOL    HW211967   1.212   0.412   6.494
 3690SOL     OW11968   4.338   0.498   6.594
 3690SOL    HW111969   4.363   0.561   6.668
 3690SOL    HW211970   4.273   0.430   6.628
 3691SOL     OW11971   2.507   2.556   0.064
 3691SOL    HW111972   2.545   2.626   0.125
 3691SOL    HW211973   2.440   2.501   0.114
 3692SOL     OW11974   1.173   6.295   5.163
 3692SOL    HW111975   1.164   6.307   5.262
 3692SOL    HW211976   1.187   6.385   5.120
 3693SOL     OW11977   2.098   2.612   2.575
 3693SOL    HW111978   2.119   2.709   2.588
 3693SOL    HW211979   2.181   2.563   2.552
 3694SOL     OW11980   0.922   5.788   2.937
 3694SOL    HW111981   0.829   5.813   2.911
 3694SOL    HW211982   0.963   5.861   2.991
 3695SOL     OW11983   6.842   2.944   2.553
 3695SOL    HW111984   6.886   3.000   2.483
 3695SOL    HW211985   6.787   2.873   2.509
 3696SOL     OW11986   3.550   5.888   5.107
 3696SOL    HW111987   3.477   5.900   5.174
 3696SOL    HW211988   3.519   5.827   5.034
 3697SOL     OW11989   0.285   5.868   3.694
 3697SOL    HW111990   0.219   5.842   3.765
 3697SOL    HW211991   0.352   5.795   3.683
 3698SOL     OW11992   2.968   6.248   4.827
 3698SOL    HW111993   2.943   6.264   4.922
 3698SOL    HW211994   2.889   6.215   4.776
 3699SOL     OW11995   6.749   3.634   3.021
 3699SOL    HW111996   6.837   3.588   3.013
 3699SOL    HW211997   6.678   3.565   3.039
 3700SOL     OW11998   7.026   0.442   4.573
 3700SOL    HW111999   6.975   0.488   4.500
 3700SOL    HW212000   6.973   0.443   4.657
 3701SOL     OW12001   0.664   0.698   3.768
 3701SOL    HW112002   0.745   0.742   3.730
 3701SOL    HW212003   0.681   0.673   3.864
 3702SOL     OW12004   4.292   0.288   2.467
 3702SOL    HW112005   4.221   0.324   2.406
 3702SOL    HW212006   4.252   0.222   2.530
 3703SOL     OW12007   4.592   2.814   6.714
 3703SOL    HW112008   4.625   2.757   6.639
 3703SOL    HW212009   4.621   2.908   6.700
 3704SOL     OW12010   2.909   0.436   1.428
 3704SOL    HW112011   2.847   0.435   1.350
 3704SOL    HW212012   2.901   0.349   1.478
 3705SOL     OW12013   5.151   6.043   3.543
 3705SOL    HW112014   5.190   5.952   3.530
 3705SOL    HW212015   5.054   6.042   3.521
 3706SOL     OW12016   0.728   3.459   4.619
 3706SOL    HW112017   0.696   3.547   4.584
 3706SOL    HW212018   0.775   3.409   4.546
 3707SOL     OW12019   5.888   3.704   5.244
 3707SOL    HW112020   5.973   3.650   5.240
 3707SOL    HW212021   5.816   3.656   5.194
 3708SOL     OW12022   6.278   0.689   6.504
 3708SOL    HW112023   6.187   0.662   6.535
 3708SOL    HW212024   6.295   0.784   6.532
 3709SOL     OW12025   4.134   0.754   0.346
 3709SOL    HW112026   4.121   0.799   0.257
 3709SOL    HW212027   4.047   0.719   0.379
 3710SOL     OW12028   6.520   6.085   0.455
 3710SOL    HW112029   6.617   6.106   0.453
 3710SOL    HW212030   6.501   6.005   0.398
 3711SOL     OW12031   6.989   6.579   2.121
 3711SOL    HW112032   6.976   6.480   2.119
 3711SOL    HW212033   0.056   6.601   2.098
 3712SOL     OW12034   6.751   6.336   0.020
 3712SOL    HW112035   6.684   6.326   0.093
 3712SOL    HW212036   6.769   6.433   0.005
 3713SOL     OW12037   1.636   5.852   4.521
 3713SOL    HW112038   1.678   5.942   4.535
 3713SOL    HW212039   1.552   5.845   4.576
 3714SOL     OW12040   4.722   5.657   5.437
 3714SOL    HW112041   4.672   5.668   5.523
 3714SOL    HW212042   4.657   5.653   5.361
 3715SOL     OW12043   6.009   4.102   3.791
 3715SOL    HW112044   6.000   4.080   3.888
 3715SOL    HW212045   5.931   4.157   3.762
 3716SOL     OW12046   6.231   0.162   5.293
 3716SOL    HW112047   6.307   0.224   5.314
 3716SOL    HW212048   6.267   0.073   5.265
 3717SOL     OW12049   5.910   5.209   6.363
 3717SOL    HW112050   5.903   5.149   6.444
 3717SOL    HW212051   5.982   5.175   6.303
 3718SOL     OW12052   2.462   0.100   5.458
 3718SOL    HW112053   2.496   0.172   5.397
 3718SOL    HW212054   2.412   0.141   5.534
 3719SOL     OW12055   5.473   4.373   0.789
 3719SOL    HW112056   5.507   4.379   0.695
 3719SOL    HW212057   5.396   4.309   0.792
 3720SOL     OW12058   5.836   2.380   5.780
 3720SOL    HW112059   5.822   2.478   5.796
 3720SOL    HW212060   5.784   2.352   5.699
 3721SOL     OW12061   5.251   4.213   0.799
 3721SOL    HW112062   5.268   4.128   0.848
 3721SOL    HW212063   5.186   4.269   0.850
 3722SOL     OW12064   6.804   0.013   2.915
 3722SOL    HW112065   6.708   7.013   2.909
 3722SOL    HW212066   6.863   6.962   2.898
 3723SOL     OW12067   6.185   6.139   1.544
 3723SOL    HW112068   6.214   6.074   1.615
 3723SOL    HW212069   6.255   6.209   1.532
 3724SOL     OW12070   2.143   5.226   6.845
 3724SOL    HW112071   2.164   5.171   6.764
 3724SOL    HW212072   2.196   5.192   6.922
 3725SOL     OW12073   5.239   6.179   7.002
 3725SOL    HW112074   5.261   6.096   6.951
 3725SOL    HW212075   5.310   6.195   0.043
 3726SOL     OW12076   6.430   5.176   0.588
 3726SOL    HW112077   6.409   5.083   0.620
 3726SOL    HW212078   6.513   5.208   0.634
 3727SOL     OW12079   6.779   2.769   5.967
 3727SOL    HW112080   6.730   2.686   5.944
 3727SOL    HW212081   6.728   2.821   6.036
 3728SOL     OW12082   1.744   3.958   0.066
 3728SOL    HW112083   1.714   3.867   0.039
 3728SOL    HW212084   1.726   4.023   7.019
 3729SOL     OW12085   1.604   2.055   3.490
 3729SOL    HW112086   1.676   2.112   3.449
 3729SOL    HW212087   1.636   2.020   3.578
 3730SOL     OW12088   2.584   5.462   6.654
 3730SOL    HW112089   2.629   5.460   6.565
 3730SOL    HW212090   2.646   5.423   6.723
 3731SOL     OW12091   4.424   6.998   0.770
 3731SOL    HW112092   4.484   6.989   0.691
 3731SOL    HW212093   4.419   6.910   0.818
 3732SOL     OW12094   1.510   2.442   6.956
 3732SOL    HW112095   1.442   2.388   6.905
 3732SOL    HW212096   1.481   2.451   0.023
 3733SOL     OW12097   1.219   3.368   1.430
 3733SOL    HW112098   1.151   3.296   1.434
 3733SOL    HW212099   1.251   3.389   1.523
 3734SOL     OW12100   4.113   1.752   1.754
 3734SOL    HW112101   4.138   1.788   1.664
 3734SOL    HW212102   4.187   1.771   1.819
 3735SOL     OW12103   1.789   1.723   3.765
 3735SOL    HW112104   1.783   1.627   3.793
 3735SOL    HW212105   1.733   1.738   3.684
 3736SOL     OW12106   0.125   3.269   1.340
 3736SOL    HW112107   0.025   3.267   1.335
 3736SOL    HW212108   0.162   3.183   1.305
 3737SOL     OW12109   5.329   0.266   3.115
 3737SOL    HW112110   5.269   0.340   3.148
 3737SOL    HW212111   5.313   0.184   3.169
 3738SOL     OW12112   6.823   6.276   2.611
 3738SOL    HW112113   6.735   6.321   2.626
 3738SOL    HW212114   6.808   6.179   2.592
 3739SOL     OW12115   2.284   4.885   1.565
 3739SOL    HW112116   2.315   4.843   1.650
 3739SOL    HW212117   2.323   4.977   1.556
 3740SOL     OW12118   4.574   0.246   0.136
 3740SOL    HW112119   4.671   0.226   0.125
 3740SOL    HW212120   4.562   0.316   0.206
 3741SOL     OW12121   4.605   3.075   1.573
 3741SOL    HW112122   4.551   3.122   1.503
 3741SOL    HW212123   4.554   3.075   1.659
 3742SOL     OW12124   2.441   2.088   5.900
 3742SOL    HW112125   2.498   2.152   5.849
 3742SOL    HW212126   2.392   2.137   5.971
 3743SOL     OW12127   5.587   4.459   1.222
 3743SOL    HW112128   5.592   4.359   1.217
 3743SOL    HW212129   5.563   4.496   1.132
 3744SOL     OW12130   0.496   5.568   2.750
 3744SOL    HW112131   0.554   5.519   2.815
 3744SOL    HW212132   0.420   5.611   2.799
 3745SOL     OW12133   3.458   5.543   1.891
 3745SOL    HW112134   3.492   5.581   1.977
 3745SOL    HW212135   3.532   5.539   1.824
 3746SOL     OW12136   4.358   1.476   2.433
 3746SOL    HW112137   4.329   1.569   2.414
 3746SOL    HW212138   4.359   1.423   2.349
 3747SOL     OW12139   3.639   0.172   6.123
 3747SOL    HW112140   3.678   0.135   6.038
 3747SOL    HW212141   3.655   0.270   6.126
 3748SOL     OW12142   4.904   0.715   1.889
 3748SOL    HW112143   4.868   0.625   1.913
 3748SOL    HW212144   5.002   0.708   1.870
 3749SOL     OW12145   1.451   6.726   3.993
 3749SOL    HW112146   1.550   6.715   4.001
 3749SOL    HW212147   1.427   6.742   3.897
 3750SOL     OW12148   2.103   4.361   0.198
 3750SOL    HW112149   2.186   4.320   0.236
 3750SOL    HW212150   2.098   4.457   0.223
 3751SOL     OW12151   6.368   3.619   2.177
 3751SOL    HW112152   6.403   3.711   2.192
 3751SOL    HW212153   6.282   3.608   2.227
 3752SOL     OW12154   4.935   0.841   5.714
 3752SOL    HW112155   4.997   0.796   5.778
 3752SOL    HW212156   4.968   0.827   5.621
 3753SOL     OW12157   6.600   0.048   5.123
 3753SOL    HW112158   6.548   7.003   5.078
 3753SOL    HW212159   6.619   0.022   5.217
 3754SOL     OW12160   2.548   0.716   1.928
 3754SOL    HW112161   2.577   0.705   1.833
 3754SOL    HW212162   2.451   0.740   1.931
 3755SOL     OW12163   3.472   5.747   4.859
 3755SOL    HW112164   3.412   5.767   4.781
 3755SOL    HW212165   3.547   5.688   4.828
 3756SOL     OW12166   3.338   5.543   6.408
 3756SOL    HW112167   3.240   5.525   6.410
 3756SOL    HW212168   3.387   5.468   6.453
 3757SOL     OW12169   6.410   5.373   1.814
 3757SOL    HW112170   6.442   5.336   1.727
 3757SOL    HW212171   6.482   5.362   1.883
 3758SOL     OW12172   1.521   1.093   5.009
 3758SOL    HW112173   1.495   1.003   5.045
 3758SOL    HW212174   1.502   1.097   4.911
 3759SOL     OW12175   4.520   0.819   5.135
 3759SOL    HW112176   4.586   0.749   5.107
 3759SOL    HW212177   4.551   0.861   5.221
 3760SOL     OW12178   0.452   0.876   3.174
 3760SOL    HW112179   0.480   0.842   3.084
 3760SOL    HW212180   0.526   0.861   3.240
 3761SOL     OW12181   6.779   1.175   4.592
 3761SOL    HW112182   6.768   1.216   4.682
 3761SOL    HW212183   6.855   1.110   4.593
 3762SOL     OW12184   1.600   4.109   2.072
 3762SOL    HW112185   1.648   4.089   1.987
 3762SOL    HW212186   1.526   4.043   2.084
 3763SOL     OW12187   6.325   3.960   0.537
 3763SOL    HW112188   6.387   4.001   0.604
 3763SOL    HW212189   6.303   4.028   0.466
 3764SOL     OW12190   2.052   0.061   2.760
 3764SOL    HW112191   2.072   0.123   2.837
 3764SOL    HW212192   1.958   0.028   2.768
 3765SOL     OW12193   6.107   1.841   1.310
 3765SOL    HW112194   6.036   1.785   1.353
 3765SOL    HW212195   6.069   1.884   1.228
 3766SOL     OW12196   2.004   1.935   4.663
 3766SOL    HW112197   2.096   1.937   4.623
 3766SOL    HW212198   1.969   2.028   4.671
 3767SOL     OW12199   3.305   4.251   6.335
 3767SOL    HW112200   3.243   4.188   6.383
 3767SOL    HW212201   3.293   4.343   6.371
 3768SOL     OW12202   0.956   0.894   4.593
 3768SOL    HW112203   0.873   0.864   4.639
 3768SOL    HW212204   1.035   0.876   4.652
 3769SOL     OW12205   5.651   5.904   5.271
 3769SOL    HW112206   5.562   5.949   5.285
 3769SOL    HW212207   5.665   5.887   5.174
 3770SOL     OW12208   1.218   1.094   6.830
 3770SOL    HW112209   1.278   1.156   6.881
 3770SOL    HW212210   1.269   1.053   6.754
 3771SOL     OW12211   5.865   4.327   6.599
 3771SOL    HW112212   5.809   4.366   6.526
 3771SOL    HW212213   5.834   4.362   6.688
 3772SOL     OW12214   0.775   6.814   0.740
 3772SOL    HW112215   0.694   6.786   0.688
 3772SOL    HW212216   0.833   6.734   0.757
 3773SOL     OW12217   5.873   3.506   5.788
 3773SOL    HW112218   5.925   3.442   5.731
 3773SOL    HW212219   5.896   3.491   5.884
 3774SOL     OW12220   5.677   5.367   1.857
 3774SOL    HW112221   5.602   5.417   1.900
 3774SOL    HW212222   5.667   5.269   1.876
 3775SOL     OW12223   3.950   4.929   3.678
 3775SOL    HW112224   3.972   4.897   3.586
 3775SOL    HW212225   3.879   4.999   3.673
 3776SOL     OW12226   3.748   2.890   6.269
 3776SOL    HW112227   3.769   2.869   6.173
 3776SOL    HW212228   3.702   2.978   6.274
 3777SOL     OW12229   2.524   5.946   3.648
 3777SOL    HW112230   2.502   5.859   3.605
 3777SOL    HW212231   2.616   5.942   3.687
 3778SOL     OW12232   2.073   6.244   3.398
 3778SOL    HW112233   1.989   6.226   3.450
 3778SOL    HW212234   2.138   6.170   3.413
 3779SOL     OW12235   0.353   4.820   1.065
 3779SOL    HW112236   0.338   4.733   1.111
 3779SOL    HW212237   0.377   4.805   0.969
 3780SOL     OW12238   0.095   2.998   3.880
 3780SOL    HW112239   0.180   2.979   3.930
 3780SOL    HW212240   0.083   2.930   3.808
 3781SOL     OW12241   0.630   6.742   4.301
 3781SOL    HW112242   0.657   6.729   4.396
 3781SOL    HW212243   0.665   6.830   4.268
 3782SOL     OW12244   3.544   6.541   2.555
 3782SOL    HW112245   3.629   6.577   2.518
 3782SOL    HW212246   3.522   6.590   2.640
 3783SOL     OW12247   6.276   5.162   4.366
 3783SOL    HW112248   6.330   5.086   4.330
 3783SOL    HW212249   6.324   5.202   4.444
 3784SOL     OW12250   5.504   2.495   2.459
 3784SOL    HW112251   5.413   2.529   2.483
 3784SOL    HW212252   5.569   2.572   2.458
 3785SOL     OW12253   0.914   3.051   5.363
 3785SOL    HW112254   0.920   3.119   5.290
 3785SOL    HW212255   0.905   3.098   5.451
 3786SOL     OW12256   2.140   3.324   2.772
 3786SOL    HW112257   2.107   3.419   2.772
 3786SOL    HW212258   2.129   3.286   2.864
 3787SOL     OW12259   5.346   0.249   2.850
 3787SOL    HW112260   5.298   0.333   2.826
 3787SOL    HW212261   5.333   0.231   2.948
 3788SOL     OW12262   5.964   4.903   5.037
 3788SOL    HW112263   6.063   4.916   5.026
 3788SOL    HW212264   5.938   4.925   5.130
 3789SOL     OW12265   7.020   3.764   2.704
 3789SOL    HW112266   6.938   3.802   2.661
 3789SOL    HW212267   0.056   3.734   2.633
 3790SOL     OW12268   1.448   5.438   6.564
 3790SOL    HW112269   1.450   5.415   6.467
 3790SOL    HW212270   1.366   5.492   6.583
 3791SOL     OW12271   5.098   2.138   6.834
 3791SOL    HW112272   5.077   2.225   6.788
 3791SOL    HW212273   5.013   2.085   6.845
 3792SOL     OW12274   1.375   1.464   4.351
 3792SOL    HW112275   1.351   1.411   4.269
 3792SOL    HW212276   1.294   1.512   4.384
 3793SOL     OW12277   5.715   6.699   1.408
 3793SOL    HW112278   5.735   6.790   1.443
 3793SOL    HW212279   5.794   6.639   1.422
 3794SOL     OW12280   1.716   3.200   1.816
 3794SOL    HW112281   1.775   3.269   1.773
 3794SOL    HW212282   1.625   3.204   1.775
 3795SOL     OW12283   3.145   5.209   1.120
 3795SOL    HW112284   3.185   5.293   1.157
 3795SOL    HW212285   3.046   5.218   1.115
 3796SOL     OW12286   4.040   2.084   1.144
 3796SOL    HW112287   4.095   2.053   1.222
 3796SOL    HW212288   4.085   2.058   1.059
 3797SOL     OW12289   0.886   3.974   3.404
 3797SOL    HW112290   0.954   4.024   3.459
 3797SOL    HW212291   0.860   4.030   3.325
 3798SOL     OW12292   3.077   6.482   2.299
 3798SOL    HW112293   2.996   6.539   2.313
 3798SOL    HW212294   3.109   6.448   2.387
 3799SOL     OW12295   6.957   2.443   3.680
 3799SOL    HW112296   7.022   2.386   3.630
 3799SOL    HW212297   6.878   2.462   3.621
 3800SOL     OW12298   5.345   2.224   3.845
 3800SOL    HW112299   5.312   2.155   3.909
 3800SOL    HW212300   5.357   2.311   3.893
 3801SOL     OW12301   5.362   7.004   1.607
 3801SOL    HW112302   5.353   7.017   1.508
 3801SOL    HW212303   5.372   6.907   1.627
 3802SOL     OW12304   6.872   1.445   2.496
 3802SOL    HW112305   6.940   1.459   2.424
 3802SOL    HW212306   6.916   1.444   2.585
 3803SOL     OW12307   4.088   3.645   3.775
 3803SOL    HW112308   4.121   3.722   3.830
 3803SOL    HW212309   4.007   3.606   3.817
 3804SOL     OW12310   3.533   1.811   4.365
 3804SOL    HW112311   3.585   1.865   4.299
 3804SOL    HW212312   3.594   1.783   4.439
 3805SOL     OW12313   1.811   2.633   1.804
 3805SOL    HW112314   1.750   2.709   1.783
 3805SOL    HW212315   1.903   2.655   1.772
 3806SOL     OW12316   3.779   3.675   6.494
 3806SOL    HW112317   3.786   3.600   6.429
 3806SOL    HW212318   3.715   3.744   6.460
 3807SOL     OW12319   1.776   4.195   3.789
 3807SOL    HW112320   1.791   4.269   3.854
 3807SOL    HW212321   1.852   4.130   3.794
 3808SOL     OW12322   4.595   0.657   6.317
 3808SOL    HW112323   4.676   0.715   6.325
 3808SOL    HW212324   4.513   0.710   6.339
 3809SOL     OW12325   5.696   2.250   2.072
 3809SOL    HW112326   5.654   2.257   1.981
 3809SOL    HW212327   5.624   2.243   2.141
 3810SOL     OW12328   6.940   2.624   3.388
 3810SOL    HW112329   6.849   2.597   3.420
 3810SOL    HW212330   6.947   2.723   3.386
 3811SOL     OW12331   0.040   6.001   4.265
 3811SOL    HW112332   0.050   6.097   4.236
 3811SOL    HW212333   6.975   5.970   4.246
 3812SOL     OW12334   3.159   4.941   5.928
 3812SOL    HW112335   3.146   4.996   5.846
 3812SOL    HW212336   3.072   4.898   5.954
 3813SOL     OW12337   5.904   4.103   1.215
 3813SOL    HW112338   5.931   4.138   1.125
 3813SOL    HW212339   5.805   4.108   1.224
 3814SOL     OW12340   0.379   0.127   3.876
 3814SOL    HW112341   0.384   0.219   3.837
 3814SOL    HW212342   0.287   0.091   3.863
 3815SOL     OW12343   4.311   2.371   1.090
 3815SOL    HW112344   4.238   2.439   1.096
 3815SOL    HW212345   4.391   2.403   1.141
 3816SOL     OW12346   0.966   5.666   5.159
 3816SOL    HW112347   1.047   5.633   5.110
 3816SOL    HW212348   0.928   5.592   5.215
 3817SOL     OW12349   5.064   3.342   1.992
 3817SOL    HW112350   5.041   3.246   2.007
 3817SOL    HW212351   5.076   3.359   1.895
 3818SOL     OW12352   6.983   0.653   0.837
 3818SOL    HW112353   0.026   0.654   0.908
 3818SOL    HW212354   6.965   0.746   0.807
 3819SOL     OW12355   6.164   4.426   2.541
 3819SOL    HW112356   6.074   4.383   2.547
 3819SOL    HW212357   6.210   4.397   2.457
 3820SOL     OW12358   6.372   6.366   3.511
 3820SOL    HW112359   6.459   6.321   3.528
 3820SOL    HW212360   6.301   6.297   3.494
 3821SOL     OW12361   1.051   1.407   1.902
 3821SOL    HW112362   1.001   1.481   1.947
 3821SOL    HW212363   0.996   1.372   1.826
 3822SOL     OW12364   2.226   6.944   6.291
 3822SOL    HW112365   2.186   6.907   6.207
 3822SOL    HW212366   2.283   6.875   6.334
 3823SOL     OW12367   4.428   3.994   6.596
 3823SOL    HW112368   4.420   3.952   6.506
 3823SOL    HW212369   4.386   3.933   6.664
 3824SOL     OW12370   0.623   2.268   0.747
 3824SOL    HW112371   0.577   2.285   0.660
 3824SOL    HW212372   0.584   2.186   0.790
 3825SOL     OW12373   0.768   3.851   0.853
 3825SOL    HW112374   0.761   3.762   0.808
 3825SOL    HW212375   0.677   3.885   0.874
 3826SOL     OW12376   0.149   3.477   1.651
 3826SOL    HW112377   0.119   3.382   1.639
 3826SOL    HW212378   0.137   3.527   1.565
 3827SOL     OW12379   0.764   0.533   1.601
 3827SOL    HW112380   0.806   0.592   1.532
 3827SOL    HW212381   0.683   0.489   1.562
 3828SOL     OW12382   3.917   3.560   4.509
 3828SOL    HW112383   3.946   3.630   4.444
 3828SOL    HW212384   3.983   3.557   4.585
 3829SOL     OW12385   0.640   5.185   1.805
 3829SOL    HW112386   0.721   5.174   1.748
 3829SOL    HW212387   0.562   5.210   1.748
 3830SOL     OW12388   0.393   1.158   5.704
 3830SOL    HW112389   0.323   1.124   5.642
 3830SOL    HW212390   0.483   1.127   5.674
 3831SOL     OW12391   4.546   2.399   2.700
 3831SOL    HW112392   4.507   2.447   2.778
 3831SOL    HW212393   4.503   2.309   2.690
 3832SOL     OW12394   6.710   0.556   2.628
 3832SOL    HW112395   6.765   0.559   2.712
 3832SOL    HW212396   6.752   0.613   2.558
 3833SOL     OW12397   1.011   6.276   6.501
 3833SOL    HW112398   0.988   6.263   6.598
 3833SOL    HW212399   1.102   6.239   6.483
 3834SOL     OW12400   3.768   4.559   1.026
 3834SOL    HW112401   3.676   4.576   0.990
 3834SOL    HW212402   3.799   4.639   1.078
 3835SOL     OW12403   3.875   6.162   5.451
 3835SOL    HW112404   3.975   6.157   5.451
 3835SOL    HW212405   3.846   6.256   5.467
 3836SOL     OW12406   6.984   5.127   5.817
 3836SOL    HW112407   6.911   5.076   5.862
 3836SOL    HW212408   7.015   5.201   5.878
 3837SOL     OW12409   4.550   5.314   5.787
 3837SOL    HW112410   4.642   5.324   5.748
 3837SOL    HW212411   4.485   5.366   5.732
 3838SOL     OW12412   1.093   2.455   3.428
 3838SOL    HW112413   1.137   2.541   3.402
 3838SOL    HW212414   1.162   2.384   3.441
 3839SOL     OW12415   5.008   1.354   2.692
 3839SOL    HW112416   4.919   1.399   2.681
 3839SOL    HW212417   5.048   1.337   2.603
 3840SOL     OW12418   3.352   1.935   6.951
 3840SOL    HW112419   3.344   1.861   6.884
 3840SOL    HW212420   3.422   2.000   6.921
 3841SOL     OW12421   1.124   3.641   4.284
 3841SOL    HW112422   1.045   3.702   4.276
 3841SOL    HW212423   1.208   3.691   4.264
 3842SOL     OW12424   2.525   2.477   3.480
 3842SOL    HW112425   2.576   2.559   3.506
 3842SOL    HW212426   2.443   2.469   3.536
 3843SOL     OW12427   5.236   3.160   2.228
 3843SOL    HW112428   5.279   3.074   2.200
 3843SOL    HW212429   5.174   3.190   2.156
 3844SOL     OW12430   1.481   3.495   6.382
 3844SOL    HW112431   1.473   3.479   6.284
 3844SOL    HW212432   1.462   3.591   6.403
 3845SOL     OW12433   2.521   5.569   6.106
 3845SOL    HW112434   2.587   5.497   6.083
 3845SOL    HW212435   2.478   5.549   6.194
 3846SOL     OW12436   0.933   4.121   3.820
 3846SOL    HW112437   0.998   4.100   3.893
 3846SOL    HW212438   0.876   4.041   3.802
 3847SOL     OW12439   5.257   3.105   4.241
 3847SOL    HW112440   5.216   3.079   4.153
 3847SOL    HW212441   5.191   3.087   4.314
 3848SOL     OW12442   4.851   3.823   2.577
 3848SOL    HW112443   4.863   3.790   2.671
 3848SOL    HW212444   4.929   3.796   2.521
 3849SOL     OW12445   1.356   0.921   6.198
 3849SOL    HW112446   1.315   0.946   6.111
 3849SOL    HW212447   1.381   1.003   6.249
 3850SOL     OW12448   2.914   2.915   1.643
 3850SOL    HW112449   2.816   2.928   1.656
 3850SOL    HW212450   2.950   2.858   1.717
 3851SOL     OW12451   6.899   4.783   3.519
 3851SOL    HW112452   6.850   4.870   3.512
 3851SOL    HW212453   6.972   4.792   3.586
 3852SOL     OW12454   3.599   5.948   3.640
 3852SOL    HW112455   3.608   5.966   3.542
 3852SOL    HW212456   3.531   6.010   3.679
 3853SOL     OW12457   1.145   3.250   3.442
 3853SOL    HW112458   1.083   3.328   3.450
 3853SOL    HW212459   1.098   3.167   3.472
 3854SOL     OW12460   1.090   2.391   2.707
 3854SOL    HW112461   1.011   2.386   2.646
 3854SOL    HW212462   1.105   2.302   2.749
 3855SOL     OW12463   4.286   6.181   6.493
 3855SOL    HW112464   4.263   6.085   6.512
 3855SOL    HW212465   4.222   6.241   6.542
 3856SOL     OW12466   0.333   0.599   6.247
 3856SOL    HW112467   0.239   0.568   6.257
 3856SOL    HW212468   0.381   0.540   6.181
 3857SOL     OW12469   0.655   5.935   6.711
 3857SOL    HW112470   0.732   5.874   6.728
 3857SOL    HW212471   0.671   5.988   6.628
 3858SOL     OW12472   3.383   1.320   6.165
 3858SOL    HW112473   3.330   1.365   6.093
 3858SOL    HW212474   3.322   1.262   6.219
 3859SOL     OW12475   6.648   1.059   1.755
 3859SOL    HW112476   6.717   1.131   1.745
 3859SOL    HW212477   6.652   0.999   1.675
 3860SOL     OW12478   1.832   1.637   4.407
 3860SOL    HW112479   1.778   1.652   4.490
 3860SOL    HW212480   1.772   1.615   4.331
 3861SOL     OW12481   4.570   5.057   3.736
 3861SOL    HW112482   4.482   5.062   3.783
 3861SOL    HW212483   4.630   4.994   3.785
 3862SOL     OW12484   0.353   1.083   4.537
 3862SOL    HW112485   0.307   1.134   4.464
 3862SOL    HW212486   0.452   1.084   4.522
 3863SOL     OW12487   5.933   2.045   6.867
 3863SOL    HW112488   5.960   2.014   6.958
 3863SOL    HW212489   5.834   2.052   6.862
 3864SOL     OW12490   1.896   0.329   5.713
 3864SOL    HW112491   1.967   0.292   5.653
 3864SOL    HW212492   1.890   0.275   5.796
 3865SOL     OW12493   4.082   0.995   1.050
 3865SOL    HW112494   4.082   1.087   1.090
 3865SOL    HW212495   4.096   0.928   1.123
 3866SOL     OW12496   3.974   0.508   0.550
 3866SOL    HW112497   3.952   0.591   0.601
 3866SOL    HW212498   4.033   0.449   0.606
 3867SOL     OW12499   0.437   5.277   3.192
 3867SOL    HW112500   0.475   5.352   3.246
 3867SOL    HW212501   0.478   5.276   3.101
 3868SOL     OW12502   2.990   0.611   0.308
 3868SOL    HW112503   3.040   0.644   0.389
 3868SOL    HW212504   2.898   0.584   0.335
 3869SOL     OW12505   6.215   2.855   4.840
 3869SOL    HW112506   6.308   2.892   4.841
 3869SOL    HW212507   6.200   2.801   4.922
 3870SOL     OW12508   6.712   6.746   0.559
 3870SOL    HW112509   6.750   6.684   0.490
 3870SOL    HW212510   6.786   6.793   0.607
 3871SOL     OW12511   3.841   0.864   3.443
 3871SOL    HW112512   3.833   0.916   3.358
 3871SOL    HW212513   3.921   0.896   3.495
 3872SOL     OW12514   3.049   3.137   4.442
 3872SOL    HW112515   3.106   3.057   4.461
 3872SOL    HW212516   3.036   3.190   4.525
 3873SOL     OW12517   6.108   4.334   1.184
 3873SOL    HW112518   6.196   4.330   1.232
 3873SOL    HW212519   6.041   4.277   1.232
 3874SOL     OW12520   4.373   6.083   0.388
 3874SOL    HW112521   4.459   6.058   0.433
 3874SOL    HW212522   4.392   6.114   0.295
 3875SOL     OW12523   2.098   3.129   2.608
 3875SOL    HW112524   2.122   3.211   2.661
 3875SOL    HW212525   2.003   3.105   2.624
 3876SOL     OW12526   3.519   5.300   1.090
 3876SOL    HW112527   3.519   5.400   1.088
 3876SOL    HW212528   3.467   5.268   1.169
 3877SOL     OW12529   5.944   2.662   1.281
 3877SOL    HW112530   6.032   2.622   1.308
 3877SOL    HW212531   5.881   2.590   1.254
 3878SOL     OW12532   4.024   6.737   4.907
 3878SOL    HW112533   4.079   6.766   4.828
 3878SOL    HW212534   3.950   6.803   4.922
 3879SOL     OW12535   5.771   5.298   0.853
 3879SOL    HW112536   5.695   5.233   0.867
 3879SOL    HW212537   5.829   5.265   0.779
 3880SOL     OW12538   5.355   4.537   4.273
 3880SOL    HW112539   5.371   4.601   4.348
 3880SOL    HW212540   5.257   4.525   4.260
 3881SOL     OW12541   1.222   3.083   1.745
 3881SOL    HW112542   1.148   3.143   1.712
 3881SOL    HW212543   1.240   3.104   1.841
 3882SOL     OW12544   1.039   1.840   6.083
 3882SOL    HW112545   1.138   1.836   6.069
 3882SOL    HW212546   0.997   1.759   6.042
 3883SOL     OW12547   4.256   1.152   2.350
 3883SOL    HW112548   4.171   1.198   2.374
 3883SOL    HW212549   4.316   1.150   2.430
 3884SOL     OW12550   1.230   5.793   2.435
 3884SOL    HW112551   1.226   5.807   2.534
 3884SOL    HW212552   1.143   5.820   2.394
 3885SOL     OW12553   5.838   5.729   2.494
 3885SOL    HW112554   5.918   5.785   2.514
 3885SOL    HW212555   5.850   5.684   2.405
 3886SOL     OW12556   5.528   5.303   5.241
 3886SOL    HW112557   5.512   5.239   5.166
 3886SOL    HW212558   5.446   5.310   5.298
 3887SOL     OW12559   0.791   0.493   6.995
 3887SOL    HW112560   0.809   0.462   6.901
 3887SOL    HW212561   0.837   0.581   7.010
 3888SOL     OW12562   6.820   0.749   4.565
 3888SOL    HW112563   6.889   0.807   4.523
 3888SOL    HW212564   6.814   0.663   4.515
 3889SOL     OW12565   0.270   4.109   0.355
 3889SOL    HW112566   0.196   4.055   0.394
 3889SOL    HW212567   0.275   4.197   0.402
 3890SOL     OW12568   6.481   4.882   3.403
 3890SOL    HW112569   6.576   4.903   3.424
 3890SOL    HW212570   6.462   4.906   3.308
 3891SOL     OW12571   5.402   4.072   4.283
 3891SOL    HW112572   5.363   4.107   4.368
 3891SOL    HW212573   5.469   4.137   4.247
 3892SOL     OW12574   0.432   1.937   1.222
 3892SOL    HW112575   0.379   1.885   1.288
 3892SOL    HW212576   0.529   1.928   1.243
 3893SOL     OW12577   4.350   4.089   0.457
 3893SOL    HW112578   4.389   4.178   0.433
 3893SOL    HW212579   4.412   4.016   0.430
 3894SOL     OW12580   4.537   0.812   0.840
 3894SOL    HW112581   4.438   0.820   0.828
 3894SOL    HW212582   4.564   0.716   0.829
 3895SOL     OW12583   1.594   0.851   5.230
 3895SOL    HW112584   1.577   0.813   5.321
 3895SOL    HW212585   1.669   0.801   5.186
 3896SOL     OW12586   0.182   1.405   5.697
 3896SOL    HW112587   0.136   1.412   5.608
 3896SOL    HW212588   0.245   1.327   5.696
 3897SOL     OW12589   3.751   5.642   2.631
 3897SOL    HW112590   3.660   5.666   2.665
 3897SOL    HW212591   3.814   5.717   2.647
 3898SOL     OW12592   2.691   3.682   5.707
 3898SOL    HW112593   2.650   3.597   5.741
 3898SOL    HW212594   2.782   3.692   5.745
 3899SOL     OW12595   5.050   6.943   5.070
 3899SOL    HW112596   5.061   0.002   5.119
 3899SOL    HW212597   5.011   6.875   5.132
 3900SOL     OW12598   5.203   2.754   3.803
 3900SOL    HW112599   5.294   2.722   3.828
 3900SOL    HW212600   5.162   2.690   3.737
 3901SOL     OW12601   2.527   0.296   5.289
 3901SOL    HW112602   2.603   0.253   5.241
 3901SOL    HW212603   2.527   0.394   5.270
 3902SOL     OW12604   5.742   3.435   1.808
 3902SOL    HW112605   5.721   3.355   1.865
 3902SOL    HW212606   5.795   3.501   1.862
 3903SOL     OW12607   3.781   5.914   6.095
 3903SOL    HW112608   3.800   5.977   6.021
 3903SOL    HW212609   3.686   5.924   6.125
 3904SOL     OW12610   2.811   1.393   5.351
 3904SOL    HW112611   2.753   1.346   5.418
 3904SOL    HW212612   2.806   1.491   5.365
 3905SOL     OW12613   0.469   6.973   6.490
 3905SOL    HW112614   0.473   6.971   6.590
 3905SOL    HW212615   0.481   0.039   6.458
 3906SOL     OW12616   5.134   5.104   6.268
 3906SOL    HW112617   5.145   5.197   6.304
 3906SOL    HW212618   5.060   5.103   6.200
 3907SOL     OW12619   6.113   0.386   4.293
 3907SOL    HW112620   6.158   0.304   4.329
 3907SOL    HW212621   6.172   0.428   4.223
 3908SOL     OW12622   1.697   2.428   0.589
 3908SOL    HW112623   1.740   2.352   0.541
 3908SOL    HW212624   1.644   2.393   0.667
 3909SOL     OW12625   0.096   5.492   5.280
 3909SOL    HW112626   0.138   5.515   5.368
 3909SOL    HW212627   0.135   5.407   5.245
 3910SOL     OW12628   2.980   3.116   1.834
 3910SOL    HW112629   2.973   3.060   1.752
 3910SOL    HW212630   3.009   3.059   1.911
 3911SOL     OW12631   5.046   1.201   6.551
 3911SOL    HW112632   5.051   1.166   6.458
 3911SOL    HW212633   5.001   1.291   6.550
 3912SOL     OW12634   4.328   0.607   5.571
 3912SOL    HW112635   4.416   0.578   5.533
 3912SOL    HW212636   4.258   0.605   5.499
 3913SOL     OW12637   1.661   0.151   6.146
 3913SOL    HW112638   1.644   0.109   6.235
 3913SOL    HW212639   1.690   0.080   6.081
 3914SOL     OW12640   3.545   1.250   0.906
 3914SOL    HW112641   3.489   1.297   0.975
 3914SOL    HW212642   3.618   1.200   0.952
 3915SOL     OW12643   3.656   5.080   2.136
 3915SOL    HW112644   3.575   5.036   2.174
 3915SOL    HW212645   3.698   5.020   2.067
 3916SOL     OW12646   1.841   6.217   3.538
 3916SOL    HW112647   1.784   6.293   3.570
 3916SOL    HW212648   1.782   6.141   3.509
 3917SOL     OW12649   6.576   5.648   0.535
 3917SOL    HW112650   6.592   5.661   0.437
 3917SOL    HW212651   6.614   5.725   0.585
 3918SOL     OW12652   4.886   6.477   1.842
 3918SOL    HW112653   4.822   6.520   1.906
 3918SOL    HW212654   4.853   6.489   1.748
 3919SOL     OW12655   2.082   6.508   6.291
 3919SOL    HW112656   2.089   6.573   6.366
 3919SOL    HW212657   2.048   6.421   6.325
 3920SOL     OW12658   3.192   2.754   0.833
 3920SOL    HW112659   3.202   2.823   0.762
 3920SOL    HW212660   3.184   2.664   0.791
 3921SOL     OW12661   0.055   3.161   1.627
 3921SOL    HW112662   0.028   3.173   1.531
 3921SOL    HW212663   7.009   3.117   1.677
 3922SOL     OW12664   5.768   4.098   1.912
 3922SOL    HW112665   5.685   4.071   1.863
 3922SOL    HW212666   5.754   4.086   2.010
 3923SOL     OW12667   0.100   2.081   6.583
 3923SOL    HW112668   0.194   2.048   6.575
 3923SOL    HW212669   0.092   2.140   6.663
 3924SOL     OW12670   0.278   5.121   3.340
 3924SOL    HW112671   0.314   5.029   3.360
 3924SOL    HW212672   0.344   5.170   3.283
 3925SOL     OW12673   3.136   5.051   0.434
 3925SOL    HW112674   3.183   5.061   0.346
 3925SOL    HW212675   3.133   4.955   0.460
 3926SOL     OW12676   6.902   6.129   3.102
 3926SOL    HW112677   6.881   6.225   3.117
 3926SOL    HW212678   6.992   6.108   3.141
 3927SOL     OW12679   6.446   3.096   3.178
 3927SOL    HW112680   6.417   3.169   3.116
 3927SOL    HW212681   6.431   3.007   3.134
 3928SOL     OW12682   3.234   6.366   5.580
 3928SOL    HW112683   3.175   6.415   5.644
 3928SOL    HW212684   3.312   6.327   5.629
 3929SOL     OW12685   6.762   1.496   5.557
 3929SOL    HW112686   6.809   1.426   5.612
 3929SOL    HW212687   6.682   1.529   5.608
 3930SOL     OW12688   2.209   1.752   3.790
 3930SOL    HW112689   2.275   1.819   3.755
 3930SOL    HW212690   2.251   1.698   3.863
 3931SOL     OW12691   1.564   1.628   2.101
 3931SOL    HW112692   1.484   1.584   2.142
 3931SOL    HW212693   1.645   1.572   2.117
 3932SOL     OW12694   1.433   4.370   2.504
 3932SOL    HW112695   1.384   4.318   2.574
 3932SOL    HW212696   1.527   4.336   2.496
 3933SOL     OW12697   1.777   6.649   0.134
 3933SOL    HW112698   1.767   6.549   0.137
 3933SOL    HW212699   1.711   6.687   0.069
 3934SOL     OW12700   0.127   1.144   0.798
 3934SOL    HW112701   0.196   1.072   0.804
 3934SOL    HW212702   0.172   1.233   0.792
 3935SOL     OW12703   2.555   0.108   6.468
 3935SOL    HW112704   2.557   0.143   6.562
 3935SOL    HW212705   2.462   0.117   6.431
 3936SOL     OW12706   6.599   5.106   5.453
 3936SOL    HW112707   6.611   5.015   5.493
 3936SOL    HW212708   6.685   5.136   5.412
 3937SOL     OW12709   6.764   0.753   2.449
 3937SOL    HW112710   6.751   0.821   2.522
 3937SOL    HW212711   6.840   0.782   2.391
 3938SOL     OW12712   0.460   1.604   3.952
 3938SOL    HW112713   0.455   1.518   4.003
 3938SOL    HW212714   0.386   1.665   3.981
 3939SOL     OW12715   2.774   1.747   2.061
 3939SOL    HW112716   2.780   1.762   1.963
 3939SOL    HW212717   2.687   1.783   2.096
 3940SOL     OW12718   4.440   5.090   1.945
 3940SOL    HW112719   4.397   5.058   2.030
 3940SOL    HW212720   4.443   5.190   1.946
 3941SOL     OW12721   4.761   2.329   6.432
 3941SOL    HW112722   4.702   2.274   6.372
 3941SOL    HW212723   4.786   2.275   6.512
 3942SOL     OW12724   0.267   0.396   6.612
 3942SOL    HW112725   0.348   0.343   6.637
 3942SOL    HW212726   0.291   0.492   6.605
 3943SOL     OW12727   0.644   3.884   2.897
 3943SOL    HW112728   0.695   3.946   2.837
 3943SOL    HW212729   0.546   3.902   2.887
 3944SOL     OW12730   5.025   3.222   4.722
 3944SOL    HW112731   5.000   3.304   4.670
 3944SOL    HW212732   4.979   3.223   4.811
 3945SOL     OW12733   0.823   1.966   1.616
 3945SOL    HW112734   0.874   1.879   1.610
 3945SOL    HW212735   0.881   2.041   1.585
 3946SOL     OW12736   5.583   6.107   6.303
 3946SOL    HW112737   5.654   6.036   6.310
 3946SOL    HW212738   5.502   6.077   6.354
 3947SOL     OW12739   6.063   5.322   0.319
 3947SOL    HW112740   6.067   5.421   0.305
 3947SOL    HW212741   6.149   5.290   0.358
 3948SOL     OW12742   0.670   5.699   1.779
 3948SOL    HW112743   0.746   5.637   1.798
 3948SOL    HW212744   0.685   5.787   1.826
 3949SOL     OW12745   5.738   0.468   2.979
 3949SOL    HW112746   5.740   0.397   3.049
 3949SOL    HW212747   5.645   0.504   2.970
 3950SOL     OW12748   2.037   3.986   1.762
 3950SOL    HW112749   2.107   4.052   1.789
 3950SOL    HW212750   1.958   3.995   1.823
 3951SOL     OW12751   6.372   6.630   0.190
 3951SOL    HW112752   6.358   6.595   0.283
 3951SOL    HW212753   6.312   6.580   0.127
 3952SOL     OW12754   6.266   3.696   2.729
 3952SOL    HW112755   6.267   3.664   2.824
 3952SOL    HW212756   6.360   3.697   2.695
 3953SOL     OW12757   3.993   4.455   1.216
 3953SOL    HW112758   4.091   4.438   1.228
 3953SOL    HW212759   3.972   4.461   1.118
 3954SOL     OW12760   5.070   5.276   5.206
 3954SOL    HW112761   4.991   5.262   5.265
 3954SOL    HW212762   5.148   5.223   5.241
 3955SOL     OW12763   2.715   5.452   6.426
 3955SOL    HW112764   2.729   5.355   6.446
 3955SOL    HW212765   2.779   5.482   6.355
 3956SOL     OW12766   6.988   0.900   3.184
 3956SOL    HW112767   0.058   0.890   3.195
 3956SOL    HW212768   6.941   0.828   3.235
 3957SOL     OW12769   4.670   6.157   3.603
 3957SOL    HW112770   4.616   6.083   3.643
 3957SOL    HW212771   4.726   6.199   3.673
 3958SOL     OW12772   5.677   0.303   5.555
 3958SOL    HW112773   5.750   0.340   5.613
 3958SOL    HW212774   5.628   0.379   5.512
 3959SOL     OW12775   4.162   6.353   1.075
 3959SOL    HW112776   4.080   6.298   1.091
 3959SOL    HW212777   4.176   6.364   0.977
 3960SOL     OW12778   4.579   1.548   6.913
 3960SOL    HW112779   4.481   1.536   6.932
 3960SOL    HW212780   4.615   1.465   6.871
 3961SOL     OW12781   5.262   2.182   2.620
 3961SOL    HW112782   5.350   2.138   2.600
 3961SOL    HW212783   5.278   2.271   2.663
 3962SOL     OW12784   2.563   4.788   6.962
 3962SOL    HW112785   2.661   4.773   6.969
 3962SOL    HW212786   2.514   4.712   7.004
 3963SOL     OW12787   4.589   4.886   4.099
 3963SOL    HW112788   4.651   4.911   4.024
 3963SOL    HW212789   4.534   4.966   4.124
 3964SOL     OW12790   3.817   5.192   3.514
 3964SOL    HW112791   3.812   5.203   3.415
 3964SOL    HW212792   3.756   5.118   3.542
 3965SOL     OW12793   5.003   3.244   6.302
 3965SOL    HW112794   4.987   3.149   6.275
 3965SOL    HW212795   4.921   3.280   6.346
 3966SOL     OW12796   5.127   5.772   0.724
 3966SOL    HW112797   5.128   5.765   0.624
 3966SOL    HW212798   5.208   5.824   0.754
 3967SOL     OW12799   1.626   3.893   2.322
 3967SOL    HW112800   1.618   3.991   2.302
 3967SOL    HW212801   1.580   3.872   2.408
 3968SOL     OW12802   5.159   0.597   1.425
 3968SOL    HW112803   5.216   0.603   1.507
 3968SOL    HW212804   5.063   0.594   1.451
 3969SOL     OW12805   1.496   3.819   2.535
 3969SOL    HW112806   1.529   3.734   2.496
 3969SOL    HW212807   1.548   3.842   2.618
 3970SOL     OW12808   5.876   5.940   3.841
 3970SOL    HW112809   5.907   5.945   3.746
 3970SOL    HW212810   5.938   5.882   3.894
 3971SOL     OW12811   2.421   4.968   1.824
 3971SOL    HW112812   2.437   5.066   1.828
 3971SOL    HW212813   2.357   4.942   1.897
 3972SOL     OW12814   0.929   5.033   0.621
 3972SOL    HW112815   0.950   5.026   0.719
 3972SOL    HW212816   1.009   5.069   0.573
 3973SOL     OW12817   0.973   4.992   5.953
 3973SOL    HW112818   0.931   4.908   5.918
 3973SOL    HW212819   1.072   4.982   5.955
 3974SOL     OW12820   1.586   0.797   4.449
 3974SOL    HW112821   1.567   0.895   4.439
 3974SOL    HW212822   1.623   0.762   4.363
 3975SOL     OW12823   6.119   0.673   4.907
 3975SOL    HW112824   6.216   0.681   4.929
 3975SOL    HW212825   6.067   0.660   4.992
 3976SOL     OW12826   1.362   6.585   1.599
 3976SOL    HW112827   1.374   6.525   1.679
 3976SOL    HW212828   1.352   6.679   1.630
 3977SOL     OW12829   2.871   4.368   5.562
 3977SOL    HW112830   2.836   4.406   5.476
 3977SOL    HW212831   2.970   4.374   5.564
 3978SOL     OW12832   5.671   5.853   5.002
 3978SOL    HW112833   5.592   5.821   4.949
 3978SOL    HW212834   5.750   5.796   4.982
 3979SOL     OW12835   3.056   5.885   0.517
 3979SOL    HW112836   3.055   5.888   0.417
 3979SOL    HW212837   2.962   5.891   0.551
 3980SOL     OW12838   0.114   5.661   0.467
 3980SOL    HW112839   0.015   5.677   0.469
 3980SOL    HW212840   0.135   5.576   0.516
 3981SOL     OW12841   2.193   0.593   0.303
 3981SOL    HW112842   2.267   0.659   0.310
 3981SOL    HW212843   2.138   0.614   0.222
 3982SOL     OW12844   2.153   0.324   4.112
 3982SOL    HW112845   2.171   0.316   4.210
 3982SOL    HW212846   2.069   0.376   4.097
 3983SOL     OW12847   5.184   5.194   4.458
 3983SOL    HW112848   5.184   5.161   4.552
 3983SOL    HW212849   5.193   5.294   4.458
 3984SOL     OW12850   6.671   1.257   2.718
 3984SOL    HW112851   6.766   1.279   2.742
 3984SOL    HW212852   6.668   1.221   2.625
 3985SOL     OW12853   3.617   4.434   6.755
 3985SOL    HW112854   3.677   4.375   6.701
 3985SOL    HW212855   3.535   4.382   6.782
 3986SOL     OW12856   6.326   1.939   3.099
 3986SOL    HW112857   6.282   2.023   3.067
 3986SOL    HW212858   6.268   1.861   3.078
 3987SOL     OW12859   3.110   5.483   3.637
 3987SOL    HW112860   3.022   5.463   3.680
 3987SOL    HW212861   3.175   5.411   3.659
 3988SOL     OW12862   4.377   4.228   0.108
 3988SOL    HW112863   4.401   4.270   0.020
 3988SOL    HW212864   4.422   4.139   0.116
 3989SOL     OW12865   6.725   3.007   6.992
 3989SOL    HW112866   6.679   2.928   0.004
 3989SOL    HW212867   6.763   2.982   6.903
 3990SOL     OW12868   5.330   2.324   3.390
 3990SOL    HW112869   5.368   2.365   3.307
 3990SOL    HW212870   5.254   2.265   3.366
 3991SOL     OW12871   5.709   0.727   2.135
 3991SOL    HW112872   5.705   0.827   2.137
 3991SOL    HW212873   5.741   0.693   2.223
 3992SOL     OW12874   3.894   2.433   6.926
 3992SOL    HW112875   3.854   2.369   6.862
 3992SOL    HW212876   3.972   2.480   6.884
 3993SOL     OW12877   1.152   1.477   2.731
 3993SOL    HW112878   1.241   1.444   2.762
 3993SOL    HW212879   1.091   1.487   2.810
 3994SOL     OW12880   0.805   0.655   5.862
 3994SOL    HW112881   0.751   0.693   5.937
 3994SOL    HW212882   0.890   0.616   5.899
 3995SOL     OW12883   2.031   3.586   5.336
 3995SOL    HW112884   1.958   3.631   5.285
 3995SOL    HW212885   2.009   3.489   5.347
 3996SOL     OW12886   1.146   0.778   3.623
 3996SOL    HW112887   1.190   0.837   3.691
 3996SOL    HW212888   1.212   0.712   3.588
 3997SOL     OW12889   5.033   1.072   3.899
 3997SOL    HW112890   5.119   1.098   3.854
 3997SOL    HW212891   4.958   1.076   3.834
 3998SOL     OW12892   4.010   1.003   4.083
 3998SOL    HW112893   4.020   1.017   3.985
 3998SOL    HW212894   3.928   0.948   4.101
 3999SOL     OW12895   5.871   3.176   3.944
 3999SOL    HW112896   5.962   3.180   3.985
 3999SOL    HW212897   5.859   3.254   3.882
 4000SOL     OW12898   3.381   6.053   3.055
 4000SOL    HW112899   3.427   6.142   3.052
 4000SOL    HW212900   3.409   6.003   3.137
 4001SOL     OW12901   2.634   2.272   4.142
 4001SOL    HW112902   2.624   2.176   4.167
 4001SOL    HW212903   2.642   2.281   4.043
 4002SOL     OW12904   2.932   3.590   0.813
 4002SOL    HW112905   2.840   3.573   0.847
 4002SOL    HW212906   2.976   3.503   0.790
 4003SOL     OW12907   3.040   6.236   4.015
 4003SOL    HW112908   3.011   6.331   4.031
 4003SOL    HW212909   3.102   6.208   4.088
 4004SOL     OW12910   4.976   1.719   4.410
 4004SOL    HW112911   5.022   1.675   4.333
 4004SOL    HW212912   5.045   1.763   4.469
 4005SOL     OW12913   4.683   5.511   0.555
 4005SOL    HW112914   4.675   5.577   0.480
 4005SOL    HW212915   4.616   5.438   0.541
 4006SOL     OW12916   3.611   5.232   3.135
 4006SOL    HW112917   3.663   5.307   3.095
 4006SOL    HW212918   3.623   5.233   3.235
 4007SOL     OW12919   0.386   2.736   0.760
 4007SOL    HW112920   0.391   2.828   0.723
 4007SOL    HW212921   0.356   2.673   0.689
 4008SOL     OW12922   3.281   2.012   4.083
 4008SOL    HW112923   3.366   2.052   4.049
 4008SOL    HW212924   3.257   2.054   4.171
 4009SOL     OW12925   5.675   3.441   1.365
 4009SOL    HW112926   5.626   3.381   1.429
 4009SOL    HW212927   5.715   3.517   1.415
 4010SOL     OW12928   2.757   3.285   1.440
 4010SOL    HW112929   2.735   3.371   1.395
 4010SOL    HW212930   2.686   3.217   1.420
 4011SOL     OW12931   0.417   0.862   2.473
 4011SOL    HW112932   0.418   0.783   2.413
 4011SOL    HW212933   0.327   0.870   2.516
 4012SOL     OW12934   4.401   5.627   1.442
 4012SOL    HW112935   4.439   5.538   1.416
 4012SOL    HW212936   4.380   5.679   1.359
 4013SOL     OW12937   2.581   0.544   5.519
 4013SOL    HW112938   2.675   0.572   5.501
 4013SOL    HW212939   2.541   0.508   5.435
 4014SOL     OW12940   4.660   6.378   2.720
 4014SOL    HW112941   4.672   6.463   2.770
 4014SOL    HW212942   4.734   6.315   2.743
 4015SOL     OW12943   5.292   4.947   6.128
 4015SOL    HW112944   5.358   5.018   6.104
 4015SOL    HW212945   5.221   4.986   6.187
 4016SOL     OW12946   2.327   6.286   6.630
 4016SOL    HW112947   2.319   6.199   6.678
 4016SOL    HW212948   2.374   6.352   6.688
 4017SOL     OW12949   0.336   5.910   0.505
 4017SOL    HW112950   0.402   5.904   0.580
 4017SOL    HW212951   0.260   5.848   0.523
 4018SOL     OW12952   4.915   6.404   2.961
 4018SOL    HW112953   4.830   6.428   3.006
 4018SOL    HW212954   4.898   6.331   2.894
 4019SOL     OW12955   5.977   3.440   2.829
 4019SOL    HW112956   6.012   3.346   2.825
 4019SOL    HW212957   5.921   3.451   2.911
 4020SOL     OW12958   4.870   2.194   5.553
 4020SOL    HW112959   4.959   2.235   5.533
 4020SOL    HW212960   4.840   2.139   5.475
 4021SOL     OW12961   3.581   4.261   6.352
 4021SOL    HW112962   3.627   4.180   6.316
 4021SOL    HW212963   3.482   4.245   6.354
 4022SOL     OW12964   4.173   0.614   0.042
 4022SOL    HW112965   4.245   0.591   0.108
 4022SOL    HW212966   4.108   0.538   0.035
 4023SOL     OW12967   6.252   1.774   4.793
 4023SOL    HW112968   6.303   1.810   4.716
 4023SOL    HW212969   6.313   1.762   4.871
 4024SOL     OW12970   3.746   6.167   3.018
 4024SOL    HW112971   3.781   6.074   3.019
 4024SOL    HW212972   3.690   6.181   2.937
 4025SOL     OW12973   0.969   6.069   3.988
 4025SOL    HW112974   0.992   5.972   3.993
 4025SOL    HW212975   0.904   6.084   3.913
 4026SOL     OW12976   6.162   5.525   4.424
 4026SOL    HW112977   6.071   5.517   4.384
 4026SOL    HW212978   6.154   5.542   4.522
 4027SOL     OW12979   3.610   4.201   1.940
 4027SOL    HW112980   3.704   4.166   1.933
 4027SOL    HW212981   3.597   4.275   1.875
 4028SOL     OW12982   1.115   2.038   3.926
 4028SOL    HW112983   1.160   2.060   3.840
 4028SOL    HW212984   1.041   2.103   3.944
 4029SOL     OW12985   1.986   4.423   6.563
 4029SOL    HW112986   2.064   4.373   6.526
 4029SOL    HW212987   2.016   4.482   6.638
 4030SOL     OW12988   1.330   2.226   6.082
 4030SOL    HW112989   1.368   2.317   6.068
 4030SOL    HW212990   1.353   2.194   6.174
 4031SOL     OW12991   5.221   5.912   3.282
 4031SOL    HW112992   5.250   5.829   3.233
 4031SOL    HW212993   5.154   5.887   3.352
 4032SOL     OW12994   6.334   6.860   3.225
 4032SOL    HW112995   6.339   6.762   3.240
 4032SOL    HW212996   6.422   6.902   3.248
 4033SOL     OW12997   3.315   3.361   3.601
 4033SOL    HW112998   3.308   3.313   3.514
 4033SOL    HW212999   3.311   3.296   3.676
 4034SOL     OW13000   5.539   1.087   5.275
 4034SOL    HW113001   5.463   1.095   5.339
 4034SOL    HW213002   5.626   1.082   5.325
 4035SOL     OW13003   6.877   3.820   1.198
 4035SOL    HW113004   6.892   3.802   1.295
 4035SOL    HW213005   6.841   3.737   1.154
 4036SOL     OW13006   5.914   6.536   2.035
 4036SOL    HW113007   5.944   6.562   1.943
 4036SOL    HW213008   5.815   6.553   2.044
 4037SOL     OW13009   2.207   2.439   0.260
 4037SOL    HW113010   2.263   2.362   0.290
 4037SOL    HW213011   2.194   2.503   0.336
 4038SOL     OW13012   4.860   4.886   2.170
 4038SOL    HW113013   4.790   4.865   2.102
 4038SOL    HW213014   4.918   4.806   2.185
 4039SOL     OW13015   4.878   5.213   0.967
 4039SOL    HW113016   4.822   5.160   1.031
 4039SOL    HW213017   4.883   5.308   0.998
 4040SOL     OW13018   2.783   6.640   0.176
 4040SOL    HW113019   2.733   6.712   0.129
 4040SOL    HW213020   2.878   6.670   0.190
 4041SOL     OW13021   1.611   6.188   2.656
 4041SOL    HW113022   1.566   6.122   2.717
 4041SOL    HW213023   1.590   6.281   2.685
 4042SOL     OW13024   6.104   4.680   2.483
 4042SOL    HW113025   6.118   4.581   2.491
 4042SOL    HW213026   6.192   4.726   2.483
 4043SOL     OW13027   5.601   1.929   3.669
 4043SOL    HW113028   5.684   1.978   3.645
 4043SOL    HW213029   5.622   1.859   3.737
 4044SOL     OW13030   6.320   0.247   4.845
 4044SOL    HW113031   6.310   0.175   4.776
 4044SOL    HW213032   6.390   0.220   4.911
 4045SOL     OW13033   2.584   4.484   5.960
 4045SOL    HW113034   2.484   4.476   5.952
 4045SOL    HW213035   2.618   4.549   5.892
 4046SOL     OW13036   0.770   1.617   2.873
 4046SOL    HW113037   0.740   1.633   2.778
 4046SOL    HW213038   0.689   1.611   2.932
 4047SOL     OW13039   2.449   3.924   0.771
 4047SOL    HW113040   2.531   3.924   0.714
 4047SOL    HW213041   2.445   3.840   0.825
 4048SOL     OW13042   5.534   1.002   1.715
 4048SOL    HW113043   5.448   1.023   1.762
 4048SOL    HW213044   5.577   1.087   1.685
 4049SOL     OW13045   6.779   6.448   6.659
 4049SOL    HW113046   6.760   6.356   6.696
 4049SOL    HW213047   6.862   6.483   6.701
 4050SOL     OW13048   1.679   6.589   6.739
 4050SOL    HW113049   1.771   6.626   6.724
 4050SOL    HW213050   1.682   6.489   6.738
 4051SOL     OW13051   2.757   3.912   0.252
 4051SOL    HW113052   2.838   3.970   0.253
 4051SOL    HW213053   2.757   3.853   0.333
 4052SOL     OW13054   1.401   0.141   1.241
 4052SOL    HW113055   1.488   0.161   1.196
 4052SOL    HW213056   1.389   0.042   1.247
 4053SOL     OW13057   2.825   4.932   4.092
 4053SOL    HW113058   2.795   4.836   4.090
 4053SOL    HW213059   2.832   4.967   3.999
 4054SOL     OW13060   2.944   3.086   0.703
 4054SOL    HW113061   2.863   3.140   0.724
 4054SOL    HW213062   2.943   3.002   0.756
 4055SOL     OW13063   2.598   3.347   6.079
 4055SOL    HW113064   2.526   3.410   6.109
 4055SOL    HW213065   2.657   3.325   6.156
 4056SOL     OW13066   4.403   3.122   6.882
 4056SOL    HW113067   4.400   3.100   6.980
 4056SOL    HW213068   4.357   3.209   6.866
 4057SOL     OW13069   5.653   3.377   0.864
 4057SOL    HW113070   5.697   3.399   0.951
 4057SOL    HW213071   5.689   3.437   0.793
 4058SOL     OW13072   2.169   1.126   4.631
 4058SOL    HW113073   2.130   1.215   4.608
 4058SOL    HW213074   2.256   1.139   4.678
 4059SOL     OW13075   2.048   2.105   3.534
 4059SOL    HW113076   2.089   2.111   3.443
 4059SOL    HW213077   2.016   2.012   3.550
 4060SOL     OW13078   3.689   5.177   4.591
 4060SOL    HW113079   3.605   5.229   4.603
 4060SOL    HW213080   3.705   5.120   4.671
 4061SOL     OW13081   3.345   4.555   1.697
 4061SOL    HW113082   3.352   4.457   1.715
 4061SOL    HW213083   3.427   4.601   1.731
 4062SOL     OW13084   4.710   1.434   3.071
 4062SOL    HW113085   4.635   1.389   3.022
 4062SOL    HW213086   4.789   1.373   3.075
 4063SOL     OW13087   4.235   6.517   6.324
 4063SOL    HW113088   4.201   6.524   6.231
 4063SOL    HW213089   4.328   6.554   6.329
 4064SOL     OW13090   2.350   6.857   2.673
 4064SOL    HW113091   2.377   6.937   2.620
 4064SOL    HW213092   2.251   6.843   2.665
 4065SOL     OW13093   0.299   7.021   0.653
 4065SOL    HW113094   0.231   6.960   0.694
 4065SOL    HW213095   0.325   0.063   0.719
 4066SOL     OW13096   5.524   4.958   1.626
 4066SOL    HW113097   5.603   4.900   1.607
 4066SOL    HW213098   5.467   4.965   1.544
 4067SOL     OW13099   5.263   1.680   3.334
 4067SOL    HW113100   5.233   1.775   3.344
 4067SOL    HW213101   5.189   1.625   3.295
 4068SOL     OW13102   4.473   0.531   5.207
 4068SOL    HW113103   4.460   0.525   5.306
 4068SOL    HW213104   4.557   0.484   5.182
 4069SOL     OW13105   4.481   4.257   0.677
 4069SOL    HW113106   4.554   4.200   0.639
 4069SOL    HW213107   4.404   4.259   0.614
 4070SOL     OW13108   1.666   3.375   2.575
 4070SOL    HW113109   1.765   3.368   2.563
 4070SOL    HW213110   1.620   3.336   2.496
 4071SOL     OW13111   1.378   0.741   5.086
 4071SOL    HW113112   1.461   0.765   5.137
 4071SOL    HW213113   1.329   0.669   5.135
 4072SOL     OW13114   1.883   6.574   4.305
 4072SOL    HW113115   1.918   6.518   4.380
 4072SOL    HW213116   1.878   6.670   4.335
 4073SOL     OW13117   1.924   5.363   5.841
 4073SOL    HW113118   2.012   5.394   5.805
 4073SOL    HW213119   1.867   5.329   5.767
 4074SOL     OW13120   0.031   2.417   1.757
 4074SOL    HW113121   0.112   2.476   1.755
 4074SOL    HW213122   7.023   2.407   1.665
 4075SOL     OW13123   4.439   1.928   2.303
 4075SOL    HW113124   4.432   1.984   2.385
 4075SOL    HW213125   4.534   1.927   2.271
 4076SOL     OW13126   2.314   4.278   5.323
 4076SOL    HW113127   2.340   4.259   5.418
 4076SOL    HW213128   2.363   4.216   5.262
 4077SOL     OW13129   2.815   6.868   0.567
 4077SOL    HW113130   2.765   6.782   0.563
 4077SOL    HW213131   2.812   6.905   0.660
 4078SOL     OW13132   6.493   4.809   2.048
 4078SOL    HW113133   6.413   4.756   2.077
 4078SOL    HW213134   6.481   4.905   2.076
 4079SOL     OW13135   0.998   0.690   3.290
 4079SOL    HW113136   1.037   0.777   3.320
 4079SOL    HW213137   0.920   0.707   3.231
 4080SOL     OW13138   2.949   4.134   0.299
 4080SOL    HW113139   2.893   4.192   0.357
 4080SOL    HW213140   3.003   4.072   0.355
 4081SOL     OW13141   2.286   0.773   5.309
 4081SOL    HW113142   2.218   0.703   5.329
 4081SOL    HW213143   2.282   0.796   5.212
 4082SOL     OW13144   0.893   2.059   6.037
 4082SOL    HW113145   0.920   1.971   6.077
 4082SOL    HW213146   0.896   2.053   5.938
 4083SOL     OW13147   6.052   4.707   3.254
 4083SOL    HW113148   5.954   4.703   3.237
 4083SOL    HW213149   6.071   4.773   3.326
 4084SOL     OW13150   4.917   2.870   3.094
 4084SOL    HW113151   4.962   2.793   3.139
 4084SOL    HW213152   4.903   2.944   3.160
 4085SOL     OW13153   2.352   5.558   1.245
 4085SOL    HW113154   2.360   5.524   1.339
 4085SOL    HW213155   2.425   5.516   1.189
 4086SOL     OW13156   0.088   5.368   0.132
 4086SOL    HW113157   0.153   5.340   0.061
 4086SOL    HW213158   0.073   5.466   0.127
 4087SOL     OW13159   3.354   0.306   2.740
 4087SOL    HW113160   3.311   0.396   2.743
 4087SOL    HW213161   3.393   0.289   2.650
 4088SOL     OW13162   6.448   0.847   5.449
 4088SOL    HW113163   6.433   0.945   5.463
 4088SOL    HW213164   6.511   0.835   5.372
 4089SOL     OW13165   6.929   5.674   4.497
 4089SOL    HW113166   7.010   5.649   4.444
 4089SOL    HW213167   6.880   5.591   4.524
 4090SOL     OW13168   2.133   6.848   4.859
 4090SOL    HW113169   2.148   6.945   4.879
 4090SOL    HW213170   2.043   6.836   4.818
 4091SOL     OW13171   0.971   4.988   0.897
 4091SOL    HW113172   1.014   4.897   0.899
 4091SOL    HW213173   1.008   5.043   0.972
 4092SOL     OW13174   4.777   2.973   4.688
 4092SOL    HW113175   4.721   3.010   4.615
 4092SOL    HW213176   4.819   2.887   4.658
 4093SOL     OW13177   6.292   5.642   1.897
 4093SOL    HW113178   6.219   5.693   1.851
 4093SOL    HW213179   6.328   5.573   1.834
 4094SOL     OW13180   0.442   5.041   6.790
 4094SOL    HW113181   0.418   5.008   6.698
 4094SOL    HW213182   0.483   4.966   6.843
 4095SOL     OW13183   0.278   3.564   0.018
 4095SOL    HW113184   0.303   3.626   6.972
 4095SOL    HW213185   0.352   3.498   0.033
 4096SOL     OW13186   2.337   1.142   6.498
 4096SOL    HW113187   2.296   1.230   6.476
 4096SOL    HW213188   2.376   1.145   6.589
 4097SOL     OW13189   6.456   4.352   5.429
 4097SOL    HW113190   6.457   4.356   5.529
 4097SOL    HW213191   6.366   4.321   5.398
 4098SOL     OW13192   1.839   3.396   1.673
 4098SOL    HW113193   1.927   3.412   1.719
 4098SOL    HW213194   1.854   3.340   1.591
 4099SOL     OW13195   4.405   5.081   6.826
 4099SOL    HW113196   4.314   5.120   6.809
 4099SOL    HW213197   4.455   5.076   6.740
 4100SOL     OW13198   0.857   0.847   3.637
 4100SOL    HW113199   0.932   0.785   3.616
 4100SOL    HW213200   0.884   0.941   3.616
 4101SOL     OW13201   6.473   0.521   6.426
 4101SOL    HW113202   6.400   0.586   6.447
 4101SOL    HW213203   6.552   0.540   6.484
 4102SOL     OW13204   1.783   0.479   0.384
 4102SOL    HW113205   1.827   0.502   0.297
 4102SOL    HW213206   1.684   0.487   0.374
 4103SOL     OW13207   6.831   6.701   2.280
 4103SOL    HW113208   6.769   6.627   2.308
 4103SOL    HW213209   6.899   6.664   2.216
 4104SOL     OW13210   0.272   5.678   2.857
 4104SOL    HW113211   0.258   5.771   2.824
 4104SOL    HW213212   0.244   5.671   2.953
 4105SOL     OW13213   4.674   1.318   1.641
 4105SOL    HW113214   4.703   1.394   1.699
 4105SOL    HW213215   4.685   1.232   1.690
 4106SOL     OW13216   0.009   2.110   4.232
 4106SOL    HW113217   6.955   2.166   4.245
 4106SOL    HW213218   7.011   2.017   4.206
 4107SOL     OW13219   0.369   6.116   6.380
 4107SOL    HW113220   0.299   6.181   6.350
 4107SOL    HW213221   0.352   6.088   6.474
 4108SOL     OW13222   0.441   5.653   3.875
 4108SOL    HW113223   0.372   5.591   3.911
 4108SOL    HW213224   0.426   5.745   3.912
 4109SOL     OW13225   6.073   5.320   3.627
 4109SOL    HW113226   6.046   5.386   3.697
 4109SOL    HW213227   6.173   5.311   3.627
 4110SOL     OW13228   4.720   2.911   6.979
 4110SOL    HW113229   4.674   2.854   6.911
 4110SOL    HW213230   4.666   2.913   0.035
 4111SOL     OW13231   6.412   5.540   6.580
 4111SOL    HW113232   6.363   5.458   6.550
 4111SOL    HW213233   6.382   5.566   6.672
 4112SOL     OW13234   4.771   6.536   4.998
 4112SOL    HW113235   4.811   6.578   5.080
 4112SOL    HW213236   4.754   6.606   4.929
 4113SOL     OW13237   3.867   4.973   4.958
 4113SOL    HW113238   3.796   4.964   4.888
 4113SOL    HW213239   3.827   4.959   5.048
 4114SOL     OW13240   6.494   1.679   3.525
 4114SOL    HW113241   6.525   1.667   3.619
 4114SOL    HW213242   6.416   1.741   3.523
 4115SOL     OW13243   2.678   4.727   3.432
 4115SOL    HW113244   2.651   4.786   3.508
 4115SOL    HW213245   2.597   4.680   3.397
 4116SOL     OW13246   5.515   2.073   3.193
 4116SOL    HW113247   5.543   2.149   3.252
 4116SOL    HW213248   5.531   2.099   3.097
 4117SOL     OW13249   1.514   1.893   2.640
 4117SOL    HW113250   1.497   1.991   2.651
 4117SOL    HW213251   1.534   1.853   2.730
 4118SOL     OW13252   6.398   6.509   6.890
 4118SOL    HW113253   6.475   6.561   6.852
 4118SOL    HW213254   6.383   6.427   6.835
 4119SOL     OW13255   2.705   0.712   3.497
 4119SOL    HW113256   2.791   0.680   3.537
 4119SOL    HW213257   2.634   0.643   3.511
 4120SOL     OW13258   3.649   1.526   6.559
 4120SOL    HW113259   3.736   1.489   6.526
 4120SOL    HW213260   3.580   1.520   6.487
 4121SOL     OW13261   6.870   6.306   2.313
 4121SOL    HW113262   6.831   6.214   2.313
 4121SOL    HW213263   6.801   6.372   2.343
 4122SOL     OW13264   0.431   5.915   4.685
 4122SOL    HW113265   0.359   5.873   4.630
 4122SOL    HW213266   0.490   5.844   4.723
 4123SOL     OW13267   3.837   5.437   4.635
 4123SOL    HW113268   3.933   5.443   4.607
 4123SOL    HW213269   3.798   5.351   4.602
 4124SOL     OW13270   6.351   6.309   1.215
 4124SOL    HW113271   6.379   6.399   1.181
 4124SOL    HW213272   6.270   6.278   1.166
 4125SOL     OW13273   5.093   2.585   2.803
 4125SOL    HW113274   5.022   2.530   2.847
 4125SOL    HW213275   5.068   2.682   2.809
 4126SOL     OW13276   1.736   3.087   2.375
 4126SOL    HW113277   1.717   3.176   2.333
 4126SOL    HW213278   1.649   3.046   2.405
 4127SOL     OW13279   4.145   1.851   4.170
 4127SOL    HW113280   4.118   1.755   4.177
 4127SOL    HW213281   4.071   1.909   4.207
 4128SOL     OW13282   0.818   3.166   1.980
 4128SOL    HW113283   0.849   3.083   1.934
 4128SOL    HW213284   0.742   3.143   2.042
 4129SOL     OW13285   3.196   2.509   0.729
 4129SOL    HW113286   3.126   2.440   0.709
 4129SOL    HW213287   3.229   2.549   0.643
 4130SOL     OW13288   6.136   2.872   0.778
 4130SOL    HW113289   6.057   2.882   0.717
 4130SOL    HW213290   6.179   2.783   0.763
 4131SOL     OW13291   6.085   0.682   2.466
 4131SOL    HW113292   5.989   0.676   2.437
 4131SOL    HW213293   6.096   0.637   2.554
 4132SOL     OW13294   5.947   4.402   4.092
 4132SOL    HW113295   5.913   4.430   4.181
 4132SOL    HW213296   5.876   4.417   4.023
 4133SOL     OW13297   5.391   6.406   1.183
 4133SOL    HW113298   5.430   6.346   1.113
 4133SOL    HW213299   5.462   6.429   1.250
 4134SOL     OW13300   2.153   3.755   1.308
 4134SOL    HW113301   2.071   3.699   1.296
 4134SOL    HW213302   2.172   3.765   1.405
 4135SOL     OW13303   0.774   2.011   2.543
 4135SOL    HW113304   0.676   2.014   2.565
 4135SOL    HW213305   0.805   1.916   2.541
 4136SOL     OW13306   0.812   3.580   1.509
 4136SOL    HW113307   0.825   3.679   1.500
 4136SOL    HW213308   0.723   3.562   1.549
 4137SOL     OW13309   1.680   2.940   0.060
 4137SOL    HW113310   1.635   2.854   0.033
 4137SOL    HW213311   1.612   3.013   0.066
 4138SOL     OW13312   3.983   5.295   1.162
 4138SOL    HW113313   3.980   5.218   1.225
 4138SOL    HW213314   4.071   5.342   1.170
 4139SOL     OW13315   1.310   2.421   3.591
 4139SOL    HW113316   1.404   2.427   3.558
 4139SOL    HW213317   1.305   2.457   3.684
 4140SOL     OW13318   3.232   1.945   3.809
 4140SOL    HW113319   3.134   1.945   3.793
 4140SOL    HW213320   3.251   1.969   3.904
 4141SOL     OW13321   4.710   6.715   6.692
 4141SOL    HW113322   4.764   6.703   6.609
 4141SOL    HW213323   4.770   6.713   6.772
 4142SOL     OW13324   6.717   3.630   1.988
 4142SOL    HW113325   6.651   3.643   2.062
 4142SOL    HW213326   6.771   3.548   2.006
 4143SOL     OW13327   5.921   3.167   0.670
 4143SOL    HW113328   5.920   3.076   0.711
 4143SOL    HW213329   5.997   3.220   0.709
 4144SOL     OW13330   5.498   1.682   0.706
 4144SOL    HW113331   5.536   1.594   0.678
 4144SOL    HW213332   5.517   1.750   0.635
 4145SOL     OW13333   1.212   6.273   0.608
 4145SOL    HW113334   1.260   6.237   0.528
 4145SOL    HW213335   1.115   6.249   0.602
 4146SOL     OW13336   6.151   6.886   3.891
 4146SOL    HW113337   6.100   6.968   3.917
 4146SOL    HW213338   6.220   6.866   3.961
 4147SOL     OW13339   5.860   4.453   6.099
 4147SOL    HW113340   5.872   4.427   6.195
 4147SOL    HW213341   5.788   4.523   6.092
 4148SOL     OW13342   3.134   6.989   5.611
 4148SOL    HW113343   3.068   7.013   5.540
 4148SOL    HW213344   3.161   6.893   5.601
 4149SOL     OW13345   1.242   2.949   1.032
 4149SOL    HW113346   1.211   2.901   0.949
 4149SOL    HW213347   1.262   3.044   1.010
 4150SOL     OW13348   6.466   2.756   5.583
 4150SOL    HW113349   6.455   2.774   5.681
 4150SOL    HW213350   6.480   2.658   5.569
 4151SOL     OW13351   2.190   0.097   4.881
 4151SOL    HW113352   2.275   0.142   4.853
 4151SOL    HW213353   2.128   0.165   4.919
 4152SOL     OW13354   3.701   5.542   1.756
 4152SOL    HW113355   3.795   5.575   1.742
 4152SOL    HW213356   3.700   5.442   1.751
 4153SOL     OW13357   6.474   4.943   1.281
 4153SOL    HW113358   6.548   4.893   1.325
 4153SOL    HW213359   6.412   4.878   1.236
 4154SOL     OW13360   6.907   5.772   3.536
 4154SOL    HW113361   6.947   5.760   3.627
 4154SOL    HW213362   6.808   5.783   3.544
 4155SOL     OW13363   6.826   2.067   1.348
 4155SOL    HW113364   6.910   2.033   1.389
 4155SOL    HW213365   6.752   2.065   1.416
 4156SOL     OW13366   6.372   4.984   4.848
 4156SOL    HW113367   6.383   4.952   4.754
 4156SOL    HW213368   6.327   5.073   4.849
 4157SOL     OW13369   6.291   6.079   2.323
 4157SOL    HW113370   6.193   6.098   2.334
 4157SOL    HW213371   6.331   6.057   2.412
 4158SOL     OW13372   1.664   2.620   1.453
 4158SOL    HW113373   1.732   2.547   1.448
 4158SOL    HW213374   1.654   2.649   1.548
 4159SOL     OW13375   2.876   1.963   3.126
 4159SOL    HW113376   2.789   1.937   3.084
 4159SOL    HW213377   2.858   2.012   3.212
 4160SOL     OW13378   6.141   0.061   6.725
 4160SOL    HW113379   6.058   0.102   6.688
 4160SOL    HW213380   6.145   0.078   6.824
 4161SOL     OW13381   2.030   2.283   1.632
 4161SOL    HW113382   2.014   2.189   1.602
 4161SOL    HW213383   2.059   2.282   1.728
 4162SOL     OW13384   6.359   5.561   1.037
 4162SOL    HW113385   6.398   5.645   0.998
 4162SOL    HW213386   6.333   5.577   1.132
 4163SOL     OW13387   5.693   0.805   2.897
 4163SOL    HW113388   5.702   0.778   2.801
 4163SOL    HW213389   5.642   0.735   2.947
 4164SOL     OW13390   0.322   6.579   5.677
 4164SOL    HW113391   0.419   6.598   5.683
 4164SOL    HW213392   0.293   6.528   5.759
 4165SOL     OW13393   4.418   0.177   5.645
 4165SOL    HW113394   4.374   0.252   5.693
 4165SOL    HW213395   4.399   0.184   5.547
 4166SOL     OW13396   6.490   0.824   1.325
 4166SOL    HW113397   6.436   0.903   1.296
 4166SOL    HW213398   6.437   0.741   1.312
 4167SOL     OW13399   2.374   5.044   6.040
 4167SOL    HW113400   2.420   5.083   6.120
 4167SOL    HW213401   2.412   4.954   6.020
 4168SOL     OW13402   0.236   4.407   0.448
 4168SOL    HW113403   0.212   4.489   0.396
 4168SOL    HW213404   0.280   4.433   0.533
 4169SOL     OW13405   6.165   4.113   4.955
 4169SOL    HW113406   6.180   4.189   4.892
 4169SOL    HW213407   6.127   4.147   5.040
 4170SOL     OW13408   4.880   3.022   4.943
 4170SOL    HW113409   4.852   3.016   4.847
 4170SOL    HW213410   4.879   3.118   4.972
 4171SOL     OW13411   1.290   5.078   1.401
 4171SOL    HW113412   1.312   5.064   1.305
 4171SOL    HW213413   1.324   5.001   1.455
 4172SOL     OW13414   2.619   2.968   0.732
 4172SOL    HW113415   2.682   3.044   0.748
 4172SOL    HW213416   2.565   2.951   0.815
 4173SOL     OW13417   4.457   2.687   5.734
 4173SOL    HW113418   4.514   2.605   5.728
 4173SOL    HW213419   4.499   2.760   5.681
 4174SOL     OW13420   4.871   1.077   2.806
 4174SOL    HW113421   4.860   1.098   2.903
 4174SOL    HW213422   4.938   1.140   2.767
 4175SOL     OW13423   1.486   4.632   5.483
 4175SOL    HW113424   1.479   4.549   5.427
 4175SOL    HW213425   1.433   4.620   5.566
 4176SOL     OW13426   4.674   6.466   1.000
 4176SOL    HW113427   4.684   6.562   0.974
 4176SOL    HW213428   4.674   6.458   1.100
 4177SOL     OW13429   5.521   4.817   4.797
 4177SOL    HW113430   5.562   4.857   4.878
 4177SOL    HW213431   5.506   4.889   4.728
 4178SOL     OW13432   4.439   0.012   2.742
 4178SOL    HW113433   4.533   0.045   2.729
 4178SOL    HW213434   4.440   6.947   2.777
 4179SOL     OW13435   5.857   4.300   3.635
 4179SOL    HW113436   5.895   4.371   3.575
 4179SOL    HW213437   5.807   4.233   3.581
 4180SOL     OW13438   5.381   3.271   1.231
 4180SOL    HW113439   5.348   3.305   1.143
 4180SOL    HW213440   5.387   3.171   1.228
 4181SOL     OW13441   5.486   1.260   6.472
 4181SOL    HW113442   5.422   1.228   6.542
 4181SOL    HW213443   5.436   1.285   6.389
 4182SOL     OW13444   0.348   5.363   3.802
 4182SOL    HW113445   0.360   5.380   3.704
 4182SOL    HW213446   0.426   5.309   3.835
 4183SOL     OW13447   2.798   0.686   0.665
 4183SOL    HW113448   2.817   0.633   0.748
 4183SOL    HW213449   2.701   0.677   0.642
 4184SOL     OW13450   3.796   0.439   2.317
 4184SOL    HW113451   3.784   0.532   2.350
 4184SOL    HW213452   3.789   0.438   2.217
 4185SOL     OW13453   0.812   4.038   2.755
 4185SOL    HW113454   0.797   4.130   2.791
 4185SOL    HW213455   0.845   4.044   2.661
 4186SOL     OW13456   2.474   5.816   5.971
 4186SOL    HW113457   2.388   5.861   5.995
 4186SOL    HW213458   2.484   5.732   6.025
 4187SOL     OW13459   2.574   3.553   0.110
 4187SOL    HW113460   2.573   3.485   0.183
 4187SOL    HW213461   2.669   3.578   0.090
 4188SOL     OW13462   5.223   0.354   5.184
 4188SOL    HW113463   5.319   0.326   5.192
 4188SOL    HW213464   5.209   0.438   5.238
 4189SOL     OW13465   3.310   5.001   3.961
 4189SOL    HW113466   3.223   4.994   3.913
 4189SOL    HW213467   3.294   5.002   4.060
 4190SOL     OW13468   0.216   6.502   0.824
 4190SOL    HW113469   0.252   6.425   0.770
 4190SOL    HW213470   0.162   6.561   0.764
 4191SOL     OW13471   5.339   3.865   5.520
 4191SOL    HW113472   5.395   3.785   5.498
 4191SOL    HW213473   5.381   3.947   5.481
 4192SOL     OW13474   1.751   1.326   1.668
 4192SOL    HW113475   1.735   1.267   1.748
 4192SOL    HW213476   1.665   1.368   1.640
 4193SOL     OW13477   5.562   0.798   0.478
 4193SOL    HW113478   5.639   0.788   0.415
 4193SOL    HW213479   5.534   0.894   0.482
 4194SOL     OW13480   5.058   0.326   4.125
 4194SOL    HW113481   5.054   0.422   4.153
 4194SOL    HW213482   4.971   0.281   4.149
 4195SOL     OW13483   4.076   5.353   1.701
 4195SOL    HW113484   4.036   5.445   1.696
 4195SOL    HW213485   4.175   5.359   1.690
 4196SOL     OW13486   0.088   2.248   2.741
 4196SOL    HW113487   0.137   2.328   2.773
 4196SOL    HW213488   0.071   2.186   2.818
 4197SOL     OW13489   4.367   4.908   5.380
 4197SOL    HW113490   4.356   5.001   5.414
 4197SOL    HW213491   4.291   4.885   5.319
 4198SOL     OW13492   0.013   1.464   1.638
 4198SOL    HW113493   0.090   1.466   1.702
 4198SOL    HW213494   6.955   1.459   1.690
 4199SOL     OW13495   1.349   2.262   5.499
 4199SOL    HW113496   1.362   2.205   5.417
 4199SOL    HW213497   1.265   2.235   5.546
 4200SOL     OW13498   2.945   0.464   5.765
 4200SOL    HW113499   2.861   0.411   5.755
 4200SOL    HW213500   2.981   0.452   5.858
 4201SOL     OW13501   6.184   0.016   3.121
 4201SOL    HW113502   6.237   6.971   3.164
 4201SOL    HW213503   6.129   0.063   3.190
 4202SOL     OW13504   2.812   5.338   6.777
 4202SOL    HW113505   2.777   5.349   6.870
 4202SOL    HW213506   2.899   5.287   6.780
 4203SOL     OW13507   5.348   4.187   0.466
 4203SOL    HW113508   5.310   4.172   0.557
 4203SOL    HW213509   5.281   4.157   0.397
 4204SOL     OW13510   3.988   3.596   5.364
 4204SOL    HW113511   4.061   3.657   5.330
 4204SOL    HW213512   3.953   3.542   5.288
 4205SOL     OW13513   3.850   5.782   4.946
 4205SOL    HW113514   3.787   5.707   4.925
 4205SOL    HW213515   3.941   5.745   4.963
 4206SOL     OW13516   6.420   1.744   5.003
 4206SOL    HW113517   6.438   1.812   5.074
 4206SOL    HW213518   6.503   1.690   4.987
 4207SOL     OW13519   2.083   2.899   1.629
 4207SOL    HW113520   2.135   2.906   1.543
 4207SOL    HW213521   2.040   2.987   1.650
 4208SOL     OW13522   0.530   3.760   5.900
 4208SOL    HW113523   0.588   3.839   5.923
 4208SOL    HW213524   0.434   3.788   5.901
 4209SOL     OW13525   0.361   6.216   3.134
 4209SOL    HW113526   0.300   6.144   3.166
 4209SOL    HW213527   0.448   6.210   3.183
 4210SOL     OW13528   4.095   3.384   2.974
 4210SOL    HW113529   4.097   3.483   2.985
 4210SOL    HW213530   4.096   3.340   3.064
 4211SOL     OW13531   3.554   1.290   5.514
 4211SOL    HW113532   3.582   1.337   5.597
 4211SOL    HW213533   3.529   1.196   5.535
 4212SOL     OW13534   6.767   1.962   3.285
 4212SOL    HW113535   6.815   1.940   3.200
 4212SOL    HW213536   6.765   1.880   3.343
 4213SOL     OW13537   3.011   0.309   2.647
 4213SOL    HW113538   2.982   0.361   2.727
 4213SOL    HW213539   3.074   0.236   2.677
 4214SOL     OW13540   0.429   6.067   5.013
 4214SOL    HW113541   0.495   6.101   4.946
 4214SOL    HW213542   0.478   6.028   5.091
 4215SOL     OW13543   4.823   0.088   5.186
 4215SOL    HW113544   4.787   0.110   5.096
 4215SOL    HW213545   4.776   0.007   5.223
 4216SOL     OW13546   1.159   0.837   2.163
 4216SOL    HW113547   1.093   0.888   2.109
 4216SOL    HW213548   1.115   0.757   2.204
 4217SOL     OW13549   1.588   0.712   2.421
 4217SOL    HW113550   1.674   0.741   2.379
 4217SOL    HW213551   1.518   0.782   2.405
 4218SOL     OW13552   3.608   0.432   1.278
 4218SOL    HW113553   3.583   0.446   1.374
 4218SOL    HW213554   3.678   0.361   1.272
 4219SOL     OW13555   4.648   6.128   4.305
 4219SOL    HW113556   4.663   6.039   4.262
 4219SOL    HW213557   4.732   6.156   4.353
 4220SOL     OW13558   6.001   3.356   2.232
 4220SOL    HW113559   5.902   3.354   2.250
 4220SOL    HW213560   6.039   3.442   2.265
 4221SOL     OW13561   6.106   4.772   5.784
 4221SOL    HW113562   6.174   4.772   5.711
 4221SOL    HW213563   6.092   4.679   5.817
 4222SOL     OW13564   6.552   1.122   3.268
 4222SOL    HW113565   6.556   1.189   3.341
 4222SOL    HW213566   6.515   1.165   3.185
 4223SOL     OW13567   4.049   3.533   0.773
 4223SOL    HW113568   3.992   3.611   0.800
 4223SOL    HW213569   4.145   3.561   0.770
 4224SOL     OW13570   5.427   5.221   4.729
 4224SOL    HW113571   5.337   5.177   4.728
 4224SOL    HW213572   5.452   5.245   4.636
 4225SOL     OW13573   1.919   2.520   4.964
 4225SOL    HW113574   2.010   2.557   4.945
 4225SOL    HW213575   1.911   2.430   4.923
 4226SOL     OW13576   0.627   5.963   3.112
 4226SOL    HW113577   0.724   5.946   3.130
 4226SOL    HW213578   0.593   6.033   3.174
 4227SOL     OW13579   4.403   5.701   1.677
 4227SOL    HW113580   4.402   5.671   1.582
 4227SOL    HW213581   4.470   5.647   1.729
 4228SOL     OW13582   0.057   6.360   5.785
 4228SOL    HW113583   0.057   6.374   5.686
 4228SOL    HW213584   0.145   6.389   5.823
 4229SOL     OW13585   4.780   5.951   5.806
 4229SOL    HW113586   4.857   5.947   5.870
 4229SOL    HW213587   4.814   5.949   5.712
 4230SOL     OW13588   1.938   6.357   3.201
 4230SOL    HW113589   1.981   6.354   3.111
 4230SOL    HW213590   1.999   6.317   3.269
 4231SOL     OW13591   5.283   6.917   6.029
 4231SOL    HW113592   5.316   6.885   5.940
 4231SOL    HW213593   5.216   6.990   6.015
 4232SOL     OW13594   1.429   4.450   3.577
 4232SOL    HW113595   1.413   4.390   3.656
 4232SOL    HW213596   1.452   4.542   3.610
 4233SOL     OW13597   0.024   0.907   5.363
 4233SOL    HW113598   0.121   0.885   5.350
 4233SOL    HW213599   6.998   0.865   5.290
 4234SOL     OW13600   2.323   5.262   5.308
 4234SOL    HW113601   2.356   5.310   5.389
 4234SOL    HW213602   2.336   5.164   5.319
 4235SOL     OW13603   6.735   4.466   6.063
 4235SOL    HW113604   6.637   4.468   6.079
 4235SOL    HW213605   6.774   4.556   6.082
 4236SOL     OW13606   6.709   4.607   2.123
 4236SOL    HW113607   6.627   4.663   2.108
 4236SOL    HW213608   6.698   4.552   2.205
 4237SOL     OW13609   6.749   4.847   3.814
 4237SOL    HW113610   6.672   4.794   3.778
 4237SOL    HW213611   6.719   4.898   3.895
 4238SOL     OW13612   1.558   6.875   2.696
 4238SOL    HW113613   1.495   6.944   2.661
 4238SOL    HW213614   1.597   6.823   2.620
 4239SOL     OW13615   4.743   1.728   2.974
 4239SOL    HW113616   4.694   1.748   3.059
 4239SOL    HW213617   4.734   1.630   2.953
 4240SOL     OW13618   1.907   5.613   0.568
 4240SOL    HW113619   1.828   5.659   0.608
 4240SOL    HW213620   1.917   5.522   0.609
 4241SOL     OW13621   5.817   1.080   0.424
 4241SOL    HW113622   5.838   1.036   0.511
 4241SOL    HW213623   5.775   1.169   0.440
 4242SOL     OW13624   2.960   2.143   4.067
 4242SOL    HW113625   2.903   2.061   4.061
 4242SOL    HW213626   3.055   2.117   4.082
 4243SOL     OW13627   6.069   2.079   3.261
 4243SOL    HW113628   6.088   2.165   3.214
 4243SOL    HW213629   6.060   2.095   3.359
 4244SOL     OW13630   4.266   4.412   1.259
 4244SOL    HW113631   4.331   4.443   1.191
 4244SOL    HW213632   4.276   4.313   1.272
 4245SOL     OW13633   6.345   2.128   6.230
 4245SOL    HW113634   6.325   2.107   6.134
 4245SOL    HW213635   6.365   2.043   6.279
 4246SOL     OW13636   6.367   4.171   2.913
 4246SOL    HW113637   6.340   4.172   2.817
 4246SOL    HW213638   6.364   4.264   2.950
 4247SOL     OW13639   2.388   6.386   3.663
 4247SOL    HW113640   2.356   6.295   3.686
 4247SOL    HW213641   2.344   6.417   3.579
 4248SOL     OW13642   3.064   1.731   4.293
 4248SOL    HW113643   3.017   1.820   4.284
 4248SOL    HW213644   3.004   1.659   4.258
 4249SOL     OW13645   6.574   2.739   5.281
 4249SOL    HW113646   6.589   2.753   5.183
 4249SOL    HW213647   6.650   2.686   5.318
 4250SOL     OW13648   0.176   4.575   2.986
 4250SOL    HW113649   0.173   4.531   2.896
 4250SOL    HW213650   0.170   4.506   3.057
 4251SOL     OW13651   5.535   4.576   0.952
 4251SOL    HW113652   5.502   4.488   0.919
 4251SOL    HW213653   5.587   4.622   0.879
 4252SOL     OW13654   5.855   6.892   5.150
 4252SOL    HW113655   5.911   6.809   5.139
 4252SOL    HW213656   5.914   6.969   5.174
 4253SOL     OW13657   3.066   6.669   1.014
 4253SOL    HW113658   3.040   6.636   1.105
 4253SOL    HW213659   3.136   6.608   0.976
 4254SOL     OW13660   1.195   2.869   2.366
 4254SOL    HW113661   1.212   2.883   2.269
 4254SOL    HW213662   1.120   2.803   2.378
 4255SOL     OW13663   5.449   3.002   3.549
 4255SOL    HW113664   5.448   2.987   3.647
 4255SOL    HW213665   5.541   2.984   3.513
 4256SOL     OW13666   1.552   6.800   0.956
 4256SOL    HW113667   1.485   6.874   0.947
 4256SOL    HW213668   1.506   6.717   0.986
 4257SOL     OW13669   3.243   0.498   4.439
 4257SOL    HW113670   3.309   0.430   4.472
 4257SOL    HW213671   3.219   0.478   4.344
 4258SOL     OW13672   5.923   6.534   1.453
 4258SOL    HW113673   5.986   6.602   1.492
 4258SOL    HW213674   5.942   6.445   1.493
 4259SOL     OW13675   2.692   0.995   0.035
 4259SOL    HW113676   2.751   0.938   0.093
 4259SOL    HW213677   2.721   0.987   6.968
 4260SOL     OW13678   4.984   6.892   5.950
 4260SOL    HW113679   5.062   6.955   5.956
 4260SOL    HW213680   4.909   6.936   5.902
 4261SOL     OW13681   2.021   0.479   2.034
 4261SOL    HW113682   2.035   0.388   1.993
 4261SOL    HW213683   1.970   0.469   2.119
 4262SOL     OW13684   0.122   4.523   6.070
 4262SOL    HW113685   0.109   4.434   6.114
 4262SOL    HW213686   0.206   4.520   6.016
 4263SOL     OW13687   3.302   6.645   3.441
 4263SOL    HW113688   3.306   6.745   3.454
 4263SOL    HW213689   3.231   6.623   3.375
 4264SOL     OW13690   0.089   1.999   2.586
 4264SOL    HW113691   0.050   2.004   2.494
 4264SOL    HW213692   0.142   2.082   2.604
 4265SOL     OW13693   5.671   1.288   0.521
 4265SOL    HW113694   5.594   1.334   0.477
 4265SOL    HW213695   5.717   1.351   0.584
 4266SOL     OW13696   1.965   5.333   0.624
 4266SOL    HW113697   1.982   5.258   0.688
 4266SOL    HW213698   1.868   5.332   0.596
 4267SOL     OW13699   1.763   3.406   5.196
 4267SOL    HW113700   1.760   3.391   5.097
 4267SOL    HW213701   1.769   3.504   5.215
 4268SOL     OW13702   1.296   6.544   6.215
 4268SOL    HW113703   1.199   6.522   6.208
 4268SOL    HW213704   1.335   6.500   6.296
 4269SOL     OW13705   2.240   0.931   1.524
 4269SOL    HW113706   2.185   0.848   1.528
 4269SOL    HW213707   2.225   0.984   1.608
 4270SOL     OW13708   3.147   3.031   4.854
 4270SOL    HW113709   3.059   3.000   4.889
 4270SOL    HW213710   3.220   2.973   4.891
 4271SOL     OW13711   0.590   0.553   6.639
 4271SOL    HW113712   0.509   0.598   6.603
 4271SOL    HW213713   0.589   0.556   6.739
 4272SOL     OW13714   0.835   3.859   5.199
 4272SOL    HW113715   0.860   3.841   5.104
 4272SOL    HW213716   0.768   3.933   5.201
 4273SOL     OW13717   4.869   6.108   4.959
 4273SOL    HW113718   4.918   6.195   4.968
 4273SOL    HW213719   4.893   6.066   4.871
 4274SOL     OW13720   2.035   6.945   2.355
 4274SOL    HW113721   2.054   0.014   2.350
 4274SOL    HW213722   2.046   6.913   2.449
 4275SOL     OW13723   6.639   1.568   5.033
 4275SOL    HW113724   6.635   1.549   5.131
 4275SOL    HW213725   6.709   1.637   5.015
 4276SOL     OW13726   1.358   4.468   4.106
 4276SOL    HW113727   1.380   4.414   4.187
 4276SOL    HW213728   1.392   4.561   4.117
 4277SOL     OW13729   6.058   4.778   4.118
 4277SOL    HW113730   6.110   4.801   4.035
 4277SOL    HW213731   5.969   4.742   4.092
 4278SOL     OW13732   0.644   0.492   4.664
 4278SOL    HW113733   0.723   0.514   4.722
 4278SOL    HW213734   0.625   0.394   4.671
 4279SOL     OW13735   3.481   0.023   5.144
 4279SOL    HW113736   3.545   0.023   5.067
 4279SOL    HW213737   3.395   0.064   5.114
 4280SOL     OW13738   5.374   0.727   5.247
 4280SOL    HW113739   5.471   0.735   5.224
 4280SOL    HW213740   5.319   0.732   5.164
 4281SOL     OW13741   1.918   4.924   4.290
 4281SOL    HW113742   1.853   4.865   4.242
 4281SOL    HW213743   1.946   4.879   4.375
 4282SOL     OW13744   3.592   2.740   0.391
 4282SOL    HW113745   3.689   2.721   0.373
 4282SOL    HW213746   3.540   2.655   0.382
 4283SOL     OW13747   2.211   1.135   4.066
 4283SOL    HW113748   2.254   1.225   4.054
 4283SOL    HW213749   2.217   1.108   4.162
 4284SOL     OW13750   4.704   5.833   1.799
 4284SOL    HW113751   4.623   5.892   1.795
 4284SOL    HW213752   4.737   5.827   1.893
 4285SOL     OW13753   0.783   0.411   5.764
 4285SOL    HW113754   0.723   0.386   5.688
 4285SOL    HW213755   0.799   0.510   5.762
 4286SOL     OW13756   4.985   5.618   6.987
 4286SOL    HW113757   4.985   5.544   0.026
 4286SOL    HW213758   5.022   5.585   6.900
 4287SOL     OW13759   5.792   1.171   6.693
 4287SOL    HW113760   5.775   1.075   6.717
 4287SOL    HW213761   5.810   1.178   6.595
 4288SOL     OW13762   0.962   6.008   3.134
 4288SOL    HW113763   0.956   5.936   3.203
 4288SOL    HW213764   1.048   6.057   3.146
 4289SOL     OW13765   6.279   3.144   1.131
 4289SOL    HW113766   6.343   3.134   1.206
 4289SOL    HW213767   6.191   3.178   1.165
 4290SOL     OW13768   2.667   7.018   2.460
 4290SOL    HW113769   2.633   0.044   2.537
 4290SOL    HW213770   2.753   6.973   2.486
 4291SOL     OW13771   4.447   3.863   1.536
 4291SOL    HW113772   4.430   3.952   1.495
 4291SOL    HW213773   4.370   3.802   1.518
 4292SOL     OW13774   6.383   4.179   6.373
 4292SOL    HW113775   6.350   4.111   6.438
 4292SOL    HW213776   6.316   4.253   6.365
 4293SOL     OW13777   0.496   2.818   0.273
 4293SOL    HW113778   0.590   2.819   0.239
 4293SOL    HW213779   0.472   2.725   0.301
 4294SOL     OW13780   3.538   2.405   6.957
 4294SOL    HW113781   3.582   2.429   6.870
 4294SOL    HW213782   3.550   2.481   7.021
 4295SOL     OW13783   3.706   6.148   4.768
 4295SOL    HW113784   3.727   6.169   4.864
 4295SOL    HW213785   3.738   6.056   4.746
 4296SOL     OW13786   3.630   1.095   0.490
 4296SOL    HW113787   3.624   0.996   0.480
 4296SOL    HW213788   3.706   1.130   0.435
 4297SOL     OW13789   5.612   0.678   6.230
 4297SOL    HW113790   5.530   0.681   6.286
 4297SOL    HW213791   5.648   0.585   6.227
 4298SOL     OW13792   2.633   5.883   6.425
 4298SOL    HW113793   2.725   5.849   6.407
 4298SOL    HW213794   2.588   5.823   6.491
 4299SOL     OW13795   0.370   2.999   6.944
 4299SOL    HW113796   0.328   3.082   6.983
 4299SOL    HW213797   0.298   2.934   6.919
 4300SOL     OW13798   4.001   1.007   0.412
 4300SOL    HW113799   3.960   0.945   0.480
 4300SOL    HW213800   4.100   0.992   0.410
 4301SOL     OW13801   3.155   1.615   1.007
 4301SOL    HW113802   3.234   1.557   0.987
 4301SOL    HW213803   3.163   1.701   0.957
 4302SOL     OW13804   1.092   6.850   5.116
 4302SOL    HW113805   1.033   6.929   5.132
 4302SOL    HW213806   1.136   6.823   5.202
 4303SOL     OW13807   5.582   4.819   4.085
 4303SOL    HW113808   5.613   4.911   4.110
 4303SOL    HW213809   5.507   4.826   4.020
 4304SOL     OW13810   2.949   3.517   4.107
 4304SOL    HW113811   2.880   3.589   4.101
 4304SOL    HW213812   2.956   3.470   4.019
 4305SOL     OW13813   6.211   0.997   4.311
 4305SOL    HW113814   6.170   0.909   4.337
 4305SOL    HW213815   6.203   1.061   4.387
 4306SOL     OW13816   6.426   3.687   6.828
 4306SOL    HW113817   6.524   3.691   6.846
 4306SOL    HW213818   6.392   3.780   6.814
 4307SOL     OW13819   5.259   3.481   6.542
 4307SOL    HW113820   5.309   3.459   6.626
 4307SOL    HW213821   5.165   3.446   6.549
 4308SOL     OW13822   5.617   5.645   6.444
 4308SOL    HW113823   5.592   5.561   6.493
 4308SOL    HW213824   5.716   5.653   6.440
 4309SOL     OW13825   1.309   1.236   0.334
 4309SOL    HW113826   1.291   1.216   0.430
 4309SOL    HW213827   1.340   1.152   0.288
 4310SOL     OW13828   2.078   2.613   2.867
 4310SOL    HW113829   2.096   2.680   2.795
 4310SOL    HW213830   2.075   2.659   2.956
 4311SOL     OW13831   1.508   5.740   3.162
 4311SOL    HW113832   1.601   5.774   3.148
 4311SOL    HW213833   1.511   5.649   3.203
 4312SOL     OW13834   1.279   5.037   0.770
 4312SOL    HW113835   1.240   5.054   0.679
 4312SOL    HW213836   1.305   5.124   0.812
 4313SOL     OW13837   5.043   1.304   1.711
 4313SOL    HW113838   5.081   1.278   1.622
 4313SOL    HW213839   5.110   1.361   1.759
 4314SOL     OW13840   5.958   1.517   4.402
 4314SOL    HW113841   5.980   1.473   4.315
 4314SOL    HW213842   5.906   1.600   4.386
 4315SOL     OW13843   2.813   0.261   1.729
 4315SOL    HW113844   2.753   0.337   1.753
 4315SOL    HW213845   2.905   0.280   1.763
 4316SOL     OW13846   5.087   0.371   1.186
 4316SOL    HW113847   5.159   0.349   1.252
 4316SOL    HW213848   5.115   0.450   1.131
 4317SOL     OW13849   3.746   1.529   4.801
 4317SOL    HW113850   3.774   1.558   4.892
 4317SOL    HW213851   3.689   1.447   4.808
 4318SOL     OW13852   1.236   2.898   3.730
 4318SOL    HW113853   1.193   2.970   3.783
 4318SOL    HW213854   1.232   2.812   3.781
 4319SOL     OW13855   2.291   2.932   0.236
 4319SOL    HW113856   2.240   2.848   0.218
 4319SOL    HW213857   2.226   3.008   0.246
 4320SOL     OW13858   0.374   5.978   2.180
 4320SOL    HW113859   0.317   5.948   2.103
 4320SOL    HW213860   0.418   5.900   2.222
 4321SOL     OW13861   0.036   0.378   4.169
 4321SOL    HW113862   0.127   0.338   4.157
 4321SOL    HW213863   0.046   0.475   4.192
 4322SOL     OW13864   6.081   2.041   6.646
 4322SOL    HW113865   6.030   2.061   6.730
 4322SOL    HW213866   6.019   2.001   6.578
 4323SOL     OW13867   4.862   4.130   1.482
 4323SOL    HW113868   4.886   4.110   1.577
 4323SOL    HW213869   4.787   4.071   1.453
 4324SOL     OW13870   5.857   3.897   6.536
 4324SOL    HW113871   5.812   3.864   6.453
 4324SOL    HW213872   5.928   3.962   6.511
 4325SOL     OW13873   1.850   0.566   0.615
 4325SOL    HW113874   1.924   0.633   0.627
 4325SOL    HW213875   1.848   0.535   0.520
 4326SOL     OW13876   5.328   2.906   4.609
 4326SOL    HW113877   5.381   2.967   4.668
 4326SOL    HW213878   5.368   2.906   4.517
 4327SOL     OW13879   6.149   5.453   2.231
 4327SOL    HW113880   6.122   5.432   2.137
 4327SOL    HW213881   6.153   5.368   2.284
 4328SOL     OW13882   4.116   3.796   6.081
 4328SOL    HW113883   4.096   3.719   6.019
 4328SOL    HW213884   4.078   3.880   6.042
 4329SOL     OW13885   4.134   1.602   6.507
 4329SOL    HW113886   4.049   1.635   6.548
 4329SOL    HW213887   4.208   1.607   6.575
 4330SOL     OW13888   2.810   0.372   4.758
 4330SOL    HW113889   2.811   0.430   4.839
 4330SOL    HW213890   2.863   0.414   4.685
 4331SOL     OW13891   4.869   2.910   0.845
 4331SOL    HW113892   4.937   2.882   0.913
 4331SOL    HW213893   4.915   2.931   0.759
 4332SOL     OW13894   5.457   4.647   2.071
 4332SOL    HW113895   5.440   4.606   2.160
 4332SOL    HW213896   5.380   4.629   2.011
 4333SOL     OW13897   4.199   0.921   5.432
 4333SOL    HW113898   4.296   0.921   5.456
 4333SOL    HW213899   4.171   1.013   5.406
 4334SOL     OW13900   1.881   1.889   2.386
 4334SOL    HW113901   1.854   1.982   2.364
 4334SOL    HW213902   1.947   1.856   2.319
 4335SOL     OW13903   2.949   3.661   3.617
 4335SOL    HW113904   2.967   3.743   3.563
 4335SOL    HW213905   3.034   3.628   3.657
 4336SOL     OW13906   1.365   6.655   5.750
 4336SOL    HW113907   1.404   6.711   5.823
 4336SOL    HW213908   1.269   6.678   5.738
 4337SOL     OW13909   1.007   4.468   0.331
 4337SOL    HW113910   1.074   4.396   0.315
 4337SOL    HW213911   1.053   4.557   0.333
 4338SOL     OW13912   4.986   5.610   4.039
 4338SOL    HW113913   5.064   5.632   3.981
 4338SOL    HW213914   4.998   5.653   4.129
 4339SOL     OW13915   6.379   3.878   5.318
 4339SOL    HW113916   6.416   3.964   5.283
 4339SOL    HW213917   6.445   3.804   5.303
 4340SOL     OW13918   6.047   4.311   2.027
 4340SOL    HW113919   6.034   4.213   2.011
 4340SOL    HW213920   6.109   4.349   1.958
 4341SOL     OW13921   0.605   5.619   2.150
 4341SOL    HW113922   0.521   5.576   2.115
 4341SOL    HW213923   0.660   5.551   2.197
 4342SOL     OW13924   6.593   4.076   3.934
 4342SOL    HW113925   6.565   3.996   3.881
 4342SOL    HW213926   6.532   4.153   3.912
 4343SOL     OW13927   2.259   6.537   6.097
 4343SOL    HW113928   2.333   6.469   6.096
 4343SOL    HW213929   2.205   6.526   6.181
 4344SOL     OW13930   1.756   5.172   3.119
 4344SOL    HW113931   1.661   5.161   3.092
 4344SOL    HW213932   1.768   5.260   3.166
 4345SOL     OW13933   2.001   3.054   5.481
 4345SOL    HW113934   1.974   3.111   5.403
 4345SOL    HW213935   2.014   2.960   5.450
 4346SOL     OW13936   1.998   3.209   2.221
 4346SOL    HW113937   1.967   3.280   2.158
 4346SOL    HW213938   2.068   3.247   2.282
 4347SOL     OW13939   5.799   6.617   2.569
 4347SOL    HW113940   5.700   6.627   2.568
 4347SOL    HW213941   5.840   6.674   2.498
 4348SOL     OW13942   0.181   3.657   2.872
 4348SOL    HW113943   0.113   3.694   2.809
 4348SOL    HW213944   0.265   3.711   2.865
 4349SOL     OW13945   6.438   2.119   2.576
 4349SOL    HW113946   6.433   2.163   2.665
 4349SOL    HW213947   6.491   2.176   2.513
 4350SOL     OW13948   4.986   2.214   3.652
 4350SOL    HW113949   5.063   2.268   3.618
 4350SOL    HW213950   4.916   2.275   3.689
 4351SOL     OW13951   2.005   6.855   1.189
 4351SOL    HW113952   1.940   6.817   1.123
 4351SOL    HW213953   1.969   6.941   1.224
 4352SOL     OW13954   0.842   2.429   2.485
 4352SOL    HW113955   0.812   2.371   2.409
 4352SOL    HW213956   0.792   2.404   2.568
 4353SOL     OW13957   3.464   3.911   0.170
 4353SOL    HW113958   3.543   3.868   0.125
 4353SOL    HW213959   3.496   3.974   0.240
 4354SOL     OW13960   2.572   6.721   5.397
 4354SOL    HW113961   2.534   6.631   5.419
 4354SOL    HW213962   2.531   6.754   5.311
 4355SOL     OW13963   3.269   0.900   2.101
 4355SOL    HW113964   3.322   0.944   2.174
 4355SOL    HW213965   3.199   0.841   2.142
 4356SOL     OW13966   4.951   4.402   1.609
 4356SOL    HW113967   4.901   4.354   1.537
 4356SOL    HW213968   4.974   4.338   1.682
 4357SOL     OW13969   6.023   0.714   6.824
 4357SOL    HW113970   6.004   0.764   6.739
 4357SOL    HW213971   6.048   0.620   6.802
 4358SOL     OW13972   6.747   5.842   7.020
 4358SOL    HW113973   6.820   5.841   6.952
 4358SOL    HW213974   6.746   5.932   0.037
 4359SOL     OW13975   1.862   2.134   6.212
 4359SOL    HW113976   1.892   2.151   6.118
 4359SOL    HW213977   1.804   2.209   6.243
 4360SOL     OW13978   1.547   2.454   3.013
 4360SOL    HW113979   1.490   2.375   2.989
 4360SOL    HW213980   1.508   2.499   3.094
 4361SOL     OW13981   3.024   2.796   1.411
 4361SOL    HW113982   2.998   2.863   1.481
 4361SOL    HW213983   3.034   2.706   1.454
 4362SOL     OW13984   6.188   4.067   3.571
 4362SOL    HW113985   6.277   4.087   3.613
 4362SOL    HW213986   6.115   4.092   3.635
 4363SOL     OW13987   5.654   2.635   6.834
 4363SOL    HW113988   5.692   2.647   6.926
 4363SOL    HW213989   5.684   2.547   6.797
 4364SOL     OW13990   3.586   3.707   5.516
 4364SOL    HW113991   3.685   3.698   5.531
 4364SOL    HW213992   3.554   3.792   5.558
 4365SOL     OW13993   2.118   2.547   1.982
 4365SOL    HW113994   2.112   2.583   1.889
 4365SOL    HW213995   2.027   2.522   2.014
 4366SOL     OW13996   5.749   6.139   0.656
 4366SOL    HW113997   5.748   6.115   0.559
 4366SOL    HW213998   5.723   6.059   0.711
 4367SOL     OW13999   2.013   4.991   4.806
 4367SOL    HW114000   2.102   4.978   4.850
 4367SOL    HW214001   2.013   5.077   4.755
 4368SOL     OW14002   3.952   5.020   1.363
 4368SOL    HW114003   4.033   4.962   1.359
 4368SOL    HW214004   3.877   4.978   1.313
 4369SOL     OW14005   3.756   5.455   3.585
 4369SOL    HW114006   3.793   5.366   3.558
 4369SOL    HW214007   3.821   5.526   3.560
 4370SOL     OW14008   4.579   4.730   2.916
 4370SOL    HW114009   4.562   4.643   2.963
 4370SOL    HW214010   4.609   4.711   2.822
 4371SOL     OW14011   0.105   0.981   1.266
 4371SOL    HW114012   0.075   1.059   1.321
 4371SOL    HW214013   0.179   0.933   1.314
 4372SOL     OW14014   4.312   1.071   3.450
 4372SOL    HW114015   4.376   1.011   3.496
 4372SOL    HW214016   4.345   1.091   3.358
 4373SOL     OW14017   0.365   2.038   6.561
 4373SOL    HW114018   0.415   1.987   6.492
 4373SOL    HW214019   0.407   2.128   6.574
 4374SOL     OW14020   1.081   1.896   1.984
 4374SOL    HW114021   1.128   1.843   1.913
 4374SOL    HW214022   1.149   1.936   2.046
 4375SOL     OW14023   3.638   1.033   3.532
 4375SOL    HW114024   3.552   1.015   3.484
 4375SOL    HW214025   3.707   0.967   3.504
 4376SOL     OW14026   6.231   6.575   3.298
 4376SOL    HW114027   6.186   6.508   3.358
 4376SOL    HW214028   6.324   6.545   3.277
 4377SOL     OW14029   5.287   3.998   0.069
 4377SOL    HW114030   5.377   4.023   0.033
 4377SOL    HW214031   5.265   4.056   0.147
 4378SOL     OW14032   1.834   1.557   2.621
 4378SOL    HW114033   1.745   1.603   2.618
 4378SOL    HW214034   1.882   1.582   2.704
 4379SOL     OW14035   1.941   0.844   2.571
 4379SOL    HW114036   1.945   0.809   2.477
 4379SOL    HW214037   2.021   0.900   2.589
 4380SOL     OW14038   1.698   0.297   2.382
 4380SOL    HW114039   1.748   0.358   2.319
 4380SOL    HW214040   1.762   0.262   2.451
 4381SOL     OW14041   0.419   6.406   5.202
 4381SOL    HW114042   0.407   6.416   5.301
 4381SOL    HW214043   0.359   6.333   5.169
 4382SOL     OW14044   0.794   3.416   5.468
 4382SOL    HW114045   0.844   3.468   5.538
 4382SOL    HW214046   0.797   3.465   5.381
 4383SOL     OW14047   0.507   3.531   6.449
 4383SOL    HW114048   0.551   3.460   6.394
 4383SOL    HW214049   0.576   3.591   6.488
 4384SOL     OW14050   6.571   0.464   4.305
 4384SOL    HW114051   6.558   0.414   4.391
 4384SOL    HW214052   6.507   0.540   4.299
 4385SOL     OW14053   4.632   2.755   5.225
 4385SOL    HW114054   4.654   2.773   5.129
 4385SOL    HW214055   4.546   2.801   5.248
 4386SOL     OW14056   1.776   3.681   5.174
 4386SOL    HW114057   1.805   3.704   5.081
 4386SOL    HW214058   1.683   3.714   5.189
 4387SOL     OW14059   6.685   1.906   1.818
 4387SOL    HW114060   6.647   1.921   1.909
 4387SOL    HW214061   6.784   1.890   1.826
 4388SOL     OW14062   3.567   2.167   5.756
 4388SOL    HW114063   3.630   2.112   5.701
 4388SOL    HW214064   3.528   2.111   5.828
 4389SOL     OW14065   6.898   3.947   0.944
 4389SOL    HW114066   6.991   3.910   0.950
 4389SOL    HW214067   6.838   3.899   1.008
 4390SOL     OW14068   3.965   6.911   1.553
 4390SOL    HW114069   4.057   6.899   1.517
 4390SOL    HW214070   3.925   6.822   1.573
 4391SOL     OW14071   2.914   5.084   0.027
 4391SOL    HW114072   2.942   5.103   6.961
 4391SOL    HW214073   2.960   5.001   0.059
 4392SOL     OW14074   1.295   2.297   5.132
 4392SOL    HW114075   1.281   2.221   5.195
 4392SOL    HW214076   1.343   2.371   5.178
 4393SOL     OW14077   6.199   0.604   1.473
 4393SOL    HW114078   6.195   0.524   1.534
 4393SOL    HW214079   6.263   0.585   1.399
 4394SOL     OW14080   6.732   6.024   2.598
 4394SOL    HW114081   6.690   5.985   2.679
 4394SOL    HW214082   6.802   5.962   2.563
 4395SOL     OW14083   1.979   0.916   1.994
 4395SOL    HW114084   1.883   0.888   1.998
 4395SOL    HW214085   1.989   1.007   2.032
 4396SOL     OW14086   1.991   1.882   3.797
 4396SOL    HW114087   2.083   1.845   3.781
 4396SOL    HW214088   1.925   1.807   3.799
 4397SOL     OW14089   1.865   2.563   4.525
 4397SOL    HW114090   1.887   2.471   4.558
 4397SOL    HW214091   1.874   2.565   4.425
 4398SOL     OW14092   1.522   3.494   6.102
 4398SOL    HW114093   1.467   3.539   6.031
 4398SOL    HW214094   1.597   3.554   6.129
 4399SOL     OW14095   3.629   6.284   2.419
 4399SOL    HW114096   3.649   6.199   2.468
 4399SOL    HW214097   3.586   6.349   2.481
 4400SOL     OW14098   2.296   6.834   3.988
 4400SOL    HW114099   2.303   6.749   3.936
 4400SOL    HW214100   2.318   6.817   4.084
 4401SOL     OW14101   3.323   6.842   5.223
 4401SOL    HW114102   3.228   6.861   5.250
 4401SOL    HW214103   3.373   6.928   5.216
 4402SOL     OW14104   1.228   6.841   2.933
 4402SOL    HW114105   1.212   6.935   2.902
 4402SOL    HW214106   1.176   6.824   3.017
 4403SOL     OW14107   1.467   6.414   0.272
 4403SOL    HW114108   1.417   6.499   0.256
 4403SOL    HW214109   1.478   6.365   0.185
 4404SOL     OW14110   0.786   6.378   5.416
 4404SOL    HW114111   0.758   6.399   5.323
 4404SOL    HW214112   0.818   6.461   5.462
 4405SOL     OW14113   1.575   4.695   2.097
 4405SOL    HW114114   1.558   4.611   2.149
 4405SOL    HW214115   1.503   4.706   2.028
 4406SOL     OW14116   6.816   2.795   0.815
 4406SOL    HW114117   6.882   2.857   0.772
 4406SOL    HW214118   6.736   2.847   0.846
 4407SOL     OW14119   0.322   5.296   1.584
 4407SOL    HW114120   0.246   5.243   1.620
 4407SOL    HW214121   0.350   5.365   1.650
 4408SOL     OW14122   2.356   0.075   6.978
 4408SOL    HW114123   2.444   0.031   6.968
 4408SOL    HW214124   2.353   0.124   0.037
 4409SOL     OW14125   4.229   1.516   1.460
 4409SOL    HW114126   4.327   1.537   1.466
 4409SOL    HW214127   4.200   1.516   1.365
 4410SOL     OW14128   0.408   5.615   0.054
 4410SOL    HW114129   0.328   5.673   0.072
 4410SOL    HW214130   0.474   5.666   7.027
 4411SOL     OW14131   3.776   4.562   5.403
 4411SOL    HW114132   3.855   4.503   5.417
 4411SOL    HW214133   3.803   4.643   5.352
 4412SOL     OW14134   4.533   6.371   4.207
 4412SOL    HW114135   4.560   6.286   4.251
 4412SOL    HW214136   4.587   6.446   4.242
 4413SOL     OW14137   5.711   5.254   3.918
 4413SOL    HW114138   5.700   5.353   3.920
 4413SOL    HW214139   5.759   5.228   3.834
 4414SOL     OW14140   3.369   5.928   1.161
 4414SOL    HW114141   3.304   5.855   1.182
 4414SOL    HW214142   3.435   5.896   1.093
 4415SOL     OW14143   4.436   3.477   0.413
 4415SOL    HW114144   4.445   3.530   0.328
 4415SOL    HW214145   4.369   3.404   0.398
 4416SOL     OW14146   4.465   1.787   3.671
 4416SOL    HW114147   4.505   1.878   3.680
 4416SOL    HW214148   4.533   1.718   3.698
 4417SOL     OW14149   5.645   3.648   3.716
 4417SOL    HW114150   5.561   3.691   3.750
 4417SOL    HW214151   5.724   3.696   3.754
 4418SOL     OW14152   6.191   1.674   2.876
 4418SOL    HW114153   6.097   1.685   2.846
 4418SOL    HW214154   6.196   1.597   2.940
 4419SOL     OW14155   6.547   0.063   5.757
 4419SOL    HW114156   6.452   0.086   5.778
 4419SOL    HW214157   6.549   7.023   5.684
 4420SOL     OW14158   3.772   1.571   1.567
 4420SOL    HW114159   3.854   1.535   1.612
 4420SOL    HW214160   3.756   1.665   1.598
 4421SOL     OW14161   1.869   1.460   5.423
 4421SOL    HW114162   1.840   1.461   5.328
 4421SOL    HW214163   1.969   1.468   5.428
 4422SOL     OW14164   1.140   4.592   6.680
 4422SOL    HW114165   1.051   4.631   6.701
 4422SOL    HW214166   1.168   4.619   6.588
 4423SOL     OW14167   0.308   3.954   5.887
 4423SOL    HW114168   0.377   4.021   5.862
 4423SOL    HW214169   0.225   4.001   5.919
 4424SOL     OW14170   5.291   6.647   4.473
 4424SOL    HW114171   5.322   6.552   4.487
 4424SOL    HW214172   5.350   6.690   4.404
 4425SOL     OW14173   1.814   4.890   0.653
 4425SOL    HW114174   1.801   4.947   0.572
 4425SOL    HW214175   1.839   4.797   0.625
 4426SOL     OW14176   0.842   1.674   4.167
 4426SOL    HW114177   0.887   1.762   4.153
 4426SOL    HW214178   0.773   1.661   4.096
 4427SOL     OW14179   5.167   6.950   3.046
 4427SOL    HW114180   5.246   6.888   3.038
 4427SOL    HW214181   5.101   6.910   3.109
 4428SOL     OW14182   4.379   0.942   4.298
 4428SOL    HW114183   4.373   0.951   4.199
 4428SOL    HW214184   4.475   0.943   4.326
 4429SOL     OW14185   2.959   0.107   2.406
 4429SOL    HW114186   3.050   0.095   2.448
 4429SOL    HW214187   2.902   0.161   2.468
 4430SOL     OW14188   4.921   4.711   4.945
 4430SOL    HW114189   4.920   4.631   4.885
 4430SOL    HW214190   4.982   4.694   5.023
 4431SOL     OW14191   2.964   1.058   3.372
 4431SOL    HW114192   2.995   1.005   3.293
 4431SOL    HW214193   2.872   1.093   3.355
 4432SOL     OW14194   2.556   3.528   6.514
 4432SOL    HW114195   2.607   3.606   6.551
 4432SOL    HW214196   2.510   3.557   6.430
 4433SOL     OW14197   6.782   2.655   4.379
 4433SOL    HW114198   6.714   2.584   4.398
 4433SOL    HW214199   6.742   2.745   4.396
 4434SOL     OW14200   5.501   1.691   2.895
 4434SOL    HW114201   5.547   1.760   2.839
 4434SOL    HW214202   5.510   1.602   2.852
 4435SOL     OW14203   4.194   3.630   1.235
 4435SOL    HW114204   4.248   3.562   1.185
 4435SOL    HW214205   4.099   3.626   1.206
 4436SOL     OW14206   4.028   1.222   1.249
 4436SOL    HW114207   4.099   1.292   1.257
 4436SOL    HW214208   3.982   1.211   1.337
 4437SOL     OW14209   1.013   3.075   2.994
 4437SOL    HW114210   1.084   3.084   3.064
 4437SOL    HW214211   0.954   3.156   2.997
 4438SOL     OW14212   4.741   6.742   6.062
 4438SOL    HW114213   4.669   6.798   6.021
 4438SOL    HW214214   4.821   6.799   6.080
 4439SOL     OW14215   0.209   4.966   2.202
 4439SOL    HW114216   0.178   5.007   2.288
 4439SOL    HW214217   0.167   4.876   2.191
 4440SOL     OW14218   2.597   5.082   0.698
 4440SOL    HW114219   2.504   5.047   0.713
 4440SOL    HW214220   2.609   5.168   0.748
 4441SOL     OW14221   0.123   1.390   1.161
 4441SOL    HW114222   0.061   1.318   1.128
 4441SOL    HW214223   0.087   1.479   1.135
 4442SOL     OW14224   1.555   5.610   4.797
 4442SOL    HW114225   1.595   5.522   4.770
 4442SOL    HW214226   1.456   5.603   4.799
 4443SOL     OW14227   1.397   3.313   5.646
 4443SOL    HW114228   1.426   3.220   5.624
 4443SOL    HW214229   1.359   3.315   5.738
 4444SOL     OW14230   4.424   3.542   0.089
 4444SOL    HW114231   4.497   3.601   0.054
 4444SOL    HW214232   4.338   3.566   0.044
 4445SOL     OW14233   1.446   6.299   0.043
 4445SOL    HW114234   1.417   6.316   6.977
 4445SOL    HW214235   1.423   6.205   0.068
 4446SOL     OW14236   5.767   2.005   0.187
 4446SOL    HW114237   5.761   1.933   0.256
 4446SOL    HW214238   5.698   1.990   0.116
 4447SOL     OW14239   6.106   3.852   4.908
 4447SOL    HW114240   6.128   3.801   4.992
 4447SOL    HW214241   6.118   3.950   4.925
 4448SOL     OW14242   2.828   6.223   0.728
 4448SOL    HW114243   2.740   6.224   0.679
 4448SOL    HW214244   2.903   6.228   0.662
 4449SOL     OW14245   5.126   0.725   5.891
 4449SOL    HW114246   5.223   0.712   5.871
 4449SOL    HW214247   5.093   0.649   5.947
 4450SOL     OW14248   2.979   1.837   6.701
 4450SOL    HW114249   3.076   1.859   6.712
 4450SOL    HW214250   2.927   1.921   6.686
 4451SOL     OW14251   4.541   4.960   4.980
 4451SOL    HW114252   4.594   5.006   5.052
 4451SOL    HW214253   4.488   5.028   4.929
 4452SOL     OW14254   5.907   5.585   4.333
 4452SOL    HW114255   5.919   5.553   4.239
 4452SOL    HW214256   5.932   5.681   4.339
 4453SOL     OW14257   1.035   2.872   1.683
 4453SOL    HW114258   1.098   2.949   1.691
 4453SOL    HW214259   0.946   2.905   1.653
 4454SOL     OW14260   1.662   1.613   0.124
 4454SOL    HW114261   1.681   1.602   0.026
 4454SOL    HW214262   1.610   1.534   0.157
 4455SOL     OW14263   5.401   6.325   5.440
 4455SOL    HW114264   5.319   6.329   5.497
 4455SOL    HW214265   5.476   6.374   5.484
 4456SOL     OW14266   2.353   5.831   2.924
 4456SOL    HW114267   2.407   5.901   2.972
 4456SOL    HW214268   2.323   5.868   2.836
 4457SOL     OW14269   3.473   1.819   3.744
 4457SOL    HW114270   3.434   1.781   3.660
 4457SOL    HW214271   3.401   1.863   3.797
 4458SOL     OW14272   2.535   3.522   1.462
 4458SOL    HW114273   2.456   3.469   1.492
 4458SOL    HW214274   2.589   3.549   1.541
 4459SOL     OW14275   3.896   1.955   4.344
 4459SOL    HW114276   3.879   1.909   4.430
 4459SOL    HW214277   3.942   2.042   4.361
 4460SOL     OW14278   0.708   2.695   6.740
 4460SOL    HW114279   0.742   2.781   6.778
 4460SOL    HW214280   0.615   2.679   6.772
 4461SOL     OW14281   1.825   0.507   1.034
 4461SOL    HW114282   1.924   0.526   1.033
 4461SOL    HW214283   1.775   0.592   1.023
 4462SOL     OW14284   5.778   4.366   1.814
 4462SOL    HW114285   5.738   4.275   1.827
 4462SOL    HW214286   5.827   4.369   1.727
 4463SOL     OW14287   5.021   1.238   1.268
 4463SOL    HW114288   5.013   1.154   1.321
 4463SOL    HW214289   5.103   1.288   1.296
 4464SOL     OW14290   0.325   6.181   0.463
 4464SOL    HW114291   0.332   6.084   0.488
 4464SOL    HW214292   0.305   6.189   0.366
 4465SOL     OW14293   2.465   5.040   0.461
 4465SOL    HW114294   2.380   5.022   0.511
 4465SOL    HW214295   2.536   5.070   0.525
 4466SOL     OW14296   1.142   1.692   2.570
 4466SOL    HW114297   1.205   1.675   2.494
 4466SOL    HW214298   1.134   1.610   2.626
 4467SOL     OW14299   2.364   5.188   3.524
 4467SOL    HW114300   2.374   5.144   3.613
 4467SOL    HW214301   2.387   5.122   3.452
 4468SOL     OW14302   1.589   4.382   1.364
 4468SOL    HW114303   1.543   4.333   1.290
 4468SOL    HW214304   1.628   4.467   1.328
 4469SOL     OW14305   3.051   0.697   1.085
 4469SOL    HW114306   3.099   0.729   1.167
 4469SOL    HW214307   3.060   0.766   1.012
 4470SOL     OW14308   0.887   1.722   2.523
 4470SOL    HW114309   0.985   1.738   2.538
 4470SOL    HW214310   0.862   1.633   2.560
 4471SOL     OW14311   1.591   2.895   6.762
 4471SOL    HW114312   1.505   2.927   6.722
 4471SOL    HW214313   1.571   2.833   6.837
 4472SOL     OW14314   0.746   2.055   1.075
 4472SOL    HW114315   0.748   1.966   1.029
 4472SOL    HW214316   0.749   2.042   1.174
 4473SOL     OW14317   5.312   2.497   4.226
 4473SOL    HW114318   5.218   2.471   4.204
 4473SOL    HW214319   5.315   2.593   4.253
 4474SOL     OW14320   3.180   6.747   1.646
 4474SOL    HW114321   3.202   6.821   1.583
 4474SOL    HW214322   3.104   6.774   1.704
 4475SOL     OW14323   1.380   3.812   1.741
 4475SOL    HW114324   1.365   3.741   1.809
 4475SOL    HW214325   1.336   3.786   1.655
 4476SOL     OW14326   6.551   0.594   3.976
 4476SOL    HW114327   6.551   0.625   3.881
 4476SOL    HW214328   6.470   0.629   4.023
 4477SOL     OW14329   1.611   0.678   5.439
 4477SOL    HW114330   1.642   0.592   5.479
 4477SOL    HW214331   1.528   0.709   5.486
 4478SOL     OW14332   2.314   0.154   2.152
 4478SOL    HW114333   2.223   0.112   2.148
 4478SOL    HW214334   2.379   0.089   2.193
 4479SOL     OW14335   0.954   2.205   1.538
 4479SOL    HW114336   1.001   2.228   1.623
 4479SOL    HW214337   1.013   2.226   1.460
 4480SOL     OW14338   0.410   4.604   5.060
 4480SOL    HW114339   0.416   4.514   5.102
 4480SOL    HW214340   0.500   4.632   5.028
 4481SOL     OW14341   2.292   5.295   4.892
 4481SOL    HW114342   2.329   5.387   4.880
 4481SOL    HW214343   2.198   5.292   4.856
 4482SOL     OW14344   2.426   2.697   5.559
 4482SOL    HW114345   2.441   2.740   5.470
 4482SOL    HW214346   2.432   2.766   5.631
 4483SOL     OW14347   7.000   2.544   2.136
 4483SOL    HW114348   6.938   2.488   2.081
 4483SOL    HW214349   0.065   2.508   2.129
 4484SOL     OW14350   2.582   2.370   6.851
 4484SOL    HW114351   2.541   2.439   6.911
 4484SOL    HW214352   2.583   2.404   6.757
 4485SOL     OW14353   5.140   2.634   5.239
 4485SOL    HW114354   5.147   2.718   5.185
 4485SOL    HW214355   5.138   2.555   5.178
 4486SOL     OW14356   6.229   5.233   5.077
 4486SOL    HW114357   6.202   5.329   5.074
 4486SOL    HW214358   6.196   5.187   4.994
 4487SOL     OW14359   2.921   3.338   0.444
 4487SOL    HW114360   2.969   3.401   0.505
 4487SOL    HW214361   2.826   3.329   0.474
 4488SOL     OW14362   1.119   3.517   4.705
 4488SOL    HW114363   1.176   3.509   4.623
 4488SOL    HW214364   1.106   3.426   4.745
 4489SOL     OW14365   4.716   5.663   5.140
 4489SOL    HW114366   4.703   5.712   5.054
 4489SOL    HW214367   4.811   5.669   5.168
 4490SOL     OW14368   5.347   1.447   1.663
 4490SOL    HW114369   5.361   1.544   1.642
 4490SOL    HW214370   5.431   1.408   1.700
 4491SOL     OW14371   0.094   3.579   3.485
 4491SOL    HW114372   0.193   3.561   3.483
 4491SOL    HW214373   0.067   3.609   3.576
 4492SOL     OW14374   6.198   3.213   1.851
 4492SOL    HW114375   6.212   3.153   1.772
 4492SOL    HW214376   6.263   3.289   1.847
 4493SOL     OW14377   4.983   6.347   4.967
 4493SOL    HW114378   5.067   6.361   4.914
 4493SOL    HW214379   4.914   6.414   4.940
 4494SOL     OW14380   0.947   0.976   5.984
 4494SOL    HW114381   0.936   1.061   5.932
 4494SOL    HW214382   1.007   0.914   5.933
 4495SOL     OW14383   4.532   6.743   3.425
 4495SOL    HW114384   4.489   6.653   3.435
 4495SOL    HW214385   4.630   6.731   3.406
 4496SOL     OW14386   5.260   6.029   0.781
 4496SOL    HW114387   5.248   6.125   0.758
 4496SOL    HW214388   5.272   6.020   0.880
 4497SOL     OW14389   4.209   2.172   6.513
 4497SOL    HW114390   4.299   2.137   6.538
 4497SOL    HW214391   4.176   2.123   6.432
 4498SOL     OW14392   6.594   4.589   6.329
 4498SOL    HW114393   6.596   4.491   6.314
 4498SOL    HW214394   6.516   4.613   6.388
 4499SOL     OW14395   6.177   2.790   3.650
 4499SOL    HW114396   6.159   2.822   3.744
 4499SOL    HW214397   6.191   2.868   3.590
 4500SOL     OW14398   4.104   4.191   6.848
 4500SOL    HW114399   4.091   4.287   6.823
 4500SOL    HW214400   4.093   4.134   6.766
 4501SOL     OW14401   6.581   3.427   3.106
 4501SOL    HW114402   6.482   3.436   3.105
 4501SOL    HW214403   6.608   3.342   3.060
 4502SOL     OW14404   1.415   3.826   0.182
 4502SOL    HW114405   1.392   3.822   0.085
 4502SOL    HW214406   1.485   3.896   0.197
 4503SOL     OW14407   3.556   6.977   1.835
 4503SOL    HW114408   3.537   6.891   1.884
 4503SOL    HW214409   3.527   0.026   1.892
 4504SOL     OW14410   6.199   1.870   4.339
 4504SOL    HW114411   6.189   1.800   4.410
 4504SOL    HW214412   6.291   1.867   4.302
 4505SOL     OW14413   6.520   4.799   1.763
 4505SOL    HW114414   6.540   4.796   1.861
 4505SOL    HW214415   6.554   4.717   1.719
 4506SOL     OW14416   4.814   2.430   3.767
 4506SOL    HW114417   4.772   2.515   3.796
 4506SOL    HW214418   4.771   2.398   3.682
 4507SOL     OW14419   0.171   3.408   3.751
 4507SOL    HW114420   0.238   3.479   3.732
 4507SOL    HW214421   0.198   3.357   3.832
 4508SOL     OW14422   1.151   4.705   0.322
 4508SOL    HW114423   1.072   4.762   0.345
 4508SOL    HW214424   1.215   4.759   0.267
 4509SOL     OW14425   4.945   1.854   3.167
 4509SOL    HW114426   4.911   1.840   3.074
 4509SOL    HW214427   4.994   1.772   3.197
 4510SOL     OW14428   4.741   0.953   4.856
 4510SOL    HW114429   4.644   0.974   4.869
 4510SOL    HW214430   4.781   0.925   4.943
 4511SOL     OW14431   6.237   3.627   0.380
 4511SOL    HW114432   6.178   3.548   0.362
 4511SOL    HW214433   6.191   3.711   0.352
 4512SOL     OW14434   3.472   1.560   6.330
 4512SOL    HW114435   3.489   1.622   6.254
 4512SOL    HW214436   3.454   1.468   6.296
 4513SOL     OW14437   1.079   5.750   6.382
 4513SOL    HW114438   1.051   5.843   6.355
 4513SOL    HW214439   1.074   5.690   6.302
 4514SOL     OW14440   3.847   2.803   6.025
 4514SOL    HW114441   3.838   2.892   5.982
 4514SOL    HW214442   3.902   2.743   5.967
 4515SOL     OW14443   5.748   1.973   5.525
 4515SOL    HW114444   5.738   2.053   5.583
 4515SOL    HW214445   5.706   1.991   5.436
 4516SOL     OW14446   2.305   0.203   5.849
 4516SOL    HW114447   2.286   0.105   5.854
 4516SOL    HW214448   2.220   0.254   5.863
 4517SOL     OW14449   4.776   0.121   6.602
 4517SOL    HW114450   4.768   0.201   6.660
 4517SOL    HW214451   4.719   0.047   6.638
 4518SOL     OW14452   0.611   6.676   1.618
 4518SOL    HW114453   0.625   6.763   1.665
 4518SOL    HW214454   0.687   6.614   1.640
 4519SOL     OW14455   4.878   6.726   7.004
 4519SOL    HW114456   4.947   6.781   0.023
 4519SOL    HW214457   4.923   6.670   6.934
 4520SOL     OW14458   3.876   5.676   5.945
 4520SOL    HW114459   3.840   5.755   5.994
 4520SOL    HW214460   3.802   5.631   5.894
 4521SOL     OW14461   4.911   2.143   4.771
 4521SOL    HW114462   4.994   2.091   4.754
 4521SOL    HW214463   4.847   2.130   4.695
 4522SOL     OW14464   5.682   4.267   2.702
 4522SOL    HW114465   5.729   4.199   2.759
 4522SOL    HW214466   5.592   4.231   2.676
 4523SOL     OW14467   1.453   4.124   6.950
 4523SOL    HW114468   1.401   4.209   6.960
 4523SOL    HW214469   1.394   4.053   6.910
 4524SOL     OW14470   5.955   3.117   2.530
 4524SOL    HW114471   5.944   3.020   2.508
 4524SOL    HW214472   5.888   3.170   2.479
 4525SOL     OW14473   3.280   2.022   6.031
 4525SOL    HW114474   3.297   2.021   6.129
 4525SOL    HW214475   3.345   1.963   5.984
 4526SOL     OW14476   6.673   0.285   6.709
 4526SOL    HW114477   6.706   0.302   6.616
 4526SOL    HW214478   6.751   0.283   6.771
 4527SOL     OW14479   6.578   6.897   2.872
 4527SOL    HW114480   6.482   6.871   2.858
 4527SOL    HW214481   6.618   6.836   2.940
 4528SOL     OW14482   4.056   0.805   6.699
 4528SOL    HW114483   4.051   0.781   6.602
 4528SOL    HW214484   4.072   0.903   6.708
 4529SOL     OW14485   2.452   1.199   5.748
 4529SOL    HW114486   2.379   1.262   5.721
 4529SOL    HW214487   2.440   1.112   5.700
 4530SOL     OW14488   2.066   5.784   3.384
 4530SOL    HW114489   2.156   5.793   3.342
 4530SOL    HW214490   2.053   5.858   3.451
 4531SOL     OW14491   1.205   3.643   6.152
 4531SOL    HW114492   1.160   3.556   6.171
 4531SOL    HW214493   1.226   3.649   6.054
 4532SOL     OW14494   5.723   0.359   2.684
 4532SOL    HW114495   5.685   0.273   2.720
 4532SOL    HW214496   5.823   0.355   2.686
 4533SOL     OW14497   1.785   1.259   3.262
 4533SOL    HW114498   1.734   1.344   3.246
 4533SOL    HW214499   1.721   1.182   3.260
 4534SOL     OW14500   4.686   2.392   5.129
 4534SOL    HW114501   4.765   2.362   5.076
 4534SOL    HW214502   4.632   2.457   5.075
 4535SOL     OW14503   3.624   1.322   1.597
 4535SOL    HW114504   3.683   1.399   1.621
 4535SOL    HW214505   3.535   1.356   1.567
 4536SOL     OW14506   3.067   1.895   4.590
 4536SOL    HW114507   3.140   1.897   4.523
 4536SOL    HW214508   2.993   1.836   4.558
 4537SOL     OW14509   4.142   3.395   2.211
 4537SOL    HW114510   4.212   3.466   2.206
 4537SOL    HW214511   4.135   3.348   2.123
 4538SOL     OW14512   2.547   0.854   2.667
 4538SOL    HW114513   2.549   0.842   2.568
 4538SOL    HW214514   2.630   0.816   2.707
 4539SOL     OW14515   2.410   5.957   4.536
 4539SOL    HW114516   2.451   6.031   4.482
 4539SOL    HW214517   2.371   5.994   4.620
 4540SOL     OW14518   2.404   1.238   0.895
 4540SOL    HW114519   2.466   1.164   0.870
 4540SOL    HW214520   2.458   1.316   0.929
 4541SOL     OW14521   5.533   1.243   6.859
 4541SOL    HW114522   5.599   1.239   6.784
 4541SOL    HW214523   5.533   1.156   6.908
 4542SOL     OW14524   6.900   1.824   1.148
 4542SOL    HW114525   6.950   1.823   1.235
 4542SOL    HW214526   6.943   1.889   1.086
 4543SOL     OW14527   5.147   2.127   0.810
 4543SOL    HW114528   5.217   2.081   0.864
 4543SOL    HW214529   5.113   2.207   0.860
 4544SOL     OW14530   3.866   4.964   0.440
 4544SOL    HW114531   3.830   4.883   0.487
 4544SOL    HW214532   3.826   4.970   0.348
 4545SOL     OW14533   0.486   3.848   5.316
 4545SOL    HW114534   0.454   3.758   5.343
 4545SOL    HW214535   0.423   3.918   5.350
 4546SOL     OW14536   2.763   0.226   5.156
 4546SOL    HW114537   2.808   0.292   5.215
 4546SOL    HW214538   2.797   0.134   5.177
 4547SOL     OW14539   6.440   1.456   0.424
 4547SOL    HW114540   6.487   1.380   0.379
 4547SOL    HW214541   6.344   1.457   0.398
 4548SOL     OW14542   2.600   2.245   3.352
 4548SOL    HW114543   2.560   2.165   3.397
 4548SOL    HW214544   2.588   2.325   3.409
 4549SOL     OW14545   4.942   4.066   2.351
 4549SOL    HW114546   4.850   4.093   2.377
 4549SOL    HW214547   4.961   3.974   2.387
 4550SOL     OW14548   1.032   4.342   3.311
 4550SOL    HW114549   1.127   4.371   3.310
 4550SOL    HW214550   0.992   4.354   3.220
 4551SOL     OW14551   1.088   4.123   5.144
 4551SOL    HW114552   1.047   4.176   5.070
 4551SOL    HW214553   1.026   4.050   5.172
 4552SOL     OW14554   5.589   2.427   0.824
 4552SOL    HW114555   5.518   2.497   0.832
 4552SOL    HW214556   5.633   2.436   0.735
 4553SOL     OW14557   5.444   4.458   6.564
 4553SOL    HW114558   5.399   4.375   6.531
 4553SOL    HW214559   5.398   4.490   6.647
 4554SOL     OW14560   0.172   6.947   1.989
 4554SOL    HW114561   0.092   6.963   2.047
 4554SOL    HW214562   0.147   6.961   1.893
 4555SOL     OW14563   1.516   1.246   6.294
 4555SOL    HW114564   1.593   1.310   6.303
 4555SOL    HW214565   1.456   1.254   6.373
 4556SOL     OW14566   6.327   3.136   4.926
 4556SOL    HW114567   6.290   3.181   4.845
 4556SOL    HW214568   6.387   3.200   4.974
 4557SOL     OW14569   5.520   5.098   4.333
 4557SOL    HW114570   5.439   5.043   4.315
 4557SOL    HW214571   5.579   5.099   4.253
 4558SOL     OW14572   6.445   3.475   4.914
 4558SOL    HW114573   6.490   3.418   4.983
 4558SOL    HW214574   6.512   3.503   4.845
 4559SOL     OW14575   7.017   3.465   2.777
 4559SOL    HW114576   0.051   3.461   2.856
 4559SOL    HW214577   6.986   3.560   2.764
 4560SOL     OW14578   6.113   4.504   2.197
 4560SOL    HW114579   6.118   4.418   2.147
 4560SOL    HW214580   6.017   4.534   2.203
 4561SOL     OW14581   3.662   1.678   3.543
 4561SOL    HW114582   3.690   1.750   3.606
 4561SOL    HW214583   3.662   1.713   3.449
 4562SOL     OW14584   1.568   0.332   0.136
 4562SOL    HW114585   1.507   0.308   0.060
 4562SOL    HW214586   1.661   0.302   0.114
 4563SOL     OW14587   6.689   3.673   0.644
 4563SOL    HW114588   6.740   3.602   0.694
 4563SOL    HW214589   6.691   3.653   0.546
 4564SOL     OW14590   6.776   5.521   2.271
 4564SOL    HW114591   6.848   5.576   2.229
 4564SOL    HW214592   6.740   5.568   2.352
 4565SOL     OW14593   1.416   1.231   4.525
 4565SOL    HW114594   1.425   1.322   4.484
 4565SOL    HW214595   1.458   1.163   4.465
 4566SOL     OW14596   0.373   3.619   1.138
 4566SOL    HW114597   0.352   3.576   1.225
 4566SOL    HW214598   0.342   3.714   1.139
 4567SOL     OW14599   6.975   1.041   6.463
 4567SOL    HW114600   6.962   0.986   6.545
 4567SOL    HW214601   0.022   1.004   6.409
 4568SOL     OW14602   1.258   3.793   5.352
 4568SOL    HW114603   1.327   3.732   5.391
 4568SOL    HW214604   1.187   3.738   5.307
 4569SOL     OW14605   3.096   0.459   3.034
 4569SOL    HW114606   3.041   0.462   3.117
 4569SOL    HW214607   3.121   0.364   3.013
 4570SOL     OW14608   6.230   6.439   2.051
 4570SOL    HW114609   6.275   6.351   2.033
 4570SOL    HW214610   6.177   6.467   1.971
 4571SOL     OW14611   4.317   2.892   6.776
 4571SOL    HW114612   4.402   2.851   6.742
 4571SOL    HW214613   4.338   2.979   6.822
 4572SOL     OW14614   2.096   1.285   6.856
 4572SOL    HW114615   2.095   1.193   6.817
 4572SOL    HW214616   2.130   1.281   6.950
 4573SOL     OW14617   0.452   7.009   0.273
 4573SOL    HW114618   0.531   6.968   0.228
 4573SOL    HW214619   0.452   6.983   0.370
 4574SOL     OW14620   5.382   4.297   0.131
 4574SOL    HW114621   5.372   4.293   0.230
 4574SOL    HW214622   5.476   4.272   0.106
 4575SOL     OW14623   5.845   0.276   4.718
 4575SOL    HW114624   5.838   0.319   4.628
 4575SOL    HW214625   5.792   0.329   4.784
 4576SOL     OW14626   2.565   4.760   5.403
 4576SOL    HW114627   2.625   4.714   5.337
 4576SOL    HW214628   2.617   4.829   5.453
 4577SOL     OW14629   1.931   2.491   3.114
 4577SOL    HW114630   1.911   2.394   3.127
 4577SOL    HW214631   1.934   2.512   3.017
 4578SOL     OW14632   1.076   1.403   4.233
 4578SOL    HW114633   1.130   1.440   4.157
 4578SOL    HW214634   0.985   1.444   4.232
 4579SOL     OW14635   4.608   1.052   2.122
 4579SOL    HW114636   4.554   1.128   2.159
 4579SOL    HW214637   4.566   0.965   2.148
 4580SOL     OW14638   5.698   3.823   1.141
 4580SOL    HW114639   5.701   3.851   1.237
 4580SOL    HW214640   5.624   3.872   1.095
 4581SOL     OW14641   2.771   6.252   2.466
 4581SOL    HW114642   2.681   6.267   2.507
 4581SOL    HW214643   2.764   6.263   2.367
 4582SOL     OW14644   4.885   1.029   3.466
 4582SOL    HW114645   4.921   1.112   3.422
 4582SOL    HW214646   4.954   0.956   3.461
 4583SOL     OW14647   2.856   1.274   6.706
 4583SOL    HW114648   2.914   1.219   6.767
 4583SOL    HW214649   2.913   1.317   6.636
 4584SOL     OW14650   1.774   6.048   5.279
 4584SOL    HW114651   1.822   6.099   5.208
 4584SOL    HW214652   1.840   5.993   5.330
 4585SOL     OW14653   1.975   4.304   3.371
 4585SOL    HW114654   1.889   4.317   3.420
 4585SOL    HW214655   1.959   4.311   3.272
 4586SOL     OW14656   4.814   3.949   0.434
 4586SOL    HW114657   4.869   3.871   0.403
 4586SOL    HW214658   4.717   3.924   0.432
 4587SOL     OW14659   3.743   3.415   4.260
 4587SOL    HW114660   3.686   3.449   4.186
 4587SOL    HW214661   3.822   3.366   4.222
 4588SOL     OW14662   3.398   3.257   5.859
 4588SOL    HW114663   3.443   3.205   5.931
 4588SOL    HW214664   3.389   3.201   5.777
 4589SOL     OW14665   5.303   6.761   1.885
 4589SOL    HW114666   5.295   6.679   1.942
 4589SOL    HW214667   5.347   6.834   1.939
 4590SOL     OW14668   3.860   5.568   1.330
 4590SOL    HW114669   3.923   5.526   1.394
 4590SOL    HW214670   3.858   5.516   1.245
 4591SOL     OW14671   1.621   0.518   5.204
 4591SOL    HW114672   1.543   0.465   5.171
 4591SOL    HW214673   1.601   0.553   5.295
 4592SOL     OW14674   3.504   1.334   3.413
 4592SOL    HW114675   3.417   1.305   3.452
 4592SOL    HW214676   3.508   1.434   3.412
 4593SOL     OW14677   6.081   6.200   1.828
 4593SOL    HW114678   6.163   6.155   1.792
 4593SOL    HW214679   6.087   6.298   1.809
 4594SOL     OW14680   3.960   0.794   3.062
 4594SOL    HW114681   4.016   0.844   2.995
 4594SOL    HW214682   3.936   0.705   3.024
 4595SOL     OW14683   4.501   2.948   5.570
 4595SOL    HW114684   4.564   3.015   5.531
 4595SOL    HW214685   4.456   2.987   5.650
 4596SOL     OW14686   6.472   0.467   2.604
 4596SOL    HW114687   6.558   0.518   2.615
 4596SOL    HW214688   6.401   0.509   2.660
 4597SOL     OW14689   2.356   5.875   6.348
 4597SOL    HW114690   2.349   5.788   6.299
 4597SOL    HW214691   2.449   5.912   6.339
 4598SOL     OW14692   1.695   5.796   1.494
 4598SOL    HW114693   1.698   5.747   1.406
 4598SOL    HW214694   1.617   5.859   1.494
 4599SOL     OW14695   1.428   4.608   1.468
 4599SOL    HW114696   1.329   4.618   1.455
 4599SOL    HW214697   1.454   4.513   1.452
 4600SOL     OW14698   0.406   6.920   5.327
 4600SOL    HW114699   0.334   6.872   5.376
 4600SOL    HW214700   0.400   6.900   5.229
 4601SOL     OW14701   0.623   1.711   5.400
 4601SOL    HW114702   0.617   1.807   5.427
 4601SOL    HW214703   0.719   1.687   5.387
 4602SOL     OW14704   3.115   6.932   0.074
 4602SOL    HW114705   3.171   7.011   0.046
 4602SOL    HW214706   3.051   6.909   0.000
 4603SOL     OW14707   3.153   5.518   0.532
 4603SOL    HW114708   3.130   5.580   0.606
 4603SOL    HW214709   3.089   5.530   0.456
 4604SOL     OW14710   4.923   0.140   6.201
 4604SOL    HW114711   4.960   0.180   6.285
 4604SOL    HW214712   4.833   0.179   6.183
 4605SOL     OW14713   2.577   0.151   1.620
 4605SOL    HW114714   2.591   0.195   1.531
 4605SOL    HW214715   2.654   0.174   1.680
 4606SOL     OW14716   6.952   0.232   2.737
 4606SOL    HW114717   6.966   0.143   2.693
 4606SOL    HW214718   6.890   0.222   2.814
 4607SOL     OW14719   1.922   3.729   2.999
 4607SOL    HW114720   1.927   3.822   3.034
 4607SOL    HW214721   1.888   3.730   2.906
 4608SOL     OW14722   6.973   3.997   3.116
 4608SOL    HW114723   7.021   3.911   3.134
 4608SOL    HW214724   6.942   4.000   3.021
 4609SOL     OW14725   5.025   4.919   0.184
 4609SOL    HW114726   4.953   4.897   0.250
 4609SOL    HW214727   5.114   4.917   0.229
 4610SOL     OW14728   4.490   1.998   0.002
 4610SOL    HW114729   4.469   2.090   6.998
 4610SOL    HW214730   4.579   1.998   0.047
 4611SOL     OW14731   0.724   0.666   6.317
 4611SOL    HW114732   0.759   0.673   6.410
 4611SOL    HW214733   0.776   0.726   6.256
 4612SOL     OW14734   2.901   6.523   1.682
 4612SOL    HW114735   2.822   6.462   1.679
 4612SOL    HW214736   2.933   6.531   1.776
 4613SOL     OW14737   1.447   5.560   2.732
 4613SOL    HW114738   1.396   5.492   2.680
 4613SOL    HW214739   1.487   5.627   2.669
 4614SOL     OW14740   6.284   2.988   3.492
 4614SOL    HW114741   6.233   3.072   3.506
 4614SOL    HW214742   6.379   3.009   3.469
 4615SOL     OW14743   1.581   0.643   1.039
 4615SOL    HW114744   1.567   0.555   1.085
 4615SOL    HW214745   1.571   0.632   0.940
 4616SOL     OW14746   5.932   1.937   4.345
 4616SOL    HW114747   5.933   2.037   4.342
 4616SOL    HW214748   6.026   1.903   4.335
 4617SOL     OW14749   1.690   2.252   2.045
 4617SOL    HW114750   1.655   2.219   1.957
 4617SOL    HW214751   1.629   2.220   2.118
 4618SOL     OW14752   2.251   3.081   5.749
 4618SOL    HW114753   2.270   3.110   5.843
 4618SOL    HW214754   2.299   3.141   5.686
 4619SOL     OW14755   3.392   6.458   3.991
 4619SOL    HW114756   3.397   6.512   4.074
 4619SOL    HW214757   3.358   6.514   3.916
 4620SOL     OW14758   0.822   4.210   1.417
 4620SOL    HW114759   0.730   4.227   1.451
 4620SOL    HW214760   0.817   4.166   1.327
 4621SOL     OW14761   5.132   0.855   2.720
 4621SOL    HW114762   5.137   0.904   2.633
 4621SOL    HW214763   5.045   0.806   2.726
 4622SOL     OW14764   3.520   4.987   1.057
 4622SOL    HW114765   3.429   4.945   1.049
 4622SOL    HW214766   3.509   5.083   1.084
 4623SOL     OW14767   4.093   5.171   0.957
 4623SOL    HW114768   4.133   5.100   1.014
 4623SOL    HW214769   4.042   5.235   1.015
 4624SOL     OW14770   3.375   1.107   3.223
 4624SOL    HW114771   3.313   1.131   3.149
 4624SOL    HW214772   3.433   1.185   3.246
 4625SOL     OW14773   2.065   5.519   2.188
 4625SOL    HW114774   2.111   5.466   2.259
 4625SOL    HW214775   1.987   5.567   2.228
 4626SOL     OW14776   4.067   4.369   1.487
 4626SOL    HW114777   4.167   4.371   1.476
 4626SOL    HW214778   4.024   4.385   1.398
 4627SOL     OW14779   1.085   6.110   4.999
 4627SOL    HW114780   1.094   6.016   5.032
 4627SOL    HW214781   1.135   6.171   5.061
 4628SOL     OW14782   4.472   4.572   4.714
 4628SOL    HW114783   4.392   4.610   4.668
 4628SOL    HW214784   4.456   4.568   4.813
 4629SOL     OW14785   2.507   5.117   6.257
 4629SOL    HW114786   2.514   5.038   6.317
 4629SOL    HW214787   2.596   5.139   6.218
 4630SOL     OW14788   2.203   5.075   2.548
 4630SOL    HW114789   2.192   5.032   2.637
 4630SOL    HW214790   2.144   5.155   2.542
 4631SOL     OW14791   0.961   6.458   3.800
 4631SOL    HW114792   1.009   6.465   3.713
 4631SOL    HW214793   1.025   6.429   3.871
 4632SOL     OW14794   2.468   5.034   3.332
 4632SOL    HW114795   2.421   5.071   3.252
 4632SOL    HW214796   2.565   5.058   3.327
 4633SOL     OW14797   5.791   1.058   4.519
 4633SOL    HW114798   5.691   1.065   4.518
 4633SOL    HW214799   5.817   0.961   4.522
 4634SOL     OW14800   2.451   3.888   5.370
 4634SOL    HW114801   2.549   3.869   5.376
 4634SOL    HW214802   2.432   3.933   5.282
 4635SOL     OW14803   4.354   4.346   1.614
 4635SOL    HW114804   4.384   4.279   1.682
 4635SOL    HW214805   4.305   4.420   1.659
 4636SOL     OW14806   1.970   4.747   0.260
 4636SOL    HW114807   1.969   4.734   0.359
 4636SOL    HW214808   2.048   4.804   0.234
 4637SOL     OW14809   0.695   6.542   0.692
 4637SOL    HW114810   0.791   6.513   0.681
 4637SOL    HW214811   0.635   6.472   0.654
 4638SOL     OW14812   3.819   5.921   6.818
 4638SOL    HW114813   3.793   5.997   6.878
 4638SOL    HW214814   3.863   5.850   6.873
 4639SOL     OW14815   2.616   2.645   6.320
 4639SOL    HW114816   2.615   2.726   6.379
 4639SOL    HW214817   2.673   2.574   6.363
 4640SOL     OW14818   6.149   3.019   4.458
 4640SOL    HW114819   6.073   2.979   4.511
 4640SOL    HW214820   6.212   3.066   4.520
 4641SOL     OW14821   2.355   0.399   3.827
 4641SOL    HW114822   2.436   0.341   3.836
 4641SOL    HW214823   2.356   0.444   3.738
 4642SOL     OW14824   1.649   6.865   2.959
 4642SOL    HW114825   1.634   6.961   2.983
 4642SOL    HW214826   1.615   6.847   2.867
 4643SOL     OW14827   6.794   2.538   0.651
 4643SOL    HW114828   6.878   2.530   0.703
 4643SOL    HW214829   6.756   2.630   0.661
 4644SOL     OW14830   0.356   0.577   5.830
 4644SOL    HW114831   0.357   0.537   5.738
 4644SOL    HW214832   0.417   0.656   5.832
 4645SOL     OW14833   1.765   1.108   4.466
 4645SOL    HW114834   1.677   1.087   4.424
 4645SOL    HW214835   1.829   1.138   4.395
 4646SOL     OW14836   2.575   5.055   3.854
 4646SOL    HW114837   2.560   5.005   3.940
 4646SOL    HW214838   2.580   4.989   3.779
 4647SOL     OW14839   1.338   0.358   2.777
 4647SOL    HW114840   1.274   0.429   2.745
 4647SOL    HW214841   1.402   0.398   2.842
 4648SOL     OW14842   2.456   0.826   4.473
 4648SOL    HW114843   2.491   0.765   4.544
 4648SOL    HW214844   2.364   0.799   4.448
 4649SOL     OW14845   6.036   0.825   0.467
 4649SOL    HW114846   6.074   0.916   0.450
 4649SOL    HW214847   5.949   0.815   0.420
 4650SOL     OW14848   4.629   5.186   1.765
 4650SOL    HW114849   4.653   5.273   1.808
 4650SOL    HW214850   4.585   5.127   1.832
 4651SOL     OW14851   5.696   3.607   6.739
 4651SOL    HW114852   5.646   3.650   6.815
 4651SOL    HW214853   5.784   3.573   6.772
 4652SOL     OW14854   6.164   6.613   5.019
 4652SOL    HW114855   6.118   6.590   5.105
 4652SOL    HW214856   6.141   6.545   4.950
 4653SOL     OW14857   5.114   5.784   0.442
 4653SOL    HW114858   5.024   5.762   0.480
 4653SOL    HW214859   5.112   5.877   0.405
 4654SOL     OW14860   0.863   6.043   5.834
 4654SOL    HW114861   0.922   5.986   5.891
 4654SOL    HW214862   0.835   5.992   5.753
 4655SOL     OW14863   5.020   4.242   1.795
 4655SOL    HW114864   5.017   4.303   1.874
 4655SOL    HW214865   4.990   4.150   1.822
 4656SOL     OW14866   1.088   0.779   1.592
 4656SOL    HW114867   1.131   0.724   1.663
 4656SOL    HW214868   1.135   0.867   1.584
 4657SOL     OW14869   4.730   5.446   1.801
 4657SOL    HW114870   4.735   5.466   1.704
 4657SOL    HW214871   4.712   5.530   1.852
 4658SOL     OW14872   3.000   1.877   5.254
 4658SOL    HW114873   3.068   1.946   5.232
 4658SOL    HW214874   2.909   1.913   5.237
 4659SOL     OW14875   2.444   4.599   0.100
 4659SOL    HW114876   2.458   4.530   0.171
 4659SOL    HW214877   2.348   4.602   0.074
 4660SOL     OW14878   1.371   6.518   4.158
 4660SOL    HW114879   1.410   6.569   4.081
 4660SOL    HW214880   1.439   6.509   4.231
 4661SOL     OW14881   2.321   4.684   5.470
 4661SOL    HW114882   2.420   4.674   5.456
 4661SOL    HW214883   2.298   4.781   5.471
 4662SOL     OW14884   3.298   0.159   5.541
 4662SOL    HW114885   3.249   0.236   5.500
 4662SOL    HW214886   3.236   0.082   5.554
 4663SOL     OW14887   0.534   0.475   0.640
 4663SOL    HW114888   0.552   0.539   0.566
 4663SOL    HW214889   0.489   0.393   0.603
 4664SOL     OW14890   0.335   0.735   0.455
 4664SOL    HW114891   0.401   0.690   0.395
 4664SOL    HW214892   0.354   0.833   0.458
 4665SOL     OW14893   2.516   6.773   5.803
 4665SOL    HW114894   2.538   6.678   5.781
 4665SOL    HW214895   2.530   6.830   5.722
 4666SOL     OW14896   2.224   2.173   6.621
 4666SOL    HW114897   2.170   2.206   6.544
 4666SOL    HW214898   2.239   2.248   6.686
 4667SOL     OW14899   6.627   4.031   1.709
 4667SOL    HW114900   6.592   4.092   1.637
 4667SOL    HW214901   6.723   4.052   1.728
 4668SOL     OW14902   5.118   1.290   4.506
 4668SOL    HW114903   5.156   1.335   4.425
 4668SOL    HW214904   5.076   1.358   4.566
 4669SOL     OW14905   5.471   0.282   6.236
 4669SOL    HW114906   5.375   0.294   6.210
 4669SOL    HW214907   5.523   0.249   6.157
 4670SOL     OW14908   1.143   3.074   6.836
 4670SOL    HW114909   1.118   3.154   6.891
 4670SOL    HW214910   1.064   3.013   6.828
 4671SOL     OW14911   1.072   3.346   6.921
 4671SOL    HW114912   1.165   3.365   6.891
 4671SOL    HW214913   1.050   3.403   7.000
 4672SOL     OW14914   3.743   4.758   6.239
 4672SOL    HW114915   3.824   4.811   6.213
 4672SOL    HW214916   3.772   4.680   6.294
 4673SOL     OW14917   4.778   6.881   0.467
 4673SOL    HW114918   4.869   6.856   0.501
 4673SOL    HW214919   4.779   6.880   0.367
 4674SOL     OW14920   5.506   1.861   0.501
 4674SOL    HW114921   5.407   1.875   0.502
 4674SOL    HW214922   5.531   1.805   0.422
 4675SOL     OW14923   3.531   0.468   6.751
 4675SOL    HW114924   3.474   0.413   6.691
 4675SOL    HW214925   3.475   0.504   6.826
 4676SOL     OW14926   0.678   0.038   5.145
 4676SOL    HW114927   0.613   6.995   5.120
 4676SOL    HW214928   0.731   0.064   5.065
 4677SOL     OW14929   2.990   0.187   6.865
 4677SOL    HW114930   2.989   0.284   6.887
 4677SOL    HW214931   2.933   0.171   6.784
 4678SOL     OW14932   1.972   5.156   2.151
 4678SOL    HW114933   2.057   5.154   2.203
 4678SOL    HW214934   1.927   5.066   2.158
 4679SOL     OW14935   3.808   1.342   6.942
 4679SOL    HW114936   3.726   1.367   6.892
 4679SOL    HW214937   3.783   1.296   7.028
 4680SOL     OW14938   2.320   6.814   2.136
 4680SOL    HW114939   2.234   6.783   2.176
 4680SOL    HW214940   2.302   6.871   2.056
 4681SOL     OW14941   6.236   6.165   4.809
 4681SOL    HW114942   6.271   6.074   4.788
 4681SOL    HW214943   6.226   6.175   4.908
 4682SOL     OW14944   4.507   4.804   6.859
 4682SOL    HW114945   4.505   4.898   6.892
 4682SOL    HW214946   4.591   4.759   6.889
 4683SOL     OW14947   5.108   4.397   2.372
 4683SOL    HW114948   5.159   4.344   2.304
 4683SOL    HW214949   5.171   4.436   2.439
 4684SOL     OW14950   0.067   2.043   4.653
 4684SOL    HW114951   0.056   1.955   4.606
 4684SOL    HW214952   0.148   2.090   4.617
 4685SOL     OW14953   0.189   5.840   4.548
 4685SOL    HW114954   0.107   5.824   4.602
 4685SOL    HW214955   0.168   5.826   4.451
 4686SOL     OW14956   5.084   5.855   0.043
 4686SOL    HW114957   5.184   5.851   0.037
 4686SOL    HW214958   5.047   5.764   0.022
 4687SOL     OW14959   6.224   4.940   5.068
 4687SOL    HW114960   6.290   4.942   4.993
 4687SOL    HW214961   6.226   5.028   5.116
 4688SOL     OW14962   0.116   2.627   6.280
 4688SOL    HW114963   0.116   2.665   6.188
 4688SOL    HW214964   0.183   2.675   6.336
 4689SOL     OW14965   5.633   0.454   6.382
 4689SOL    HW114966   5.676   0.389   6.444
 4689SOL    HW214967   5.566   0.406   6.325
 4690SOL     OW14968   0.913   1.585   6.886
 4690SOL    HW114969   0.884   1.676   6.915
 4690SOL    HW214970   0.913   1.581   6.786
 4691SOL     OW14971   3.050   4.027   2.059
 4691SOL    HW114972   3.024   4.044   1.963
 4691SOL    HW214973   3.003   4.092   2.118
 4692SOL     OW14974   6.709   5.150   2.348
 4692SOL    HW114975   6.675   5.223   2.408
 4692SOL    HW214976   6.735   5.190   2.260
 4693SOL     OW14977   0.826   0.960   4.222
 4693SOL    HW114978   0.893   0.982   4.292
 4693SOL    HW214979   0.835   0.864   4.195
 4694SOL     OW14980   2.635   0.621   0.253
 4694SOL    HW114981   2.595   0.575   0.174
 4694SOL    HW214982   2.655   0.554   0.324
 4695SOL     OW14983   3.484   3.318   1.676
 4695SOL    HW114984   3.415   3.295   1.744
 4695SOL    HW214985   3.542   3.392   1.710
 4696SOL     OW14986   0.798   4.627   6.137
 4696SOL    HW114987   0.735   4.614   6.214
 4696SOL    HW214988   0.888   4.652   6.172
 4697SOL     OW14989   1.721   3.302   0.695
 4697SOL    HW114990   1.769   3.339   0.616
 4697SOL    HW214991   1.625   3.289   0.673
 4698SOL     OW14992   4.956   5.326   3.207
 4698SOL    HW114993   4.936   5.228   3.217
 4698SOL    HW214994   4.899   5.365   3.135
 4699SOL     OW14995   1.310   6.818   2.159
 4699SOL    HW114996   1.306   6.729   2.113
 4699SOL    HW214997   1.217   6.847   2.183
 4700SOL     OW14998   5.421   1.410   2.053
 4700SOL    HW114999   5.321   1.411   2.066
 4700SOL    HW215000   5.444   1.456   1.968
 4701SOL     OW15001   1.217   1.961   0.179
 4701SOL    HW115002   1.305   1.935   0.219
 4701SOL    HW215003   1.231   1.998   0.088
 4702SOL     OW15004   5.161   4.806   6.553
 4702SOL    HW115005   5.080   4.799   6.495
 4702SOL    HW215006   5.140   4.770   6.644
 4703SOL     OW15007   0.444   2.408   2.461
 4703SOL    HW115008   0.448   2.502   2.493
 4703SOL    HW215009   0.429   2.346   2.538
 4704SOL     OW15010   6.923   6.269   0.556
 4704SOL    HW115011   6.912   6.368   0.566
 4704SOL    HW215012   6.855   6.235   0.491
 4705SOL     OW15013   3.458   3.669   2.849
 4705SOL    HW115014   3.549   3.637   2.822
 4705SOL    HW215015   3.404   3.688   2.767
 4706SOL     OW15016   4.000   6.510   6.491
 4706SOL    HW115017   4.086   6.514   6.440
 4706SOL    HW215018   3.931   6.463   6.436
 4707SOL     OW15019   2.112   6.164   0.488
 4707SOL    HW115020   2.103   6.209   0.577
 4707SOL    HW215021   2.140   6.069   0.503
 4708SOL     OW15022   1.690   2.858   0.379
 4708SOL    HW115023   1.614   2.794   0.384
 4708SOL    HW215024   1.731   2.854   0.287
 4709SOL     OW15025   3.856   5.097   5.328
 4709SOL    HW115026   3.943   5.089   5.377
 4709SOL    HW215027   3.825   5.193   5.331
 4710SOL     OW15028   4.319   1.404   5.745
 4710SOL    HW115029   4.222   1.428   5.741
 4710SOL    HW215030   4.375   1.486   5.738
 4711SOL     OW15031   4.901   0.693   2.741
 4711SOL    HW115032   4.949   0.607   2.759
 4711SOL    HW215033   4.860   0.726   2.827
 4712SOL     OW15034   2.621   4.787   0.802
 4712SOL    HW115035   2.718   4.789   0.779
 4712SOL    HW215036   2.587   4.881   0.808
 4713SOL     OW15037   2.627   4.024   1.132
 4713SOL    HW115038   2.584   4.088   1.068
 4713SOL    HW215039   2.599   4.047   1.225
 4714SOL     OW15040   2.461   1.823   6.985
 4714SOL    HW115041   2.559   1.810   6.996
 4714SOL    HW215042   2.442   1.860   6.894
 4715SOL     OW15043   6.764   3.639   1.717
 4715SOL    HW115044   6.741   3.622   1.812
 4715SOL    HW215045   6.760   3.553   1.665
 4716SOL     OW15046   3.571   5.393   6.313
 4716SOL    HW115047   3.627   5.405   6.395
 4716SOL    HW215048   3.579   5.474   6.255
 4717SOL     OW15049   1.260   6.077   2.891
 4717SOL    HW115050   1.251   6.073   2.990
 4717SOL    HW215051   1.219   6.162   2.857
 4718SOL     OW15052   5.481   1.535   6.328
 4718SOL    HW115053   5.561   1.572   6.375
 4718SOL    HW215054   5.399   1.549   6.384
 4719SOL     OW15055   4.902   3.245   2.529
 4719SOL    HW115056   4.902   3.344   2.542
 4719SOL    HW215057   4.882   3.224   2.433
 4720SOL     OW15058   2.884   6.254   5.737
 4720SOL    HW115059   2.928   6.341   5.760
 4720SOL    HW215060   2.917   6.223   5.648
 4721SOL     OW15061   6.286   1.975   2.130
 4721SOL    HW115062   6.332   2.063   2.119
 4721SOL    HW215063   6.255   1.942   2.040
 4722SOL     OW15064   1.345   6.070   0.155
 4722SOL    HW115065   1.397   5.987   0.134
 4722SOL    HW215066   1.363   6.098   0.249
 4723SOL     OW15067   1.753   5.310   5.624
 4723SOL    HW115068   1.844   5.276   5.600
 4723SOL    HW215069   1.730   5.386   5.563
 4724SOL     OW15070   4.867   6.184   2.793
 4724SOL    HW115071   4.853   6.124   2.872
 4724SOL    HW215072   4.892   6.129   2.713
 4725SOL     OW15073   5.378   6.346   2.814
 4725SOL    HW115074   5.429   6.431   2.814
 4725SOL    HW215075   5.433   6.273   2.855
 4726SOL     OW15076   1.874   3.708   6.359
 4726SOL    HW115077   1.884   3.629   6.419
 4726SOL    HW215078   1.955   3.767   6.367
 4727SOL     OW15079   0.011   6.179   6.789
 4727SOL    HW115080   7.006   6.166   6.696
 4727SOL    HW215081   6.967   6.219   6.845
 4728SOL     OW15082   4.756   1.678   1.344
 4728SOL    HW115083   4.852   1.669   1.370
 4728SOL    HW215084   4.748   1.747   1.271
 4729SOL     OW15085   2.470   1.102   2.597
 4729SOL    HW115086   2.514   1.119   2.509
 4729SOL    HW215087   2.500   1.014   2.634
 4730SOL     OW15088   2.192   6.007   5.121
 4730SOL    HW115089   2.134   5.940   5.075
 4730SOL    HW215090   2.254   6.049   5.055
 4731SOL     OW15091   5.108   0.098   5.998
 4731SOL    HW115092   5.087   0.187   5.957
 4731SOL    HW215093   5.060   0.090   6.085
 4732SOL     OW15094   7.013   3.323   6.496
 4732SOL    HW115095   0.065   3.274   6.463
 4732SOL    HW215096   6.950   3.259   6.541
 4733SOL     OW15097   0.760   4.285   2.839
 4733SOL    HW115098   0.769   4.312   2.935
 4733SOL    HW215099   0.816   4.347   2.783
 4734SOL     OW15100   5.375   3.437   6.785
 4734SOL    HW115101   5.391   3.343   6.815
 4734SOL    HW215102   5.293   3.472   6.829
 4735SOL     OW15103   0.641   5.332   4.117
 4735SOL    HW115104   0.575   5.301   4.186
 4735SOL    HW215105   0.732   5.336   4.158
 4736SOL     OW15106   0.417   1.368   6.634
 4736SOL    HW115107   0.498   1.340   6.685
 4736SOL    HW215108   0.422   1.332   6.541
 4737SOL     OW15109   1.350   5.495   2.080
 4737SOL    HW115110   1.445   5.493   2.051
 4737SOL    HW215111   1.291   5.464   2.005
 4738SOL     OW15112   0.304   5.964   2.798
 4738SOL    HW115113   0.376   6.033   2.809
 4738SOL    HW215114   0.215   6.008   2.810
 4739SOL     OW15115   4.136   6.668   2.755
 4739SOL    HW115116   4.215   6.702   2.805
 4739SOL    HW215117   4.162   6.586   2.703
 4740SOL     OW15118   0.041   1.395   2.066
 4740SOL    HW115119   6.984   1.343   2.065
 4740SOL    HW215120   0.069   1.418   1.973
 4741SOL     OW15121   3.335   2.496   1.717
 4741SOL    HW115122   3.408   2.434   1.687
 4741SOL    HW215123   3.374   2.585   1.738
 4742SOL     OW15124   2.047   6.709   6.468
 4742SOL    HW115125   1.994   6.701   6.553
 4742SOL    HW215126   2.139   6.743   6.489
 4743SOL     OW15127   2.109   3.587   2.822
 4743SOL    HW115128   2.097   3.648   2.900
 4743SOL    HW215129   2.112   3.640   2.737
 4744SOL     OW15130   2.233   4.869   1.022
 4744SOL    HW115131   2.135   4.883   1.035
 4744SOL    HW215132   2.283   4.920   1.093
 4745SOL     OW15133   3.175   3.936   0.129
 4745SOL    HW115134   3.270   3.904   0.130
 4745SOL    HW215135   3.171   4.030   0.163
 4746SOL     OW15136   4.588   6.471   3.915
 4746SOL    HW115137   4.598   6.458   4.014
 4746SOL    HW215138   4.659   6.420   3.867
 4747SOL     OW15139   1.489   3.596   0.665
 4747SOL    HW115140   1.417   3.579   0.732
 4747SOL    HW215141   1.469   3.680   0.615
 4748SOL     OW15142   1.290   6.856   1.641
 4748SOL    HW115143   1.368   6.895   1.690
 4748SOL    HW215144   1.222   6.824   1.707
 4749SOL     OW15145   1.856   6.669   6.212
 4749SOL    HW115146   1.949   6.634   6.222
 4749SOL    HW215147   1.859   6.769   6.208
 4750SOL     OW15148   6.421   4.087   5.163
 4750SOL    HW115149   6.402   4.035   5.080
 4750SOL    HW215150   6.340   4.140   5.188
 4751SOL     OW15151   4.720   2.647   3.042
 4751SOL    HW115152   4.779   2.727   3.048
 4751SOL    HW215153   4.701   2.612   3.134
 4752SOL     OW15154   4.776   0.588   0.391
 4752SOL    HW115155   4.718   0.636   0.325
 4752SOL    HW215156   4.871   0.614   0.377
 4753SOL     OW15157   1.045   0.032   4.121
 4753SOL    HW115158   1.041   7.027   4.215
 4753SOL    HW215159   1.139   0.024   4.087
 4754SOL     OW15160   4.991   3.614   5.029
 4754SOL    HW115161   4.910   3.577   5.074
 4754SOL    HW215162   5.073   3.586   5.081
 4755SOL     OW15163   2.313   0.415   0.871
 4755SOL    HW115164   2.228   0.466   0.873
 4755SOL    HW215165   2.315   0.357   0.789
 4756SOL     OW15166   7.006   3.992   5.800
 4756SOL    HW115167   7.022   4.079   5.846
 4756SOL    HW215168   6.909   3.969   5.806
 4757SOL     OW15169   1.417   2.685   1.341
 4757SOL    HW115170   1.510   2.659   1.368
 4757SOL    HW215171   1.381   2.751   1.407
 4758SOL     OW15172   1.007   6.808   3.202
 4758SOL    HW115173   1.086   6.776   3.253
 4758SOL    HW215174   0.925   6.760   3.234
 4759SOL     OW15175   0.481   5.781   6.869
 4759SOL    HW115176   0.398   5.835   6.858
 4759SOL    HW215177   0.557   5.827   6.823
 4760SOL     OW15178   1.116   0.465   0.958
 4760SOL    HW115179   1.135   0.541   0.895
 4760SOL    HW215180   1.068   0.392   0.910
 4761SOL     OW15181   1.200   0.398   0.612
 4761SOL    HW115182   1.147   0.482   0.621
 4761SOL    HW215183   1.177   0.351   0.527
 4762SOL     OW15184   1.475   5.702   2.340
 4762SOL    HW115185   1.488   5.714   2.241
 4762SOL    HW215186   1.379   5.719   2.363
 4763SOL     OW15187   4.916   0.131   2.320
 4763SOL    HW115188   4.882   0.071   2.393
 4763SOL    HW215189   5.013   0.148   2.334
 4764SOL     OW15190   4.533   3.367   5.365
 4764SOL    HW115191   4.498   3.439   5.304
 4764SOL    HW215192   4.467   3.292   5.369
 4765SOL     OW15193   3.690   0.811   6.176
 4765SOL    HW115194   3.590   0.811   6.185
 4765SOL    HW215195   3.716   0.869   6.098
 4766SOL     OW15196   6.084   6.037   4.475
 4766SOL    HW115197   6.153   6.085   4.529
 4766SOL    HW215198   6.014   6.102   4.446
 4767SOL     OW15199   2.725   5.285   5.454
 4767SOL    HW115200   2.651   5.334   5.500
 4767SOL    HW215201   2.686   5.221   5.387
 4768SOL     OW15202   4.358   3.592   6.129
 4768SOL    HW115203   4.316   3.675   6.166
 4768SOL    HW215204   4.311   3.512   6.166
 4769SOL     OW15205   3.184   5.956   0.023
 4769SOL    HW115206   3.265   6.013   0.036
 4769SOL    HW215207   3.182   5.922   6.957
 4770SOL     OW15208   6.787   1.837   4.675
 4770SOL    HW115209   6.794   1.927   4.718
 4770SOL    HW215210   6.690   1.817   4.655
 4771SOL     OW15211   2.432   6.477   5.486
 4771SOL    HW115212   2.396   6.490   5.394
 4771SOL    HW215213   2.411   6.384   5.517
 4772SOL     OW15214   2.761   5.141   0.961
 4772SOL    HW115215   2.784   5.186   0.875
 4772SOL    HW215216   2.838   5.151   1.025
 4773SOL     OW15217   1.289   5.851   4.448
 4773SOL    HW115218   1.297   5.925   4.382
 4773SOL    HW215219   1.210   5.867   4.507
 4774SOL     OW15220   1.455   3.840   1.055
 4774SOL    HW115221   1.473   3.921   0.999
 4774SOL    HW215222   1.533   3.778   1.050
 4775SOL     OW15223   4.692   6.944   4.446
 4775SOL    HW115224   4.770   6.912   4.500
 4775SOL    HW215225   4.638   6.865   4.417
 4776SOL     OW15226   0.931   1.242   4.790
 4776SOL    HW115227   1.020   1.265   4.829
 4776SOL    HW215228   0.871   1.207   4.862
 4777SOL     OW15229   1.757   5.649   0.907
 4777SOL    HW115230   1.661   5.638   0.932
 4777SOL    HW215231   1.769   5.735   0.857
 4778SOL     OW15232   0.551   2.888   4.537
 4778SOL    HW115233   0.540   2.984   4.561
 4778SOL    HW215234   0.638   2.875   4.489
 4779SOL     OW15235   5.699   6.367   3.870
 4779SOL    HW115236   5.676   6.431   3.943
 4779SOL    HW215237   5.797   6.351   3.870
 4780SOL     OW15238   5.985   2.634   6.211
 4780SOL    HW115239   5.978   2.543   6.170
 4780SOL    HW215240   5.899   2.684   6.198
 4781SOL     OW15241   3.072   5.475   2.753
 4781SOL    HW115242   3.151   5.433   2.797
 4781SOL    HW215243   2.997   5.482   2.819
 4782SOL     OW15244   6.108   6.003   6.037
 4782SOL    HW115245   6.108   6.087   6.091
 4782SOL    HW215246   6.145   5.928   6.091
 4783SOL     OW15247   6.107   3.856   0.281
 4783SOL    HW115248   6.173   3.931   0.288
 4783SOL    HW215249   6.064   3.857   0.190
 4784SOL     OW15250   5.963   1.899   5.861
 4784SOL    HW115251   5.999   1.854   5.943
 4784SOL    HW215252   6.035   1.902   5.791
 4785SOL     OW15253   0.381   6.691   2.623
 4785SOL    HW115254   0.355   6.669   2.529
 4785SOL    HW215255   0.449   6.625   2.655
 4786SOL     OW15256   2.727   0.129   0.352
 4786SOL    HW115257   2.670   0.047   0.363
 4786SOL    HW215258   2.822   0.102   0.335
 4787SOL     OW15259   4.030   1.944   3.930
 4787SOL    HW115260   4.036   2.043   3.932
 4787SOL    HW215261   4.089   1.905   4.002
 4788SOL     OW15262   6.078   6.175   0.509
 4788SOL    HW115263   6.157   6.117   0.493
 4788SOL    HW215264   6.106   6.257   0.559
 4789SOL     OW15265   5.163   1.447   2.104
 4789SOL    HW115266   5.162   1.366   2.163
 4789SOL    HW215267   5.126   1.525   2.155
 4790SOL     OW15268   5.108   1.784   5.834
 4790SOL    HW115269   5.058   1.850   5.778
 4790SOL    HW215270   5.179   1.830   5.886
 4791SOL     OW15271   0.249   2.784   1.346
 4791SOL    HW115272   0.340   2.783   1.305
 4791SOL    HW215273   0.233   2.697   1.392
 4792SOL     OW15274   1.928   4.291   4.242
 4792SOL    HW115275   1.899   4.232   4.318
 4792SOL    HW215276   2.024   4.315   4.254
 4793SOL     OW15277   1.629   3.676   5.498
 4793SOL    HW115278   1.652   3.644   5.406
 4793SOL    HW215279   1.532   3.657   5.517
 4794SOL     OW15280   4.557   6.778   3.753
 4794SOL    HW115281   4.565   6.686   3.791
 4794SOL    HW215282   4.624   6.789   3.679
 4795SOL     OW15283   0.225   1.750   4.693
 4795SOL    HW115284   0.147   1.688   4.692
 4795SOL    HW215285   0.200   1.834   4.742
 4796SOL     OW15286   3.699   0.442   6.094
 4796SOL    HW115287   3.689   0.478   6.002
 4796SOL    HW215288   3.784   0.476   6.135
 4797SOL     OW15289   0.530   5.440   4.735
 4797SOL    HW115290   0.455   5.377   4.754
 4797SOL    HW215291   0.507   5.497   4.656
 4798SOL     OW15292   5.796   4.897   6.058
 4798SOL    HW115293   5.798   4.964   5.984
 4798SOL    HW215294   5.769   4.941   6.143
 4799SOL     OW15295   4.227   1.479   6.997
 4799SOL    HW115296   4.279   1.402   0.005
 4799SOL    HW215297   4.143   1.490   0.021
 4800SOL     OW15298   1.927   4.473   6.876
 4800SOL    HW115299   1.934   4.555   6.933
 4800SOL    HW215300   2.000   4.409   6.902
 4801SOL     OW15301   3.846   2.764   0.326
 4801SOL    HW115302   3.874   2.852   0.364
 4801SOL    HW215303   3.910   2.737   0.254
 4802SOL     OW15304   6.771   6.556   1.764
 4802SOL    HW115305   6.690   6.551   1.705
 4802SOL    HW215306   6.848   6.593   1.711
 4803SOL     OW15307   5.820   4.953   1.063
 4803SOL    HW115308   5.867   4.931   0.977
 4803SOL    HW215309   5.727   4.984   1.043
 4804SOL     OW15310   5.603   1.043   1.133
 4804SOL    HW115311   5.529   0.978   1.150
 4804SOL    HW215312   5.683   0.994   1.100
 4805SOL     OW15313   6.878   1.206   2.039
 4805SOL    HW115314   6.866   1.227   2.136
 4805SOL    HW215315   6.825   1.124   2.015
 4806SOL     OW15316   1.226   3.664   3.081
 4806SOL    HW115317   1.212   3.748   3.133
 4806SOL    HW215318   1.325   3.647   3.071
 4807SOL     OW15319   1.863   3.470   6.591
 4807SOL    HW115320   1.874   3.420   6.677
 4807SOL    HW215321   1.822   3.410   6.522
 4808SOL     OW15322   3.771   5.336   0.705
 4808SOL    HW115323   3.814   5.375   0.786
 4808SOL    HW215324   3.694   5.278   0.732
 4809SOL     OW15325   3.614   4.394   1.714
 4809SOL    HW115326   3.701   4.416   1.669
 4809SOL    HW215327   3.578   4.477   1.757
 4810SOL     OW15328   1.368   4.342   3.825
 4810SOL    HW115329   1.291   4.280   3.844
 4810SOL    HW215330   1.367   4.417   3.891
 4811SOL     OW15331   3.680   3.814   4.663
 4811SOL    HW115332   3.689   3.812   4.763
 4811SOL    HW215333   3.612   3.746   4.634
 4812SOL     OW15334   0.632   6.983   1.808
 4812SOL    HW115335   0.696   6.907   1.823
 4812SOL    HW215336   0.597   7.015   1.896
 4813SOL     OW15337   5.786   2.113   5.760
 4813SOL    HW115338   5.840   2.044   5.810
 4813SOL    HW215339   5.806   2.204   5.797
 4814SOL     OW15340   0.169   3.357   2.241
 4814SOL    HW115341   0.139   3.344   2.336
 4814SOL    HW215342   0.146   3.449   2.211
 4815SOL     OW15343   5.138   4.726   2.448
 4815SOL    HW115344   5.147   4.755   2.543
 4815SOL    HW215345   5.207   4.656   2.427
 4816SOL     OW15346   2.083   6.791   1.474
 4816SOL    HW115347   2.109   6.879   1.515
 4816SOL    HW215348   2.057   6.805   1.379
 4817SOL     OW15349   3.567   1.079   1.848
 4817SOL    HW115350   3.627   1.112   1.775
 4817SOL    HW215351   3.544   0.983   1.833
 4818SOL     OW15352   1.519   1.026   4.342
 4818SOL    HW115353   1.576   1.020   4.260
 4818SOL    HW215354   1.427   0.993   4.321
 4819SOL     OW15355   3.048   2.076   1.577
 4819SOL    HW115356   3.087   2.147   1.636
 4819SOL    HW215357   3.116   2.048   1.510
 4820SOL     OW15358   6.364   2.667   1.431
 4820SOL    HW115359   6.291   2.688   1.366
 4820SOL    HW215360   6.434   2.612   1.386
 4821SOL     OW15361   6.372   5.830   1.273
 4821SOL    HW115362   6.293   5.874   1.231
 4821SOL    HW215363   6.432   5.899   1.314
 4822SOL     OW15364   1.631   3.197   3.603
 4822SOL    HW115365   1.595   3.275   3.654
 4822SOL    HW215366   1.635   3.117   3.663
 4823SOL     OW15367   0.120   0.631   3.475
 4823SOL    HW115368   0.033   0.660   3.516
 4823SOL    HW215369   0.162   0.561   3.533
 4824SOL     OW15370   5.545   1.735   4.033
 4824SOL    HW115371   5.485   1.728   3.954
 4824SOL    HW215372   5.501   1.789   4.105
 4825SOL     OW15373   2.126   2.581   4.005
 4825SOL    HW115374   2.099   2.508   3.941
 4825SOL    HW215375   2.208   2.626   3.971
 4826SOL     OW15376   0.570   6.804   1.171
 4826SOL    HW115377   0.600   6.710   1.155
 4826SOL    HW215378   0.639   6.867   1.135
 4827SOL     OW15379   6.111   0.602   1.829
 4827SOL    HW115380   6.129   0.688   1.781
 4827SOL    HW215381   6.174   0.594   1.907
 4828SOL     OW15382   6.199   3.700   1.634
 4828SOL    HW115383   6.258   3.703   1.714
 4828SOL    HW215384   6.164   3.792   1.615
 4829SOL     OW15385   3.430   6.803   6.310
 4829SOL    HW115386   3.440   6.827   6.407
 4829SOL    HW215387   3.340   6.762   6.295
 4830SOL     OW15388   5.359   5.409   3.809
 4830SOL    HW115389   5.430   5.467   3.851
 4830SOL    HW215390   5.394   5.316   3.797
 4831SOL     OW15391   6.704   5.773   5.663
 4831SOL    HW115392   6.750   5.745   5.578
 4831SOL    HW215393   6.731   5.712   5.737
 4832SOL     OW15394   3.000   2.490   6.633
 4832SOL    HW115395   3.058   2.503   6.713
 4832SOL    HW215396   3.028   2.553   6.561
 4833SOL     OW15397   4.771   1.974   2.883
 4833SOL    HW115398   4.685   2.022   2.892
 4833SOL    HW215399   4.756   1.875   2.895
 4834SOL     OW15400   3.405   0.646   0.296
 4834SOL    HW115401   3.397   0.728   0.353
 4834SOL    HW215402   3.315   0.621   0.261
 4835SOL     OW15403   1.776   0.288   6.727
 4835SOL    HW115404   1.859   0.333   6.762
 4835SOL    HW215405   1.758   0.318   6.634
 4836SOL     OW15406   4.556   2.589   3.364
 4836SOL    HW115407   4.513   2.532   3.295
 4836SOL    HW215408   4.525   2.561   3.455
 4837SOL     OW15409   3.676   2.843   2.019
 4837SOL    HW115410   3.600   2.887   2.068
 4837SOL    HW215411   3.758   2.900   2.027
 4838SOL     OW15412   2.521   5.147   2.482
 4838SOL    HW115413   2.613   5.132   2.518
 4838SOL    HW215414   2.453   5.114   2.549
 4839SOL     OW15415   1.036   3.480   5.586
 4839SOL    HW115416   1.071   3.428   5.665
 4839SOL    HW215417   1.088   3.455   5.504
 4840SOL     OW15418   6.916   0.299   6.144
 4840SOL    HW115419   6.874   0.212   6.119
 4840SOL    HW215420   6.848   0.356   6.191
 4841SOL     OW15421   3.505   5.622   1.528
 4841SOL    HW115422   3.484   5.600   1.433
 4841SOL    HW215423   3.537   5.540   1.575
 4842SOL     OW15424   3.294   4.865   1.885
 4842SOL    HW115425   3.347   4.859   1.970
 4842SOL    HW215426   3.198   4.845   1.903
 4843SOL     OW15427   6.278   4.250   0.577
 4843SOL    HW115428   6.220   4.213   0.650
 4843SOL    HW215429   6.365   4.201   0.576
 4844SOL     OW15430   0.139   3.963   6.305
 4844SOL    HW115431   0.181   3.981   6.394
 4844SOL    HW215432   0.067   3.894   6.315
 4845SOL     OW15433   6.431   5.885   4.442
 4845SOL    HW115434   6.520   5.920   4.473
 4845SOL    HW215435   6.443   5.792   4.406
 4846SOL     OW15436   6.833   3.381   1.991
 4846SOL    HW115437   6.797   3.336   2.073
 4846SOL    HW215438   6.932   3.366   1.986
 4847SOL     OW15439   3.441   1.648   6.042
 4847SOL    HW115440   3.512   1.648   5.972
 4847SOL    HW215441   3.356   1.684   6.003
 4848SOL     OW15442   1.474   1.058   4.754
 4848SOL    HW115443   1.439   1.107   4.674
 4848SOL    HW215444   1.568   1.028   4.737
 4849SOL     OW15445   0.836   0.054   0.341
 4849SOL    HW115446   0.780   0.135   0.360
 4849SOL    HW215447   0.928   0.082   0.314
 4850SOL     OW15448   4.088   0.774   2.118
 4850SOL    HW115449   4.128   0.859   2.086
 4850SOL    HW215450   4.064   0.782   2.215
 4851SOL     OW15451   3.607   5.444   5.239
 4851SOL    HW115452   3.642   5.403   5.322
 4851SOL    HW215453   3.550   5.523   5.262
 4852SOL     OW15454   0.889   0.154   6.474
 4852SOL    HW115455   0.946   0.201   6.542
 4852SOL    HW215456   0.851   0.070   6.514
 4853SOL     OW15457   3.093   1.011   2.486
 4853SOL    HW115458   3.171   1.064   2.453
 4853SOL    HW215459   3.098   1.003   2.585
 4854SOL     OW15460   5.344   6.194   2.546
 4854SOL    HW115461   5.436   6.221   2.518
 4854SOL    HW215462   5.317   6.246   2.627
 4855SOL     OW15463   6.011   2.626   2.321
 4855SOL    HW115464   5.949   2.548   2.315
 4855SOL    HW215465   6.010   2.677   2.235
 4856SOL     OW15466   1.697   4.283   2.474
 4856SOL    HW115467   1.719   4.329   2.387
 4856SOL    HW215468   1.768   4.216   2.495
 4857SOL     OW15469   1.745   2.139   5.610
 4857SOL    HW115470   1.676   2.117   5.678
 4857SOL    HW215471   1.722   2.226   5.566
 4858SOL     OW15472   1.766   0.993   4.721
 4858SOL    HW115473   1.797   1.056   4.792
 4858SOL    HW215474   1.791   1.030   4.631
 4859SOL     OW15475   0.846   0.699   4.169
 4859SOL    HW115476   0.783   0.653   4.106
 4859SOL    HW215477   0.928   0.643   4.182
 4860SOL     OW15478   3.409   4.914   2.167
 4860SOL    HW115479   3.471   4.873   2.100
 4860SOL    HW215480   3.394   4.848   2.241
 4861SOL     OW15481   4.979   5.441   0.149
 4861SOL    HW115482   4.904   5.494   0.189
 4861SOL    HW215483   4.955   5.344   0.149
 4862SOL     OW15484   2.711   4.920   4.484
 4862SOL    HW115485   2.703   4.988   4.411
 4862SOL    HW215486   2.806   4.893   4.494
 4863SOL     OW15487   5.628   4.706   0.713
 4863SOL    HW115488   5.613   4.795   0.669
 4863SOL    HW215489   5.556   4.642   0.685
 4864SOL     OW15490   3.262   1.394   4.247
 4864SOL    HW115491   3.246   1.493   4.247
 4864SOL    HW215492   3.331   1.372   4.179
 4865SOL     OW15493   1.548   0.787   5.792
 4865SOL    HW115494   1.557   0.886   5.801
 4865SOL    HW215495   1.637   0.747   5.771
 4866SOL     OW15496   6.428   3.567   1.041
 4866SOL    HW115497   6.400   3.654   1.001
 4866SOL    HW215498   6.353   3.529   1.094
 4867SOL     OW15499   4.183   5.532   3.041
 4867SOL    HW115500   4.281   5.552   3.048
 4867SOL    HW215501   4.144   5.526   3.133
 4868SOL     OW15502   6.309   4.851   2.787
 4868SOL    HW115503   6.377   4.782   2.813
 4868SOL    HW215504   6.250   4.871   2.865
 4869SOL     OW15505   1.596   1.736   1.131
 4869SOL    HW115506   1.669   1.785   1.083
 4869SOL    HW215507   1.634   1.656   1.176
 4870SOL     OW15508   0.903   6.051   1.524
 4870SOL    HW115509   0.943   5.961   1.538
 4870SOL    HW215510   0.803   6.044   1.525
 4871SOL     OW15511   0.491   0.881   3.928
 4871SOL    HW115512   0.569   0.829   3.893
 4871SOL    HW215513   0.414   0.818   3.943
 4872SOL     OW15514   6.540   0.253   3.339
 4872SOL    HW115515   6.442   0.243   3.357
 4872SOL    HW215516   6.588   0.262   3.426
 4873SOL     OW15517   6.434   5.540   4.458
 4873SOL    HW115518   6.479   5.547   4.547
 4873SOL    HW215519   6.335   5.545   4.471
 4874SOL     OW15520   4.888   3.459   2.259
 4874SOL    HW115521   4.858   3.521   2.187
 4874SOL    HW215522   4.975   3.417   2.232
 4875SOL     OW15523   6.288   1.273   0.214
 4875SOL    HW115524   6.221   1.248   0.144
 4875SOL    HW215525   6.378   1.236   0.189
 4876SOL     OW15526   0.022   1.553   3.582
 4876SOL    HW115527   0.006   1.458   3.556
 4876SOL    HW215528   0.074   1.557   3.667
 4877SOL     OW15529   0.759   2.219   5.463
 4877SOL    HW115530   0.693   2.237   5.536
 4877SOL    HW215531   0.810   2.303   5.443
 4878SOL     OW15532   6.429   1.204   1.848
 4878SOL    HW115533   6.474   1.249   1.925
 4878SOL    HW215534   6.480   1.123   1.822
 4879SOL     OW15535   4.287   1.895   1.927
 4879SOL    HW115536   4.251   1.946   1.848
 4879SOL    HW215537   4.257   1.939   2.011
 4880SOL     OW15538   6.031   3.544   0.053
 4880SOL    HW115539   5.992   3.632   0.083
 4880SOL    HW215540   6.018   3.476   0.125
 4881SOL     OW15541   1.904   1.005   0.271
 4881SOL    HW115542   2.000   0.987   0.252
 4881SOL    HW215543   1.888   1.104   0.267
 4882SOL     OW15544   4.507   1.341   5.483
 4882SOL    HW115545   4.416   1.373   5.509
 4882SOL    HW215546   4.555   1.307   5.563
 4883SOL     OW15547   4.840   4.294   1.117
 4883SOL    HW115548   4.821   4.309   1.214
 4883SOL    HW215549   4.780   4.222   1.083
 4884SOL     OW15550   2.914   5.426   1.528
 4884SOL    HW115551   2.860   5.491   1.583
 4884SOL    HW215552   3.004   5.465   1.510
 4885SOL     OW15553   1.846   5.307   1.300
 4885SOL    HW115554   1.940   5.274   1.298
 4885SOL    HW215555   1.831   5.360   1.384
 4886SOL     OW15556   2.741   6.321   1.297
 4886SOL    HW115557   2.764   6.341   1.392
 4886SOL    HW215558   2.823   6.294   1.247
 4887SOL     OW15559   6.955   6.635   1.579
 4887SOL    HW115560   6.950   6.544   1.539
 4887SOL    HW215561   6.980   6.701   1.508
 4888SOL     OW15562   2.838   0.228   3.228
 4888SOL    HW115563   2.863   0.159   3.161
 4888SOL    HW215564   2.888   0.211   3.314
 4889SOL     OW15565   6.766   2.327   5.046
 4889SOL    HW115566   6.733   2.355   4.956
 4889SOL    HW215567   6.688   2.308   5.106
 4890SOL     OW15568   6.909   1.963   5.420
 4890SOL    HW115569   7.007   1.966   5.403
 4890SOL    HW215570   6.886   1.880   5.472
 4891SOL     OW15571   2.243   5.494   0.301
 4891SOL    HW115572   2.309   5.566   0.325
 4891SOL    HW215573   2.161   5.536   0.262
 4892SOL     OW15574   4.508   5.674   2.306
 4892SOL    HW115575   4.424   5.638   2.264
 4892SOL    HW215576   4.528   5.764   2.268
 4893SOL     OW15577   6.321   3.321   2.502
 4893SOL    HW115578   6.295   3.285   2.412
 4893SOL    HW215579   6.239   3.331   2.558
 4894SOL     OW15580   3.383   0.744   2.749
 4894SOL    HW115581   3.419   0.825   2.795
 4894SOL    HW215582   3.456   0.677   2.736
 4895SOL     OW15583   0.598   4.590   3.960
 4895SOL    HW115584   0.650   4.666   4.001
 4895SOL    HW215585   0.571   4.615   3.867
 4896SOL     OW15586   2.486   4.836   2.575
 4896SOL    HW115587   2.448   4.807   2.487
 4896SOL    HW215588   2.412   4.848   2.641
 4897SOL     OW15589   1.984   5.804   5.073
 4897SOL    HW115590   1.972   5.737   5.146
 4897SOL    HW215591   1.895   5.836   5.041
 4898SOL     OW15592   3.395   1.387   4.954
 4898SOL    HW115593   3.297   1.391   4.978
 4898SOL    HW215594   3.405   1.389   4.855
 4899SOL     OW15595   5.693   5.093   3.009
 4899SOL    HW115596   5.709   5.005   2.965
 4899SOL    HW215597   5.729   5.167   2.952
 4900SOL     OW15598   3.772   6.031   5.018
 4900SOL    HW115599   3.687   6.008   5.065
 4900SOL    HW215600   3.827   5.949   5.005
 4901SOL     OW15601   2.508   1.905   5.723
 4901SOL    HW115602   2.485   1.941   5.813
 4901SOL    HW215603   2.443   1.833   5.699
 4902SOL     OW15604   0.889   1.545   4.834
 4902SOL    HW115605   0.950   1.481   4.787
 4902SOL    HW215606   0.822   1.580   4.770
 4903SOL     OW15607   4.568   5.802   0.431
 4903SOL    HW115608   4.542   5.845   0.517
 4903SOL    HW215609   4.498   5.737   0.402
 4904SOL     OW15610   2.062   0.207   5.543
 4904SOL    HW115611   2.034   0.118   5.578
 4904SOL    HW215612   2.040   0.213   5.445
 4905SOL     OW15613   3.322   0.838   3.655
 4905SOL    HW115614   3.262   0.914   3.681
 4905SOL    HW215615   3.328   0.833   3.555
 4906SOL     OW15616   4.664   2.099   6.274
 4906SOL    HW115617   4.716   2.032   6.220
 4906SOL    HW215618   4.656   2.066   6.369
 4907SOL     OW15619   4.851   0.354   1.554
 4907SOL    HW115620   4.937   0.305   1.540
 4907SOL    HW215621   4.871   0.450   1.574
 4908SOL     OW15622   5.330   6.496   6.948
 4908SOL    HW115623   5.390   6.536   7.017
 4908SOL    HW215624   5.283   6.569   6.897
 4909SOL     OW15625   0.104   5.437   3.409
 4909SOL    HW115626   0.004   5.432   3.421
 4909SOL    HW215627   0.127   5.415   3.315
 4910SOL     OW15628   5.744   0.511   4.329
 4910SOL    HW115629   5.795   0.469   4.255
 4910SOL    HW215630   5.670   0.450   4.358
 4911SOL     OW15631   1.670   3.828   3.177
 4911SOL    HW115632   1.603   3.861   3.243
 4911SOL    HW215633   1.749   3.889   3.177
 4912SOL     OW15634   5.547   1.950   5.882
 4912SOL    HW115635   5.633   1.994   5.856
 4912SOL    HW215636   5.556   1.906   5.971
 4913SOL     OW15637   4.294   3.562   5.556
 4913SOL    HW115638   4.287   3.558   5.457
 4913SOL    HW215639   4.383   3.601   5.582
 4914SOL     OW15640   4.453   6.775   5.259
 4914SOL    HW115641   4.398   6.845   5.213
 4914SOL    HW215642   4.486   6.709   5.191
 4915SOL     OW15643   2.338   6.215   5.014
 4915SOL    HW115644   2.334   6.189   4.917
 4915SOL    HW215645   2.339   6.315   5.021
 4916SOL     OW15646   0.866   1.265   3.820
 4916SOL    HW115647   0.780   1.233   3.780
 4916SOL    HW215648   0.857   1.271   3.919
 4917SOL     OW15649   3.480   5.525   1.274
 4917SOL    HW115650   3.439   5.438   1.302
 4917SOL    HW215651   3.408   5.593   1.263
 4918SOL     OW15652   5.523   6.796   1.738
 4918SOL    HW115653   5.565   6.886   1.751
 4918SOL    HW215654   5.434   6.794   1.784
 4919SOL     OW15655   2.867   3.369   1.899
 4919SOL    HW115656   2.916   3.282   1.886
 4919SOL    HW215657   2.770   3.356   1.879
 4920SOL     OW15658   5.611   6.825   4.761
 4920SOL    HW115659   5.622   6.776   4.848
 4920SOL    HW215660   5.647   6.917   4.770
 4921SOL     OW15661   1.297   5.240   0.213
 4921SOL    HW115662   1.217   5.180   0.199
 4921SOL    HW215663   1.365   5.220   0.143
 4922SOL     OW15664   2.897   2.238   4.333
 4922SOL    HW115665   2.839   2.314   4.361
 4922SOL    HW215666   2.901   2.233   4.233
 4923SOL     OW15667   2.612   1.129   2.365
 4923SOL    HW115668   2.576   1.190   2.294
 4923SOL    HW215669   2.711   1.126   2.359
 4924SOL     OW15670   3.236   1.639   4.534
 4924SOL    HW115671   3.183   1.668   4.454
 4924SOL    HW215672   3.277   1.720   4.577
 4925SOL     OW15673   5.291   0.576   2.524
 4925SOL    HW115674   5.286   0.670   2.489
 4925SOL    HW215675   5.386   0.545   2.523
 4926SOL     OW15676   5.588   1.384   1.779
 4926SOL    HW115677   5.652   1.452   1.816
 4926SOL    HW215678   5.638   1.321   1.720
 4927SOL     OW15679   3.164   3.577   5.303
 4927SOL    HW115680   3.190   3.656   5.247
 4927SOL    HW215681   3.237   3.557   5.369
 4928SOL     OW15682   1.309   0.691   0.036
 4928SOL    HW115683   1.386   0.628   0.044
 4928SOL    HW215684   1.261   0.675   6.978
 4929SOL     OW15685   6.362   0.190   4.309
 4929SOL    HW115686   6.420   0.258   4.264
 4929SOL    HW215687   6.413   0.147   4.384
 4930SOL     OW15688   5.703   6.969   2.640
 4930SOL    HW115689   5.666   0.031   2.661
 4930SOL    HW215690   5.797   6.978   2.607
 4931SOL     OW15691   6.300   6.673   1.713
 4931SOL    HW115692   6.227   6.700   1.650
 4931SOL    HW215693   6.331   6.753   1.765
 4932SOL     OW15694   3.939   3.132   3.091
 4932SOL    HW115695   3.898   3.199   3.029
 4932SOL    HW215696   3.868   3.091   3.148
 4933SOL     OW15697   2.511   7.009   2.239
 4933SOL    HW115698   2.584   6.994   2.306
 4933SOL    HW215699   2.484   6.921   2.199
 4934SOL     OW15700   3.366   6.176   2.800
 4934SOL    HW115701   3.367   6.100   2.865
 4934SOL    HW215702   3.353   6.140   2.708
 4935SOL     OW15703   1.395   1.924   6.413
 4935SOL    HW115704   1.393   1.896   6.509
 4935SOL    HW215705   1.417   2.022   6.407
 4936SOL     OW15706   3.237   5.024   1.315
 4936SOL    HW115707   3.182   5.082   1.254
 4936SOL    HW215708   3.177   4.972   1.375
 4937SOL     OW15709   5.840   2.842   5.621
 4937SOL    HW115710   5.755   2.891   5.638
 4937SOL    HW215711   5.840   2.756   5.671
 4938SOL     OW15712   2.585   5.943   5.748
 4938SOL    HW115713   2.561   6.036   5.779
 4938SOL    HW215714   2.542   5.876   5.809
 4939SOL     OW15715   5.345   1.939   5.046
 4939SOL    HW115716   5.249   1.931   5.018
 4939SOL    HW215717   5.348   1.977   5.139
 4940SOL     OW15718   1.051   1.264   4.544
 4940SOL    HW115719   1.056   1.363   4.526
 4940SOL    HW215720   1.032   1.249   4.641
 4941SOL     OW15721   3.988   2.028   6.132
 4941SOL    HW115722   3.966   1.984   6.045
 4941SOL    HW215723   3.958   2.123   6.130
 4942SOL     OW15724   5.120   3.183   5.569
 4942SOL    HW115725   5.080   3.094   5.587
 4942SOL    HW215726   5.089   3.249   5.637
 4943SOL     OW15727   3.837   3.227   1.085
 4943SOL    HW115728   3.889   3.257   1.005
 4943SOL    HW215729   3.740   3.223   1.062
 4944SOL     OW15730   2.065   4.371   2.833
 4944SOL    HW115731   2.144   4.327   2.789
 4944SOL    HW215732   2.060   4.467   2.805
 4945SOL     OW15733   1.138   1.213   3.718
 4945SOL    HW115734   1.060   1.251   3.767
 4945SOL    HW215735   1.106   1.161   3.639
 4946SOL     OW15736   0.781   2.994   1.528
 4946SOL    HW115737   0.827   3.082   1.537
 4946SOL    HW215738   0.816   2.947   1.447
 4947SOL     OW15739   1.392   7.010   0.665
 4947SOL    HW115740   1.379   6.967   0.754
 4947SOL    HW215741   1.472   0.042   0.669
 4948SOL     OW15742   2.822   0.541   2.050
 4948SOL    HW115743   2.854   0.517   1.959
 4948SOL    HW215744   2.787   0.460   2.096
 4949SOL     OW15745   4.944   0.609   5.367
 4949SOL    HW115746   4.927   0.548   5.444
 4949SOL    HW215747   4.905   0.570   5.284
 4950SOL     OW15748   2.813   5.876   3.478
 4950SOL    HW115749   2.749   5.801   3.460
 4950SOL    HW215750   2.798   5.911   3.571
 4951SOL     OW15751   5.647   1.335   4.803
 4951SOL    HW115752   5.731   1.367   4.847
 4951SOL    HW215753   5.657   1.340   4.704
 4952SOL     OW15754   0.510   0.804   4.967
 4952SOL    HW115755   0.485   0.734   4.901
 4952SOL    HW215756   0.464   0.890   4.944
 4953SOL     OW15757   2.450   5.946   2.179
 4953SOL    HW115758   2.350   5.941   2.178
 4953SOL    HW215759   2.483   5.962   2.086
 4954SOL     OW15760   4.650   4.437   6.356
 4954SOL    HW115761   4.618   4.514   6.410
 4954SOL    HW215762   4.703   4.375   6.414
 4955SOL     OW15763   1.724   5.826   6.592
 4955SOL    HW115764   1.676   5.903   6.633
 4955SOL    HW215765   1.743   5.758   6.663
 4956SOL     OW15766   3.015   6.678   5.110
 4956SOL    HW115767   3.043   6.583   5.099
 4956SOL    HW215768   3.060   6.716   5.191
 4957SOL     OW15769   6.586   0.858   3.313
 4957SOL    HW115770   6.579   0.955   3.289
 4957SOL    HW215771   6.651   0.846   3.388
 4958SOL     OW15772   0.240   6.165   6.087
 4958SOL    HW115773   0.326   6.150   6.136
 4958SOL    HW215774   0.233   6.099   6.011
 4959SOL     OW15775   6.587   1.161   6.800
 4959SOL    HW115776   6.629   1.091   6.743
 4959SOL    HW215777   6.549   1.233   6.741
 4960SOL     OW15778   3.146   6.483   3.698
 4960SOL    HW115779   3.178   6.507   3.606
 4960SOL    HW215780   3.129   6.385   3.703
 4961SOL     OW15781   5.183   1.183   5.049
 4961SOL    HW115782   5.138   1.207   4.963
 4961SOL    HW215783   5.253   1.251   5.072
 4962SOL     OW15784   5.741   2.837   1.384
 4962SOL    HW115785   5.828   2.806   1.345
 4962SOL    HW215786   5.667   2.779   1.350
 4963SOL     OW15787   5.695   5.888   1.051
 4963SOL    HW115788   5.671   5.924   0.961
 4963SOL    HW215789   5.787   5.848   1.047
 4964SOL     OW15790   3.974   6.308   3.109
 4964SOL    HW115791   3.985   6.287   3.206
 4964SOL    HW215792   3.891   6.265   3.075
 4965SOL     OW15793   0.245   6.773   3.899
 4965SOL    HW115794   0.336   6.771   3.941
 4965SOL    HW215795   0.255   6.780   3.799
 4966SOL     OW15796   2.350   6.802   4.670
 4966SOL    HW115797   2.411   6.727   4.695
 4966SOL    HW215798   2.275   6.807   4.735
 4967SOL     OW15799   4.663   3.101   6.712
 4967SOL    HW115800   4.578   3.132   6.755
 4967SOL    HW215801   4.738   3.107   6.777
 4968SOL     OW15802   5.323   2.895   3.333
 4968SOL    HW115803   5.281   2.807   3.357
 4968SOL    HW215804   5.372   2.931   3.412
 4969SOL     OW15805   1.567   1.098   2.599
 4969SOL    HW115806   1.536   1.019   2.652
 4969SOL    HW215807   1.624   1.067   2.522
 4970SOL     OW15808   1.650   2.595   5.083
 4970SOL    HW115809   1.730   2.570   5.029
 4970SOL    HW215810   1.578   2.630   5.022
 4971SOL     OW15811   6.398   6.021   3.714
 4971SOL    HW115812   6.441   6.049   3.629
 4971SOL    HW215813   6.416   6.089   3.785
 4972SOL     OW15814   2.018   3.473   0.852
 4972SOL    HW115815   2.037   3.454   0.948
 4972SOL    HW215816   1.940   3.535   0.845
 4973SOL     OW15817   0.106   7.004   1.704
 4973SOL    HW115818   0.063   0.066   1.712
 4973SOL    HW215819   0.188   7.012   1.647
 4974SOL     OW15820   6.837   4.497   0.521
 4974SOL    HW115821   6.911   4.482   0.456
 4974SOL    HW215822   6.871   4.481   0.614
 4975SOL     OW15823   6.192   5.920   0.474
 4975SOL    HW115824   6.252   5.902   0.552
 4975SOL    HW215825   6.097   5.906   0.502
 4976SOL     OW15826   2.791   0.566   4.360
 4976SOL    HW115827   2.724   0.497   4.388
 4976SOL    HW215828   2.751   0.657   4.371
 4977SOL     OW15829   5.281   3.881   0.750
 4977SOL    HW115830   5.294   3.802   0.810
 4977SOL    HW215831   5.370   3.924   0.734
 4978SOL     OW15832   6.781   3.633   5.552
 4978SOL    HW115833   6.828   3.664   5.635
 4978SOL    HW215834   6.697   3.585   5.577
 4979SOL     OW15835   0.396   1.775   5.085
 4979SOL    HW115836   0.431   1.839   5.153
 4979SOL    HW215837   0.420   1.806   4.994
 4980SOL     OW15838   4.804   6.822   3.293
 4980SOL    HW115839   4.785   6.870   3.207
 4980SOL    HW215840   4.809   6.724   3.277
 4981SOL     OW15841   5.136   5.620   5.833
 4981SOL    HW115842   5.043   5.646   5.808
 4981SOL    HW215843   5.133   5.561   5.914
 4982SOL     OW15844   2.673   1.490   6.787
 4982SOL    HW115845   2.591   1.478   6.732
 4982SOL    HW215846   2.722   1.403   6.794
 4983SOL     OW15847   4.904   3.235   4.046
 4983SOL    HW115848   4.879   3.245   4.142
 4983SOL    HW215849   4.911   3.325   4.004
 4984SOL     OW15850   5.675   3.698   4.350
 4984SOL    HW115851   5.666   3.793   4.379
 4984SOL    HW215852   5.654   3.690   4.253
 4985SOL     OW15853   6.607   6.230   3.883
 4985SOL    HW115854   6.676   6.187   3.824
 4985SOL    HW215855   6.551   6.293   3.829
 4986SOL     OW15856   6.702   4.760   3.071
 4986SOL    HW115857   6.782   4.788   3.123
 4986SOL    HW215858   6.666   4.675   3.108
 4987SOL     OW15859   0.697   1.994   1.345
 4987SOL    HW115860   0.787   1.950   1.336
 4987SOL    HW215861   0.665   1.986   1.439
 4988SOL     OW15862   6.840   1.454   3.847
 4988SOL    HW115863   6.753   1.406   3.853
 4988SOL    HW215864   6.915   1.387   3.850
 4989SOL     OW15865   6.133   1.244   1.478
 4989SOL    HW115866   6.067   1.169   1.465
 4989SOL    HW215867   6.153   1.255   1.575
 4990SOL     OW15868   0.952   1.769   6.344
 4990SOL    HW115869   0.865   1.807   6.374
 4990SOL    HW215870   0.972   1.801   6.251
 4991SOL     OW15871   0.723   3.614   3.854
 4991SOL    HW115872   0.724   3.514   3.851
 4991SOL    HW215873   0.640   3.645   3.902
 4992SOL     OW15874   4.640   0.942   4.390
 4992SOL    HW115875   4.707   0.870   4.368
 4992SOL    HW215876   4.679   1.005   4.457
 4993SOL     OW15877   2.368   4.527   3.846
 4993SOL    HW115878   2.317   4.598   3.797
 4993SOL    HW215879   2.350   4.438   3.803
 4994SOL     OW15880   1.394   0.243   2.337
 4994SOL    HW115881   1.392   0.218   2.433
 4994SOL    HW215882   1.486   0.274   2.311
 4995SOL     OW15883   6.791   3.327   5.652
 4995SOL    HW115884   6.826   3.237   5.628
 4995SOL    HW215885   6.723   3.355   5.584
 4996SOL     OW15886   1.314   0.562   2.334
 4996SOL    HW115887   1.378   0.638   2.317
 4996SOL    HW215888   1.317   0.537   2.431
 4997SOL     OW15889   6.159   2.326   3.102
 4997SOL    HW115890   6.253   2.355   3.121
 4997SOL    HW215891   6.115   2.394   3.043
 4998SOL     OW15892   2.012   4.048   4.781
 4998SOL    HW115893   2.001   4.147   4.789
 4998SOL    HW215894   2.041   4.010   4.869
 4999SOL     OW15895   4.734   5.629   1.213
 4999SOL    HW115896   4.779   5.662   1.297
 4999SOL    HW215897   4.659   5.690   1.189
 5000SOL     OW15898   1.748   0.685   3.925
 5000SOL    HW115899   1.803   0.746   3.981
 5000SOL    HW215900   1.743   0.721   3.832
 5001SOL     OW15901   2.050   4.102   6.136
 5001SOL    HW115902   2.149   4.108   6.148
 5001SOL    HW215903   2.029   4.091   6.039
 5002SOL     OW15904   1.291   2.894   3.032
 5002SOL    HW115905   1.320   2.947   2.952
 5002SOL    HW215906   1.195   2.868   3.021
 5003SOL     OW15907   0.927   6.706   3.550
 5003SOL    HW115908   0.871   6.678   3.628
 5003SOL    HW215909   0.992   6.633   3.527
 5004SOL     OW15910   2.173   5.618   5.539
 5004SOL    HW115911   2.180   5.519   5.542
 5004SOL    HW215912   2.264   5.658   5.544
 5005SOL     OW15913   3.761   2.268   0.756
 5005SOL    HW115914   3.739   2.236   0.848
 5005SOL    HW215915   3.860   2.262   0.742
 5006SOL     OW15916   5.520   6.766   6.342
 5006SOL    HW115917   5.437   6.752   6.288
 5006SOL    HW215918   5.528   6.862   6.367
 5007SOL     OW15919   2.732   0.345   6.173
 5007SOL    HW115920   2.673   0.269   6.147
 5007SOL    HW215921   2.806   0.354   6.106
 5008SOL     OW15922   6.636   0.333   3.811
 5008SOL    HW115923   6.593   0.396   3.875
 5008SOL    HW215924   6.732   0.320   3.837
 5009SOL     OW15925   1.993   6.016   1.866
 5009SOL    HW115926   1.943   5.932   1.844
 5009SOL    HW215927   2.031   6.055   1.782
 5010SOL     OW15928   3.908   3.570   3.971
 5010SOL    HW115929   3.815   3.535   3.961
 5010SOL    HW215930   3.955   3.519   4.042
 5011SOL     OW15931   2.168   3.179   2.010
 5011SOL    HW115932   2.098   3.144   2.072
 5011SOL    HW215933   2.164   3.279   2.009
 5012SOL     OW15934   5.898   2.841   6.735
 5012SOL    HW115935   5.809   2.795   6.738
 5012SOL    HW215936   5.943   2.819   6.648
 5013SOL     OW15937   5.300   0.765   6.784
 5013SOL    HW115938   5.231   0.825   6.824
 5013SOL    HW215939   5.351   0.720   6.857
 5014SOL     OW15940   6.183   5.404   0.882
 5014SOL    HW115941   6.231   5.425   0.797
 5014SOL    HW215942   6.219   5.461   0.956
 5015SOL     OW15943   4.048   1.944   3.662
 5015SOL    HW115944   3.995   2.022   3.630
 5015SOL    HW215945   4.051   1.945   3.762
 5016SOL     OW15946   1.954   1.184   2.147
 5016SOL    HW115947   2.008   1.170   2.230
 5016SOL    HW215948   1.984   1.268   2.102
 5017SOL     OW15949   2.396   2.670   0.764
 5017SOL    HW115950   2.383   2.759   0.721
 5017SOL    HW215951   2.372   2.676   0.861
 5018SOL     OW15952   0.918   4.528   1.591
 5018SOL    HW115953   0.989   4.483   1.537
 5018SOL    HW215954   0.830   4.517   1.545
 5019SOL     OW15955   2.350   4.535   0.473
 5019SOL    HW115956   2.293   4.600   0.524
 5019SOL    HW215957   2.398   4.584   0.400
 5020SOL     OW15958   5.644   6.528   5.033
 5020SOL    HW115959   5.630   6.627   5.027
 5020SOL    HW215960   5.565   6.486   5.079
 5021SOL     OW15961   1.085   3.424   6.228
 5021SOL    HW115962   1.072   3.435   6.327
 5021SOL    HW215963   1.097   3.327   6.207
 5022SOL     OW15964   1.611   0.165   1.053
 5022SOL    HW115965   1.689   0.189   1.110
 5022SOL    HW215966   1.628   0.192   0.958
 5023SOL     OW15967   6.481   3.298   1.015
 5023SOL    HW115968   6.399   3.245   1.039
 5023SOL    HW215969   6.456   3.393   0.999
 5024SOL     OW15970   0.197   4.387   2.706
 5024SOL    HW115971   0.210   4.386   2.607
 5024SOL    HW215972   0.159   4.299   2.736
 5025SOL     OW15973   4.599   2.184   2.131
 5025SOL    HW115974   4.687   2.219   2.163
 5025SOL    HW215975   4.540   2.260   2.105
 5026SOL     OW15976   6.000   6.059   6.410
 5026SOL    HW115977   5.995   6.131   6.340
 5026SOL    HW215978   5.939   6.083   6.486
 5027SOL     OW15979   0.869   6.718   2.917
 5027SOL    HW115980   0.927   6.720   2.999
 5027SOL    HW215981   0.925   6.740   2.837
 5028SOL     OW15982   0.410   6.054   1.809
 5028SOL    HW115983   0.358   5.977   1.772
 5028SOL    HW215984   0.353   6.105   1.873
 5029SOL     OW15985   6.721   3.201   3.020
 5029SOL    HW115986   6.819   3.222   3.017
 5029SOL    HW215987   6.708   3.102   3.020
 5030SOL     OW15988   6.710   0.585   6.836
 5030SOL    HW115989   6.753   0.496   6.825
 5030SOL    HW215990   6.666   0.591   6.926
 5031SOL     OW15991   6.152   1.235   4.470
 5031SOL    HW115992   6.099   1.206   4.550
 5031SOL    HW215993   6.131   1.330   4.449
 5032SOL     OW15994   1.430   4.448   1.053
 5032SOL    HW115995   1.370   4.455   0.974
 5032SOL    HW215996   1.525   4.439   1.022
 5033SOL     OW15997   2.072   5.056   6.069
 5033SOL    HW115998   2.010   5.130   6.095
 5033SOL    HW215999   2.166   5.091   6.065
 5034SOL     OW16000   0.075   3.295   1.882
 5034SOL    HW116001   0.157   3.352   1.891
 5034SOL    HW216002   0.075   3.252   1.792
 5035SOL     OW16003   5.932   4.601   1.399
 5035SOL    HW116004   6.027   4.630   1.391
 5035SOL    HW216005   5.878   4.643   1.326
 5036SOL     OW16006   0.660   5.675   6.432
 5036SOL    HW116007   0.731   5.627   6.484
 5036SOL    HW216008   0.618   5.613   6.367
 5037SOL     OW16009   4.807   2.457   2.853
 5037SOL    HW116010   4.794   2.526   2.924
 5037SOL    HW216011   4.720   2.438   2.808
 5038SOL     OW16012   1.956   5.862   5.424
 5038SOL    HW116013   2.054   5.872   5.409
 5038SOL    HW216014   1.937   5.769   5.456
 5039SOL     OW16015   1.883   3.779   4.940
 5039SOL    HW116016   1.962   3.829   4.975
 5039SOL    HW216017   1.804   3.840   4.934
 5040SOL     OW16018   2.589   3.075   6.662
 5040SOL    HW116019   2.658   3.004   6.676
 5040SOL    HW216020   2.591   3.140   6.738
 5041SOL     OW16021   0.787   3.301   0.952
 5041SOL    HW116022   0.796   3.319   0.854
 5041SOL    HW216023   0.753   3.209   0.967
 5042SOL     OW16024   0.017   3.299   6.808
 5042SOL    HW116025   0.025   3.392   6.843
 5042SOL    HW216026   0.047   3.297   6.713
 5043SOL     OW16027   3.501   0.956   5.481
 5043SOL    HW116028   3.401   0.956   5.485
 5043SOL    HW216029   3.536   0.868   5.514
 5044SOL     OW16030   6.232   6.102   3.458
 5044SOL    HW116031   6.263   6.066   3.370
 5044SOL    HW216032   6.186   6.029   3.509
 5045SOL     OW16033   5.083   3.286   0.426
 5045SOL    HW116034   5.039   3.373   0.450
 5045SOL    HW216035   5.018   3.229   0.375
 5046SOL     OW16036   3.855   2.946   4.924
 5046SOL    HW116037   3.839   2.960   5.022
 5046SOL    HW216038   3.954   2.940   4.907
 5047SOL     OW16039   6.221   1.470   2.481
 5047SOL    HW116040   6.122   1.483   2.474
 5047SOL    HW216041   6.249   1.474   2.577
 5048SOL     OW16042   6.462   2.171   1.802
 5048SOL    HW116043   6.469   2.161   1.901
 5048SOL    HW216044   6.519   2.248   1.773
 5049SOL     OW16045   6.502   1.302   2.912
 5049SOL    HW116046   6.508   1.383   2.971
 5049SOL    HW216047   6.569   1.309   2.839
 5050SOL     OW16048   0.374   1.846   1.956
 5050SOL    HW116049   0.408   1.925   2.007
 5050SOL    HW216050   0.442   1.819   1.888
 5051SOL     OW16051   3.804   3.173   0.763
 5051SOL    HW116052   3.889   3.202   0.807
 5051SOL    HW216053   3.800   3.211   0.670
 5052SOL     OW16054   2.853   4.751   6.950
 5052SOL    HW116055   2.868   4.777   6.855
 5052SOL    HW216056   2.902   4.666   6.970
 5053SOL     OW16057   2.113   3.701   2.376
 5053SOL    HW116058   2.139   3.626   2.316
 5053SOL    HW216059   2.099   3.784   2.323
 5054SOL     OW16060   3.779   5.995   5.643
 5054SOL    HW116061   3.801   6.031   5.552
 5054SOL    HW216062   3.680   5.989   5.653
 5055SOL     OW16063   0.281   1.307   4.926
 5055SOL    HW116064   0.218   1.355   4.986
 5055SOL    HW216065   0.253   1.319   4.831
 5056SOL     OW16066   0.062   4.319   6.364
 5056SOL    HW116067   0.074   4.328   6.463
 5056SOL    HW216068   0.085   4.226   6.337
 5057SOL     OW16069   0.783   5.564   3.475
 5057SOL    HW116070   0.813   5.530   3.564
 5057SOL    HW216071   0.862   5.599   3.424
 5058SOL     OW16072   4.229   3.800   6.727
 5058SOL    HW116073   4.221   3.808   6.826
 5058SOL    HW216074   4.161   3.735   6.693
 5059SOL     OW16075   4.719   2.827   4.988
 5059SOL    HW116076   4.759   2.918   4.974
 5059SOL    HW216077   4.705   2.783   4.899
 5060SOL     OW16078   6.905   3.153   4.661
 5060SOL    HW116079   6.950   3.064   4.664
 5060SOL    HW216080   6.952   3.213   4.597
 5061SOL     OW16081   3.052   3.231   4.157
 5061SOL    HW116082   3.023   3.162   4.223
 5061SOL    HW216083   3.003   3.316   4.174
 5062SOL     OW16084   5.268   1.600   2.352
 5062SOL    HW116085   5.333   1.572   2.422
 5062SOL    HW216086   5.313   1.657   2.285
 5063SOL     OW16087   1.278   6.466   1.838
 5063SOL    HW116088   1.180   6.467   1.857
 5063SOL    HW216089   1.328   6.482   1.924
 5064SOL     OW16090   4.759   5.160   0.703
 5064SOL    HW116091   4.810   5.167   0.617
 5064SOL    HW216092   4.819   5.180   0.780
 5065SOL     OW16093   1.722   0.532   2.923
 5065SOL    HW116094   1.751   0.604   2.985
 5065SOL    HW216095   1.726   0.566   2.829
 5066SOL     OW16096   2.373   3.996   1.650
 5066SOL    HW116097   2.411   3.943   1.574
 5066SOL    HW216098   2.287   3.953   1.680
 5067SOL     OW16099   4.163   2.081   1.774
 5067SOL    HW116100   4.223   2.146   1.728
 5067SOL    HW216101   4.102   2.131   1.835
 5068SOL     OW16102   2.805   5.344   0.026
 5068SOL    HW116103   2.803   5.245   0.038
 5068SOL    HW216104   2.874   5.384   0.087
 5069SOL     OW16105   2.204   3.279   5.530
 5069SOL    HW116106   2.142   3.200   5.537
 5069SOL    HW216107   2.263   3.267   5.450
 5070SOL     OW16108   5.753   4.360   3.890
 5070SOL    HW116109   5.664   4.316   3.903
 5070SOL    HW216110   5.788   4.339   3.799
 5071SOL     OW16111   3.669   1.811   3.323
 5071SOL    HW116112   3.760   1.812   3.283
 5071SOL    HW216113   3.606   1.864   3.266
 5072SOL     OW16114   2.139   0.940   1.232
 5072SOL    HW116115   2.136   1.003   1.310
 5072SOL    HW216116   2.233   0.937   1.196
 5073SOL     OW16117   1.616   6.361   1.825
 5073SOL    HW116118   1.541   6.334   1.886
 5073SOL    HW216119   1.700   6.313   1.852
 5074SOL     OW16120   3.685   1.847   1.568
 5074SOL    HW116121   3.659   1.909   1.642
 5074SOL    HW216122   3.613   1.845   1.498
 5075SOL     OW16123   1.465   2.459   0.196
 5075SOL    HW116124   1.517   2.523   0.252
 5075SOL    HW216125   1.487   2.365   0.223
 5076SOL     OW16126   5.496   6.952   6.860
 5076SOL    HW116127   5.480   7.007   6.778
 5076SOL    HW216128   5.586   6.975   6.899
 5077SOL     OW16129   1.467   3.825   6.196
 5077SOL    HW116130   1.547   3.767   6.182
 5077SOL    HW216131   1.389   3.787   6.146
 5078SOL     OW16132   0.693   1.036   4.461
 5078SOL    HW116133   0.719   0.981   4.381
 5078SOL    HW216134   0.649   0.977   4.529
 5079SOL     OW16135   2.515   2.423   5.884
 5079SOL    HW116136   2.577   2.468   5.819
 5079SOL    HW216137   2.540   2.451   5.977
 5080SOL     OW16138   6.051   5.618   5.314
 5080SOL    HW116139   6.060   5.560   5.233
 5080SOL    HW216140   5.954   5.637   5.330
 5081SOL     OW16141   2.470   5.087   5.012
 5081SOL    HW116142   2.438   5.170   4.965
 5081SOL    HW216143   2.449   5.094   5.110
 5082SOL     OW16144   4.793   6.917   0.178
 5082SOL    HW116145   4.740   6.921   0.093
 5082SOL    HW216146   4.852   6.836   0.176
 5083SOL     OW16147   3.793   0.435   1.013
 5083SOL    HW116148   3.791   0.363   0.943
 5083SOL    HW216149   3.703   0.479   1.017
 5084SOL     OW16150   0.826   4.904   4.958
 5084SOL    HW116151   0.867   4.957   4.884
 5084SOL    HW216152   0.729   4.893   4.941
 5085SOL     OW16153   1.234   2.872   5.773
 5085SOL    HW116154   1.218   2.901   5.679
 5085SOL    HW216155   1.184   2.932   5.836
 5086SOL     OW16156   0.442   4.146   2.153
 5086SOL    HW116157   0.523   4.205   2.140
 5086SOL    HW216158   0.420   4.102   2.066
 5087SOL     OW16159   6.800   5.292   2.124
 5087SOL    HW116160   6.792   5.383   2.164
 5087SOL    HW216161   6.887   5.285   2.075
 5088SOL     OW16162   4.460   6.481   3.194
 5088SOL    HW116163   4.418   6.404   3.243
 5088SOL    HW216164   4.390   6.530   3.143
 5089SOL     OW16165   5.590   4.021   3.763
 5089SOL    HW116166   5.578   4.069   3.850
 5089SOL    HW216167   5.546   3.931   3.769
 5090SOL     OW16168   2.135   1.060   2.936
 5090SOL    HW116169   2.204   1.014   2.880
 5090SOL    HW216170   2.180   1.106   3.013
 5091SOL     OW16171   6.313   0.675   0.885
 5091SOL    HW116172   6.279   0.737   0.814
 5091SOL    HW216173   6.410   0.696   0.903
 5092SOL     OW16174   3.669   2.899   3.902
 5092SOL    HW116175   3.576   2.878   3.933
 5092SOL    HW216176   3.670   2.905   3.802
 5093SOL     OW16177   2.704   1.701   1.775
 5093SOL    HW116178   2.701   1.621   1.715
 5093SOL    HW216179   2.783   1.757   1.751
 5094SOL     OW16180   1.820   5.638   6.763
 5094SOL    HW116181   1.911   5.669   6.735
 5094SOL    HW216182   1.824   5.540   6.784
 5095SOL     OW16183   0.503   1.462   2.787
 5095SOL    HW116184   0.552   1.542   2.754
 5095SOL    HW216185   0.494   1.466   2.887
 5096SOL     OW16186   5.653   4.635   6.060
 5096SOL    HW116187   5.726   4.704   6.060
 5096SOL    HW216188   5.571   4.674   6.102
 5097SOL     OW16189   6.516   0.299   0.018
 5097SOL    HW116190   6.541   0.283   6.951
 5097SOL    HW216191   6.582   0.253   0.078
 5098SOL     OW16192   3.662   2.399   1.406
 5098SOL    HW116193   3.598   2.441   1.342
 5098SOL    HW216194   3.744   2.371   1.357
 5099SOL     OW16195   0.202   6.375   1.554
 5099SOL    HW116196   0.136   6.432   1.506
 5099SOL    HW216197   0.294   6.411   1.539
 5100SOL     OW16198   3.176   5.477   3.378
 5100SOL    HW116199   3.144   5.491   3.472
 5100SOL    HW216200   3.167   5.563   3.327
 5101SOL     OW16201   3.994   0.599   4.374
 5101SOL    HW116202   4.085   0.594   4.416
 5101SOL    HW216203   3.938   0.665   4.424
 5102SOL     OW16204   4.985   5.919   4.430
 5102SOL    HW116205   4.929   5.848   4.388
 5102SOL    HW216206   5.049   5.876   4.494
 5103SOL     OW16207   0.608   1.276   4.728
 5103SOL    HW116208   0.526   1.307   4.681
 5103SOL    HW216209   0.677   1.251   4.661
 5104SOL     OW16210   3.355   5.859   1.625
 5104SOL    HW116211   3.302   5.841   1.708
 5104SOL    HW216212   3.400   5.774   1.596
 5105SOL     OW16213   3.443   2.914   6.286
 5105SOL    HW116214   3.383   2.906   6.365
 5105SOL    HW216215   3.528   2.863   6.303
 5106SOL     OW16216   3.893   1.567   1.250
 5106SOL    HW116217   3.830   1.509   1.300
 5106SOL    HW216218   3.856   1.660   1.245
 5107SOL     OW16219   5.557   2.162   0.851
 5107SOL    HW116220   5.468   2.117   0.837
 5107SOL    HW216221   5.545   2.261   0.846
 5108SOL     OW16222   4.239   3.865   5.314
 5108SOL    HW116223   4.217   3.941   5.253
 5108SOL    HW216224   4.259   3.900   5.406
 5109SOL     OW16225   1.211   2.861   0.316
 5109SOL    HW116226   1.143   2.794   0.347
 5109SOL    HW216227   1.217   2.935   0.382
 5110SOL     OW16228   0.054   0.510   6.275
 5110SOL    HW116229   0.009   0.588   6.319
 5110SOL    HW216230   0.041   0.517   6.176
 5111SOL     OW16231   1.312   6.878   4.173
 5111SOL    HW116232   1.312   6.970   4.134
 5111SOL    HW216233   1.372   6.819   4.120
 5112SOL     OW16234   0.399   0.392   2.843
 5112SOL    HW116235   0.329   0.324   2.821
 5112SOL    HW216236   0.483   0.346   2.870
 5113SOL     OW16237   1.461   5.953   1.489
 5113SOL    HW116238   1.401   5.923   1.564
 5113SOL    HW216239   1.511   6.035   1.518
 5114SOL     OW16240   3.925   6.856   0.237
 5114SOL    HW116241   3.962   6.886   0.325
 5114SOL    HW216242   3.831   6.825   0.249
 5115SOL     OW16243   1.964   4.101   2.058
 5115SOL    HW116244   1.880   4.098   2.005
 5115SOL    HW216245   2.016   4.183   2.035
 5116SOL     OW16246   2.252   6.509   0.029
 5116SOL    HW116247   2.245   6.450   6.976
 5116SOL    HW216248   2.170   6.567   0.034
 5117SOL     OW16249   0.825   3.866   3.839
 5117SOL    HW116250   0.794   3.771   3.846
 5117SOL    HW216251   0.831   3.906   3.931
 5118SOL     OW16252   5.483   6.900   0.094
 5118SOL    HW116253   5.447   6.913   0.002
 5118SOL    HW216254   5.581   6.920   0.095
 5119SOL     OW16255   4.521   1.520   1.481
 5119SOL    HW116256   4.545   1.435   1.528
 5119SOL    HW216257   4.578   1.531   1.400
 5120SOL     OW16258   4.702   6.910   5.310
 5120SOL    HW116259   4.608   6.877   5.312
 5120SOL    HW216260   4.735   6.921   5.404
 5121SOL     OW16261   3.553   3.521   0.259
 5121SOL    HW116262   3.533   3.443   0.318
 5121SOL    HW216263   3.565   3.603   0.315
 5122SOL     OW16264   3.861   5.911   3.003
 5122SOL    HW116265   3.933   5.888   3.068
 5122SOL    HW216266   3.791   5.839   3.004
 5123SOL     OW16267   5.696   2.050   4.192
 5123SOL    HW116268   5.787   2.040   4.232
 5123SOL    HW216269   5.702   2.107   4.110
 5124SOL     OW16270   2.123   6.590   3.745
 5124SOL    HW116271   2.097   6.497   3.770
 5124SOL    HW216272   2.218   6.606   3.771
 5125SOL     OW16273   0.215   1.818   2.982
 5125SOL    HW116274   0.182   1.780   3.068
 5125SOL    HW216275   0.197   1.916   2.979
 5126SOL     OW16276   1.074   6.414   6.991
 5126SOL    HW116277   1.087   6.355   0.042
 5126SOL    HW216278   1.099   6.508   7.015
 5127SOL     OW16279   0.642   5.430   6.891
 5127SOL    HW116280   0.643   5.506   6.956
 5127SOL    HW216281   0.554   5.428   6.843
 5128SOL     OW16282   6.455   6.552   0.818
 5128SOL    HW116283   6.439   6.619   0.745
 5128SOL    HW216284   6.527   6.489   0.789
 5129SOL     OW16285   4.986   6.270   2.465
 5129SOL    HW116286   4.999   6.236   2.558
 5129SOL    HW216287   5.014   6.199   2.400
 5130SOL     OW16288   0.010   5.363   2.379
 5130SOL    HW116289   0.033   5.300   2.453
 5130SOL    HW216290   6.948   5.402   2.395
 5131SOL     OW16291   1.895   3.097   4.116
 5131SOL    HW116292   1.994   3.110   4.113
 5131SOL    HW216293   1.873   3.015   4.168
 5132SOL     OW16294   4.162   2.897   5.909
 5132SOL    HW116295   4.175   2.807   5.949
 5132SOL    HW216296   4.218   2.906   5.827
 5133SOL     OW16297   2.772   4.805   0.195
 5133SOL    HW116298   2.818   4.884   0.234
 5133SOL    HW216299   2.809   4.786   0.104
 5134SOL     OW16300   6.689   2.613   2.175
 5134SOL    HW116301   6.626   2.610   2.253
 5134SOL    HW216302   6.783   2.609   2.208
 5135SOL     OW16303   6.230   2.184   5.329
 5135SOL    HW116304   6.130   2.194   5.328
 5135SOL    HW216305   6.262   2.156   5.238
 5136SOL     OW16306   4.693   0.321   5.853
 5136SOL    HW116307   4.660   0.407   5.813
 5136SOL    HW216308   4.661   0.313   5.947
 5137SOL     OW16309   5.865   3.075   6.418
 5137SOL    HW116310   5.960   3.088   6.387
 5137SOL    HW216311   5.803   3.118   6.352
 5138SOL     OW16312   3.290   2.884   5.902
 5138SOL    HW116313   3.315   2.834   5.985
 5138SOL    HW216314   3.219   2.951   5.923
 5139SOL     OW16315   1.439   0.042   3.616
 5139SOL    HW116316   1.514   0.069   3.556
 5139SOL    HW216317   1.364   0.109   3.608
 5140SOL     OW16318   3.139   1.677   0.148
 5140SOL    HW116319   3.083   1.664   0.066
 5140SOL    HW216320   3.099   1.749   0.205
 5141SOL     OW16321   6.863   3.871   0.419
 5141SOL    HW116322   6.886   3.776   0.442
 5141SOL    HW216323   6.764   3.881   0.414
 5142SOL     OW16324   6.142   1.216   3.802
 5142SOL    HW116325   6.052   1.241   3.766
 5142SOL    HW216326   6.134   1.191   3.899
 5143SOL     OW16327   0.579   4.264   3.857
 5143SOL    HW116328   0.668   4.306   3.876
 5143SOL    HW216329   0.537   4.309   3.779
 5144SOL     OW16330   0.986   6.025   6.334
 5144SOL    HW116331   0.900   6.074   6.351
 5144SOL    HW216332   1.063   6.083   6.360
 5145SOL     OW16333   1.552   5.175   5.925
 5145SOL    HW116334   1.562   5.148   6.021
 5145SOL    HW216335   1.626   5.134   5.871
 5146SOL     OW16336   4.332   3.939   5.612
 5146SOL    HW116337   4.345   3.841   5.623
 5146SOL    HW216338   4.340   3.984   5.701
 5147SOL     OW16339   0.123   4.452   2.459
 5147SOL    HW116340   0.176   4.378   2.417
 5147SOL    HW216341   0.148   4.539   2.416
 5148SOL     OW16342   0.967   6.477   0.848
 5148SOL    HW116343   0.981   6.443   0.941
 5148SOL    HW216344   1.047   6.530   0.820
 5149SOL     OW16345   6.011   5.828   4.652
 5149SOL    HW116346   5.948   5.850   4.726
 5149SOL    HW216347   6.010   5.901   4.584
 5150SOL     OW16348   2.415   5.001   2.881
 5150SOL    HW116349   2.369   4.926   2.929
 5150SOL    HW216350   2.371   5.088   2.905
 5151SOL     OW16351   5.459   1.408   0.346
 5151SOL    HW116352   5.385   1.409   0.414
 5151SOL    HW216353   5.433   1.349   0.270
 5152SOL     OW16354   2.055   4.995   6.384
 5152SOL    HW116355   1.983   4.936   6.348
 5152SOL    HW216356   2.117   5.021   6.310
 5153SOL     OW16357   2.108   1.050   6.353
 5153SOL    HW116358   2.154   1.062   6.265
 5153SOL    HW216359   2.177   1.046   6.426
 5154SOL     OW16360   1.954   2.931   6.204
 5154SOL    HW116361   1.897   2.935   6.286
 5154SOL    HW216362   1.990   2.838   6.193
 5155SOL     OW16363   3.928   6.367   2.202
 5155SOL    HW116364   3.879   6.327   2.124
 5155SOL    HW216365   3.873   6.354   2.285
 5156SOL     OW16366   0.045   3.110   5.524
 5156SOL    HW116367   0.113   3.095   5.452
 5156SOL    HW216368   7.003   3.039   5.519
 5157SOL     OW16369   4.512   2.443   3.615
 5157SOL    HW116370   4.526   2.411   3.709
 5157SOL    HW216371   4.551   2.377   3.551
 5158SOL     OW16372   3.357   1.788   1.162
 5158SOL    HW116373   3.298   1.707   1.169
 5158SOL    HW216374   3.326   1.845   1.086
 5159SOL     OW16375   0.497   3.453   4.412
 5159SOL    HW116376   0.422   3.476   4.474
 5159SOL    HW216377   0.575   3.514   4.430
 5160SOL     OW16378   0.500   3.716   3.962
 5160SOL    HW116379   0.433   3.722   4.036
 5160SOL    HW216380   0.462   3.758   3.879
 5161SOL     OW16381   1.605   3.565   4.464
 5161SOL    HW116382   1.578   3.487   4.520
 5161SOL    HW216383   1.666   3.534   4.391
 5162SOL     OW16384   1.079   5.104   4.157
 5162SOL    HW116385   1.123   5.189   4.131
 5162SOL    HW216386   1.145   5.045   4.204
 5163SOL     OW16387   3.719   4.922   1.229
 5163SOL    HW116388   3.654   4.941   1.155
 5163SOL    HW216389   3.809   4.906   1.190
 5164SOL     OW16390   5.928   2.327   6.576
 5164SOL    HW116391   6.022   2.336   6.541
 5164SOL    HW216392   5.872   2.279   6.509
 5165SOL     OW16393   5.787   3.424   5.404
 5165SOL    HW116394   5.857   3.434   5.474
 5165SOL    HW216395   5.816   3.470   5.320
 5166SOL     OW16396   1.171   5.383   1.583
 5166SOL    HW116397   1.241   5.313   1.595
 5166SOL    HW216398   1.213   5.468   1.552
 5167SOL     OW16399   6.266   0.273   5.777
 5167SOL    HW116400   6.281   0.358   5.829
 5167SOL    HW216401   6.227   0.203   5.837
 5168SOL     OW16402   5.036   2.843   3.464
 5168SOL    HW116403   4.982   2.870   3.543
 5168SOL    HW216404   5.000   2.886   3.381
 5169SOL     OW16405   3.259   2.449   5.751
 5169SOL    HW116406   3.240   2.379   5.819
 5169SOL    HW216407   3.284   2.405   5.664
 5170SOL     OW16408   0.031   3.921   5.546
 5170SOL    HW116409   6.979   3.901   5.490
 5170SOL    HW216410   0.002   3.951   5.637
 5171SOL     OW16411   2.301   5.222   4.593
 5171SOL    HW116412   2.346   5.157   4.654
 5171SOL    HW216413   2.351   5.309   4.594
 5172SOL     OW16414   0.200   3.096   2.004
 5172SOL    HW116415   0.113   3.144   2.000
 5172SOL    HW216416   0.264   3.148   2.061
 5173SOL     OW16417   5.772   4.939   6.340
 5173SOL    HW116418   5.676   4.957   6.361
 5173SOL    HW216419   5.830   4.973   6.414
 5174SOL     OW16420   1.937   4.604   4.311
 5174SOL    HW116421   2.011   4.640   4.368
 5174SOL    HW216422   1.957   4.508   4.288
 5175SOL     OW16423   2.356   4.116   6.958
 5175SOL    HW116424   2.319   4.081   0.016
 5175SOL    HW216425   2.311   4.202   6.935
 5176SOL     OW16426   4.251   3.382   1.641
 5176SOL    HW116427   4.197   3.333   1.572
 5176SOL    HW216428   4.304   3.316   1.694
 5177SOL     OW16429   4.743   0.038   5.884
 5177SOL    HW116430   4.736   0.137   5.891
 5177SOL    HW216431   4.672   0.003   5.823
 5178SOL     OW16432   2.132   2.646   1.301
 5178SOL    HW116433   2.071   2.567   1.292
 5178SOL    HW216434   2.226   2.613   1.316
 5179SOL     OW16435   4.279   5.897   5.731
 5179SOL    HW116436   4.361   5.924   5.783
 5179SOL    HW216437   4.301   5.893   5.634
 5180SOL     OW16438   2.940   2.888   6.514
 5180SOL    HW116439   2.976   2.858   6.426
 5180SOL    HW216440   2.933   2.810   6.576
 5181SOL     OW16441   5.248   1.558   2.657
 5181SOL    HW116442   5.193   1.479   2.685
 5181SOL    HW216443   5.200   1.642   2.682
 5182SOL     OW16444   5.054   5.330   1.216
 5182SOL    HW116445   5.012   5.240   1.223
 5182SOL    HW216446   5.140   5.332   1.267
 5183SOL     OW16447   4.447   0.426   2.700
 5183SOL    HW116448   4.453   0.376   2.786
 5183SOL    HW216449   4.372   0.389   2.645
 5184SOL     OW16450   0.808   1.983   3.742
 5184SOL    HW116451   0.854   1.897   3.719
 5184SOL    HW216452   0.733   1.965   3.805
 5185SOL     OW16453   4.672   6.961   3.069
 5185SOL    HW116454   4.735   6.930   2.998
 5185SOL    HW216455   4.716   0.003   3.125
 5186SOL     OW16456   6.118   3.353   0.807
 5186SOL    HW116457   6.215   3.355   0.784
 5186SOL    HW216458   6.071   3.429   0.762
 5187SOL     OW16459   6.293   0.909   3.488
 5187SOL    HW116460   6.333   0.910   3.396
 5187SOL    HW216461   6.351   0.961   3.550
 5188SOL     OW16462   0.655   4.971   0.541
 5188SOL    HW116463   0.725   5.033   0.576
 5188SOL    HW216464   0.609   5.014   0.463
 5189SOL     OW16465   4.725   5.099   1.153
 5189SOL    HW116466   4.763   5.015   1.191
 5189SOL    HW216467   4.627   5.102   1.172
 5190SOL     OW16468   0.791   2.235   4.476
 5190SOL    HW116469   0.773   2.203   4.383
 5190SOL    HW216470   0.772   2.162   4.541
 5191SOL     OW16471   3.554   0.527   1.993
 5191SOL    HW116472   3.640   0.515   1.944
 5191SOL    HW216473   3.543   0.455   2.061
 5192SOL     OW16474   4.223   5.575   2.394
 5192SOL    HW116475   4.176   5.514   2.330
 5192SOL    HW216476   4.244   5.526   2.478
 5193SOL     OW16477   4.708   4.823   3.843
 5193SOL    HW116478   4.803   4.845   3.865
 5193SOL    HW216479   4.704   4.735   3.797
 5194SOL     OW16480   4.599   7.027   6.271
 5194SOL    HW116481   4.572   6.980   6.355
 5194SOL    HW216482   4.668   6.972   6.223
 5195SOL     OW16483   6.213   6.278   4.581
 5195SOL    HW116484   6.301   6.301   4.539
 5195SOL    HW216485   6.229   6.227   4.666
 5196SOL     OW16486   1.244   3.526   0.810
 5196SOL    HW116487   1.256   3.576   0.896
 5196SOL    HW216488   1.151   3.491   0.805
 5197SOL     OW16489   1.960   6.242   4.034
 5197SOL    HW116490   1.874   6.202   4.003
 5197SOL    HW216491   1.978   6.212   4.128
 5198SOL     OW16492   3.353   0.207   4.489
 5198SOL    HW116493   3.371   0.167   4.579
 5198SOL    HW216494   3.254   0.209   4.474
 5199SOL     OW16495   2.005   6.245   0.757
 5199SOL    HW116496   1.954   6.315   0.707
 5199SOL    HW216497   2.063   6.288   0.825
 5200SOL     OW16498   0.893   2.128   4.878
 5200SOL    HW116499   0.845   2.071   4.945
 5200SOL    HW216500   0.867   2.224   4.892
 5201SOL     OW16501   5.119   5.863   4.149
 5201SOL    HW116502   5.066   5.947   4.160
 5201SOL    HW216503   5.173   5.847   4.232
 5202SOL     OW16504   5.364   3.549   6.183
 5202SOL    HW116505   5.325   3.458   6.171
 5202SOL    HW216506   5.314   3.614   6.125
 5203SOL     OW16507   1.668   0.783   6.644
 5203SOL    HW116508   1.723   0.866   6.660
 5203SOL    HW216509   1.581   0.809   6.604
 5204SOL     OW16510   3.369   6.513   6.667
 5204SOL    HW116511   3.409   6.588   6.719
 5204SOL    HW216512   3.440   6.448   6.642
 5205SOL     OW16513   6.820   5.438   6.998
 5205SOL    HW116514   6.903   5.441   6.942
 5205SOL    HW216515   6.845   5.426   0.066
 5206SOL     OW16516   0.561   5.471   5.651
 5206SOL    HW116517   0.482   5.463   5.590
 5206SOL    HW216518   0.547   5.549   5.712
 5207SOL     OW16519   0.442   0.577   3.646
 5207SOL    HW116520   0.525   0.611   3.690
 5207SOL    HW216521   0.444   0.600   3.549
 5208SOL     OW16522   5.026   2.366   0.458
 5208SOL    HW116523   5.071   2.444   0.416
 5208SOL    HW216524   4.989   2.393   0.547
 5209SOL     OW16525   5.106   0.384   2.400
 5209SOL    HW116526   5.166   0.459   2.426
 5209SOL    HW216527   5.011   0.416   2.399
 5210SOL     OW16528   5.506   3.982   1.022
 5210SOL    HW116529   5.511   3.975   0.922
 5210SOL    HW216530   5.411   3.987   1.051
 5211SOL     OW16531   5.194   1.748   4.567
 5211SOL    HW116532   5.196   1.701   4.656
 5211SOL    HW216533   5.276   1.722   4.515
 5212SOL     OW16534   1.333   2.602   0.732
 5212SOL    HW116535   1.358   2.541   0.657
 5212SOL    HW216536   1.256   2.563   0.783
 5213SOL     OW16537   4.002   3.847   1.648
 5213SOL    HW116538   4.088   3.880   1.688
 5213SOL    HW216539   3.954   3.923   1.604
 5214SOL     OW16540   4.934   3.750   5.841
 5214SOL    HW116541   4.984   3.783   5.921
 5214SOL    HW216542   4.999   3.731   5.767
 5215SOL     OW16543   6.940   4.124   3.956
 5215SOL    HW116544   6.991   4.201   3.918
 5215SOL    HW216545   7.002   4.064   4.005
 5216SOL     OW16546   4.543   5.739   1.003
 5216SOL    HW116547   4.591   5.826   1.017
 5216SOL    HW216548   4.590   5.686   0.932
 5217SOL     OW16549   4.144   6.006   4.670
 5217SOL    HW116550   4.050   5.974   4.683
 5217SOL    HW216551   4.142   6.102   4.640
 5218SOL     OW16552   0.213   1.409   0.791
 5218SOL    HW116553   0.121   1.388   0.760
 5218SOL    HW216554   0.214   1.499   0.835
 5219SOL     OW16555   3.398   1.811   4.697
 5219SOL    HW116556   3.484   1.785   4.654
 5219SOL    HW216557   3.396   1.910   4.711
 5220SOL     OW16558   1.603   4.675   3.013
 5220SOL    HW116559   1.605   4.732   2.931
 5220SOL    HW216560   1.515   4.685   3.059
 5221SOL     OW16561   0.072   0.284   1.959
 5221SOL    HW116562   0.164   0.292   1.920
 5221SOL    HW216563   0.079   0.250   2.053
 5222SOL     OW16564   3.874   5.475   2.266
 5222SOL    HW116565   3.870   5.412   2.188
 5222SOL    HW216566   3.861   5.569   2.233
 5223SOL     OW16567   6.968   2.442   1.279
 5223SOL    HW116568   0.004   2.487   1.217
 5223SOL    HW216569   6.922   2.367   1.232
 5224SOL     OW16570   0.146   1.794   4.290
 5224SOL    HW116571   0.132   1.697   4.307
 5224SOL    HW216572   0.090   1.848   4.353
 5225SOL     OW16573   0.265   0.860   4.402
 5225SOL    HW116574   0.295   0.773   4.442
 5225SOL    HW216575   0.305   0.935   4.454
 5226SOL     OW16576   0.265   6.248   3.460
 5226SOL    HW116577   0.194   6.288   3.402
 5226SOL    HW216578   0.252   6.149   3.465
 5227SOL     OW16579   0.193   3.635   5.874
 5227SOL    HW116580   0.197   3.706   5.803
 5227SOL    HW216581   0.197   3.678   5.964
 5228SOL     OW16582   0.993   2.692   6.962
 5228SOL    HW116583   0.981   2.667   0.030
 5228SOL    HW216584   1.042   2.618   6.915
 5229SOL     OW16585   3.129   6.173   6.377
 5229SOL    HW116586   3.053   6.158   6.440
 5229SOL    HW216587   3.191   6.242   6.415
 5230SOL     OW16588   6.241   0.177   2.901
 5230SOL    HW116589   6.213   0.273   2.896
 5230SOL    HW216590   6.219   0.141   2.992
 5231SOL     OW16591   5.061   2.098   3.299
 5231SOL    HW116592   5.007   2.017   3.276
 5231SOL    HW216593   5.157   2.071   3.313
 5232SOL     OW16594   1.699   4.204   6.169
 5232SOL    HW116595   1.606   4.192   6.203
 5232SOL    HW216596   1.750   4.119   6.182
 5233SOL     OW16597   3.197   0.916   1.792
 5233SOL    HW116598   3.135   0.994   1.805
 5233SOL    HW216599   3.236   0.889   1.880
 5234SOL     OW16600   3.290   2.846   6.518
 5234SOL    HW116601   3.274   2.923   6.579
 5234SOL    HW216602   3.264   2.761   6.565
 5235SOL     OW16603   1.988   2.062   0.666
 5235SOL    HW116604   2.021   2.156   0.662
 5235SOL    HW216605   2.065   2.001   0.685
 5236SOL     OW16606   3.119   5.054   1.751
 5236SOL    HW116607   3.076   5.071   1.839
 5236SOL    HW216608   3.185   4.979   1.759
 5237SOL     OW16609   2.452   1.174   4.697
 5237SOL    HW116610   2.520   1.108   4.663
 5237SOL    HW216611   2.496   1.238   4.759
 5238SOL     OW16612   1.025   5.154   1.453
 5238SOL    HW116613   1.104   5.101   1.422
 5238SOL    HW216614   1.031   5.247   1.417
 5239SOL     OW16615   3.191   3.770   0.986
 5239SOL    HW116616   3.210   3.674   1.005
 5239SOL    HW216617   3.265   3.827   1.023
 5240SOL     OW16618   2.691   2.508   5.440
 5240SOL    HW116619   2.624   2.494   5.367
 5240SOL    HW216620   2.768   2.446   5.427
 5241SOL     OW16621   0.536   5.824   2.324
 5241SOL    HW116622   0.582   5.757   2.264
 5241SOL    HW216623   0.575   5.914   2.309
 5242SOL     OW16624   4.916   0.048   2.004
 5242SOL    HW116625   4.826   0.061   2.045
 5242SOL    HW216626   4.976   0.123   2.030
 5243SOL     OW16627   2.216   6.230   2.022
 5243SOL    HW116628   2.154   6.243   1.944
 5243SOL    HW216629   2.276   6.309   2.030
 5244SOL     OW16630   5.352   3.489   0.433
 5244SOL    HW116631   5.269   3.435   0.446
 5244SOL    HW216632   5.392   3.510   0.522
 5245SOL     OW16633   4.023   4.492   0.904
 5245SOL    HW116634   4.045   4.396   0.920
 5245SOL    HW216635   3.933   4.499   0.862
 5246SOL     OW16636   6.260   2.390   2.124
 5246SOL    HW116637   6.281   2.487   2.136
 5246SOL    HW216638   6.214   2.377   2.036
 5247SOL     OW16639   3.754   0.940   5.951
 5247SOL    HW116640   3.672   0.968   5.902
 5247SOL    HW216641   3.776   1.009   6.020
 5248SOL     OW16642   0.177   1.536   2.879
 5248SOL    HW116643   0.209   1.630   2.890
 5248SOL    HW216644   0.184   1.487   2.966
 5249SOL     OW16645   1.698   5.548   6.485
 5249SOL    HW116646   1.602   5.527   6.504
 5249SOL    HW216647   1.743   5.575   6.570
 5250SOL     OW16648   1.235   5.949   0.415
 5250SOL    HW116649   1.144   5.984   0.392
 5250SOL    HW216650   1.295   6.025   0.437
 5251SOL     OW16651   1.004   4.697   0.873
 5251SOL    HW116652   0.923   4.661   0.920
 5251SOL    HW216653   0.981   4.717   0.778
 5252SOL     OW16654   3.026   6.613   2.017
 5252SOL    HW116655   3.002   6.566   2.102
 5252SOL    HW216656   3.095   6.684   2.037
 5253SOL     OW16657   6.417   3.914   4.948
 5253SOL    HW116658   6.480   3.980   4.909
 5253SOL    HW216659   6.336   3.906   4.890
 5254SOL     OW16660   6.292   0.340   3.300
 5254SOL    HW116661   6.194   0.319   3.294
 5254SOL    HW216662   6.304   0.437   3.324
 5255SOL     OW16663   5.376   2.356   5.032
 5255SOL    HW116664   5.424   2.361   5.120
 5255SOL    HW216665   5.409   2.429   4.972
 5256SOL     OW16666   5.156   1.768   4.024
 5256SOL    HW116667   5.069   1.803   4.060
 5256SOL    HW216668   5.205   1.721   4.097
 5257SOL     OW16669   4.815   6.950   1.195
 5257SOL    HW116670   4.803   6.851   1.183
 5257SOL    HW216671   4.809   6.995   1.106
 5258SOL     OW16672   5.561   2.129   2.914
 5258SOL    HW116673   5.463   2.111   2.912
 5258SOL    HW216674   5.584   2.199   2.846
 5259SOL     OW16675   4.542   5.658   2.586
 5259SOL    HW116676   4.501   5.657   2.495
 5259SOL    HW216677   4.504   5.734   2.639
 5260SOL     OW16678   3.882   5.500   0.467
 5260SOL    HW116679   3.863   5.535   0.558
 5260SOL    HW216680   3.866   5.401   0.466
 5261SOL     OW16681   0.455   4.176   6.601
 5261SOL    HW116682   0.413   4.232   6.672
 5261SOL    HW216683   0.492   4.235   6.529
 5262SOL     OW16684   2.968   0.916   3.606
 5262SOL    HW116685   2.968   0.987   3.536
 5262SOL    HW216686   3.023   0.946   3.684
 5263SOL     OW16687   1.667   1.354   2.719
 5263SOL    HW116688   1.742   1.412   2.687
 5263SOL    HW216689   1.665   1.269   2.666
 5264SOL     OW16690   6.739   2.257   1.748
 5264SOL    HW116691   6.766   2.279   1.842
 5264SOL    HW216692   6.809   2.199   1.707
 5265SOL     OW16693   6.333   3.153   4.609
 5265SOL    HW116694   6.402   3.196   4.550
 5265SOL    HW216695   6.292   3.223   4.668
 5266SOL     OW16696   2.924   5.508   0.380
 5266SOL    HW116697   2.904   5.579   0.447
 5266SOL    HW216698   2.875   5.424   0.405
 5267SOL     OW16699   4.874   2.444   4.658
 5267SOL    HW116700   4.808   2.475   4.726
 5267SOL    HW216701   4.826   2.412   4.576
 5268SOL     OW16702   5.221   0.585   6.573
 5268SOL    HW116703   5.136   0.535   6.589
 5268SOL    HW216704   5.249   0.628   6.659
 5269SOL     OW16705   0.653   6.477   2.194
 5269SOL    HW116706   0.631   6.411   2.123
 5269SOL    HW216707   0.644   6.570   2.157
 5270SOL     OW16708   5.703   1.188   1.610
 5270SOL    HW116709   5.676   1.204   1.515
 5270SOL    HW216710   5.802   1.177   1.615
 5271SOL     OW16711   5.855   4.959   5.332
 5271SOL    HW116712   5.877   4.919   5.421
 5271SOL    HW216713   5.804   5.044   5.345
 5272SOL     OW16714   3.259   5.684   1.215
 5272SOL    HW116715   3.229   5.636   1.132
 5272SOL    HW216716   3.181   5.692   1.278
 5273SOL     OW16717   0.579   3.487   2.438
 5273SOL    HW116718   0.573   3.515   2.343
 5273SOL    HW216719   0.637   3.551   2.488
 5274SOL     OW16720   5.293   6.998   2.795
 5274SOL    HW116721   5.324   0.064   2.781
 5274SOL    HW216722   5.230   6.995   2.872
 5275SOL     OW16723   3.641   1.629   0.616
 5275SOL    HW116724   3.649   1.613   0.715
 5275SOL    HW216725   3.578   1.563   0.577
 5276SOL     OW16726   2.168   0.228   1.381
 5276SOL    HW116727   2.082   0.250   1.429
 5276SOL    HW216728   2.174   0.283   1.298
 5277SOL     OW16729   2.570   0.989   3.100
 5277SOL    HW116730   2.571   1.067   3.037
 5277SOL    HW216731   2.476   0.958   3.113
 5278SOL     OW16732   4.797   5.518   4.223
 5278SOL    HW116733   4.850   5.533   4.140
 5278SOL    HW216734   4.748   5.431   4.216
 5279SOL     OW16735   2.881   5.816   0.794
 5279SOL    HW116736   2.802   5.813   0.856
 5279SOL    HW216737   2.927   5.904   0.805
 5280SOL     OW16738   2.784   6.041   4.978
 5280SOL    HW116739   2.812   6.062   5.071
 5280SOL    HW216740   2.812   5.948   4.954
 5281SOL     OW16741   6.175   2.057   2.386
 5281SOL    HW116742   6.180   1.995   2.464
 5281SOL    HW216743   6.228   2.019   2.310
 5282SOL     OW16744   2.917   1.567   3.703
 5282SOL    HW116745   2.999   1.527   3.746
 5282SOL    HW216746   2.942   1.604   3.613
 5283SOL     OW16747   4.741   6.730   2.025
 5283SOL    HW116748   4.746   6.824   1.990
 5283SOL    HW216749   4.834   6.697   2.043
 5284SOL     OW16750   5.264   4.563   3.025
 5284SOL    HW116751   5.215   4.557   3.112
 5284SOL    HW216752   5.217   4.508   2.956
 5285SOL     OW16753   3.026   4.923   4.300
 5285SOL    HW116754   2.960   4.910   4.226
 5285SOL    HW216755   3.108   4.966   4.264
 5286SOL     OW16756   2.191   4.136   1.063
 5286SOL    HW116757   2.101   4.093   1.048
 5286SOL    HW216758   2.182   4.235   1.054
 5287SOL     OW16759   2.573   1.482   0.951
 5287SOL    HW116760   2.595   1.472   1.048
 5287SOL    HW216761   2.654   1.459   0.896
 5288SOL     OW16762   3.946   0.276   1.491
 5288SOL    HW116763   3.942   0.299   1.393
 5288SOL    HW216764   3.883   0.201   1.510
 5289SOL     OW16765   1.610   4.872   0.232
 5289SOL    HW116766   1.665   4.806   0.181
 5289SOL    HW216767   1.588   4.950   0.173
 5290SOL     OW16768   2.977   5.535   6.614
 5290SOL    HW116769   2.898   5.489   6.655
 5290SOL    HW216770   3.051   5.538   6.681
 5291SOL     OW16771   2.443   5.425   5.522
 5291SOL    HW116772   2.466   5.480   5.441
 5291SOL    HW216773   2.459   5.479   5.604
 5292SOL     OW16774   6.286   3.117   0.232
 5292SOL    HW116775   6.240   3.028   0.231
 5292SOL    HW216776   6.347   3.122   0.311
 5293SOL     OW16777   0.439   1.108   5.194
 5293SOL    HW116778   0.427   1.169   5.116
 5293SOL    HW216779   0.499   1.151   5.261
 5294SOL     OW16780   5.654   3.217   6.726
 5294SOL    HW116781   5.647   3.297   6.668
 5294SOL    HW216782   5.589   3.225   6.802
 5295SOL     OW16783   5.552   1.290   3.041
 5295SOL    HW116784   5.459   1.258   3.054
 5295SOL    HW216785   5.575   1.290   2.943
 5296SOL     OW16786   1.627   5.062   6.998
 5296SOL    HW116787   1.677   5.014   6.926
 5296SOL    HW216788   1.537   5.090   6.964
 5297SOL     OW16789   2.183   2.055   0.965
 5297SOL    HW116790   2.202   2.036   0.869
 5297SOL    HW216791   2.233   2.138   0.993
 5298SOL     OW16792   6.523   5.340   2.077
 5298SOL    HW116793   6.488   5.418   2.130
 5298SOL    HW216794   6.621   5.330   2.094
 5299SOL     OW16795   2.568   0.625   1.620
 5299SOL    HW116796   2.541   0.721   1.626
 5299SOL    HW216797   2.630   0.612   1.542
 5300SOL     OW16798   0.168   5.399   3.143
 5300SOL    HW116799   0.250   5.343   3.144
 5300SOL    HW216800   0.098   5.354   3.087
 5301SOL     OW16801   3.978   1.633   6.767
 5301SOL    HW116802   3.941   1.543   6.743
 5301SOL    HW216803   4.078   1.628   6.769
 5302SOL     OW16804   6.640   4.150   2.628
 5302SOL    HW116805   6.649   4.200   2.542
 5302SOL    HW216806   6.544   4.149   2.656
 5303SOL     OW16807   6.499   5.452   3.848
 5303SOL    HW116808   6.451   5.500   3.921
 5303SOL    HW216809   6.441   5.446   3.767
 5304SOL     OW16810   5.136   1.951   6.287
 5304SOL    HW116811   5.114   2.042   6.323
 5304SOL    HW216812   5.191   1.961   6.204
 5305SOL     OW16813   1.714   0.717   4.230
 5305SOL    HW116814   1.627   0.699   4.184
 5305SOL    HW216815   1.781   0.749   4.163
 5306SOL     OW16816   2.665   5.819   5.136
 5306SOL    HW116817   2.622   5.909   5.143
 5306SOL    HW216818   2.743   5.825   5.073
 5307SOL     OW16819   4.498   6.259   5.941
 5307SOL    HW116820   4.450   6.346   5.937
 5307SOL    HW216821   4.540   6.240   5.852
 5308SOL     OW16822   0.433   0.491   4.147
 5308SOL    HW116823   0.372   0.412   4.155
 5308SOL    HW216824   0.381   0.571   4.121
 5309SOL     OW16825   3.753   4.043   3.556
 5309SOL    HW116826   3.715   3.955   3.584
 5309SOL    HW216827   3.685   4.092   3.500
 5310SOL     OW16828   5.017   2.526   1.680
 5310SOL    HW116829   5.043   2.583   1.758
 5310SOL    HW216830   4.917   2.527   1.669
 5311SOL     OW16831   1.443   5.436   0.019
 5311SOL    HW116832   1.497   5.420   6.964
 5311SOL    HW216833   1.500   5.419   0.099
 5312SOL     OW16834   0.979   4.645   2.295
 5312SOL    HW116835   0.986   4.743   2.275
 5312SOL    HW216836   1.003   4.628   2.391
 5313SOL     OW16837   0.908   5.888   6.826
 5313SOL    HW116838   0.934   5.979   6.796
 5313SOL    HW216839   0.924   5.822   6.752
 5314SOL     OW16840   4.173   5.240   0.117
 5314SOL    HW116841   4.173   5.327   0.168
 5314SOL    HW216842   4.268   5.213   0.097
 5315SOL     OW16843   4.724   4.299   2.137
 5315SOL    HW116844   4.644   4.278   2.082
 5315SOL    HW216845   4.705   4.281   2.234
 5316SOL     OW16846   6.901   5.104   5.111
 5316SOL    HW116847   6.832   5.162   5.067
 5316SOL    HW216848   6.909   5.018   5.061
 5317SOL     OW16849   5.641   1.003   3.242
 5317SOL    HW116850   5.562   1.055   3.275
 5317SOL    HW216851   5.711   1.067   3.209
 5318SOL     OW16852   6.952   2.516   4.965
 5318SOL    HW116853   6.969   2.597   5.021
 5318SOL    HW216854   6.879   2.461   5.006
 5319SOL     OW16855   5.891   6.910   6.569
 5319SOL    HW116856   5.979   6.914   6.616
 5319SOL    HW216857   5.859   6.815   6.565
 5320SOL     OW16858   6.088   3.903   6.849
 5320SOL    HW116859   6.097   3.834   6.776
 5320SOL    HW216860   6.038   3.982   6.814
 5321SOL     OW16861   1.542   5.009   4.457
 5321SOL    HW116862   1.473   4.949   4.416
 5321SOL    HW216863   1.610   4.954   4.505
 5322SOL     OW16864   3.960   6.392   6.917
 5322SOL    HW116865   3.971   6.315   6.980
 5322SOL    HW216866   3.937   6.475   6.968
 5323SOL     OW16867   4.405   2.147   0.725
 5323SOL    HW116868   4.392   2.140   0.626
 5323SOL    HW216869   4.357   2.227   0.760
 5324SOL     OW16870   3.927   2.503   1.729
 5324SOL    HW116871   3.921   2.548   1.640
 5324SOL    HW216872   3.839   2.461   1.751
 5325SOL     OW16873   4.796   6.611   2.572
 5325SOL    HW116874   4.734   6.549   2.524
 5325SOL    HW216875   4.890   6.589   2.549
 5326SOL     OW16876   6.924   5.634   1.628
 5326SOL    HW116877   6.900   5.540   1.653
 5326SOL    HW216878   6.908   5.647   1.530
 5327SOL     OW16879   0.514   6.934   4.737
 5327SOL    HW116880   0.439   7.000   4.742
 5327SOL    HW216881   0.599   6.983   4.716
 5328SOL     OW16882   3.920   3.412   6.391
 5328SOL    HW116883   4.011   3.382   6.420
 5328SOL    HW216884   3.851   3.365   6.446
 5329SOL     OW16885   0.512   4.631   0.061
 5329SOL    HW116886   0.591   4.580   0.027
 5329SOL    HW216887   0.504   4.717   0.010
 5330SOL     OW16888   3.971   3.766   0.425
 5330SOL    HW116889   4.041   3.833   0.399
 5330SOL    HW216890   3.888   3.814   0.452
 5331SOL     OW16891   4.740   2.150   0.603
 5331SOL    HW116892   4.761   2.233   0.550
 5331SOL    HW216893   4.708   2.176   0.694
 5332SOL     OW16894   6.505   5.071   0.334
 5332SOL    HW116895   6.462   5.112   0.415
 5332SOL    HW216896   6.455   4.989   0.308
 5333SOL     OW16897   2.276   1.317   3.641
 5333SOL    HW116898   2.356   1.377   3.631
 5333SOL    HW216899   2.197   1.361   3.599
 5334SOL     OW16900   4.446   4.819   3.556
 5334SOL    HW116901   4.371   4.841   3.619
 5334SOL    HW216902   4.530   4.804   3.608
 5335SOL     OW16903   6.830   4.624   2.664
 5335SOL    HW116904   6.879   4.644   2.749
 5335SOL    HW216905   6.842   4.528   2.641
 5336SOL     OW16906   2.012   1.625   4.127
 5336SOL    HW116907   2.002   1.601   4.223
 5336SOL    HW216908   1.943   1.694   4.102
 5337SOL     OW16909   6.142   4.232   1.667
 5337SOL    HW116910   6.210   4.184   1.612
 5337SOL    HW216911   6.187   4.306   1.717
 5338SOL     OW16912   6.384   2.766   0.221
 5338SOL    HW116913   6.351   2.673   0.203
 5338SOL    HW216914   6.479   2.773   0.190
 5339SOL     OW16915   5.925   2.100   2.322
 5339SOL    HW116916   6.024   2.095   2.340
 5339SOL    HW216917   5.909   2.156   2.241
 5340SOL     OW16918   5.420   2.952   2.143
 5340SOL    HW116919   5.497   2.890   2.160
 5340SOL    HW216920   5.393   2.946   2.047
 5341SOL     OW16921   4.490   4.789   3.287
 5341SOL    HW116922   4.460   4.882   3.263
 5341SOL    HW216923   4.463   4.769   3.382
 5342SOL     OW16924   5.977   0.100   5.750
 5342SOL    HW116925   6.063   0.087   5.700
 5342SOL    HW216926   5.901   0.067   5.695
 5343SOL     OW16927   3.686   3.628   5.819
 5343SOL    HW116928   3.653   3.710   5.772
 5343SOL    HW216929   3.639   3.548   5.782
 5344SOL     OW16930   0.560   1.374   0.134
 5344SOL    HW116931   0.482   1.346   0.078
 5344SOL    HW216932   0.642   1.378   0.077
 5345SOL     OW16933   4.940   1.448   6.583
 5345SOL    HW116934   4.964   1.500   6.665
 5345SOL    HW216935   4.845   1.467   6.559
 5346SOL     OW16936   2.867   5.144   3.864
 5346SOL    HW116937   2.777   5.111   3.836
 5346SOL    HW216938   2.887   5.230   3.817
 5347SOL     OW16939   6.726   2.488   3.564
 5347SOL    HW116940   6.699   2.457   3.473
 5347SOL    HW216941   6.662   2.559   3.595
 5348SOL     OW16942   5.658   1.582   4.558
 5348SOL    HW116943   5.676   1.486   4.538
 5348SOL    HW216944   5.701   1.640   4.488
 5349SOL     OW16945   0.811   2.872   1.879
 5349SOL    HW116946   0.787   2.825   1.964
 5349SOL    HW216947   0.764   2.829   1.802
 5350SOL     OW16948   1.769   6.748   5.747
 5350SOL    HW116949   1.724   6.664   5.719
 5350SOL    HW216950   1.727   6.783   5.831
 5351SOL     OW16951   0.333   5.392   1.201
 5351SOL    HW116952   0.308   5.302   1.239
 5351SOL    HW216953   0.380   5.446   1.271
 5352SOL     OW16954   1.900   3.980   3.238
 5352SOL    HW116955   1.907   3.919   3.317
 5352SOL    HW216956   1.954   4.062   3.254
 5353SOL     OW16957   4.393   5.324   3.761
 5353SOL    HW116958   4.415   5.405   3.814
 5353SOL    HW216959   4.477   5.283   3.726
 5354SOL     OW16960   3.616   5.177   0.868
 5354SOL    HW116961   3.571   5.088   0.860
 5354SOL    HW216962   3.577   5.227   0.945
 5355SOL     OW16963   5.115   5.451   5.410
 5355SOL    HW116964   5.066   5.425   5.327
 5355SOL    HW216965   5.077   5.536   5.447
 5356SOL     OW16966   0.087   4.206   1.905
 5356SOL    HW116967   0.164   4.143   1.904
 5356SOL    HW216968   0.062   4.227   1.999
 5357SOL     OW16969   4.594   4.781   1.983
 5357SOL    HW116970   4.508   4.818   1.948
 5357SOL    HW216971   4.644   4.737   1.908
 5358SOL     OW16972   4.273   1.641   6.790
 5358SOL    HW116973   4.302   1.736   6.777
 5358SOL    HW216974   4.277   1.618   6.887
 5359SOL     OW16975   2.166   1.595   0.238
 5359SOL    HW116976   2.080   1.642   0.257
 5359SOL    HW216977   2.153   1.496   0.245
 5360SOL     OW16978   5.475   5.150   3.801
 5360SOL    HW116979   5.466   5.053   3.776
 5360SOL    HW216980   5.568   5.167   3.835
 5361SOL     OW16981   3.592   6.661   2.803
 5361SOL    HW116982   3.691   6.676   2.809
 5361SOL    HW216983   3.546   6.747   2.782
 5362SOL     OW16984   5.316   6.350   2.210
 5362SOL    HW116985   5.309   6.447   2.186
 5362SOL    HW216986   5.397   6.310   2.166
 5363SOL     OW16987   5.587   6.121   4.775
 5363SOL    HW116988   5.681   6.104   4.805
 5363SOL    HW216989   5.583   6.207   4.725
 5364SOL     OW16990   5.390   0.819   2.822
 5364SOL    HW116991   5.292   0.809   2.805
 5364SOL    HW216992   5.424   0.738   2.868
 5365SOL     OW16993   2.984   3.170   3.490
 5365SOL    HW116994   2.957   3.266   3.496
 5365SOL    HW216995   2.917   3.120   3.436
 5366SOL     OW16996   7.027   0.278   1.670
 5366SOL    HW116997   0.037   0.296   1.761
 5366SOL    HW216998   6.950   0.339   1.653
 5367SOL     OW16999   5.902   0.105   0.839
 5367SOL    HW117000   5.816   0.149   0.813
 5367SOL    HW217001   5.890   0.005   0.837
 5368SOL     OW17002   6.603   5.924   2.088
 5368SOL    HW117003   6.651   6.010   2.104
 5368SOL    HW217004   6.551   5.930   2.002
 5369SOL     OW17005   2.620   4.934   2.056
 5369SOL    HW117006   2.587   4.853   2.008
 5369SOL    HW217007   2.684   4.907   2.128
 5370SOL     OW17008   3.759   4.068   1.571
 5370SOL    HW117009   3.703   4.133   1.520
 5370SOL    HW217010   3.701   3.993   1.604
 5371SOL     OW17011   6.583   4.873   4.974
 5371SOL    HW117012   6.666   4.914   4.937
 5371SOL    HW217013   6.503   4.920   4.936
 5372SOL     OW17014   1.752   0.066   2.734
 5372SOL    HW117015   1.689   0.105   2.801
 5372SOL    HW217016   1.718   7.004   2.705
 5373SOL     OW17017   4.337   6.659   5.689
 5373SOL    HW117018   4.416   6.680   5.632
 5373SOL    HW217019   4.261   6.631   5.632
 5374SOL     OW17020   2.666   5.325   1.440
 5374SOL    HW117021   2.656   5.270   1.358
 5374SOL    HW217022   2.764   5.339   1.459
 5375SOL     OW17023   0.762   6.741   5.014
 5375SOL    HW117024   0.842   6.683   4.999
 5375SOL    HW217025   0.695   6.723   4.942
 5376SOL     OW17026   1.101   1.949   0.765
 5376SOL    HW117027   1.054   1.995   0.841
 5376SOL    HW217028   1.174   2.008   0.730
 5377SOL     OW17029   2.035   0.688   2.798
 5377SOL    HW117030   2.079   0.744   2.728
 5377SOL    HW217031   1.935   0.694   2.787
 5378SOL     OW17032   5.846   0.717   1.017
 5378SOL    HW117033   5.844   0.638   1.080
 5378SOL    HW217034   5.864   0.800   1.069
 5379SOL     OW17035   1.693   2.815   5.470
 5379SOL    HW117036   1.710   2.839   5.375
 5379SOL    HW217037   1.633   2.883   5.511
 5380SOL     OW17038   3.932   0.346   1.243
 5380SOL    HW117039   3.888   0.393   1.166
 5380SOL    HW217040   4.018   0.306   1.212
 5381SOL     OW17041   5.348   6.716   3.030
 5381SOL    HW117042   5.440   6.695   2.998
 5381SOL    HW217043   5.282   6.655   2.985
 5382SOL     OW17044   4.278   1.669   2.982
 5382SOL    HW117045   4.313   1.658   2.889
 5382SOL    HW217046   4.329   1.610   3.044
 5383SOL     OW17047   1.320   3.038   4.037
 5383SOL    HW117048   1.257   2.965   4.062
 5383SOL    HW217049   1.405   3.028   4.088
 5384SOL     OW17050   4.329   5.904   5.454
 5384SOL    HW117051   4.358   5.846   5.378
 5384SOL    HW217052   4.388   5.984   5.461
 5385SOL     OW17053   6.509   2.584   6.140
 5385SOL    HW117054   6.564   2.506   6.111
 5385SOL    HW217055   6.414   2.556   6.149
 5386SOL     OW17056   6.307   3.044   4.013
 5386SOL    HW117057   6.236   3.101   4.054
 5386SOL    HW217058   6.350   3.093   3.938
 5387SOL     OW17059   2.736   0.358   2.213
 5387SOL    HW117060   2.655   0.346   2.155
 5387SOL    HW217061   2.709   0.386   2.304
 5388SOL     OW17062   0.802   6.091   2.739
 5388SOL    HW117063   0.820   6.144   2.822
 5388SOL    HW217064   0.728   6.026   2.757
 5389SOL     OW17065   4.397   1.567   4.587
 5389SOL    HW117066   4.315   1.612   4.553
 5389SOL    HW217067   4.432   1.504   4.517
 5390SOL     OW17068   6.563   3.505   4.250
 5390SOL    HW117069   6.624   3.481   4.175
 5390SOL    HW217070   6.468   3.500   4.220
 5391SOL     OW17071   2.375   2.019   0.128
 5391SOL    HW117072   2.363   2.097   0.065
 5391SOL    HW217073   2.389   1.936   0.075
 5392SOL     OW17074   4.413   2.169   3.369
 5392SOL    HW117075   4.316   2.147   3.380
 5392SOL    HW217076   4.465   2.124   3.443
 5393SOL     OW17077   4.114   0.850   5.176
 5393SOL    HW117078   4.178   0.900   5.118
 5393SOL    HW217079   4.142   0.858   5.272
 5394SOL     OW17080   1.698   6.987   0.790
 5394SOL    HW117081   1.650   6.918   0.844
 5394SOL    HW217082   1.797   6.969   0.794
 5395SOL     OW17083   5.513   1.412   1.398
 5395SOL    HW117084   5.588   1.353   1.369
 5395SOL    HW217085   5.548   1.503   1.417
 5396SOL     OW17086   6.003   5.552   2.823
 5396SOL    HW117087   6.083   5.540   2.883
 5396SOL    HW217088   5.923   5.512   2.868
 5397SOL     OW17089   6.222   1.512   3.093
 5397SOL    HW117090   6.198   1.459   3.175
 5397SOL    HW217091   6.321   1.515   3.084
 5398SOL     OW17092   4.507   2.089   3.866
 5398SOL    HW117093   4.577   2.020   3.885
 5398SOL    HW217094   4.522   2.169   3.923
 5399SOL     OW17095   1.802   0.217   5.314
 5399SOL    HW117096   1.885   0.167   5.293
 5399SOL    HW217097   1.724   0.173   5.271
 5400SOL     OW17098   3.217   3.025   1.022
 5400SOL    HW117099   3.124   3.005   1.055
 5400SOL    HW217100   3.263   2.940   0.998
 5401SOL     OW17101   5.116   4.440   2.832
 5401SOL    HW117102   5.049   4.479   2.896
 5401SOL    HW217103   5.074   4.364   2.782
 5402SOL     OW17104   2.230   6.971   0.541
 5402SOL    HW117105   2.270   6.881   0.555
 5402SOL    HW217106   2.212   6.985   0.444
 5403SOL     OW17107   5.157   3.155   0.122
 5403SOL    HW117108   5.189   3.066   0.155
 5403SOL    HW217109   5.233   3.219   0.117
 5404SOL     OW17110   0.184   0.944   1.006
 5404SOL    HW117111   0.163   0.979   1.097
 5404SOL    HW217112   0.167   0.846   1.003
 5405SOL     OW17113   5.288   5.557   0.439
 5405SOL    HW117114   5.297   5.514   0.529
 5405SOL    HW217115   5.220   5.630   0.444
 5406SOL     OW17116   2.374   0.884   5.046
 5406SOL    HW117117   2.450   0.869   4.983
 5406SOL    HW217118   2.366   0.982   5.065
 5407SOL     OW17119   2.826   0.687   1.489
 5407SOL    HW117120   2.869   0.599   1.468
 5407SOL    HW217121   2.804   0.735   1.404
 5408SOL     OW17122   2.442   2.136   4.503
 5408SOL    HW117123   2.532   2.117   4.542
 5408SOL    HW217124   2.453   2.186   4.417
 5409SOL     OW17125   6.715   2.773   1.637
 5409SOL    HW117126   6.767   2.754   1.721
 5409SOL    HW217127   6.776   2.766   1.558
 5410SOL     OW17128   0.437   2.274   1.358
 5410SOL    HW117129   0.486   2.243   1.276
 5410SOL    HW217130   0.503   2.307   1.425
 5411SOL     OW17131   4.796   5.018   6.696
 5411SOL    HW117132   4.895   5.030   6.690
 5411SOL    HW217133   4.763   5.058   6.781
 5412SOL     OW17134   1.083   1.518   6.376
 5412SOL    HW117135   1.027   1.599   6.389
 5412SOL    HW217136   1.132   1.524   6.290
 5413SOL     OW17137   6.544   7.015   5.461
 5413SOL    HW117138   6.463   7.022   5.403
 5413SOL    HW217139   6.595   0.073   5.457
 5414SOL     OW17140   6.797   4.785   5.592
 5414SOL    HW117141   6.825   4.711   5.531
 5414SOL    HW217142   6.738   4.748   5.664
 5415SOL     OW17143   3.135   0.118   0.254
 5415SOL    HW117144   3.203   0.106   0.326
 5415SOL    HW217145   3.047   0.082   0.285
 5416SOL     OW17146   2.784   4.936   5.442
 5416SOL    HW117147   2.772   4.987   5.356
 5416SOL    HW217148   2.832   4.851   5.424
 5417SOL     OW17149   4.894   6.012   3.461
 5417SOL    HW117150   4.826   6.044   3.527
 5417SOL    HW217151   4.861   5.927   3.418
 5418SOL     OW17152   5.917   4.468   4.365
 5418SOL    HW117153   5.854   4.542   4.385
 5418SOL    HW217154   6.011   4.502   4.367
 5419SOL     OW17155   4.203   0.025   6.945
 5419SOL    HW117156   4.231   6.965   6.908
 5419SOL    HW217157   4.198   0.092   6.871
 5420SOL     OW17158   1.685   1.500   1.248
 5420SOL    HW117159   1.613   1.447   1.292
 5420SOL    HW217160   1.760   1.438   1.223
 5421SOL     OW17161   3.395   5.297   1.982
 5421SOL    HW117162   3.406   5.308   2.081
 5421SOL    HW217163   3.418   5.383   1.936
 5422SOL     OW17164   1.819   5.933   3.938
 5422SOL    HW117165   1.795   5.836   3.930
 5422SOL    HW217166   1.825   5.958   4.034
 5423SOL     OW17167   6.320   6.165   2.061
 5423SOL    HW117168   6.283   6.087   2.010
 5423SOL    HW217169   6.306   6.149   2.159
 5424SOL     OW17170   4.711   4.079   5.096
 5424SOL    HW117171   4.781   4.056   5.163
 5424SOL    HW217172   4.646   4.144   5.136
 5425SOL     OW17173   0.377   3.379   5.561
 5425SOL    HW117174   0.384   3.306   5.629
 5425SOL    HW217175   0.386   3.468   5.606
 5426SOL     OW17176   5.263   5.328   2.144
 5426SOL    HW117177   5.275   5.324   2.045
 5426SOL    HW217178   5.177   5.374   2.166
 5427SOL     OW17179   5.009   2.608   6.954
 5427SOL    HW117180   5.093   2.578   7.001
 5427SOL    HW217181   4.987   2.544   6.880
 5428SOL     OW17182   6.459   5.361   3.005
 5428SOL    HW117183   6.366   5.324   3.010
 5428SOL    HW217184   6.508   5.317   2.930
 5429SOL     OW17185   2.936   0.641   3.690
 5429SOL    HW117186   2.961   0.738   3.691
 5429SOL    HW217187   2.840   0.631   3.717
 5430SOL     OW17188   2.665   3.864   6.187
 5430SOL    HW117189   2.720   3.880   6.105
 5430SOL    HW217190   2.590   3.802   6.164
 5431SOL     OW17191   3.074   5.416   6.393
 5431SOL    HW117192   3.030   5.452   6.475
 5431SOL    HW217193   3.067   5.316   6.392
 5432SOL     OW17194   5.436   5.733   1.315
 5432SOL    HW117195   5.515   5.672   1.313
 5432SOL    HW217196   5.466   5.827   1.300
 5433SOL     OW17197   1.413   0.012   0.940
 5433SOL    HW117198   1.488   0.073   0.966
 5433SOL    HW217199   1.335   0.067   0.908
 5434SOL     OW17200   4.890   1.261   4.939
 5434SOL    HW117201   4.863   1.187   5.000
 5434SOL    HW217202   4.809   1.296   4.891
 5435SOL     OW17203   6.594   3.896   0.808
 5435SOL    HW117204   6.515   3.863   0.859
 5435SOL    HW217205   6.644   3.818   0.770
 5436SOL     OW17206   1.220   5.514   2.307
 5436SOL    HW117207   1.271   5.506   2.221
 5436SOL    HW217208   1.177   5.603   2.312
 5437SOL     OW17209   3.736   5.261   0.187
 5437SOL    HW117210   3.769   5.354   0.201
 5437SOL    HW217211   3.678   5.234   0.264
 5438SOL     OW17212   4.694   4.204   2.404
 5438SOL    HW117213   4.684   4.150   2.487
 5438SOL    HW217214   4.643   4.289   2.414
 5439SOL     OW17215   1.022   4.110   1.113
 5439SOL    HW117216   1.092   4.073   1.051
 5439SOL    HW217217   0.952   4.157   1.059
 5440SOL     OW17218   5.818   6.111   3.265
 5440SOL    HW117219   5.855   6.023   3.236
 5440SOL    HW217220   5.753   6.097   3.340
 5441SOL     OW17221   4.616   2.667   3.744
 5441SOL    HW117222   4.561   2.750   3.749
 5441SOL    HW217223   4.577   2.606   3.675
 5442SOL     OW17224   5.098   6.980   4.383
 5442SOL    HW117225   5.177   6.933   4.422
 5442SOL    HW217226   5.056   0.009   4.453
 5443SOL     OW17227   4.850   6.651   5.229
 5443SOL    HW117228   4.824   6.745   5.252
 5443SOL    HW217229   4.813   6.588   5.298
 5444SOL     OW17230   0.264   1.259   3.940
 5444SOL    HW117231   0.353   1.274   3.985
 5444SOL    HW217232   0.264   1.170   3.895
 5445SOL     OW17233   5.218   5.354   5.706
 5445SOL    HW117234   5.132   5.325   5.748
 5445SOL    HW217235   5.199   5.395   5.617
 5446SOL     OW17236   0.194   4.883   5.196
 5446SOL    HW117237   0.206   4.837   5.283
 5446SOL    HW217238   0.121   4.951   5.203
 5447SOL     OW17239   1.485   1.962   0.570
 5447SOL    HW117240   1.566   1.931   0.521
 5447SOL    HW217241   1.505   1.966   0.668
 5448SOL     OW17242   4.540   5.675   3.706
 5448SOL    HW117243   4.632   5.713   3.696
 5448SOL    HW217244   4.509   5.688   3.801
 5449SOL     OW17245   3.180   1.635   2.083
 5449SOL    HW117246   3.142   1.723   2.112
 5449SOL    HW217247   3.137   1.561   2.134
 5450SOL     OW17248   4.163   6.338   1.571
 5450SOL    HW117249   4.222   6.271   1.527
 5450SOL    HW217250   4.187   6.345   1.668
 5451SOL     OW17251   1.250   0.257   3.267
 5451SOL    HW117252   1.159   0.291   3.239
 5451SOL    HW217253   1.320   0.323   3.239
 5452SOL     OW17254   1.766   4.837   1.852
 5452SOL    HW117255   1.718   4.808   1.769
 5452SOL    HW217256   1.727   4.791   1.932
 5453SOL     OW17257   6.161   4.078   3.283
 5453SOL    HW117258   6.112   4.152   3.238
 5453SOL    HW217259   6.207   4.113   3.364
 5454SOL     OW17260   6.283   5.607   2.926
 5454SOL    HW117261   6.351   5.534   2.917
 5454SOL    HW217262   6.302   5.679   2.860
 5455SOL     OW17263   0.169   1.759   2.375
 5455SOL    HW117264   0.150   1.665   2.346
 5455SOL    HW217265   0.171   1.763   2.475
 5456SOL     OW17266   5.075   0.825   6.498
 5456SOL    HW117267   5.120   0.736   6.507
 5456SOL    HW217268   5.075   0.871   6.587
 5457SOL     OW17269   6.552   2.637   0.828
 5457SOL    HW117270   6.524   2.642   0.924
 5457SOL    HW217271   6.573   2.729   0.795
 5458SOL     OW17272   6.323   4.115   1.470
 5458SOL    HW117273   6.227   4.115   1.442
 5458SOL    HW217274   6.366   4.199   1.438
 5459SOL     OW17275   1.412   4.627   5.762
 5459SOL    HW117276   1.409   4.713   5.813
 5459SOL    HW217277   1.505   4.592   5.761
 5460SOL     OW17278   1.840   0.885   0.528
 5460SOL    HW117279   1.846   0.932   0.441
 5460SOL    HW217280   1.930   0.848   0.553
 5461SOL     OW17281   0.103   1.619   6.150
 5461SOL    HW117282   0.041   1.586   6.222
 5461SOL    HW217283   0.092   1.718   6.140
 5462SOL     OW17284   5.357   6.030   6.430
 5462SOL    HW117285   5.362   5.950   6.490
 5462SOL    HW217286   5.294   6.012   6.355
 5463SOL     OW17287   0.216   2.807   6.515
 5463SOL    HW117288   0.304   2.821   6.560
 5463SOL    HW217289   0.197   2.882   6.453
 5464SOL     OW17290   5.955   6.400   5.609
 5464SOL    HW117291   5.914   6.439   5.526
 5464SOL    HW217292   5.967   6.302   5.597
 5465SOL     OW17293   6.591   6.405   2.938
 5465SOL    HW117294   6.655   6.401   3.015
 5465SOL    HW217295   6.497   6.409   2.972
 5466SOL     OW17296   5.765   2.337   5.110
 5466SOL    HW117297   5.730   2.258   5.059
 5466SOL    HW217298   5.827   2.306   5.182
 5467SOL     OW17299   5.699   4.078   3.498
 5467SOL    HW117300   5.629   4.065   3.428
 5467SOL    HW217301   5.657   4.071   3.589
 5468SOL     OW17302   6.703   1.861   2.489
 5468SOL    HW117303   6.739   1.815   2.408
 5468SOL    HW217304   6.603   1.856   2.487
 5469SOL     OW17305   1.772   0.621   5.795
 5469SOL    HW117306   1.732   0.602   5.884
 5469SOL    HW217307   1.826   0.541   5.765
 5470SOL     OW17308   3.904   5.253   5.057
 5470SOL    HW117309   3.989   5.295   5.025
 5470SOL    HW217310   3.922   5.160   5.087
 5471SOL     OW17311   4.896   6.934   2.446
 5471SOL    HW117312   4.978   6.926   2.503
 5471SOL    HW217313   4.917   6.904   2.353
 5472SOL     OW17314   3.080   2.218   6.576
 5472SOL    HW117315   3.054   2.313   6.597
 5472SOL    HW217316   3.098   2.209   6.478
 5473SOL     OW17317   1.648   4.978   0.875
 5473SOL    HW117318   1.673   4.920   0.952
 5473SOL    HW217319   1.700   4.949   0.794
 5474SOL     OW17320   0.851   5.434   3.740
 5474SOL    HW117321   0.767   5.449   3.793
 5474SOL    HW217322   0.930   5.433   3.802
 5475SOL     OW17323   1.550   2.012   0.029
 5475SOL    HW117324   1.467   2.039   7.009
 5475SOL    HW217325   1.527   1.946   0.100
 5476SOL     OW17326   2.275   5.621   5.153
 5476SOL    HW117327   2.266   5.712   5.194
 5476SOL    HW217328   2.322   5.628   5.065
 5477SOL     OW17329   1.751   4.688   3.534
 5477SOL    HW117330   1.768   4.669   3.437
 5477SOL    HW217331   1.718   4.782   3.545
 5478SOL     OW17332   5.567   5.400   6.540
 5478SOL    HW117333   5.643   5.367   6.596
 5478SOL    HW217334   5.540   5.329   6.475
 5479SOL     OW17335   4.631   1.317   4.857
 5479SOL    HW117336   4.564   1.266   4.803
 5479SOL    HW217337   4.586   1.354   4.938
 5480SOL     OW17338   5.949   4.642   4.946
 5480SOL    HW117339   5.981   4.626   4.853
 5480SOL    HW217340   5.968   4.737   4.972
 5481SOL     OW17341   3.803   1.082   6.178
 5481SOL    HW117342   3.808   1.113   6.273
 5481SOL    HW217343   3.745   1.145   6.126
 5482SOL     OW17344   3.690   3.653   2.301
 5482SOL    HW117345   3.604   3.605   2.312
 5482SOL    HW217346   3.759   3.591   2.262
 5483SOL     OW17347   6.434   2.756   5.913
 5483SOL    HW117348   6.423   2.852   5.936
 5483SOL    HW217349   6.469   2.707   5.993
 5484SOL     OW17350   6.904   6.839   3.889
 5484SOL    HW117351   6.813   6.799   3.896
 5484SOL    HW217352   6.961   6.808   3.965
 5485SOL     OW17353   3.059   0.231   4.449
 5485SOL    HW117354   3.021   0.317   4.481
 5485SOL    HW217355   2.993   0.186   4.388
 5486SOL     OW17356   1.749   0.349   3.600
 5486SOL    HW117357   1.836   0.360   3.552
 5486SOL    HW217358   1.684   0.303   3.539
 5487SOL     OW17359   6.271   4.121   0.307
 5487SOL    HW117360   6.265   4.216   0.338
 5487SOL    HW217361   6.333   4.115   0.229
 5488SOL     OW17362   4.387   2.071   0.454
 5488SOL    HW117363   4.393   1.972   0.449
 5488SOL    HW217364   4.370   2.109   0.363
 5489SOL     OW17365   1.517   4.393   2.033
 5489SOL    HW117366   1.449   4.449   2.080
 5489SOL    HW217367   1.483   4.298   2.029
 5490SOL     OW17368   3.432   0.003   0.271
 5490SOL    HW117369   3.466   0.026   0.362
 5490SOL    HW217370   3.401   0.086   0.225
 5491SOL     OW17371   1.657   4.830   6.510
 5491SOL    HW117372   1.684   4.739   6.541
 5491SOL    HW217373   1.559   4.831   6.491
 5492SOL     OW17374   1.131   1.144   6.148
 5492SOL    HW117375   1.067   1.074   6.117
 5492SOL    HW217376   1.151   1.207   6.072
 5493SOL     OW17377   3.604   3.217   5.399
 5493SOL    HW117378   3.702   3.230   5.382
 5493SOL    HW217379   3.579   3.123   5.374
 5494SOL     OW17380   6.700   3.166   1.184
 5494SOL    HW117381   6.674   3.070   1.173
 5494SOL    HW217382   6.640   3.223   1.129
 5495SOL     OW17383   3.309   3.245   0.867
 5495SOL    HW117384   3.257   3.183   0.926
 5495SOL    HW217385   3.256   3.327   0.849
 5496SOL     OW17386   3.680   5.968   1.254
 5496SOL    HW117387   3.666   5.895   1.321
 5496SOL    HW217388   3.598   6.026   1.251
 5497SOL     OW17389   0.436   1.912   3.198
 5497SOL    HW117390   0.504   1.963   3.146
 5497SOL    HW217391   0.481   1.860   3.270
 5498SOL     OW17392   4.797   1.193   6.688
 5498SOL    HW117393   4.889   1.186   6.650
 5498SOL    HW217394   4.755   1.278   6.656
 5499SOL     OW17395   0.262   0.678   3.246
 5499SOL    HW117396   0.325   0.753   3.266
 5499SOL    HW217397   0.197   0.669   3.321
 5500SOL     OW17398   1.919   5.900   0.019
 5500SOL    HW117399   1.996   5.837   0.009
 5500SOL    HW217400   1.927   5.950   0.105
 5501SOL     OW17401   3.264   0.029   1.832
 5501SOL    HW117402   3.274   0.125   1.861
 5501SOL    HW217403   3.324   0.011   1.755
 5502SOL     OW17404   6.176   4.020   6.190
 5502SOL    HW117405   6.109   3.947   6.176
 5502SOL    HW217406   6.216   4.011   6.281
 5503SOL     OW17407   1.059   5.125   2.922
 5503SOL    HW117408   0.985   5.144   2.858
 5503SOL    HW217409   1.103   5.211   2.949
 5504SOL     OW17410   2.884   1.033   5.045
 5504SOL    HW117411   2.802   1.039   5.103
 5504SOL    HW217412   2.860   1.059   4.951
 5505SOL     OW17413   1.859   6.164   4.877
 5505SOL    HW117414   1.764   6.134   4.884
 5505SOL    HW217415   1.906   6.111   4.806
 5506SOL     OW17416   6.823   0.505   4.756
 5506SOL    HW117417   6.792   0.595   4.726
 5506SOL    HW217418   6.759   0.435   4.723
 5507SOL     OW17419   2.803   6.613   3.215
 5507SOL    HW117420   2.761   6.615   3.124
 5507SOL    HW217421   2.888   6.667   3.213
 5508SOL     OW17422   2.506   1.165   6.817
 5508SOL    HW117423   2.451   1.103   6.873
 5508SOL    HW217424   2.535   1.118   6.734
 5509SOL     OW17425   6.965   5.933   0.603
 5509SOL    HW117426   6.895   5.998   0.634
 5509SOL    HW217427   7.002   5.884   0.682
 5510SOL     OW17428   4.632   6.533   6.923
 5510SOL    HW117429   4.553   6.543   6.863
 5510SOL    HW217430   4.665   6.623   6.950
 5511SOL     OW17431   1.466   0.453   2.985
 5511SOL    HW117432   1.469   0.455   3.085
 5511SOL    HW217433   1.559   0.448   2.949
 5512SOL     OW17434   6.505   2.160   0.560
 5512SOL    HW117435   6.429   2.225   0.553
 5512SOL    HW217436   6.498   2.093   0.486
 5513SOL     OW17437   4.886   4.384   5.057
 5513SOL    HW117438   4.943   4.443   5.000
 5513SOL    HW217439   4.801   4.362   5.009
 5514SOL     OW17440   5.389   5.087   2.608
 5514SOL    HW117441   5.332   5.167   2.588
 5514SOL    HW217442   5.406   5.082   2.706
 5515SOL     OW17443   6.065   3.383   1.367
 5515SOL    HW117444   6.046   3.286   1.350
 5515SOL    HW217445   6.079   3.397   1.465
 5516SOL     OW17446   1.850   2.661   0.577
 5516SOL    HW117447   1.810   2.570   0.579
 5516SOL    HW217448   1.783   2.726   0.542
 5517SOL     OW17449   3.206   2.109   2.352
 5517SOL    HW117450   3.216   2.194   2.403
 5517SOL    HW217451   3.131   2.055   2.391
 5518SOL     OW17452   6.177   5.787   6.173
 5518SOL    HW117453   6.248   5.726   6.209
 5518SOL    HW217454   6.088   5.743   6.180
 5519SOL     OW17455   5.299   3.892   3.235
 5519SOL    HW117456   5.317   3.821   3.167
 5519SOL    HW217457   5.259   3.849   3.316
 5520SOL     OW17458   1.003   4.446   2.780
 5520SOL    HW117459   1.012   4.524   2.841
 5520SOL    HW217460   1.077   4.381   2.798
 5521SOL     OW17461   4.304   5.863   2.008
 5521SOL    HW117462   4.377   5.843   2.074
 5521SOL    HW217463   4.272   5.956   2.022
 5522SOL     OW17464   1.893   3.877   1.361
 5522SOL    HW117465   1.856   3.956   1.311
 5522SOL    HW217466   1.907   3.801   1.296
 5523SOL     OW17467   3.509   6.898   2.671
 5523SOL    HW117468   3.562   6.886   2.588
 5523SOL    HW217469   3.560   6.955   2.736
 5524SOL     OW17470   0.175   6.093   4.761
 5524SOL    HW117471   0.101   6.037   4.799
 5524SOL    HW217472   0.262   6.047   4.773
 5525SOL     OW17473   0.258   4.462   0.045
 5525SOL    HW117474   0.328   4.509   0.099
 5525SOL    HW217475   0.189   4.528   0.015
 5526SOL     OW17476   6.121   3.536   4.561
 5526SOL    HW117477   6.043   3.577   4.513
 5526SOL    HW217478   6.206   3.578   4.529
 5527SOL     OW17479   0.724   3.107   2.686
 5527SOL    HW117480   0.804   3.164   2.706
 5527SOL    HW217481   0.642   3.165   2.685
 5528SOL     OW17482   0.648   2.222   6.138
 5528SOL    HW117483   0.595   2.279   6.200
 5528SOL    HW217484   0.736   2.267   6.118
 5529SOL     OW17485   2.399   0.183   4.472
 5529SOL    HW117486   2.351   0.240   4.404
 5529SOL    HW217487   2.408   0.234   4.557
 5530SOL     OW17488   0.062   2.086   2.039
 5530SOL    HW117489   0.091   2.142   2.116
 5530SOL    HW217490   0.136   2.022   2.015
 5531SOL     OW17491   3.899   3.035   4.389
 5531SOL    HW117492   3.828   3.002   4.452
 5531SOL    HW217493   3.868   3.022   4.295
 5532SOL     OW17494   1.813   1.100   0.838
 5532SOL    HW117495   1.858   1.042   0.906
 5532SOL    HW217496   1.750   1.046   0.784
 5533SOL     OW17497   2.741   0.768   2.230
 5533SOL    HW117498   2.731   0.704   2.154
 5533SOL    HW217499   2.831   0.756   2.272
 5534SOL     OW17500   1.320   3.242   6.532
 5534SOL    HW117501   1.226   3.222   6.503
 5534SOL    HW217502   1.349   3.328   6.490
 5535SOL     OW17503   0.077   3.404   3.077
 5535SOL    HW117504   0.144   3.354   3.132
 5535SOL    HW217505   0.022   3.463   3.136
 5536SOL     OW17506   3.010   0.962   4.034
 5536SOL    HW117507   3.047   0.919   4.117
 5536SOL    HW217508   2.912   0.943   4.028
 5537SOL     OW17509   3.364   1.416   4.666
 5537SOL    HW117510   3.453   1.411   4.620
 5537SOL    HW217511   3.317   1.500   4.637
 5538SOL     OW17512   3.523   6.893   4.793
 5538SOL    HW117513   3.443   6.832   4.788
 5538SOL    HW217514   3.542   6.930   4.702
 5539SOL     OW17515   0.678   1.799   1.005
 5539SOL    HW117516   0.695   1.832   0.912
 5539SOL    HW217517   0.622   1.717   1.003
 5540SOL     OW17518   5.417   3.095   1.856
 5540SOL    HW117519   5.317   3.089   1.849
 5540SOL    HW217520   5.456   3.003   1.851
 5541SOL     OW17521   5.242   3.165   5.919
 5541SOL    HW117522   5.173   3.093   5.917
 5541SOL    HW217523   5.241   3.209   6.009
 5542SOL     OW17524   5.752   6.392   5.794
 5542SOL    HW117525   5.844   6.395   5.755
 5542SOL    HW217526   5.687   6.436   5.731
 5543SOL     OW17527   1.947   5.295   6.132
 5543SOL    HW117528   1.859   5.308   6.176
 5543SOL    HW217529   1.938   5.316   6.034
 5544SOL     OW17530   5.558   5.574   5.792
 5544SOL    HW117531   5.642   5.624   5.769
 5544SOL    HW217532   5.479   5.624   5.757
 5545SOL     OW17533   4.831   0.945   2.413
 5545SOL    HW117534   4.927   0.960   2.438
 5545SOL    HW217535   4.823   0.947   2.313
 5546SOL     OW17536   1.108   6.333   4.004
 5546SOL    HW117537   1.065   6.244   3.990
 5546SOL    HW217538   1.206   6.326   3.984
 5547SOL     OW17539   3.920   1.257   4.846
 5547SOL    HW117540   3.940   1.198   4.768
 5547SOL    HW217541   3.821   1.267   4.856
 5548SOL     OW17542   6.570   4.068   5.912
 5548SOL    HW117543   6.521   4.154   5.927
 5548SOL    HW217544   6.636   4.079   5.838
 5549SOL     OW17545   4.006   4.001   1.055
 5549SOL    HW117546   4.083   3.963   1.106
 5549SOL    HW217547   3.963   4.074   1.108
 5550SOL     OW17548   2.407   4.315   1.999
 5550SOL    HW117549   2.435   4.366   2.080
 5550SOL    HW217550   2.480   4.318   1.930
 5551SOL     OW17551   1.610   6.454   2.740
 5551SOL    HW117552   1.530   6.492   2.787
 5551SOL    HW217553   1.682   6.523   2.737
 5552SOL     OW17554   6.281   0.884   6.831
 5552SOL    HW117555   6.198   0.829   6.831
 5552SOL    HW217556   6.297   0.921   6.739
 5553SOL     OW17557   4.506   6.555   6.323
 5553SOL    HW117558   4.501   6.655   6.324
 5553SOL    HW217559   4.580   6.525   6.262
 5554SOL     OW17560   5.020   2.349   0.946
 5554SOL    HW117561   5.092   2.400   0.994
 5554SOL    HW217562   5.002   2.391   0.857
 5555SOL     OW17563   1.185   3.630   2.485
 5555SOL    HW117564   1.095   3.617   2.444
 5555SOL    HW217565   1.200   3.562   2.557
 5556SOL     OW17566   6.229   1.643   3.800
 5556SOL    HW117567   6.139   1.647   3.757
 5556SOL    HW217568   6.274   1.732   3.792
 5557SOL     OW17569   3.963   5.792   1.929
 5557SOL    HW117570   3.869   5.824   1.941
 5557SOL    HW217571   4.027   5.860   1.963
 5558SOL     OW17572   3.220   3.334   6.553
 5558SOL    HW117573   3.287   3.400   6.519
 5558SOL    HW217574   3.156   3.312   6.479
 5559SOL     OW17575   1.773   0.261   1.926
 5559SOL    HW117576   1.732   0.351   1.910
 5559SOL    HW217577   1.870   0.263   1.900
 5560SOL     OW17578   6.916   5.441   1.089
 5560SOL    HW117579   6.972   5.512   1.130
 5560SOL    HW217580   6.836   5.423   1.147
 5561SOL     OW17581   2.216   0.747   4.373
 5561SOL    HW117582   2.205   0.687   4.294
 5561SOL    HW217583   2.134   0.744   4.430
 5562SOL     OW17584   4.113   2.761   6.898
 5562SOL    HW117585   4.124   2.668   6.863
 5562SOL    HW217586   4.190   2.817   6.867
 5563SOL     OW17587   3.097   5.288   3.038
 5563SOL    HW117588   3.009   5.242   3.032
 5563SOL    HW217589   3.139   5.269   3.127
 5564SOL     OW17590   4.863   0.284   0.559
 5564SOL    HW117591   4.825   0.368   0.522
 5564SOL    HW217592   4.919   0.239   0.490
 5565SOL     OW17593   3.890   2.287   5.825
 5565SOL    HW117594   3.792   2.266   5.825
 5565SOL    HW217595   3.904   2.379   5.862
 5566SOL     OW17596   1.457   4.695   0.020
 5566SOL    HW117597   1.438   4.714   6.952
 5566SOL    HW217598   1.547   4.651   0.028
 5567SOL     OW17599   6.947   3.715   1.498
 5567SOL    HW117600   7.006   3.796   1.507
 5567SOL    HW217601   6.887   3.709   1.578
 5568SOL     OW17602   5.286   1.513   3.596
 5568SOL    HW117603   5.213   1.580   3.583
 5568SOL    HW217604   5.366   1.540   3.541
 5569SOL     OW17605   2.072   1.825   2.145
 5569SOL    HW117606   2.154   1.777   2.177
 5569SOL    HW217607   2.092   1.922   2.134
 5570SOL     OW17608   6.081   3.755   4.209
 5570SOL    HW117609   6.096   3.841   4.257
 5570SOL    HW217610   6.040   3.688   4.271
 5571SOL     OW17611   5.996   6.004   1.422
 5571SOL    HW117612   6.071   6.045   1.472
 5571SOL    HW217613   5.990   6.044   1.330
 5572SOL     OW17614   1.305   3.745   5.042
 5572SOL    HW117615   1.347   3.726   4.953
 5572SOL    HW217616   1.291   3.843   5.052
 5573SOL     OW17617   1.725   5.859   5.073
 5573SOL    HW117618   1.703   5.902   4.986
 5573SOL    HW217619   1.747   5.930   5.140
 5574SOL     OW17620   0.432   2.059   2.109
 5574SOL    HW117621   0.461   2.153   2.095
 5574SOL    HW217622   0.365   2.055   2.184
 5575SOL     OW17623   6.977   1.182   1.016
 5575SOL    HW117624   6.906   1.116   1.039
 5575SOL    HW217625   0.016   1.138   0.956
 5576SOL     OW17626   0.952   4.694   1.813
 5576SOL    HW117627   0.998   4.637   1.880
 5576SOL    HW217628   0.936   4.641   1.730
 5577SOL     OW17629   2.624   2.753   0.251
 5577SOL    HW117630   2.718   2.718   0.255
 5577SOL    HW217631   2.576   2.730   0.336
 5578SOL     OW17632   3.596   3.531   1.794
 5578SOL    HW117633   3.537   3.607   1.823
 5578SOL    HW217634   3.677   3.527   1.853
 5579SOL     OW17635   6.968   3.515   0.406
 5579SOL    HW117636   0.016   3.569   0.369
 5579SOL    HW217637   6.952   3.436   0.347
 5580SOL     OW17638   4.617   2.472   5.682
 5580SOL    HW117639   4.614   2.513   5.591
 5580SOL    HW217640   4.613   2.372   5.673
 5581SOL     OW17641   2.039   0.240   1.874
 5581SOL    HW117642   2.051   0.155   1.926
 5581SOL    HW217643   2.122   0.259   1.822
 5582SOL     OW17644   3.792   3.419   6.828
 5582SOL    HW117645   3.718   3.486   6.833
 5582SOL    HW217646   3.767   3.337   6.879
 5583SOL     OW17647   4.660   0.999   2.626
 5583SOL    HW117648   4.697   0.941   2.554
 5583SOL    HW217649   4.733   1.026   2.688
 5584SOL     OW17650   6.774   4.204   4.409
 5584SOL    HW117651   6.681   4.174   4.389
 5584SOL    HW217652   6.805   4.265   4.336
 5585SOL     OW17653   5.804   5.516   3.283
 5585SOL    HW117654   5.748   5.590   3.245
 5585SOL    HW217655   5.853   5.471   3.208
 5586SOL     OW17656   0.445   3.158   6.039
 5586SOL    HW117657   0.371   3.202   5.989
 5586SOL    HW217658   0.508   3.227   6.075
 5587SOL     OW17659   4.120   6.425   0.544
 5587SOL    HW117660   4.153   6.518   0.564
 5587SOL    HW217661   4.161   6.393   0.459
 5588SOL     OW17662   2.141   5.440   3.047
 5588SOL    HW117663   2.143   5.340   3.038
 5588SOL    HW217664   2.107   5.465   3.137
 5589SOL     OW17665   6.562   3.390   5.835
 5589SOL    HW117666   6.618   3.316   5.797
 5589SOL    HW217667   6.536   3.453   5.762
 5590SOL     OW17668   7.025   6.264   3.917
 5590SOL    HW117669   6.954   6.335   3.922
 5590SOL    HW217670   0.062   6.288   3.845
 5591SOL     OW17671   5.806   1.841   1.412
 5591SOL    HW117672   5.852   1.835   1.500
 5591SOL    HW217673   5.725   1.783   1.413
 5592SOL     OW17674   1.838   5.679   2.722
 5592SOL    HW117675   1.851   5.584   2.691
 5592SOL    HW217676   1.747   5.710   2.693
 5593SOL     OW17677   1.032   2.643   0.678
 5593SOL    HW117678   0.961   2.573   0.686
 5593SOL    HW217679   1.007   2.724   0.731
 5594SOL     OW17680   4.963   0.838   6.099
 5594SOL    HW117681   4.997   0.805   6.012
 5594SOL    HW217682   4.907   0.919   6.085
 5595SOL     OW17683   0.435   1.439   4.545
 5595SOL    HW117684   0.384   1.524   4.529
 5595SOL    HW217685   0.515   1.437   4.486
 5596SOL     OW17686   4.481   0.663   2.465
 5596SOL    HW117687   4.573   0.674   2.503
 5596SOL    HW217688   4.483   0.594   2.393
 5597SOL     OW17689   4.786   2.906   4.181
 5597SOL    HW117690   4.851   2.968   4.225
 5597SOL    HW217691   4.724   2.959   4.122
 5598SOL     OW17692   5.201   3.901   4.217
 5598SOL    HW117693   5.244   3.815   4.247
 5598SOL    HW217694   5.268   3.975   4.219
 5599SOL     OW17695   0.982   1.976   2.747
 5599SOL    HW117696   0.906   2.033   2.715
 5599SOL    HW217697   1.004   1.907   2.678
 5600SOL     OW17698   1.526   1.526   1.723
 5600SOL    HW117699   1.598   1.580   1.764
 5600SOL    HW217700   1.442   1.535   1.777
 5601SOL     OW17701   1.718   0.674   6.075
 5601SOL    HW117702   1.763   0.753   6.033
 5601SOL    HW217703   1.785   0.619   6.124
 5602SOL     OW17704   0.082   1.621   0.964
 5602SOL    HW117705   0.018   1.686   0.923
 5602SOL    HW217706   0.162   1.671   0.998
 5603SOL     OW17707   5.848   2.583   0.032
 5603SOL    HW117708   5.855   2.488   0.063
 5603SOL    HW217709   5.937   2.627   0.039
 5604SOL     OW17710   6.185   1.880   5.184
 5604SOL    HW117711   6.253   1.838   5.244
 5604SOL    HW217712   6.094   1.848   5.209
 5605SOL     OW17713   0.005   1.620   5.350
 5605SOL    HW117714   0.056   1.656   5.272
 5605SOL    HW217715   6.973   1.692   5.387
 5606SOL     OW17716   4.806   6.495   0.476
 5606SOL    HW117717   4.813   6.544   0.389
 5606SOL    HW217718   4.710   6.483   0.500
 5607SOL     OW17719   5.580   1.290   2.532
 5607SOL    HW117720   5.488   1.253   2.541
 5607SOL    HW217721   5.610   1.281   2.437
 5608SOL     OW17722   5.400   6.993   4.216
 5608SOL    HW117723   5.307   6.996   4.180
 5608SOL    HW217724   5.436   0.058   4.225
 5609SOL     OW17725   3.099   5.581   1.019
 5609SOL    HW117726   3.053   5.494   0.998
 5609SOL    HW217727   3.030   5.652   1.033
 5610SOL     OW17728   3.782   6.177   0.416
 5610SOL    HW117729   3.754   6.097   0.363
 5610SOL    HW217730   3.786   6.257   0.356
 5611SOL     OW17731   1.174   5.860   2.707
 5611SOL    HW117732   1.221   5.935   2.753
 5611SOL    HW217733   1.158   5.786   2.773
 5612SOL     OW17734   3.761   2.245   6.704
 5612SOL    HW117735   3.672   2.212   6.736
 5612SOL    HW217736   3.748   2.295   6.618
 5613SOL     OW17737   6.041   4.296   3.194
 5613SOL    HW117738   6.129   4.342   3.185
 5613SOL    HW217739   5.977   4.356   3.242
 5614SOL     OW17740   4.467   1.896   4.465
 5614SOL    HW117741   4.511   1.829   4.404
 5614SOL    HW217742   4.428   1.970   4.410
 5615SOL     OW17743   0.381   1.719   4.474
 5615SOL    HW117744   0.329   1.733   4.558
 5615SOL    HW217745   0.391   1.806   4.426
 5616SOL     OW17746   2.497   1.584   5.072
 5616SOL    HW117747   2.468   1.529   5.150
 5616SOL    HW217748   2.433   1.659   5.058
 5617SOL     OW17749   2.847   6.644   5.846
 5617SOL    HW117750   2.761   6.597   5.866
 5617SOL    HW217751   2.846   6.734   5.889
 5618SOL     OW17752   6.839   5.335   4.110
 5618SOL    HW117753   6.916   5.288   4.067
 5618SOL    HW217754   6.845   5.325   4.209
 5619SOL     OW17755   3.149   3.878   5.476
 5619SOL    HW117756   3.100   3.965   5.479
 5619SOL    HW217757   3.161   3.849   5.381
 5620SOL     OW17758   4.309   3.849   0.881
 5620SOL    HW117759   4.252   3.883   0.806
 5620SOL    HW217760   4.344   3.758   0.858
 5621SOL     OW17761   2.280   2.034   0.375
 5621SOL    HW117762   2.336   2.031   0.293
 5621SOL    HW217763   2.319   1.974   0.445
 5622SOL     OW17764   4.584   0.231   6.094
 5622SOL    HW117765   4.550   0.317   6.133
 5622SOL    HW217766   4.613   0.170   6.168
 5623SOL     OW17767   2.737   5.412   4.962
 5623SOL    HW117768   2.807   5.348   4.992
 5623SOL    HW217769   2.676   5.433   5.039
 5624SOL     OW17770   1.096   4.410   4.011
 5624SOL    HW117771   1.076   4.496   3.965
 5624SOL    HW217772   1.188   4.415   4.051
 5625SOL     OW17773   6.204   1.476   5.053
 5625SOL    HW117774   6.285   1.528   5.028
 5625SOL    HW217775   6.127   1.538   5.064
 5626SOL     OW17776   2.737   6.164   4.070
 5626SOL    HW117777   2.690   6.205   3.991
 5626SOL    HW217778   2.692   6.078   4.094
 5627SOL     OW17779   0.730   5.827   6.148
 5627SOL    HW117780   0.760   5.793   6.237
 5627SOL    HW217781   0.648   5.778   6.120
 5628SOL     OW17782   1.118   2.314   0.365
 5628SOL    HW117783   1.135   2.293   0.461
 5628SOL    HW217784   1.172   2.252   0.307
 5629SOL     OW17785   3.326   4.161   3.164
 5629SOL    HW117786   3.240   4.144   3.116
 5629SOL    HW217787   3.396   4.190   3.099
 5630SOL     OW17788   1.841   3.688   0.488
 5630SOL    HW117789   1.774   3.755   0.521
 5630SOL    HW217790   1.875   3.716   0.399
 5631SOL     OW17791   4.550   1.731   0.883
 5631SOL    HW117792   4.620   1.695   0.945
 5631SOL    HW217793   4.573   1.825   0.857
 5632SOL     OW17794   3.050   2.465   6.201
 5632SOL    HW117795   3.039   2.544   6.141
 5632SOL    HW217796   3.002   2.386   6.163
 5633SOL     OW17797   6.094   3.496   4.002
 5633SOL    HW117798   6.117   3.586   3.965
 5633SOL    HW217799   5.995   3.488   4.013
 5634SOL     OW17800   2.131   5.280   4.322
 5634SOL    HW117801   2.128   5.380   4.314
 5634SOL    HW217802   2.214   5.253   4.370
 5635SOL     OW17803   2.151   4.515   5.323
 5635SOL    HW117804   2.209   4.571   5.382
 5635SOL    HW217805   2.200   4.431   5.299
 5636SOL     OW17806   4.266   6.430   4.173
 5636SOL    HW117807   4.238   6.349   4.121
 5636SOL    HW217808   4.349   6.408   4.225
 5637SOL     OW17809   5.123   6.761   3.301
 5637SOL    HW117810   5.153   6.687   3.362
 5637SOL    HW217811   5.073   6.829   3.354
 5638SOL     OW17812   6.361   3.903   1.263
 5638SOL    HW117813   6.330   3.814   1.298
 5638SOL    HW217814   6.305   3.976   1.304
 5639SOL     OW17815   0.502   1.612   1.691
 5639SOL    HW117816   0.455   1.567   1.768
 5639SOL    HW217817   0.565   1.681   1.726
 5640SOL     OW17818   3.164   0.561   3.578
 5640SOL    HW117819   3.084   0.610   3.614
 5640SOL    HW217820   3.182   0.591   3.484
 5641SOL     OW17821   0.995   5.320   5.220
 5641SOL    HW117822   1.064   5.391   5.207
 5641SOL    HW217823   0.996   5.290   5.316
 5642SOL     OW17824   1.724   6.670   5.295
 5642SOL    HW117825   1.641   6.618   5.274
 5642SOL    HW217826   1.705   6.737   5.366
 5643SOL     OW17827   4.459   1.366   5.063
 5643SOL    HW117828   4.467   1.453   5.112
 5643SOL    HW217829   4.365   1.333   5.068
 5644SOL     OW17830   3.295   0.238   5.097
 5644SOL    HW117831   3.352   0.300   5.150
 5644SOL    HW217832   3.206   0.228   5.143
 5645SOL     OW17833   6.108   4.462   3.875
 5645SOL    HW117834   6.183   4.395   3.876
 5645SOL    HW217835   6.052   4.450   3.957
 5646SOL     OW17836   1.547   5.504   3.281
 5646SOL    HW117837   1.644   5.500   3.257
 5646SOL    HW217838   1.518   5.416   3.319
 5647SOL     OW17839   4.821   6.343   1.569
 5647SOL    HW117840   4.829   6.284   1.489
 5647SOL    HW217841   4.889   6.316   1.637
 5648SOL     OW17842   2.187   5.664   2.572
 5648SOL    HW117843   2.146   5.733   2.514
 5648SOL    HW217844   2.280   5.644   2.540
 5649SOL     OW17845   1.108   6.769   3.994
 5649SOL    HW117846   1.066   6.682   4.021
 5649SOL    HW217847   1.144   6.815   4.075
 5650SOL     OW17848   1.269   5.371   1.185
 5650SOL    HW117849   1.342   5.303   1.194
 5650SOL    HW217850   1.289   5.450   1.244
 5651SOL     OW17851   1.928   1.307   0.672
 5651SOL    HW117852   1.890   1.233   0.727
 5651SOL    HW217853   2.005   1.348   0.719
 5652SOL     OW17854   6.165   6.005   1.143
 5652SOL    HW117855   6.152   5.976   1.049
 5652SOL    HW217856   6.101   6.080   1.164
 5653SOL     OW17857   6.551   6.430   6.507
 5653SOL    HW117858   6.505   6.518   6.503
 5653SOL    HW217859   6.633   6.437   6.563
 5654SOL     OW17860   1.050   6.027   4.562
 5654SOL    HW117861   0.976   5.966   4.589
 5654SOL    HW217862   1.033   6.061   4.469
 5655SOL     OW17863   0.468   2.793   3.913
 5655SOL    HW117864   0.530   2.742   3.854
 5655SOL    HW217865   0.382   2.742   3.922
 5656SOL     OW17866   6.810   4.174   6.272
 5656SOL    HW117867   6.803   4.091   6.328
 5656SOL    HW217868   6.884   4.163   6.206
 5657SOL     OW17869   5.764   3.224   6.001
 5657SOL    HW117870   5.840   3.284   5.977
 5657SOL    HW217871   5.712   3.202   5.919
 5658SOL     OW17872   2.742   3.060   6.329
 5658SOL    HW117873   2.726   2.994   6.402
 5658SOL    HW217874   2.663   3.121   6.321
 5659SOL     OW17875   3.786   3.290   6.589
 5659SOL    HW117876   3.790   3.339   6.677
 5659SOL    HW217877   3.718   3.217   6.595
 5660SOL     OW17878   4.844   6.722   5.736
 5660SOL    HW117879   4.800   6.781   5.805
 5660SOL    HW217880   4.875   6.638   5.780
 5661SOL     OW17881   2.014   6.135   4.298
 5661SOL    HW117882   1.940   6.176   4.351
 5661SOL    HW217883   2.102   6.161   4.337
 5662SOL     OW17884   2.955   6.687   2.938
 5662SOL    HW117885   2.967   6.692   3.037
 5662SOL    HW217886   3.017   6.617   2.901
 5663SOL     OW17887   2.697   2.323   1.014
 5663SOL    HW117888   2.667   2.373   0.932
 5663SOL    HW217889   2.738   2.388   1.079
 5664SOL     OW17890   0.062   3.849   4.097
 5664SOL    HW117891   0.016   3.896   4.172
 5664SOL    HW217892   7.023   3.818   4.030
 5665SOL     OW17893   0.945   0.308   0.818
 5665SOL    HW117894   0.941   0.382   0.750
 5665SOL    HW217895   0.912   0.223   0.777
 5666SOL     OW17896   6.447   0.225   3.630
 5666SOL    HW117897   6.350   0.204   3.640
 5666SOL    HW217898   6.488   0.234   3.721
 5667SOL     OW17899   1.512   5.022   4.997
 5667SOL    HW117900   1.475   5.038   5.089
 5667SOL    HW217901   1.611   5.032   4.999
 5668SOL     OW17902   5.776   3.178   3.296
 5668SOL    HW117903   5.776   3.133   3.207
 5668SOL    HW217904   5.738   3.115   3.364
 5669SOL     OW17905   6.525   4.323   1.087
 5669SOL    HW117906   6.570   4.243   1.049
 5669SOL    HW217907   6.547   4.403   1.031
 5670SOL     OW17908   1.491   3.597   3.943
 5670SOL    HW117909   1.404   3.574   3.900
 5670SOL    HW217910   1.528   3.679   3.900
 5671SOL     OW17911   5.951   6.775   5.536
 5671SOL    HW117912   5.993   6.770   5.626
 5671SOL    HW217913   5.939   6.871   5.510
 5672SOL     OW17914   5.311   4.048   6.309
 5672SOL    HW117915   5.305   4.112   6.385
 5672SOL    HW217916   5.339   4.097   6.227
 5673SOL     OW17917   1.792   6.493   1.198
 5673SOL    HW117918   1.748   6.410   1.233
 5673SOL    HW217919   1.754   6.573   1.245
 5674SOL     OW17920   1.540   4.593   4.942
 5674SOL    HW117921   1.630   4.550   4.934
 5674SOL    HW217922   1.476   4.529   4.984
 5675SOL     OW17923   4.503   2.447   6.645
 5675SOL    HW117924   4.550   2.505   6.578
 5675SOL    HW217925   4.407   2.437   6.619
 5676SOL     OW17926   2.867   1.896   2.547
 5676SOL    HW117927   2.944   1.856   2.497
 5676SOL    HW217928   2.795   1.827   2.559
 5677SOL     OW17929   0.467   0.751   1.071
 5677SOL    HW117930   0.485   0.674   1.010
 5677SOL    HW217931   0.533   0.750   1.146
 5678SOL     OW17932   4.120   0.797   2.826
 5678SOL    HW117933   4.214   0.783   2.798
 5678SOL    HW217934   4.060   0.790   2.747
 5679SOL     OW17935   5.854   0.942   4.133
 5679SOL    HW117936   5.784   0.975   4.070
 5679SOL    HW217937   5.811   0.899   4.212
 5680SOL     OW17938   1.705   5.333   6.308
 5680SOL    HW117939   1.607   5.356   6.301
 5680SOL    HW217940   1.749   5.398   6.370
 5681SOL     OW17941   0.753   3.624   1.902
 5681SOL    HW117942   0.837   3.653   1.946
 5681SOL    HW217943   0.718   3.542   1.948
 5682SOL     OW17944   2.462   5.605   4.215
 5682SOL    HW117945   2.365   5.612   4.236
 5682SOL    HW217946   2.478   5.626   4.119
 5683SOL     OW17947   3.632   1.924   6.229
 5683SOL    HW117948   3.674   1.858   6.166
 5683SOL    HW217949   3.634   1.887   6.321
 5684SOL     OW17950   2.363   3.623   5.873
 5684SOL    HW117951   2.459   3.650   5.878
 5684SOL    HW217952   2.349   3.564   5.794
 5685SOL     OW17953   2.570   1.984   3.414
 5685SOL    HW117954   2.663   2.001   3.382
 5685SOL    HW217955   2.562   1.889   3.444
 5686SOL     OW17956   3.070   1.515   4.792
 5686SOL    HW117957   3.103   1.604   4.823
 5686SOL    HW217958   3.092   1.503   4.696
 5687SOL     OW17959   0.846   5.988   5.574
 5687SOL    HW117960   0.836   6.042   5.491
 5687SOL    HW217961   0.938   5.951   5.579
 5688SOL     OW17962   1.662   2.342   2.776
 5688SOL    HW117963   1.629   2.385   2.860
 5688SOL    HW217964   1.712   2.410   2.722
 5689SOL     OW17965   2.321   1.116   1.996
 5689SOL    HW117966   2.274   1.184   2.052
 5689SOL    HW217967   2.404   1.157   1.957
 5690SOL     OW17968   1.159   5.759   0.126
 5690SOL    HW117969   1.084   5.813   0.164
 5690SOL    HW217970   1.217   5.725   0.200
 5691SOL     OW17971   3.783   0.893   1.867
 5691SOL    HW117972   3.846   0.936   1.802
 5691SOL    HW217973   3.767   0.955   1.944
 5692SOL     OW17974   5.023   4.548   0.767
 5692SOL    HW117975   5.031   4.482   0.842
 5692SOL    HW217976   5.047   4.640   0.801
 5693SOL     OW17977   4.694   1.121   1.830
 5693SOL    HW117978   4.655   1.081   1.913
 5693SOL    HW217979   4.789   1.145   1.845
 5694SOL     OW17980   1.236   0.626   2.655
 5694SOL    HW117981   1.332   0.600   2.651
 5694SOL    HW217982   1.228   0.726   2.650
 5695SOL     OW17983   1.784   1.506   3.456
 5695SOL    HW117984   1.866   1.517   3.512
 5695SOL    HW217985   1.808   1.511   3.359
 5696SOL     OW17986   0.720   6.456   4.086
 5696SOL    HW117987   0.780   6.376   4.092
 5696SOL    HW217988   0.700   6.490   4.178
 5697SOL     OW17989   5.788   2.442   2.261
 5697SOL    HW117990   5.752   2.382   2.191
 5697SOL    HW217991   5.752   2.535   2.249
 5698SOL     OW17992   1.731   4.695   4.154
 5698SOL    HW117993   1.790   4.647   4.218
 5698SOL    HW217994   1.773   4.695   4.063
 5699SOL     OW17995   1.386   2.201   2.940
 5699SOL    HW117996   1.296   2.236   2.964
 5699SOL    HW217997   1.385   2.164   2.847
 5700SOL     OW17998   6.150   6.669   3.723
 5700SOL    HW117999   6.130   6.755   3.769
 5700SOL    HW218000   6.074   6.606   3.735
 5701SOL     OW18001   0.527   0.357   1.522
 5701SOL    HW118002   0.442   0.306   1.530
 5701SOL    HW218003   0.601   0.307   1.566
 5702SOL     OW18004   2.060   6.015   3.812
 5702SOL    HW118005   2.093   5.954   3.884
 5702SOL    HW218006   1.960   6.008   3.805
 5703SOL     OW18007   0.059   4.547   6.911
 5703SOL    HW118008   0.018   4.623   6.860
 5703SOL    HW218009   7.019   4.476   6.925
 5704SOL     OW18010   4.943   3.977   3.336
 5704SOL    HW118011   5.033   3.988   3.295
 5704SOL    HW218012   4.911   3.883   3.323
 5705SOL     OW18013   4.868   5.796   6.710
 5705SOL    HW118014   4.951   5.841   6.743
 5705SOL    HW218015   4.825   5.853   6.640
 5706SOL     OW18016   5.240   2.656   2.153
 5706SOL    HW118017   5.182   2.737   2.156
 5706SOL    HW218018   5.279   2.638   2.243
 5707SOL     OW18019   6.303   7.001   1.031
 5707SOL    HW118020   6.384   6.947   1.008
 5707SOL    HW218021   6.292   0.046   0.964
 5708SOL     OW18022   4.864   5.823   2.020
 5708SOL    HW118023   4.906   5.735   1.996
 5708SOL    HW218024   4.931   5.896   2.006
 5709SOL     OW18025   0.540   1.117   2.487
 5709SOL    HW118026   0.543   1.145   2.583
 5709SOL    HW218027   0.511   1.021   2.481
 5710SOL     OW18028   3.362   2.166   0.323
 5710SOL    HW118029   3.388   2.090   0.383
 5710SOL    HW218030   3.433   2.179   0.253
 5711SOL     OW18031   5.029   0.990   1.375
 5711SOL    HW118032   4.966   0.940   1.316
 5711SOL    HW218033   5.019   0.958   1.469
 5712SOL     OW18034   6.014   6.690   0.122
 5712SOL    HW118035   5.944   6.621   0.140
 5712SOL    HW218036   6.046   6.728   0.209
 5713SOL     OW18037   2.782   3.886   1.629
 5713SOL    HW118038   2.709   3.930   1.681
 5713SOL    HW218039   2.771   3.787   1.633
 5714SOL     OW18040   6.635   6.246   1.539
 5714SOL    HW118041   6.670   6.321   1.595
 5714SOL    HW218042   6.655   6.159   1.584
 5715SOL     OW18043   0.001   7.023   2.634
 5715SOL    HW118044   0.088   6.988   2.669
 5715SOL    HW218045   6.987   6.954   2.575
 5716SOL     OW18046   1.127   5.934   5.486
 5716SOL    HW118047   1.179   6.018   5.500
 5716SOL    HW218048   1.105   5.924   5.389
 5717SOL     OW18049   1.418   5.088   1.132
 5717SOL    HW118050   1.398   5.027   1.055
 5717SOL    HW218051   1.516   5.088   1.151
 5718SOL     OW18052   1.438   3.784   0.464
 5718SOL    HW118053   1.346   3.815   0.486
 5718SOL    HW218054   1.452   3.789   0.365
 5719SOL     OW18055   2.648   3.266   0.519
 5719SOL    HW118056   2.639   3.168   0.502
 5719SOL    HW218057   2.557   3.306   0.532
 5720SOL     OW18058   1.564   6.734   4.539
 5720SOL    HW118059   1.611   6.808   4.489
 5720SOL    HW218060   1.468   6.758   4.550
 5721SOL     OW18061   5.974   4.553   1.053
 5721SOL    HW118062   5.993   4.458   1.076
 5721SOL    HW218063   5.897   4.586   1.108
 5722SOL     OW18064   6.522   2.218   5.121
 5722SOL    HW118065   6.597   2.152   5.125
 5722SOL    HW218066   6.437   2.170   5.098
 5723SOL     OW18067   4.540   3.896   0.374
 5723SOL    HW118068   4.526   3.901   0.275
 5723SOL    HW218069   4.476   3.831   0.414
 5724SOL     OW18070   5.990   2.727   4.221
 5724SOL    HW118071   6.039   2.696   4.302
 5724SOL    HW218072   5.995   2.656   4.150
 5725SOL     OW18073   6.679   4.710   4.153
 5725SOL    HW118074   6.713   4.647   4.083
 5725SOL    HW218075   6.715   4.801   4.136
 5726SOL     OW18076   6.691   5.649   4.163
 5726SOL    HW118077   6.719   5.719   4.230
 5726SOL    HW218078   6.772   5.604   4.127
 5727SOL     OW18079   6.292   2.637   4.619
 5727SOL    HW118080   6.235   2.718   4.623
 5727SOL    HW218081   6.376   2.652   4.672
 5728SOL     OW18082   5.059   6.469   5.542
 5728SOL    HW118083   5.065   6.567   5.522
 5728SOL    HW218084   5.038   6.420   5.458
 5729SOL     OW18085   1.469   1.497   6.653
 5729SOL    HW118086   1.556   1.456   6.625
 5729SOL    HW218087   1.424   1.538   6.573
 5730SOL     OW18088   5.836   4.662   6.339
 5730SOL    HW118089   5.933   4.645   6.356
 5730SOL    HW218090   5.818   4.760   6.341
 5731SOL     OW18091   6.796   0.309   2.512
 5731SOL    HW118092   6.764   0.395   2.551
 5731SOL    HW218093   6.875   0.276   2.565
 5732SOL     OW18094   0.496   6.195   3.834
 5732SOL    HW118095   0.435   6.272   3.853
 5732SOL    HW218096   0.443   6.110   3.834
 5733SOL     OW18097   3.560   6.401   5.134
 5733SOL    HW118098   3.606   6.329   5.186
 5733SOL    HW218099   3.611   6.419   5.050
 5734SOL     OW18100   1.277   0.572   5.303
 5734SOL    HW118101   1.327   0.502   5.353
 5734SOL    HW218102   1.183   0.576   5.336
 5735SOL     OW18103   3.625   1.531   0.864
 5735SOL    HW118104   3.545   1.471   0.867
 5735SOL    HW218105   3.620   1.597   0.939
 5736SOL     OW18106   6.817   4.402   0.088
 5736SOL    HW118107   6.906   4.356   0.085
 5736SOL    HW218108   6.777   4.392   0.179
 5737SOL     OW18109   5.693   5.908   0.789
 5737SOL    HW118110   5.792   5.895   0.798
 5737SOL    HW218111   5.646   5.821   0.806
 5738SOL     OW18112   1.929   3.285   5.999
 5738SOL    HW118113   2.005   3.221   6.006
 5738SOL    HW218114   1.957   3.376   6.029
 5739SOL     OW18115   1.706   1.377   6.589
 5739SOL    HW118116   1.780   1.412   6.647
 5739SOL    HW218117   1.716   1.415   6.497
 5740SOL     OW18118   4.275   5.294   0.475
 5740SOL    HW118119   4.226   5.249   0.550
 5740SOL    HW218120   4.211   5.350   0.422
 5741SOL     OW18121   0.113   5.411   4.224
 5741SOL    HW118122   0.138   5.460   4.141
 5741SOL    HW218123   0.076   5.321   4.200
 5742SOL     OW18124   5.165   6.530   2.880
 5742SOL    HW118125   5.238   6.463   2.868
 5742SOL    HW218126   5.077   6.482   2.888
 5743SOL     OW18127   2.671   6.285   4.886
 5743SOL    HW118128   2.710   6.193   4.875
 5743SOL    HW218129   2.717   6.332   4.961
 5744SOL     OW18130   4.809   0.253   1.119
 5744SOL    HW118131   4.907   0.275   1.111
 5744SOL    HW218132   4.778   0.271   1.212
 5745SOL     OW18133   3.685   1.560   4.349
 5745SOL    HW118134   3.764   1.501   4.332
 5745SOL    HW218135   3.601   1.507   4.340
 5746SOL     OW18136   4.633   0.939   1.062
 5746SOL    HW118137   4.594   0.883   1.135
 5746SOL    HW218138   4.594   0.912   0.974
 5747SOL     OW18139   0.018   5.299   2.738
 5747SOL    HW118140   0.097   5.351   2.707
 5747SOL    HW218141   0.006   5.219   2.680
 5748SOL     OW18142   1.521   4.659   1.206
 5748SOL    HW118143   1.451   4.599   1.168
 5748SOL    HW218144   1.491   4.694   1.294
 5749SOL     OW18145   2.688   0.796   4.328
 5749SOL    HW118146   2.748   0.875   4.337
 5749SOL    HW218147   2.597   0.818   4.364
 5750SOL     OW18148   5.735   5.261   4.845
 5750SOL    HW118149   5.643   5.281   4.812
 5750SOL    HW218150   5.752   5.163   4.838
 5751SOL     OW18151   2.614   2.446   4.732
 5751SOL    HW118152   2.595   2.435   4.830
 5751SOL    HW218153   2.713   2.448   4.717
 5752SOL     OW18154   6.115   1.123   6.032
 5752SOL    HW118155   6.146   1.028   6.029
 5752SOL    HW218156   6.084   1.151   5.940
 5753SOL     OW18157   3.285   3.640   6.668
 5753SOL    HW118158   3.190   3.651   6.694
 5753SOL    HW218159   3.342   3.703   6.721
 5754SOL     OW18160   5.572   5.977   1.273
 5754SOL    HW118161   5.619   5.934   1.196
 5754SOL    HW218162   5.618   5.952   1.359
 5755SOL     OW18163   3.042   3.911   6.195
 5755SOL    HW118164   3.013   3.826   6.238
 5755SOL    HW218165   3.133   3.900   6.156
 5756SOL     OW18166   0.008   5.555   3.743
 5756SOL    HW118167   6.963   5.489   3.760
 5756SOL    HW218168   0.043   5.543   3.650
 5757SOL     OW18169   6.550   6.531   2.100
 5757SOL    HW118170   6.465   6.582   2.101
 5757SOL    HW218171   6.627   6.594   2.107
 5758SOL     OW18172   2.783   1.922   4.018
 5758SOL    HW118173   2.696   1.965   4.044
 5758SOL    HW218174   2.804   1.848   4.082
 5759SOL     OW18175   4.791   2.225   6.720
 5759SOL    HW118176   4.811   2.131   6.693
 5759SOL    HW218177   4.769   2.228   6.817
 5760SOL     OW18178   1.766   6.435   2.387
 5760SOL    HW118179   1.699   6.364   2.407
 5760SOL    HW218180   1.735   6.488   2.308
 5761SOL     OW18181   6.204   0.504   5.171
 5761SOL    HW118182   6.172   0.433   5.108
 5761SOL    HW218183   6.260   0.462   5.243
 5762SOL     OW18184   5.375   0.122   0.107
 5762SOL    HW118185   5.442   0.154   0.040
 5762SOL    HW218186   5.405   0.034   0.144
 5763SOL     OW18187   0.891   0.051   0.697
 5763SOL    HW118188   0.842   6.996   0.721
 5763SOL    HW218189   0.959   0.031   0.627
 5764SOL     OW18190   5.533   4.955   5.870
 5764SOL    HW118191   5.516   4.999   5.958
 5764SOL    HW218192   5.622   4.984   5.835
 5765SOL     OW18193   6.285   4.730   6.214
 5765SOL    HW118194   6.350   4.683   6.154
 5765SOL    HW218195   6.192   4.709   6.184
 5766SOL     OW18196   2.573   1.275   1.754
 5766SOL    HW118197   2.501   1.253   1.689
 5766SOL    HW218198   2.622   1.191   1.780
 5767SOL     OW18199   1.682   6.740   0.366
 5767SOL    HW118200   1.680   6.676   0.443
 5767SOL    HW218201   1.738   6.701   0.293
 5768SOL     OW18202   6.838   0.261   2.982
 5768SOL    HW118203   6.823   0.163   2.977
 5768SOL    HW218204   6.764   0.304   3.033
 5769SOL     OW18205   2.925   7.027   3.119
 5769SOL    HW118206   2.990   7.017   3.044
 5769SOL    HW218207   2.935   6.951   3.183
 5770SOL     OW18208   6.951   0.164   0.569
 5770SOL    HW118209   7.001   0.103   0.507
 5770SOL    HW218210   7.016   0.221   0.619
 5771SOL     OW18211   1.605   7.013   1.416
 5771SOL    HW118212   1.507   6.997   1.412
 5771SOL    HW218213   1.625   0.057   1.482
 5772SOL     OW18214   5.879   2.481   0.675
 5772SOL    HW118215   5.839   2.402   0.630
 5772SOL    HW218216   5.941   2.451   0.748
 5773SOL     OW18217   5.624   0.044   3.806
 5773SOL    HW118218   5.590   0.100   3.881
 5773SOL    HW218219   5.619   6.975   3.832
 5774SOL     OW18220   2.451   4.360   3.555
 5774SOL    HW118221   2.538   4.311   3.553
 5774SOL    HW218222   2.395   4.327   3.630
 5775SOL     OW18223   1.226   0.193   0.879
 5775SOL    HW118224   1.292   0.266   0.861
 5775SOL    HW218225   1.136   0.220   0.845
 5776SOL     OW18226   6.473   1.013   6.144
 5776SOL    HW118227   6.472   1.077   6.221
 5776SOL    HW218228   6.559   1.022   6.094
 5777SOL     OW18229   6.116   0.722   4.372
 5777SOL    HW118230   6.083   0.716   4.466
 5777SOL    HW218231   6.047   0.683   4.310
 5778SOL     OW18232   2.393   0.528   2.446
 5778SOL    HW118233   2.450   0.447   2.457
 5778SOL    HW218234   2.385   0.551   2.349
 5779SOL     OW18235   3.452   0.457   0.913
 5779SOL    HW118236   3.490   0.545   0.886
 5779SOL    HW218237   3.396   0.468   0.995
 5780SOL     OW18238   6.219   5.264   1.657
 5780SOL    HW118239   6.264   5.344   1.697
 5780SOL    HW218240   6.274   5.183   1.677
 5781SOL     OW18241   2.246   4.061   4.595
 5781SOL    HW118242   2.333   4.087   4.638
 5781SOL    HW218243   2.176   4.052   4.666
 5782SOL     OW18244   1.581   1.052   1.328
 5782SOL    HW118245   1.512   1.012   1.388
 5782SOL    HW218246   1.599   1.146   1.355
 5783SOL     OW18247   1.598   1.228   0.491
 5783SOL    HW118248   1.523   1.164   0.507
 5783SOL    HW218249   1.593   1.302   0.559
 5784SOL     OW18250   0.587   6.126   0.094
 5784SOL    HW118251   0.492   6.096   0.107
 5784SOL    HW218252   0.631   6.139   0.183
 5785SOL     OW18253   1.014   1.282   0.981
 5785SOL    HW118254   1.093   1.238   1.023
 5785SOL    HW218255   1.040   1.323   0.894
 5786SOL     OW18256   1.632   3.249   1.449
 5786SOL    HW118257   1.724   3.286   1.446
 5786SOL    HW218258   1.595   3.257   1.541
 5787SOL     OW18259   5.796   2.249   4.693
 5787SOL    HW118260   5.819   2.308   4.770
 5787SOL    HW218261   5.821   2.154   4.714
 5788SOL     OW18262   3.186   0.329   1.293
 5788SOL    HW118263   3.161   0.234   1.274
 5788SOL    HW218264   3.252   0.332   1.368
 5789SOL     OW18265   3.907   2.861   6.767
 5789SOL    HW118266   3.983   2.812   6.810
 5789SOL    HW218267   3.943   2.921   6.695
 5790SOL     OW18268   6.557   5.569   4.697
 5790SOL    HW118269   6.561   5.600   4.792
 5790SOL    HW218270   6.649   5.548   4.665
 5791SOL     OW18271   3.076   1.404   2.206
 5791SOL    HW118272   3.130   1.321   2.189
 5791SOL    HW218273   3.065   1.418   2.304
 5792SOL     OW18274   5.186   3.129   3.195
 5792SOL    HW118275   5.203   3.150   3.099
 5792SOL    HW218276   5.248   3.057   3.226
 5793SOL     OW18277   5.816   2.397   5.442
 5793SOL    HW118278   5.789   2.476   5.387
 5793SOL    HW218279   5.735   2.350   5.475
 5794SOL     OW18280   2.833   6.744   6.342
 5794SOL    HW118281   2.905   6.676   6.356
 5794SOL    HW218282   2.872   6.826   6.301
 5795SOL     OW18283   1.069   5.827   1.539
 5795SOL    HW118284   1.088   5.801   1.445
 5795SOL    HW218285   1.068   5.745   1.596
 5796SOL     OW18286   4.690   1.487   6.492
 5796SOL    HW118287   4.712   1.571   6.443
 5796SOL    HW218288   4.590   1.478   6.500
 5797SOL     OW18289   5.553   1.693   0.282
 5797SOL    HW118290   5.557   1.676   0.183
 5797SOL    HW218291   5.507   1.615   0.327
 5798SOL     OW18292   0.609   3.968   4.748
 5798SOL    HW118293   0.576   3.933   4.836
 5798SOL    HW218294   0.655   4.056   4.763
 5799SOL     OW18295   1.369   6.480   2.886
 5799SOL    HW118296   1.285   6.427   2.879
 5799SOL    HW218297   1.365   6.558   2.824
 5800SOL     OW18298   0.117   6.840   0.826
 5800SOL    HW118299   0.142   6.763   0.885
 5800SOL    HW218300   0.120   6.925   0.879
 5801SOL     OW18301   2.532   2.361   2.319
 5801SOL    HW118302   2.626   2.362   2.352
 5801SOL    HW218303   2.529   2.399   2.226
 5802SOL     OW18304   6.742   2.326   3.081
 5802SOL    HW118305   6.745   2.230   3.054
 5802SOL    HW218306   6.674   2.374   3.026
 5803SOL     OW18307   1.598   5.005   4.160
 5803SOL    HW118308   1.652   4.986   4.078
 5803SOL    HW218309   1.559   4.920   4.195
 5804SOL     OW18310   6.442   6.608   3.773
 5804SOL    HW118311   6.347   6.638   3.783
 5804SOL    HW218312   6.445   6.508   3.765
 5805SOL     OW18313   1.894   3.613   1.271
 5805SOL    HW118314   1.838   3.620   1.353
 5805SOL    HW218315   1.941   3.524   1.269
 5806SOL     OW18316   0.483   3.472   3.740
 5806SOL    HW118317   0.547   3.400   3.767
 5806SOL    HW218318   0.533   3.556   3.719
 5807SOL     OW18319   1.396   5.872   1.219
 5807SOL    HW118320   1.414   5.939   1.147
 5807SOL    HW218321   1.441   5.902   1.303
 5808SOL     OW18322   6.357   6.844   4.072
 5808SOL    HW118323   6.448   6.878   4.095
 5808SOL    HW218324   6.305   6.829   4.155
 5809SOL     OW18325   0.606   2.176   5.863
 5809SOL    HW118326   0.543   2.241   5.820
 5809SOL    HW218327   0.608   2.191   5.962
 5810SOL     OW18328   4.494   6.715   4.962
 5810SOL    HW118329   4.501   6.795   4.903
 5810SOL    HW218330   4.575   6.657   4.950
 5811SOL     OW18331   3.098   2.928   6.211
 5811SOL    HW118332   3.073   2.996   6.143
 5811SOL    HW218333   3.152   2.972   6.283
 5812SOL     OW18334   5.900   2.897   0.675
 5812SOL    HW118335   5.872   2.827   0.740
 5812SOL    HW218336   5.854   2.882   0.588
 5813SOL     OW18337   3.972   6.170   1.096
 5813SOL    HW118338   3.877   6.203   1.097
 5813SOL    HW218339   3.987   6.112   1.176
 5814SOL     OW18340   6.440   1.884   2.425
 5814SOL    HW118341   6.342   1.867   2.410
 5814SOL    HW218342   6.451   1.964   2.484
 5815SOL     OW18343   6.343   1.405   3.909
 5815SOL    HW118344   6.291   1.337   3.858
 5815SOL    HW218345   6.310   1.497   3.885
 5816SOL     OW18346   0.184   5.052   2.462
 5816SOL    HW118347   0.233   5.012   2.539
 5816SOL    HW218348   0.088   5.065   2.485
 5817SOL     OW18349   5.644   3.952   5.332
 5817SOL    HW118350   5.681   3.919   5.419
 5817SOL    HW218351   5.719   3.972   5.269
 5818SOL     OW18352   1.042   6.624   4.606
 5818SOL    HW118353   1.069   6.528   4.600
 5818SOL    HW218354   1.025   6.648   4.701
 5819SOL     OW18355   3.308   4.987   0.189
 5819SOL    HW118356   3.390   4.967   0.242
 5819SOL    HW218357   3.334   5.027   0.101
 5820SOL     OW18358   5.396   5.049   2.038
 5820SOL    HW118359   5.381   4.963   2.087
 5820SOL    HW218360   5.353   5.124   2.088
 5821SOL     OW18361   6.924   0.808   1.384
 5821SOL    HW118362   7.006   0.787   1.438
 5821SOL    HW218363   6.951   0.838   1.292
 5822SOL     OW18364   1.556   2.156   3.136
 5822SOL    HW118365   1.489   2.182   3.068
 5822SOL    HW218366   1.514   2.093   3.202
 5823SOL     OW18367   2.368   6.597   3.830
 5823SOL    HW118368   2.377   6.516   3.772
 5823SOL    HW218369   2.456   6.619   3.872
 5824SOL     OW18370   0.769   6.848   2.148
 5824SOL    HW118371   0.801   6.915   2.081
 5824SOL    HW218372   0.697   6.792   2.106
 5825SOL     OW18373   6.854   6.790   4.878
 5825SOL    HW118374   6.804   6.745   4.952
 5825SOL    HW218375   6.850   6.889   4.892
 5826SOL     OW18376   0.434   0.535   5.528
 5826SOL    HW118377   0.396   0.510   5.439
 5826SOL    HW218378   0.430   0.635   5.539
 5827SOL     OW18379   1.301   3.464   5.170
 5827SOL    HW118380   1.256   3.549   5.143
 5827SOL    HW218381   1.250   3.422   5.245
 5828SOL     OW18382   5.339   6.495   4.028
 5828SOL    HW118383   5.276   6.506   4.105
 5828SOL    HW218384   5.307   6.548   3.950
 5829SOL     OW18385   1.886   0.749   4.821
 5829SOL    HW118386   1.958   0.750   4.752
 5829SOL    HW218387   1.877   0.840   4.862
 5830SOL     OW18388   3.398   5.259   5.314
 5830SOL    HW118389   3.411   5.182   5.376
 5830SOL    HW218390   3.487   5.300   5.293
 5831SOL     OW18391   1.117   1.529   5.351
 5831SOL    HW118392   1.215   1.536   5.372
 5831SOL    HW218393   1.083   1.439   5.379
 5832SOL     OW18394   3.509   4.531   1.440
 5832SOL    HW118395   3.439   4.600   1.461
 5832SOL    HW218396   3.545   4.493   1.525
 5833SOL     OW18397   4.059   3.697   5.601
 5833SOL    HW118398   4.146   3.650   5.618
 5833SOL    HW218399   4.011   3.651   5.527
 5834SOL     OW18400   6.626   4.509   6.667
 5834SOL    HW118401   6.701   4.573   6.659
 5834SOL    HW218402   6.555   4.531   6.600
 5835SOL     OW18403   5.457   0.546   2.976
 5835SOL    HW118404   5.436   0.547   3.074
 5835SOL    HW218405   5.388   0.493   2.928
 5836SOL     OW18406   4.334   6.343   2.804
 5836SOL    HW118407   4.253   6.332   2.746
 5836SOL    HW218408   4.415   6.317   2.752
 5837SOL     OW18409   3.659   4.268   0.634
 5837SOL    HW118410   3.698   4.267   0.726
 5837SOL    HW218411   3.733   4.257   0.567
 5838SOL     OW18412   2.935   1.866   1.392
 5838SOL    HW118413   3.023   1.902   1.424
 5838SOL    HW218414   2.867   1.939   1.395
 5839SOL     OW18415   1.083   2.264   2.106
 5839SOL    HW118416   1.165   2.231   2.058
 5839SOL    HW218417   1.015   2.191   2.111
 5840SOL     OW18418   0.726   3.627   2.202
 5840SOL    HW118419   0.706   3.539   2.159
 5840SOL    HW218420   0.675   3.699   2.157
 5841SOL     OW18421   4.605   0.697   1.500
 5841SOL    HW118422   4.604   0.788   1.458
 5841SOL    HW218423   4.512   0.661   1.503
 5842SOL     OW18424   3.517   1.919   0.159
 5842SOL    HW118425   3.574   2.001   0.155
 5842SOL    HW218426   3.461   1.914   0.076
 5843SOL     OW18427   1.836   3.754   1.049
 5843SOL    HW118428   1.870   3.694   1.121
 5843SOL    HW218429   1.789   3.700   0.979
 5844SOL     OW18430   0.453   0.185   4.907
 5844SOL    HW118431   0.364   0.142   4.894
 5844SOL    HW218432   0.492   0.208   4.818
 5845SOL     OW18433   0.136   6.733   1.723
 5845SOL    HW118434   0.057   6.678   1.696
 5845SOL    HW218435   0.109   6.829   1.727
 5846SOL     OW18436   6.802   3.866   5.395
 5846SOL    HW118437   6.750   3.886   5.312
 5846SOL    HW218438   6.777   3.775   5.429
 5847SOL     OW18439   2.482   3.138   1.587
 5847SOL    HW118440   2.405   3.166   1.645
 5847SOL    HW218441   2.453   3.137   1.491
 5848SOL     OW18442   2.373   6.129   3.775
 5848SOL    HW118443   2.281   6.090   3.774
 5848SOL    HW218444   2.436   6.068   3.727
 5849SOL     OW18445   2.180   6.411   5.291
 5849SOL    HW118446   2.100   6.466   5.316
 5849SOL    HW218447   2.208   6.434   5.198
 5850SOL     OW18448   1.313   2.641   2.065
 5850SOL    HW118449   1.372   2.717   2.093
 5850SOL    HW218450   1.236   2.676   2.011
 5851SOL     OW18451   5.890   3.021   4.349
 5851SOL    HW118452   5.838   2.936   4.340
 5851SOL    HW218453   5.986   3.004   4.328
 5852SOL     OW18454   5.111   5.752   3.499
 5852SOL    HW118455   5.156   5.676   3.546
 5852SOL    HW218456   5.016   5.728   3.478
 5853SOL     OW18457   3.716   5.372   5.472
 5853SOL    HW118458   3.627   5.350   5.512
 5853SOL    HW218459   3.778   5.405   5.544
 5854SOL     OW18460   3.455   4.538   5.969
 5854SOL    HW118461   3.407   4.625   5.979
 5854SOL    HW218462   3.501   4.535   5.881
 5855SOL     OW18463   2.156   2.326   3.866
 5855SOL    HW118464   2.071   2.310   3.916
 5855SOL    HW218465   2.217   2.248   3.879
 5856SOL     OW18466   1.842   6.556   2.623
 5856SOL    HW118467   1.941   6.561   2.617
 5856SOL    HW218468   1.807   6.498   2.549
 5857SOL     OW18469   0.204   3.358   5.925
 5857SOL    HW118470   0.181   3.371   6.021
 5857SOL    HW218471   0.201   3.445   5.877
 5858SOL     OW18472   2.119   1.456   3.360
 5858SOL    HW118473   2.053   1.477   3.433
 5858SOL    HW218474   2.139   1.539   3.309
 5859SOL     OW18475   5.776   0.146   1.426
 5859SOL    HW118476   5.861   0.180   1.387
 5859SOL    HW218477   5.740   0.071   1.370
 5860SOL     OW18478   0.512   4.041   3.282
 5860SOL    HW118479   0.442   3.979   3.247
 5860SOL    HW218480   0.491   4.066   3.376
 5861SOL     OW18481   6.061   0.221   4.900
 5861SOL    HW118482   5.997   0.240   4.826
 5861SOL    HW218483   6.152   0.255   4.875
 5862SOL     OW18484   6.617   5.835   2.396
 5862SOL    HW118485   6.649   5.913   2.449
 5862SOL    HW218486   6.576   5.866   2.311
 5863SOL     OW18487   2.632   0.840   4.935
 5863SOL    HW118488   2.686   0.892   4.869
 5863SOL    HW218489   2.656   0.868   5.028
 5864SOL     OW18490   3.423   3.820   3.552
 5864SOL    HW118491   3.516   3.845   3.578
 5864SOL    HW218492   3.375   3.781   3.630
 5865SOL     OW18493   6.040   1.232   5.758
 5865SOL    HW118494   6.030   1.268   5.665
 5865SOL    HW218495   6.015   1.303   5.824
 5866SOL     OW18496   3.374   3.610   1.490
 5866SOL    HW118497   3.306   3.539   1.506
 5866SOL    HW218498   3.462   3.567   1.469
 5867SOL     OW18499   2.305   2.230   1.405
 5867SOL    HW118500   2.389   2.236   1.352
 5867SOL    HW218501   2.323   2.184   1.492
 5868SOL     OW18502   0.627   1.762   6.012
 5868SOL    HW118503   0.608   1.684   6.072
 5868SOL    HW218504   0.596   1.846   6.057
 5869SOL     OW18505   0.827   4.596   3.726
 5869SOL    HW118506   0.824   4.504   3.766
 5869SOL    HW218507   0.828   4.664   3.799
 5870SOL     OW18508   4.273   4.710   5.601
 5870SOL    HW118509   4.337   4.787   5.609
 5870SOL    HW218510   4.186   4.742   5.564
 5871SOL     OW18511   2.892   3.423   3.497
 5871SOL    HW118512   2.901   3.413   3.398
 5871SOL    HW218513   2.881   3.520   3.520
 5872SOL     OW18514   3.962   6.051   1.334
 5872SOL    HW118515   3.964   6.100   1.421
 5872SOL    HW218516   3.876   5.999   1.327
 5873SOL     OW18517   2.978   5.141   2.736
 5873SOL    HW118518   3.040   5.072   2.775
 5873SOL    HW218519   3.032   5.220   2.705
 5874SOL     OW18520   2.269   4.301   5.004
 5874SOL    HW118521   2.268   4.330   5.100
 5874SOL    HW218522   2.283   4.202   4.999
 5875SOL     OW18523   3.585   2.230   0.160
 5875SOL    HW118524   3.650   2.256   0.232
 5875SOL    HW218525   3.577   2.305   0.094
 5876SOL     OW18526   3.887   4.015   2.469
 5876SOL    HW118527   3.960   4.078   2.440
 5876SOL    HW218528   3.916   3.966   2.551
 5877SOL     OW18529   5.920   6.492   1.178
 5877SOL    HW118530   5.873   6.577   1.153
 5877SOL    HW218531   5.934   6.489   1.277
 5878SOL     OW18532   1.295   5.753   3.571
 5878SOL    HW118533   1.293   5.800   3.483
 5878SOL    HW218534   1.387   5.715   3.586
 5879SOL     OW18535   6.289   3.468   6.940
 5879SOL    HW118536   6.211   3.516   6.980
 5879SOL    HW218537   6.345   3.533   6.888
 5880SOL     OW18538   2.770   5.747   1.398
 5880SOL    HW118539   2.698   5.704   1.451
 5880SOL    HW218540   2.734   5.829   1.354
 5881SOL     OW18541   0.101   4.800   3.674
 5881SOL    HW118542   0.122   4.764   3.765
 5881SOL    HW218543   0.067   4.894   3.683
 5882SOL     OW18544   5.779   0.495   0.820
 5882SOL    HW118545   5.789   0.581   0.870
 5882SOL    HW218546   5.683   0.482   0.793
 5883SOL     OW18547   0.515   2.373   6.342
 5883SOL    HW118548   0.489   2.469   6.337
 5883SOL    HW218549   0.537   2.349   6.436
 5884SOL     OW18550   1.961   1.229   3.513
 5884SOL    HW118551   2.035   1.185   3.462
 5884SOL    HW218552   1.876   1.220   3.460
 5885SOL     OW18553   6.575   6.776   1.408
 5885SOL    HW118554   6.611   6.845   1.472
 5885SOL    HW218555   6.527   6.705   1.460
 5886SOL     OW18556   0.371   2.568   5.113
 5886SOL    HW118557   0.276   2.570   5.083
 5886SOL    HW218558   0.396   2.656   5.152
 5887SOL     OW18559   3.984   1.131   3.807
 5887SOL    HW118560   4.029   1.219   3.796
 5887SOL    HW218561   3.889   1.138   3.777
 5888SOL     OW18562   2.698   6.148   2.822
 5888SOL    HW118563   2.721   6.246   2.822
 5888SOL    HW218564   2.782   6.094   2.823
 5889SOL     OW18565   1.897   6.968   1.659
 5889SOL    HW118566   1.981   7.022   1.652
 5889SOL    HW218567   1.835   6.993   1.585
 5890SOL     OW18568   1.382   0.102   5.287
 5890SOL    HW118569   1.390   0.037   5.362
 5890SOL    HW218570   1.289   0.139   5.284
 5891SOL     OW18571   4.170   3.333   6.520
 5891SOL    HW118572   4.194   3.236   6.528
 5891SOL    HW218573   4.250   3.384   6.487
 5892SOL     OW18574   1.197   6.178   1.679
 5892SOL    HW118575   1.204   6.259   1.621
 5892SOL    HW218576   1.118   6.123   1.650
 5893SOL     OW18577   1.409   3.342   3.439
 5893SOL    HW118578   1.469   3.261   3.434
 5893SOL    HW218579   1.315   3.312   3.455
 5894SOL     OW18580   1.038   5.059   3.193
 5894SOL    HW118581   0.967   5.126   3.212
 5894SOL    HW218582   1.036   5.034   3.096
 5895SOL     OW18583   5.134   2.422   4.614
 5895SOL    HW118584   5.041   2.415   4.649
 5895SOL    HW218585   5.184   2.493   4.664
 5896SOL     OW18586   4.074   2.087   0.480
 5896SOL    HW118587   4.128   2.004   0.490
 5896SOL    HW218588   4.050   2.123   0.570
 5897SOL     OW18589   3.773   6.982   2.004
 5897SOL    HW118590   3.706   7.001   1.932
 5897SOL    HW218591   3.865   6.984   1.966
 5898SOL     OW18592   2.033   0.388   2.771
 5898SOL    HW118593   2.124   0.362   2.740
 5898SOL    HW218594   2.025   0.488   2.771
 5899SOL     OW18595   5.398   6.890   5.167
 5899SOL    HW118596   5.393   6.948   5.085
 5899SOL    HW218597   5.322   6.912   5.228
 5900SOL     OW18598   4.598   5.115   3.469
 5900SOL    HW118599   4.596   5.101   3.568
 5900SOL    HW218600   4.504   5.118   3.434
 5901SOL     OW18601   2.244   0.554   6.342
 5901SOL    HW118602   2.194   0.514   6.266
 5901SOL    HW218603   2.340   0.565   6.316
 5902SOL     OW18604   6.940   2.103   0.711
 5902SOL    HW118605   0.001   2.149   0.707
 5902SOL    HW218606   6.870   2.164   0.673
 5903SOL     OW18607   5.532   4.011   0.709
 5903SOL    HW118608   5.566   4.104   0.695
 5903SOL    HW218609   5.608   3.946   0.701
 5904SOL     OW18610   0.158   3.632   2.517
 5904SOL    HW118611   0.258   3.640   2.511
 5904SOL    HW218612   0.132   3.536   2.509
 5905SOL     OW18613   5.964   6.113   2.792
 5905SOL    HW118614   5.973   6.132   2.890
 5905SOL    HW218615   6.005   6.024   2.772
 5906SOL     OW18616   5.533   0.660   4.005
 5906SOL    HW118617   5.498   0.651   4.098
 5906SOL    HW218618   5.625   0.621   4.000
 5907SOL     OW18619   1.458   6.188   2.015
 5907SOL    HW118620   1.363   6.160   2.000
 5907SOL    HW218621   1.519   6.116   1.983
 5908SOL     OW18622   0.910   2.395   5.824
 5908SOL    HW118623   0.824   2.445   5.811
 5908SOL    HW218624   0.895   2.298   5.802
 5909SOL     OW18625   0.753   5.286   0.707
 5909SOL    HW118626   0.654   5.291   0.693
 5909SOL    HW218627   0.800   5.330   0.631
 5910SOL     OW18628   0.809   2.811   3.368
 5910SOL    HW118629   0.839   2.890   3.315
 5910SOL    HW218630   0.754   2.842   3.446
 5911SOL     OW18631   0.030   5.739   6.402
 5911SOL    HW118632   0.025   5.838   6.394
 5911SOL    HW218633   6.974   5.704   6.444
 5912SOL     OW18634   6.347   1.305   5.602
 5912SOL    HW118635   6.299   1.373   5.658
 5912SOL    HW218636   6.361   1.221   5.655
 5913SOL     OW18637   5.404   2.739   0.272
 5913SOL    HW118638   5.473   2.674   0.239
 5913SOL    HW218639   5.368   2.791   0.194
 5914SOL     OW18640   1.047   6.799   6.707
 5914SOL    HW118641   1.102   6.825   6.628
 5914SOL    HW218642   1.020   6.703   6.699
 5915SOL     OW18643   3.416   6.128   0.126
 5915SOL    HW118644   3.455   6.182   0.051
 5915SOL    HW218645   3.476   6.133   0.206
 5916SOL     OW18646   0.094   6.785   2.336
 5916SOL    HW118647   0.057   6.815   2.248
 5916SOL    HW218648   0.018   6.762   2.398
 5917SOL     OW18649   2.934   3.955   5.932
 5917SOL    HW118650   2.987   4.022   5.879
 5917SOL    HW218651   2.978   3.940   6.021
 5918SOL     OW18652   1.778   5.600   6.143
 5918SOL    HW118653   1.869   5.563   6.125
 5918SOL    HW218654   1.780   5.700   6.133
 5919SOL     OW18655   2.952   3.536   2.949
 5919SOL    HW118656   2.925   3.472   2.877
 5919SOL    HW218657   3.011   3.607   2.910
 5920SOL     OW18658   5.323   1.279   6.251
 5920SOL    HW118659   5.246   1.340   6.271
 5920SOL    HW218660   5.394   1.331   6.202
 5921SOL     OW18661   3.706   5.192   6.639
 5921SOL    HW118662   3.736   5.208   6.545
 5921SOL    HW218663   3.688   5.094   6.652
 5922SOL     OW18664   6.536   3.799   3.875
 5922SOL    HW118665   6.468   3.772   3.943
 5922SOL    HW218666   6.525   3.744   3.792
 5923SOL     OW18667   0.125   0.727   1.518
 5923SOL    HW118668   0.163   0.686   1.600
 5923SOL    HW218669   0.183   0.803   1.489
 5924SOL     OW18670   5.973   6.699   3.214
 5924SOL    HW118671   6.066   6.698   3.251
 5924SOL    HW218672   5.935   6.790   3.222
 5925SOL     OW18673   3.960   6.127   1.735
 5925SOL    HW118674   3.958   6.199   1.666
 5925SOL    HW218675   3.907   6.048   1.704
 5926SOL     OW18676   4.550   4.371   2.853
 5926SOL    HW118677   4.494   4.452   2.838
 5926SOL    HW218678   4.508   4.293   2.806
 5927SOL     OW18679   1.116   3.482   1.987
 5927SOL    HW118680   1.088   3.420   1.913
 5927SOL    HW218681   1.117   3.433   2.074
 5928SOL     OW18682   3.558   6.837   1.573
 5928SOL    HW118683   3.573   6.882   1.661
 5928SOL    HW218684   3.580   6.740   1.581
 5929SOL     OW18685   6.225   1.053   5.511
 5929SOL    HW118686   6.201   1.144   5.478
 5929SOL    HW218687   6.157   1.022   5.577
 5930SOL     OW18688   0.578   2.834   2.304
 5930SOL    HW118689   0.618   2.763   2.246
 5930SOL    HW218690   0.495   2.799   2.347
 5931SOL     OW18691   6.054   5.895   2.503
 5931SOL    HW118692   6.152   5.883   2.487
 5931SOL    HW218693   6.029   5.991   2.487
 5932SOL     OW18694   3.365   0.060   6.488
 5932SOL    HW118695   3.346   0.032   6.394
 5932SOL    HW218696   3.372   7.008   6.547
 5933SOL     OW18697   6.561   5.195   4.054
 5933SOL    HW118698   6.611   5.273   4.016
 5933SOL    HW218699   6.487   5.229   4.112
 5934SOL     OW18700   3.562   3.431   5.693
 5934SOL    HW118701   3.514   3.455   5.609
 5934SOL    HW218702   3.502   3.375   5.751
 5935SOL     OW18703   0.689   6.388   5.139
 5935SOL    HW118704   0.690   6.406   5.041
 5935SOL    HW218705   0.597   6.404   5.175
 5936SOL     OW18706   2.948   3.569   2.442
 5936SOL    HW118707   2.930   3.512   2.361
 5936SOL    HW218708   2.976   3.510   2.518
 5937SOL     OW18709   6.239   2.983   2.479
 5937SOL    HW118710   6.219   3.050   2.408
 5937SOL    HW218711   6.329   2.942   2.462
 5938SOL     OW18712   5.827   5.678   4.874
 5938SOL    HW118713   5.870   5.588   4.883
 5938SOL    HW218714   5.763   5.677   4.798
 5939SOL     OW18715   3.196   6.144   4.225
 5939SOL    HW118716   3.228   6.054   4.255
 5939SOL    HW218717   3.156   6.192   4.303
 5940SOL     OW18718   4.296   5.012   3.124
 5940SOL    HW118719   4.198   4.999   3.110
 5940SOL    HW218720   4.317   5.002   3.221
 5941SOL     OW18721   5.834   2.681   3.558
 5941SOL    HW118722   5.868   2.705   3.649
 5941SOL    HW218723   5.746   2.635   3.566
 5942SOL     OW18724   5.650   2.992   6.568
 5942SOL    HW118725   5.637   3.076   6.620
 5942SOL    HW218726   5.738   2.995   6.521
 5943SOL     OW18727   3.952   3.617   6.949
 5943SOL    HW118728   3.880   3.594   6.883
 5943SOL    HW218729   3.921   3.594   0.013
 5944SOL     OW18730   0.752   2.856   0.182
 5944SOL    HW118731   0.814   2.779   0.167
 5944SOL    HW218732   0.799   2.925   0.238
 5945SOL     OW18733   0.260   5.888   5.345
 5945SOL    HW118734   0.233   5.966   5.288
 5945SOL    HW218735   0.187   5.869   5.411
 5946SOL     OW18736   3.303   4.556   0.149
 5946SOL    HW118737   3.304   4.458   0.133
 5946SOL    HW218738   3.388   4.597   0.114
 5947SOL     OW18739   3.171   3.257   3.907
 5947SOL    HW118740   3.122   3.338   3.876
 5947SOL    HW218741   3.139   3.233   3.999
 5948SOL     OW18742   4.639   4.652   2.219
 5948SOL    HW118743   4.732   4.630   2.249
 5948SOL    HW218744   4.643   4.695   2.128
 5949SOL     OW18745   4.841   5.812   0.848
 5949SOL    HW118746   4.797   5.736   0.799
 5949SOL    HW218747   4.801   5.899   0.818
 5950SOL     OW18748   4.682   2.508   5.388
 5950SOL    HW118749   4.682   2.603   5.357
 5950SOL    HW218750   4.678   2.447   5.309
 5951SOL     OW18751   0.985   5.766   4.842
 5951SOL    HW118752   1.020   5.679   4.809
 5951SOL    HW218753   0.902   5.750   4.895
 5952SOL     OW18754   4.335   5.285   3.155
 5952SOL    HW118755   4.321   5.190   3.127
 5952SOL    HW218756   4.246   5.328   3.171
 5953SOL     OW18757   6.590   4.112   4.926
 5953SOL    HW118758   6.690   4.117   4.920
 5953SOL    HW218759   6.556   4.183   4.987
 5954SOL     OW18760   0.220   5.774   5.776
 5954SOL    HW118761   0.168   5.697   5.814
 5954SOL    HW218762   0.188   5.792   5.682
 5955SOL     OW18763   4.440   5.307   1.388
 5955SOL    HW118764   4.500   5.337   1.314
 5955SOL    HW218765   4.478   5.225   1.431
 5956SOL     OW18766   5.647   1.482   4.032
 5956SOL    HW118767   5.629   1.577   4.056
 5956SOL    HW218768   5.605   1.461   3.944
 5957SOL     OW18769   2.659   1.642   3.858
 5957SOL    HW118770   2.745   1.620   3.813
 5957SOL    HW218771   2.625   1.730   3.824
 5958SOL     OW18772   4.510   0.902   2.999
 5958SOL    HW118773   4.452   0.860   2.929
 5958SOL    HW218774   4.460   0.976   3.044
 5959SOL     OW18775   4.198   2.645   5.644
 5959SOL    HW118776   4.174   2.698   5.563
 5959SOL    HW218777   4.284   2.679   5.682
 5960SOL     OW18778   2.949   6.564   3.844
 5960SOL    HW118779   3.025   6.526   3.791
 5960SOL    HW218780   2.970   6.558   3.942
 5961SOL     OW18781   4.116   1.322   1.988
 5961SOL    HW118782   4.052   1.353   1.917
 5961SOL    HW218783   4.149   1.401   2.040
 5962SOL     OW18784   5.500   5.894   6.049
 5962SOL    HW118785   5.563   5.943   6.110
 5962SOL    HW218786   5.495   5.798   6.076
 5963SOL     OW18787   3.427   3.491   6.978
 5963SOL    HW118788   3.475   3.530   6.899
 5963SOL    HW218789   3.426   3.557   0.024
 5964SOL     OW18790   2.777   6.890   3.847
 5964SOL    HW118791   2.717   6.860   3.773
 5964SOL    HW218792   2.854   6.941   3.808
 5965SOL     OW18793   1.486   0.536   6.935
 5965SOL    HW118794   1.545   0.610   6.968
 5965SOL    HW218795   1.506   0.517   6.839
 5966SOL     OW18796   1.309   7.015   6.052
 5966SOL    HW118797   1.219   7.016   6.096
 5966SOL    HW218798   1.329   0.078   6.015
 5967SOL     OW18799   2.185   0.527   5.640
 5967SOL    HW118800   2.246   0.448   5.627
 5967SOL    HW218801   2.149   0.556   5.551
 5968SOL     OW18802   5.763   2.837   0.407
 5968SOL    HW118803   5.713   2.923   0.412
 5968SOL    HW218804   5.848   2.851   0.356
 5969SOL     OW18805   5.214   1.524   6.438
 5969SOL    HW118806   5.176   1.489   6.525
 5969SOL    HW218807   5.157   1.600   6.406
 5970SOL     OW18808   0.377   4.479   0.670
 5970SOL    HW118809   0.382   4.462   0.769
 5970SOL    HW218810   0.466   4.508   0.637
 5971SOL     OW18811   6.352   0.107   1.451
 5971SOL    HW118812   6.292   0.055   1.390
 5971SOL    HW218813   6.433   0.053   1.473
 5972SOL     OW18814   5.256   5.785   6.300
 5972SOL    HW118815   5.317   5.718   6.258
 5972SOL    HW218816   5.211   5.744   6.379
 5973SOL     OW18817   1.557   3.139   2.985
 5973SOL    HW118818   1.532   3.207   3.054
 5973SOL    HW218819   1.626   3.077   3.022
 5974SOL     OW18820   5.157   0.424   0.297
 5974SOL    HW118821   5.175   0.443   0.394
 5974SOL    HW218822   5.080   0.479   0.266
 5975SOL     OW18823   4.271   6.075   0.937
 5975SOL    HW118824   4.234   5.991   0.895
 5975SOL    HW218825   4.209   6.151   0.918
 5976SOL     OW18826   3.387   3.110   5.611
 5976SOL    HW118827   3.401   3.179   5.540
 5976SOL    HW218828   3.440   3.028   5.589
 5977SOL     OW18829   0.550   5.735   0.316
 5977SOL    HW118830   0.598   5.820   0.337
 5977SOL    HW218831   0.526   5.688   0.401
 5978SOL     OW18832   3.658   5.682   1.086
 5978SOL    HW118833   3.720   5.741   1.138
 5978SOL    HW218834   3.601   5.629   1.149
 5979SOL     OW18835   6.737   0.954   2.018
 5979SOL    HW118836   6.707   0.971   1.925
 5979SOL    HW218837   6.666   0.985   2.082
 5980SOL     OW18838   3.367   2.889   2.110
 5980SOL    HW118839   3.373   2.983   2.078
 5980SOL    HW218840   3.390   2.885   2.208
 5981SOL     OW18841   4.881   1.645   0.511
 5981SOL    HW118842   4.891   1.652   0.412
 5981SOL    HW218843   4.869   1.737   0.549
 5982SOL     OW18844   6.121   2.138   2.696
 5982SOL    HW118845   6.164   2.063   2.646
 5982SOL    HW218846   6.047   2.177   2.641
 5983SOL     OW18847   1.440   0.746   4.123
 5983SOL    HW118848   1.400   0.800   4.197
 5983SOL    HW218849   1.382   0.667   4.103
 5984SOL     OW18850   5.693   6.502   3.499
 5984SOL    HW118851   5.625   6.449   3.548
 5984SOL    HW218852   5.728   6.449   3.422
 5985SOL     OW18853   6.365   2.605   3.566
 5985SOL    HW118854   6.285   2.659   3.594
 5985SOL    HW218855   6.445   2.665   3.564
 5986SOL     OW18856   3.925   4.234   6.141
 5986SOL    HW118857   3.846   4.294   6.130
 5986SOL    HW218858   4.005   4.275   6.097
 5987SOL     OW18859   5.469   0.679   4.580
 5987SOL    HW118860   5.494   0.736   4.501
 5987SOL    HW218861   5.467   0.583   4.553
 5988SOL     OW18862   3.783   1.056   6.793
 5988SOL    HW118863   3.775   1.094   6.885
 5988SOL    HW218864   3.692   1.044   6.753
 5989SOL     OW18865   1.531   5.747   5.490
 5989SOL    HW118866   1.494   5.829   5.446
 5989SOL    HW218867   1.609   5.713   5.437
 5990SOL     OW18868   3.986   4.131   0.702
 5990SOL    HW118869   3.960   4.170   0.790
 5990SOL    HW218870   3.960   4.194   0.629
 5991SOL     OW18871   4.402   5.910   0.055
 5991SOL    HW118872   4.376   5.828   0.106
 5991SOL    HW218873   4.477   5.888   7.021
 5992SOL     OW18874   3.526   6.750   1.974
 5992SOL    HW118875   3.526   6.655   1.944
 5992SOL    HW218876   3.502   6.756   2.071
 5993SOL     OW18877   5.559   4.391   5.977
 5993SOL    HW118878   5.484   4.432   6.028
 5993SOL    HW218879   5.637   4.454   5.975
 5994SOL     OW18880   6.903   2.914   1.241
 5994SOL    HW118881   6.894   2.850   1.318
 5994SOL    HW218882   6.983   2.972   1.255
 5995SOL     OW18883   4.673   2.745   1.848
 5995SOL    HW118884   4.640   2.686   1.922
 5995SOL    HW218885   4.671   2.840   1.878
 5996SOL     OW18886   1.675   5.614   1.696
 5996SOL    HW118887   1.678   5.520   1.663
 5996SOL    HW218888   1.668   5.677   1.618
 5997SOL     OW18889   0.795   6.676   3.329
 5997SOL    HW118890   0.848   6.694   3.412
 5997SOL    HW218891   0.735   6.754   3.310
 5998SOL     OW18892   5.781   0.815   1.689
 5998SOL    HW118893   5.691   0.856   1.700
 5998SOL    HW218894   5.797   0.794   1.593
 5999SOL     OW18895   2.659   3.474   0.902
 5999SOL    HW118896   2.700   3.452   0.991
 5999SOL    HW218897   2.594   3.549   0.913
 6000SOL     OW18898   0.641   6.130   0.367
 6000SOL    HW118899   0.594   6.218   0.377
 6000SOL    HW218900   0.739   6.142   0.386
 6001SOL     OW18901   5.585   5.111   6.958
 6001SOL    HW118902   5.589   5.178   6.885
 6001SOL    HW218903   5.493   5.111   6.999
 6002SOL     OW18904   6.926   6.996   5.715
 6002SOL    HW118905   6.854   6.940   5.756
 6002SOL    HW218906   6.954   0.039   5.780
 6003SOL     OW18907   5.855   2.483   4.474
 6003SOL    HW118908   5.808   2.562   4.514
 6003SOL    HW218909   5.843   2.403   4.533
 6004SOL     OW18910   6.272   2.493   3.828
 6004SOL    HW118911   6.335   2.531   3.760
 6004SOL    HW218912   6.194   2.451   3.783
 6005SOL     OW18913   5.494   4.934   5.166
 6005SOL    HW118914   5.485   4.847   5.118
 6005SOL    HW218915   5.453   4.926   5.257
 6006SOL     OW18916   3.065   0.181   5.214
 6006SOL    HW118917   3.024   0.113   5.152
 6006SOL    HW218918   3.011   0.185   5.298
 6007SOL     OW18919   0.098   2.959   6.303
 6007SOL    HW118920   0.004   2.953   6.338
 6007SOL    HW218921   0.102   2.918   6.212
 6008SOL     OW18922   2.226   4.926   4.968
 6008SOL    HW118923   2.181   4.896   5.053
 6008SOL    HW218924   2.313   4.969   4.990
 6009SOL     OW18925   4.363   5.666   3.494
 6009SOL    HW118926   4.278   5.718   3.508
 6009SOL    HW218927   4.419   5.670   3.577
 6010SOL     OW18928   0.590   4.435   3.621
 6010SOL    HW118929   0.642   4.501   3.675
 6010SOL    HW218930   0.644   4.404   3.543
 6011SOL     OW18931   4.799   2.976   2.611
 6011SOL    HW118932   4.781   2.981   2.709
 6011SOL    HW218933   4.837   3.062   2.579
 6012SOL     OW18934   6.278   0.429   0.055
 6012SOL    HW118935   6.360   0.373   0.045
 6012SOL    HW218936   6.270   0.491   7.006
 6013SOL     OW18937   4.440   1.181   2.548
 6013SOL    HW118938   4.523   1.125   2.551
 6013SOL    HW218939   4.462   1.274   2.578
 6014SOL     OW18940   3.378   3.930   4.226
 6014SOL    HW118941   3.280   3.942   4.205
 6014SOL    HW218942   3.391   3.842   4.272
 6015SOL     OW18943   6.354   3.664   4.442
 6015SOL    HW118944   6.407   3.603   4.383
 6015SOL    HW218945   6.413   3.700   4.514
 6016SOL     OW18946   5.339   1.928   5.419
 6016SOL    HW118947   5.250   1.891   5.395
 6016SOL    HW218948   5.383   1.868   5.486
 6017SOL     OW18949   6.951   4.723   5.092
 6017SOL    HW118950   6.931   4.762   5.182
 6017SOL    HW218951   6.951   4.623   5.099
 6018SOL     OW18952   3.029   1.163   4.673
 6018SOL    HW118953   3.054   1.238   4.611
 6018SOL    HW218954   3.072   1.177   4.762
 6019SOL     OW18955   0.524   3.338   5.339
 6019SOL    HW118956   0.450   3.332   5.407
 6019SOL    HW218957   0.612   3.319   5.384
 6020SOL     OW18958   0.896   5.382   0.934
 6020SOL    HW118959   0.969   5.425   0.882
 6020SOL    HW218960   0.828   5.343   0.871
 6021SOL     OW18961   4.839   0.146   3.148
 6021SOL    HW118962   4.786   0.209   3.205
 6021SOL    HW218963   4.877   0.196   3.070
 6022SOL     OW18964   6.795   1.555   3.164
 6022SOL    HW118965   6.781   1.650   3.138
 6022SOL    HW218966   6.720   1.525   3.224
 6023SOL     OW18967   5.561   0.303   1.361
 6023SOL    HW118968   5.569   0.314   1.262
 6023SOL    HW218969   5.645   0.262   1.397
 6024SOL     OW18970   0.692   4.775   0.726
 6024SOL    HW118971   0.682   4.682   0.689
 6024SOL    HW218972   0.692   4.841   0.651
 6025SOL     OW18973   3.589   1.310   3.867
 6025SOL    HW118974   3.552   1.313   3.960
 6025SOL    HW218975   3.551   1.386   3.814
 6026SOL     OW18976   0.008   5.478   4.806
 6026SOL    HW118977   6.964   5.532   4.849
 6026SOL    HW218978   0.091   5.533   4.798
 6027SOL     OW18979   0.166   3.290   6.185
 6027SOL    HW118980   0.217   3.223   6.240
 6027SOL    HW218981   0.202   3.381   6.201
 6028SOL     OW18982   5.095   4.831   0.901
 6028SOL    HW118983   5.058   4.924   0.904
 6028SOL    HW218984   5.082   4.787   0.990
 6029SOL     OW18985   2.659   0.123   3.599
 6029SOL    HW118986   2.620   0.035   3.625
 6029SOL    HW218987   2.649   0.187   3.676
 6030SOL     OW18988   5.214   3.581   4.829
 6030SOL    HW118989   5.196   3.487   4.858
 6030SOL    HW218990   5.312   3.599   4.833
 6031SOL     OW18991   1.740   5.977   4.223
 6031SOL    HW118992   1.681   6.058   4.216
 6031SOL    HW218993   1.700   5.912   4.288
 6032SOL     OW18994   2.838   5.181   3.035
 6032SOL    HW118995   2.813   5.100   2.982
 6032SOL    HW218996   2.774   5.255   3.015
 6033SOL     OW18997   2.357   2.778   2.567
 6033SOL    HW118998   2.352   2.840   2.645
 6033SOL    HW218999   2.441   2.725   2.571
 6034SOL     OW19000   0.785   0.296   6.229
 6034SOL    HW119001   0.704   0.339   6.269
 6034SOL    HW219002   0.838   0.253   6.302
 6035SOL     OW19003   1.389   0.111   2.607
 6035SOL    HW119004   1.363   0.184   2.669
 6035SOL    HW219005   1.321   0.038   2.611
 6036SOL     OW19006   5.861   5.021   1.527
 6036SOL    HW119007   5.914   5.103   1.506
 6036SOL    HW219008   5.782   5.016   1.467
 6037SOL     OW19009   3.690   0.211   0.601
 6037SOL    HW119010   3.633   0.288   0.572
 6037SOL    HW219011   3.750   0.241   0.675
 6038SOL     OW19012   1.164   2.562   6.726
 6038SOL    HW119013   1.178   2.661   6.721
 6038SOL    HW219014   1.066   2.542   6.714
 6039SOL     OW19015   4.004   3.956   3.484
 6039SOL    HW119016   3.939   4.002   3.543
 6039SOL    HW219017   4.090   4.008   3.482
 6040SOL     OW19018   2.231   1.247   0.069
 6040SOL    HW119019   2.176   1.282   0.145
 6040SOL    HW219020   2.328   1.257   0.092
 6041SOL     OW19021   3.478   2.246   5.297
 6041SOL    HW119022   3.506   2.152   5.277
 6041SOL    HW219023   3.397   2.269   5.244
 6042SOL     OW19024   3.886   6.616   2.857
 6042SOL    HW119025   3.874   6.624   2.956
 6042SOL    HW219026   3.938   6.695   2.823
 6043SOL     OW19027   1.303   0.502   4.052
 6043SOL    HW119028   1.320   0.414   4.095
 6043SOL    HW219029   1.205   0.521   4.051
 6044SOL     OW19030   2.538   1.855   2.133
 6044SOL    HW119031   2.458   1.814   2.178
 6044SOL    HW219032   2.562   1.940   2.180
 6045SOL     OW19033   5.396   3.090   3.828
 6045SOL    HW119034   5.335   3.154   3.876
 6045SOL    HW219035   5.445   3.034   3.896
 6046SOL     OW19036   3.210   3.012   0.704
 6046SOL    HW119037   3.249   3.073   0.772
 6046SOL    HW219038   3.115   3.037   0.686
 6047SOL     OW19039   5.486   2.349   1.276
 6047SOL    HW119040   5.563   2.330   1.215
 6047SOL    HW219041   5.477   2.274   1.342
 6048SOL     OW19042   5.007   5.663   5.192
 6048SOL    HW119043   5.019   5.750   5.144
 6048SOL    HW219044   5.013   5.679   5.291
 6049SOL     OW19045   5.433   4.732   6.210
 6049SOL    HW119046   5.441   4.741   6.309
 6049SOL    HW219047   5.369   4.800   6.176
 6050SOL     OW19048   2.515   5.497   1.045
 6050SOL    HW119049   2.563   5.534   0.965
 6050SOL    HW219050   2.537   5.400   1.055
 6051SOL     OW19051   2.121   6.623   2.846
 6051SOL    HW119052   2.216   6.644   2.824
 6051SOL    HW219053   2.070   6.708   2.858
 6052SOL     OW19054   5.319   1.129   1.790
 6052SOL    HW119055   5.362   1.202   1.842
 6052SOL    HW219056   5.313   1.155   1.694
 6053SOL     OW19057   4.132   0.733   6.453
 6053SOL    HW119058   4.124   0.651   6.397
 6053SOL    HW219059   4.114   0.814   6.397
 6054SOL     OW19060   3.288   4.505   0.550
 6054SOL    HW119061   3.308   4.580   0.488
 6054SOL    HW219062   3.213   4.531   0.611
 6055SOL     OW19063   3.599   5.761   5.919
 6055SOL    HW119064   3.610   5.708   6.003
 6055SOL    HW219065   3.633   5.708   5.841
 6056SOL     OW19066   5.174   3.363   4.986
 6056SOL    HW119067   5.077   3.344   4.996
 6056SOL    HW219068   5.222   3.279   4.959
 6057SOL     OW19069   6.017   0.388   2.340
 6057SOL    HW119070   6.105   0.428   2.317
 6057SOL    HW219071   5.949   0.414   2.271
 6058SOL     OW19072   5.487   3.780   0.401
 6058SOL    HW119073   5.558   3.735   0.347
 6058SOL    HW219074   5.472   3.728   0.486
 6059SOL     OW19075   5.261   4.472   5.546
 6059SOL    HW119076   5.263   4.376   5.520
 6059SOL    HW219077   5.354   4.506   5.556
 6060SOL     OW19078   2.495   3.317   6.999
 6060SOL    HW119079   2.572   3.266   6.961
 6060SOL    HW219080   2.523   3.409   7.023
 6061SOL     OW19081   4.719   4.629   0.796
 6061SOL    HW119082   4.798   4.648   0.738
 6061SOL    HW219083   4.673   4.546   0.765
 6062SOL     OW19084   2.270   1.515   6.795
 6062SOL    HW119085   2.202   1.441   6.793
 6062SOL    HW219086   2.289   1.541   6.889
 6063SOL     OW19087   3.536   4.073   5.864
 6063SOL    HW119088   3.447   4.028   5.853
 6063SOL    HW219089   3.526   4.171   5.844
 6064SOL     OW19090   0.910   0.665   1.402
 6064SOL    HW119091   0.960   0.628   1.324
 6064SOL    HW219092   0.969   0.725   1.456
 6065SOL     OW19093   0.204   5.745   1.913
 6065SOL    HW119094   0.229   5.767   1.819
 6065SOL    HW219095   0.136   5.811   1.946
 6066SOL     OW19096   5.798   0.658   4.890
 6066SOL    HW119097   5.748   0.743   4.910
 6066SOL    HW219098   5.878   0.653   4.950
 6067SOL     OW19099   4.856   1.303   5.350
 6067SOL    HW119100   4.845   1.241   5.427
 6067SOL    HW219101   4.766   1.327   5.314
 6068SOL     OW19102   5.022   2.312   3.907
 6068SOL    HW119103   4.971   2.380   3.855
 6068SOL    HW219104   5.052   2.239   3.846
 6069SOL     OW19105   6.681   4.119   5.630
 6069SOL    HW119106   6.759   4.162   5.583
 6069SOL    HW219107   6.659   4.032   5.586
 6070SOL     OW19108   3.589   2.826   1.375
 6070SOL    HW119109   3.596   2.753   1.443
 6070SOL    HW219110   3.494   2.856   1.368
 6071SOL     OW19111   0.814   5.820   4.544
 6071SOL    HW119112   0.870   5.755   4.596
 6071SOL    HW219113   0.737   5.773   4.502
 6072SOL     OW19114   0.368   0.834   1.834
 6072SOL    HW119115   0.392   0.915   1.780
 6072SOL    HW219116   0.404   0.845   1.927
 6073SOL     OW19117   5.116   3.036   0.941
 6073SOL    HW119118   5.086   3.101   0.872
 6073SOL    HW219119   5.192   3.075   0.993
 6074SOL     OW19120   1.926   6.492   2.001
 6074SOL    HW119121   2.010   6.514   1.952
 6074SOL    HW219122   1.889   6.405   1.967
 6075SOL     OW19123   4.422   0.205   5.342
 6075SOL    HW119124   4.342   0.263   5.359
 6075SOL    HW219125   4.409   0.157   5.255
 6076SOL     OW19126   2.247   5.411   3.437
 6076SOL    HW119127   2.333   5.452   3.407
 6076SOL    HW219128   2.265   5.323   3.481
 6077SOL     OW19129   6.139   6.349   1.032
 6077SOL    HW119130   6.051   6.350   1.080
 6077SOL    HW219131   6.155   6.439   0.991
 6078SOL     OW19132   4.310   4.853   0.348
 6078SOL    HW119133   4.281   4.884   0.257
 6078SOL    HW219134   4.235   4.805   0.393
 6079SOL     OW19135   4.971   4.758   6.371
 6079SOL    HW119136   4.980   4.674   6.317
 6079SOL    HW219137   4.904   4.818   6.328
 6080SOL     OW19138   0.339   5.156   1.333
 6080SOL    HW119139   0.356   5.210   1.416
 6080SOL    HW219140   0.316   5.062   1.358
 6081SOL     OW19141   6.901   2.851   5.221
 6081SOL    HW119142   6.828   2.911   5.188
 6081SOL    HW219143   6.917   2.870   5.318
 6082SOL     OW19144   3.665   6.854   2.456
 6082SOL    HW119145   3.713   6.888   2.376
 6082SOL    HW219146   3.715   6.776   2.495
 6083SOL     OW19147   5.505   5.225   0.694
 6083SOL    HW119148   5.499   5.270   0.783
 6083SOL    HW219149   5.532   5.292   0.624
 6084SOL     OW19150   0.951   6.454   2.210
 6084SOL    HW119151   0.855   6.460   2.182
 6084SOL    HW219152   0.989   6.366   2.179
 6085SOL     OW19153   6.765   5.954   6.611
 6085SOL    HW119154   6.733   5.861   6.630
 6085SOL    HW219155   6.713   5.992   6.535
 6086SOL     OW19156   2.810   2.145   5.865
 6086SOL    HW119157   2.779   2.077   5.799
 6086SOL    HW219158   2.852   2.222   5.816
 6087SOL     OW19159   3.781   5.953   0.992
 6087SOL    HW119160   3.820   6.031   0.942
 6087SOL    HW219161   3.779   5.974   1.090
 6088SOL     OW19162   5.077   6.683   4.894
 6088SOL    HW119163   5.089   6.767   4.842
 6088SOL    HW219164   5.029   6.615   4.837
 6089SOL     OW19165   6.411   2.515   3.328
 6089SOL    HW119166   6.361   2.539   3.411
 6089SOL    HW219167   6.391   2.582   3.257
 6090SOL     OW19168   2.406   5.019   4.737
 6090SOL    HW119169   2.386   5.042   4.832
 6090SOL    HW219170   2.502   5.040   4.717
 6091SOL     OW19171   2.795   1.598   0.505
 6091SOL    HW119172   2.839   1.510   0.526
 6091SOL    HW219173   2.830   1.668   0.567
 6092SOL     OW19174   4.313   1.140   1.817
 6092SOL    HW119175   4.250   1.124   1.893
 6092SOL    HW219176   4.383   1.206   1.845
 6093SOL     OW19177   2.437   2.311   1.881
 6093SOL    HW119178   2.516   2.371   1.896
 6093SOL    HW219179   2.382   2.347   1.806
 6094SOL     OW19180   1.580   6.266   3.290
 6094SOL    HW119181   1.608   6.196   3.357
 6094SOL    HW219182   1.662   6.305   3.247
 6095SOL     OW19183   4.624   4.714   6.458
 6095SOL    HW119184   4.678   4.728   6.541
 6095SOL    HW219185   4.659   4.772   6.385
 6096SOL     OW19186   5.827   0.380   2.137
 6096SOL    HW119187   5.803   0.447   2.067
 6096SOL    HW219188   5.873   0.303   2.094
 6097SOL     OW19189   1.544   5.140   2.164
 6097SOL    HW119190   1.533   5.203   2.087
 6097SOL    HW219191   1.621   5.079   2.146
 6098SOL     OW19192   6.541   1.384   6.205
 6098SOL    HW119193   6.562   1.313   6.273
 6098SOL    HW219194   6.523   1.471   6.252
 6099SOL     OW19195   4.983   5.694   5.470
 6099SOL    HW119196   4.885   5.674   5.474
 6099SOL    HW219197   4.999   5.788   5.501
 6100SOL     OW19198   0.509   6.238   2.099
 6100SOL    HW119199   0.438   6.286   2.048
 6100SOL    HW219200   0.473   6.151   2.133
 6101SOL     OW19201   6.730   2.932   2.949
 6101SOL    HW119202   6.656   2.900   2.889
 6101SOL    HW219203   6.818   2.913   2.907
 6102SOL     OW19204   4.338   5.907   2.977
 6102SOL    HW119205   4.343   5.997   3.022
 6102SOL    HW219206   4.263   5.854   3.015
 6103SOL     OW19207   0.235   0.540   1.273
 6103SOL    HW119208   0.163   0.525   1.340
 6103SOL    HW219209   0.294   0.616   1.304
 6104SOL     OW19210   6.345   6.947   5.239
 6104SOL    HW119211   6.275   6.893   5.286
 6104SOL    HW219212   6.412   6.886   5.198
 6105SOL     OW19213   1.546   5.418   5.829
 6105SOL    HW119214   1.519   5.330   5.868
 6105SOL    HW219215   1.637   5.409   5.788
 6106SOL     OW19216   1.319   4.859   0.208
 6106SOL    HW119217   1.414   4.837   0.189
 6106SOL    HW219218   1.282   4.916   0.134
 6107SOL     OW19219   4.849   5.684   4.753
 6107SOL    HW119220   4.775   5.689   4.819
 6107SOL    HW219221   4.831   5.747   4.677
 6108SOL     OW19222   2.228   2.459   3.287
 6108SOL    HW119223   2.181   2.373   3.267
 6108SOL    HW219224   2.186   2.502   3.367
 6109SOL     OW19225   5.672   0.899   4.923
 6109SOL    HW119226   5.668   0.999   4.926
 6109SOL    HW219227   5.587   0.863   4.884
 6110SOL     OW19228   2.262   2.688   0.482
 6110SOL    HW119229   2.262   2.762   0.549
 6110SOL    HW219230   2.223   2.720   0.396
 6111SOL     OW19231   1.263   3.261   2.446
 6111SOL    HW119232   1.269   3.341   2.505
 6111SOL    HW219233   1.230   3.183   2.500
 6112SOL     OW19234   4.732   0.421   2.603
 6112SOL    HW119235   4.635   0.404   2.586
 6112SOL    HW219236   4.760   0.502   2.551
 6113SOL     OW19237   2.749   2.747   6.707
 6113SOL    HW119238   2.739   2.757   6.806
 6113SOL    HW219239   2.735   2.652   6.681
 6114SOL     OW19240   4.881   3.541   2.505
 6114SOL    HW119241   4.877   3.529   2.406
 6114SOL    HW219242   4.811   3.607   2.533
 6115SOL     OW19243   6.584   1.009   5.003
 6115SOL    HW119244   6.504   1.053   4.961
 6115SOL    HW219245   6.652   0.989   4.933
 6116SOL     OW19246   4.205   1.675   5.557
 6116SOL    HW119247   4.163   1.766   5.553
 6116SOL    HW219248   4.300   1.684   5.586
 6117SOL     OW19249   1.833   2.236   3.125
 6117SOL    HW119250   1.738   2.215   3.103
 6117SOL    HW219251   1.893   2.171   3.081
 6118SOL     OW19252   6.090   1.442   1.300
 6118SOL    HW119253   6.149   1.454   1.220
 6118SOL    HW219254   6.114   1.357   1.347
 6119SOL     OW19255   1.547   3.390   0.514
 6119SOL    HW119256   1.640   3.388   0.476
 6119SOL    HW219257   1.538   3.470   0.574
 6120SOL     OW19258   1.870   6.428   5.616
 6120SOL    HW119259   1.933   6.415   5.693
 6120SOL    HW219260   1.776   6.422   5.649
 6121SOL     OW19261   1.188   3.846   5.749
 6121SOL    HW119262   1.191   3.921   5.682
 6121SOL    HW219263   1.138   3.876   5.830
 6122SOL     OW19264   4.562   5.428   6.695
 6122SOL    HW119265   4.635   5.491   6.722
 6122SOL    HW219266   4.480   5.480   6.671
 6123SOL     OW19267   4.803   6.958   5.545
 6123SOL    HW119268   4.878   6.927   5.604
 6123SOL    HW219269   4.775   0.021   5.573
 6124SOL     OW19270   0.520   6.595   5.965
 6124SOL    HW119271   0.423   6.572   5.975
 6124SOL    HW219272   0.576   6.517   5.994
 6125SOL     OW19273   2.223   3.760   6.791
 6125SOL    HW119274   2.228   3.678   6.848
 6125SOL    HW219275   2.128   3.783   6.773
 6126SOL     OW19276   0.514   1.358   5.051
 6126SOL    HW119277   0.493   1.413   5.132
 6126SOL    HW219278   0.432   1.352   4.993
 6127SOL     OW19279   4.032   6.950   1.996
 6127SOL    HW119280   4.071   6.920   2.083
 6127SOL    HW219281   4.103   6.947   1.926
 6128SOL     OW19282   5.418   5.175   0.449
 6128SOL    HW119283   5.331   5.221   0.467
 6128SOL    HW219284   5.465   5.157   0.535
 6129SOL     OW19285   0.975   3.680   3.635
 6129SOL    HW119286   0.907   3.724   3.693
 6129SOL    HW219287   1.066   3.718   3.655
 6130SOL     OW19288   5.768   2.457   3.117
 6130SOL    HW119289   5.814   2.529   3.167
 6130SOL    HW219290   5.791   2.463   3.020
 6131SOL     OW19291   1.053   1.385   3.241
 6131SOL    HW119292   1.120   1.448   3.280
 6131SOL    HW219293   1.057   1.297   3.289
 6132SOL     OW19294   3.853   1.866   6.773
 6132SOL    HW119295   3.904   1.782   6.790
 6132SOL    HW219296   3.912   1.934   6.729
 6133SOL     OW19297   2.130   3.228   3.035
 6133SOL    HW119298   2.073   3.256   3.113
 6133SOL    HW219299   2.164   3.135   3.050
 6134SOL     OW19300   4.422   6.755   0.133
 6134SOL    HW119301   4.507   6.702   0.132
 6134SOL    HW219302   4.414   6.804   0.220
 6135SOL     OW19303   0.296   5.372   0.935
 6135SOL    HW119304   0.316   5.274   0.931
 6135SOL    HW219305   0.297   5.402   1.031
 6136SOL     OW19306   1.404   2.747   1.759
 6136SOL    HW119307   1.372   2.767   1.852
 6136SOL    HW219308   1.336   2.779   1.693
 6137SOL     OW19309   0.708   4.028   2.282
 6137SOL    HW119310   0.678   4.114   2.241
 6137SOL    HW219311   0.759   3.974   2.215
 6138SOL     OW19312   4.001   6.889   3.516
 6138SOL    HW119313   4.067   6.964   3.518
 6138SOL    HW219314   3.933   6.907   3.444
 6139SOL     OW19315   0.826   6.647   5.494
 6139SOL    HW119316   0.764   6.608   5.561
 6139SOL    HW219317   0.774   6.692   5.421
 6140SOL     OW19318   0.707   0.401   2.351
 6140SOL    HW119319   0.733   0.475   2.413
 6140SOL    HW219320   0.664   0.440   2.270
 6141SOL     OW19321   0.157   7.010   6.217
 6141SOL    HW119322   0.176   0.080   6.229
 6141SOL    HW219323   0.177   6.983   6.123
 6142SOL     OW19324   0.738   6.118   6.508
 6142SOL    HW119325   0.670   6.127   6.435
 6142SOL    HW219326   0.722   6.189   6.577
 6143SOL     OW19327   0.290   4.353   1.040
 6143SOL    HW119328   0.282   4.303   0.954
 6143SOL    HW219329   0.222   4.318   1.105
 6144SOL     OW19330   5.228   5.106   3.381
 6144SOL    HW119331   5.327   5.095   3.390
 6144SOL    HW219332   5.196   5.053   3.303
 6145SOL     OW19333   5.377   4.845   3.912
 6145SOL    HW119334   5.365   4.855   3.814
 6145SOL    HW219335   5.298   4.884   3.960
 6146SOL     OW19336   3.638   6.071   3.315
 6146SOL    HW119337   3.715   6.069   3.251
 6146SOL    HW219338   3.609   6.166   3.329
 6147SOL     OW19339   1.935   2.246   5.077
 6147SOL    HW119340   1.962   2.259   5.172
 6147SOL    HW219341   1.838   2.267   5.067
 6148SOL     OW19342   4.113   5.932   5.942
 6148SOL    HW119343   4.164   5.920   5.857
 6148SOL    HW219344   4.166   5.894   6.018
 6149SOL     OW19345   2.348   0.092   1.739
 6149SOL    HW119346   2.402   0.136   1.667
 6149SOL    HW219347   2.409   0.062   1.812
 6150SOL     OW19348   5.963   3.812   0.055
 6150SOL    HW119349   5.878   3.865   0.049
 6150SOL    HW219350   6.015   3.822   6.999
 6151SOL     OW19351   5.470   5.170   5.025
 6151SOL    HW119352   5.471   5.189   4.927
 6151SOL    HW219353   5.509   5.079   5.041
 6152SOL     OW19354   0.697   5.111   4.741
 6152SOL    HW119355   0.615   5.056   4.759
 6152SOL    HW219356   0.749   5.070   4.666
 6153SOL     OW19357   5.298   5.106   1.111
 6153SOL    HW119358   5.319   5.008   1.116
 6153SOL    HW219359   5.352   5.155   1.179
 6154SOL     OW19360   5.618   3.014   2.753
 6154SOL    HW119361   5.611   3.113   2.762
 6154SOL    HW219362   5.691   2.979   2.812
 6155SOL     OW19363   2.777   1.147   2.897
 6155SOL    HW119364   2.816   1.197   2.820
 6155SOL    HW219365   2.848   1.129   2.965
 6156SOL     OW19366   4.242   5.173   1.328
 6156SOL    HW119367   4.163   5.210   1.377
 6156SOL    HW219368   4.320   5.234   1.340
 6157SOL     OW19369   0.641   2.051   3.073
 6157SOL    HW119370   0.696   2.124   3.113
 6157SOL    HW219371   0.701   1.985   3.028
 6158SOL     OW19372   3.705   2.326   0.371
 6158SOL    HW119373   3.764   2.344   0.450
 6158SOL    HW219374   3.725   2.391   0.299
 6159SOL     OW19375   4.617   2.524   0.682
 6159SOL    HW119376   4.529   2.550   0.723
 6159SOL    HW219377   4.679   2.492   0.754
 6160SOL     OW19378   6.465   6.692   6.552
 6160SOL    HW119379   6.488   6.745   6.470
 6160SOL    HW219380   6.444   6.755   6.627
 6161SOL     OW19381   5.384   1.170   0.175
 6161SOL    HW119382   5.441   1.132   0.102
 6161SOL    HW219383   5.407   1.126   0.262
 6162SOL     OW19384   6.054   6.163   3.658
 6162SOL    HW119385   6.133   6.104   3.674
 6162SOL    HW219386   6.070   6.220   3.577
 6163SOL     OW19387   5.403   5.499   2.397
 6163SOL    HW119388   5.473   5.494   2.469
 6163SOL    HW219389   5.370   5.407   2.375
 6164SOL     OW19390   3.638   4.182   4.875
 6164SOL    HW119391   3.700   4.128   4.933
 6164SOL    HW219392   3.637   4.276   4.907
 6165SOL     OW19393   3.992   1.862   5.893
 6165SOL    HW119394   4.042   1.783   5.928
 6165SOL    HW219395   4.002   1.866   5.793
 6166SOL     OW19396   5.965   1.830   0.346
 6166SOL    HW119397   5.952   1.752   0.284
 6166SOL    HW219398   5.971   1.796   0.440
 6167SOL     OW19399   0.507   4.755   3.361
 6167SOL    HW119400   0.592   4.785   3.405
 6167SOL    HW219401   0.430   4.802   3.404
 6168SOL     OW19402   0.198   2.952   3.592
 6168SOL    HW119403   0.275   2.893   3.568
 6168SOL    HW219404   0.130   2.949   3.519
 6169SOL     OW19405   1.311   1.727   6.932
 6169SOL    HW119406   1.360   1.749   7.017
 6169SOL    HW219407   1.253   1.647   6.948
 6170SOL     OW19408   3.286   4.447   5.513
 6170SOL    HW119409   3.362   4.425   5.575
 6170SOL    HW219410   3.308   4.531   5.463
 6171SOL     OW19411   1.449   3.369   1.266
 6171SOL    HW119412   1.414   3.452   1.310
 6171SOL    HW219413   1.527   3.334   1.318
 6172SOL     OW19414   1.147   0.809   3.049
 6172SOL    HW119415   1.102   0.853   2.971
 6172SOL    HW219416   1.077   0.779   3.115
 6173SOL     OW19417   6.894   4.823   2.459
 6173SOL    HW119418   6.836   4.830   2.379
 6173SOL    HW219419   6.850   4.766   2.528
 6174SOL     OW19420   6.215   5.259   2.962
 6174SOL    HW119421   6.182   5.253   2.868
 6174SOL    HW219422   6.158   5.323   3.014
 6175SOL     OW19423   5.242   0.191   3.757
 6175SOL    HW119424   5.330   0.219   3.720
 6175SOL    HW219425   5.223   0.097   3.732
 6176SOL     OW19426   6.639   3.131   0.425
 6176SOL    HW119427   6.675   3.135   0.332
 6176SOL    HW219428   6.604   3.221   0.451
 6177SOL     OW19429   6.137   1.670   1.005
 6177SOL    HW119430   6.115   1.617   0.923
 6177SOL    HW219431   6.172   1.608   1.076
 6178SOL     OW19432   4.572   5.428   2.220
 6178SOL    HW119433   4.547   5.514   2.264
 6178SOL    HW219434   4.658   5.394   2.259
 6179SOL     OW19435   6.703   4.639   4.409
 6179SOL    HW119436   6.681   4.668   4.315
 6179SOL    HW219437   6.799   4.611   4.413
 6180SOL     OW19438   3.641   6.451   6.244
 6180SOL    HW119439   3.703   6.402   6.305
 6180SOL    HW219440   3.631   6.399   6.159
 6181SOL     OW19441   4.591   6.441   1.252
 6181SOL    HW119442   4.598   6.493   1.337
 6181SOL    HW219443   4.495   6.427   1.229
 6182SOL     OW19444   5.502   3.651   5.457
 6182SOL    HW119445   5.483   3.569   5.512
 6182SOL    HW219446   5.595   3.683   5.476
 6183SOL     OW19447   3.030   6.998   2.878
 6183SOL    HW119448   2.938   6.970   2.853
 6183SOL    HW219449   3.095   6.926   2.852
 6184SOL     OW19450   2.167   6.795   6.060
 6184SOL    HW119451   2.098   6.764   5.995
 6184SOL    HW219452   2.219   6.716   6.092
 6185SOL     OW19453   0.995   4.994   6.426
 6185SOL    HW119454   1.089   4.983   6.392
 6185SOL    HW219455   0.980   5.090   6.450
 6186SOL     OW19456   6.032   0.126   4.541
 6186SOL    HW119457   6.003   0.216   4.574
 6186SOL    HW219458   5.956   0.082   4.494
 6187SOL     OW19459   4.642   4.495   4.524
 6187SOL    HW119460   4.572   4.518   4.592
 6187SOL    HW219461   4.658   4.575   4.465
 6188SOL     OW19462   2.249   6.609   0.984
 6188SOL    HW119463   2.151   6.607   1.005
 6188SOL    HW219464   2.275   6.523   0.941
 6189SOL     OW19465   4.505   4.519   4.004
 6189SOL    HW119466   4.587   4.577   4.012
 6189SOL    HW219467   4.446   4.533   4.083
 6190SOL     OW19468   6.306   3.405   6.456
 6190SOL    HW119469   6.300   3.457   6.371
 6190SOL    HW219470   6.373   3.449   6.517
 6191SOL     OW19471   4.631   2.909   0.284
 6191SOL    HW119472   4.613   2.819   0.325
 6191SOL    HW219473   4.687   2.963   0.346
 6192SOL     OW19474   3.093   3.360   0.222
 6192SOL    HW119475   3.079   3.442   0.166
 6192SOL    HW219476   3.032   3.362   0.301
 6193SOL     OW19477   5.308   1.106   2.808
 6193SOL    HW119478   5.402   1.080   2.788
 6193SOL    HW219479   5.256   1.026   2.838
 6194SOL     OW19480   1.175   6.640   0.033
 6194SOL    HW119481   1.229   6.614   0.113
 6194SOL    HW219482   1.224   6.711   7.010
 6195SOL     OW19483   3.835   5.750   5.554
 6195SOL    HW119484   3.838   5.782   5.459
 6195SOL    HW219485   3.821   5.828   5.615
 6196SOL     OW19486   5.805   2.378   1.315
 6196SOL    HW119487   5.883   2.318   1.334
 6196SOL    HW219488   5.770   2.359   1.224
 6197SOL     OW19489   4.039   4.048   0.365
 6197SOL    HW119490   4.030   4.054   0.265
 6197SOL    HW219491   4.136   4.051   0.389
 6198SOL     OW19492   3.126   5.264   2.335
 6198SOL    HW119493   3.188   5.236   2.409
 6198SOL    HW219494   3.165   5.237   2.247
 6199SOL     OW19495   0.749   6.924   1.000
 6199SOL    HW119496   0.807   7.004   1.011
 6199SOL    HW219497   0.744   6.899   0.903
 6200SOL     OW19498   2.087   0.596   5.385
 6200SOL    HW119499   2.018   0.659   5.420
 6200SOL    HW219500   2.043   0.525   5.331
 6201SOL     OW19501   1.751   3.990   5.325
 6201SOL    HW119502   1.776   3.957   5.416
 6201SOL    HW219503   1.817   3.957   5.258
 6202SOL     OW19504   4.172   2.012   1.378
 6202SOL    HW119505   4.115   1.936   1.410
 6202SOL    HW219506   4.180   2.081   1.450
 6203SOL     OW19507   5.709   6.539   3.169
 6203SOL    HW119508   5.762   6.618   3.199
 6203SOL    HW219509   5.752   6.498   3.089
 6204SOL     OW19510   0.571   5.111   5.289
 6204SOL    HW119511   0.602   5.206   5.290
 6204SOL    HW219512   0.528   5.089   5.376
 6205SOL     OW19513   5.539   6.338   0.191
 6205SOL    HW119514   5.627   6.295   0.177
 6205SOL    HW219515   5.550   6.438   0.191
 6206SOL     OW19516   6.274   0.605   2.712
 6206SOL    HW119517   6.242   0.545   2.785
 6206SOL    HW219518   6.291   0.696   2.749
 6207SOL     OW19519   1.564   4.078   4.335
 6207SOL    HW119520   1.529   4.051   4.245
 6207SOL    HW219521   1.564   3.999   4.396
 6208SOL     OW19522   6.262   1.587   6.641
 6208SOL    HW119523   6.237   1.664   6.582
 6208SOL    HW219524   6.340   1.612   6.697
 6209SOL     OW19525   4.560   5.621   0.059
 6209SOL    HW119526   4.480   5.581   0.015
 6209SOL    HW219527   4.632   5.635   7.019
 6210SOL     OW19528   5.965   4.976   3.716
 6210SOL    HW119529   6.055   5.004   3.751
 6210SOL    HW219530   5.920   5.054   3.673
 6211SOL     OW19531   2.997   6.584   4.399
 6211SOL    HW119532   2.923   6.518   4.392
 6211SOL    HW219533   2.988   6.636   4.484
 6212SOL     OW19534   2.340   5.188   3.143
 6212SOL    HW119535   2.245   5.171   3.169
 6212SOL    HW219536   2.344   5.213   3.046
 6213SOL     OW19537   4.998   0.305   6.876
 6213SOL    HW119538   4.902   0.323   6.898
 6213SOL    HW219539   5.047   0.281   6.960
 6214SOL     OW19540   4.561   4.558   3.189
 6214SOL    HW119541   4.533   4.517   3.276
 6214SOL    HW219542   4.552   4.657   3.195
 6215SOL     OW19543   4.021   2.104   0.006
 6215SOL    HW119544   4.096   2.168   0.022
 6215SOL    HW219545   4.008   2.090   6.936
 6216SOL     OW19546   6.446   2.185   2.075
 6216SOL    HW119547   6.535   2.200   2.118
 6216SOL    HW219548   6.400   2.273   2.063
 6217SOL     OW19549   0.163   2.771   2.918
 6217SOL    HW119550   0.113   2.693   2.956
 6217SOL    HW219551   0.098   2.840   2.886
 6218SOL     OW19552   2.998   5.124   5.305
 6218SOL    HW119553   3.039   5.083   5.386
 6218SOL    HW219554   2.958   5.053   5.247
 6219SOL     OW19555   1.318   2.147   4.454
 6219SOL    HW119556   1.357   2.230   4.493
 6219SOL    HW219557   1.230   2.128   4.498
 6220SOL     OW19558   1.588   3.304   5.378
 6220SOL    HW119559   1.647   3.316   5.298
 6220SOL    HW219560   1.642   3.267   5.454
 6221SOL     OW19561   6.436   5.861   6.605
 6221SOL    HW119562   6.449   5.761   6.604
 6221SOL    HW219563   6.372   5.887   6.533
 6222SOL     OW19564   1.027   6.349   1.100
 6222SOL    HW119565   0.997   6.373   1.192
 6222SOL    HW219566   1.126   6.332   1.101
 6223SOL     OW19567   0.160   4.697   4.936
 6223SOL    HW119568   0.224   4.672   5.008
 6223SOL    HW219569   0.076   4.731   4.976
 6224SOL     OW19570   2.493   2.228   6.313
 6224SOL    HW119571   2.586   2.195   6.297
 6224SOL    HW219572   2.452   2.175   6.388
 6225SOL     OW19573   3.169   3.126   1.412
 6225SOL    HW119574   3.129   3.190   1.478
 6225SOL    HW219575   3.246   3.170   1.366
 6226SOL     OW19576   5.566   1.831   5.133
 6226SOL    HW119577   5.585   1.909   5.192
 6226SOL    HW219578   5.486   1.851   5.076
 6227SOL     OW19579   3.686   5.611   5.723
 6227SOL    HW119580   3.619   5.540   5.700
 6227SOL    HW219581   3.738   5.635   5.641
 6228SOL     OW19582   0.365   2.640   2.716
 6228SOL    HW119583   0.288   2.676   2.768
 6228SOL    HW219584   0.448   2.645   2.771
 6229SOL     OW19585   0.780   2.893   2.488
 6229SOL    HW119586   0.759   2.961   2.559
 6229SOL    HW219587   0.697   2.872   2.436
 6230SOL     OW19588   1.428   1.217   4.017
 6230SOL    HW119589   1.334   1.211   4.050
 6230SOL    HW219590   1.483   1.144   4.059
 6231SOL     OW19591   6.660   4.851   1.448
 6231SOL    HW119592   6.666   4.819   1.542
 6231SOL    HW219593   6.749   4.841   1.404
 6232SOL     OW19594   6.017   1.870   0.884
 6232SOL    HW119595   5.931   1.915   0.910
 6232SOL    HW219596   6.022   1.781   0.929
 6233SOL     OW19597   5.863   0.796   0.016
 6233SOL    HW119598   5.907   0.746   6.969
 6233SOL    HW219599   5.915   0.879   0.036
 6234SOL     OW19600   6.585   1.547   5.745
 6234SOL    HW119601   6.601   1.463   5.798
 6234SOL    HW219602   6.517   1.603   5.792
 6235SOL     OW19603   1.394   0.260   1.895
 6235SOL    HW119604   1.314   0.286   1.841
 6235SOL    HW219605   1.414   0.331   1.962
 6236SOL     OW19606   0.681   4.185   0.610
 6236SOL    HW119607   0.711   4.090   0.609
 6236SOL    HW219608   0.717   4.233   0.530
 6237SOL     OW19609   3.566   6.041   6.505
 6237SOL    HW119610   3.663   6.058   6.519
 6237SOL    HW219611   3.540   5.958   6.553
 6238SOL     OW19612   3.744   4.880   3.375
 6238SOL    HW119613   3.835   4.920   3.386
 6238SOL    HW219614   3.700   4.871   3.464
 6239SOL     OW19615   3.248   6.179   2.026
 6239SOL    HW119616   3.314   6.162   2.099
 6239SOL    HW219617   3.283   6.250   1.964
 6240SOL     OW19618   2.920   3.050   6.743
 6240SOL    HW119619   2.930   3.029   6.646
 6240SOL    HW219620   2.948   2.971   6.798
 6241SOL     OW19621   3.075   0.067   1.513
 6241SOL    HW119622   3.139   0.027   1.578
 6241SOL    HW219623   3.108   0.053   1.420
 6242SOL     OW19624   5.427   0.771   3.682
 6242SOL    HW119625   5.486   0.845   3.713
 6242SOL    HW219626   5.433   0.694   3.747
 6243SOL     OW19627   5.849   6.650   3.708
 6243SOL    HW119628   5.804   6.589   3.643
 6243SOL    HW219629   5.871   6.736   3.664
 6244SOL     OW19630   1.211   2.416   2.295
 6244SOL    HW119631   1.261   2.487   2.246
 6244SOL    HW219632   1.158   2.362   2.230
 6245SOL     OW19633   1.829   4.309   0.381
 6245SOL    HW119634   1.802   4.380   0.316
 6245SOL    HW219635   1.925   4.321   0.407
 6246SOL     OW19636   1.978   3.028   5.785
 6246SOL    HW119637   2.042   3.037   5.862
 6246SOL    HW219638   2.029   3.031   5.699
 6247SOL     OW19639   1.390   6.788   3.736
 6247SOL    HW119640   1.291   6.782   3.736
 6247SOL    HW219641   1.419   6.870   3.686
 6248SOL     OW19642   2.880   4.366   0.471
 6248SOL    HW119643   2.891   4.462   0.495
 6248SOL    HW219644   2.888   4.310   0.554
 6249SOL     OW19645   0.720   4.012   0.351
 6249SOL    HW119646   0.788   4.034   0.421
 6249SOL    HW219647   0.707   4.092   0.292
 6250SOL     OW19648   0.024   5.989   0.323
 6250SOL    HW119649   0.028   5.960   0.419
 6250SOL    HW219650   0.032   5.908   0.264
 6251SOL     OW19651   3.677   5.674   0.112
 6251SOL    HW119652   3.591   5.723   0.093
 6251SOL    HW219653   3.669   5.625   0.198
 6252SOL     OW19654   1.453   6.764   6.109
 6252SOL    HW119655   1.406   6.851   6.094
 6252SOL    HW219656   1.392   6.701   6.156
 6253SOL     OW19657   2.155   3.905   2.634
 6253SOL    HW119658   2.126   3.832   2.572
 6253SOL    HW219659   2.175   3.988   2.581
 6254SOL     OW19660   4.771   1.036   0.341
 6254SOL    HW119661   4.766   1.009   0.437
 6254SOL    HW219662   4.845   1.102   0.328
 6255SOL     OW19663   2.651   0.661   1.201
 6255SOL    HW119664   2.661   0.705   1.112
 6255SOL    HW219665   2.628   0.730   1.270
 6256SOL     OW19666   3.299   5.331   2.855
 6256SOL    HW119667   3.390   5.289   2.854
 6256SOL    HW219668   3.252   5.308   2.941
 6257SOL     OW19669   4.945   2.495   0.699
 6257SOL    HW119670   4.851   2.505   0.665
 6257SOL    HW219671   4.996   2.578   0.678
 6258SOL     OW19672   4.497   0.189   3.810
 6258SOL    HW119673   4.571   0.226   3.866
 6258SOL    HW219674   4.534   0.151   3.726
 6259SOL     OW19675   2.884   2.541   0.929
 6259SOL    HW119676   2.851   2.558   1.022
 6259SOL    HW219677   2.882   2.626   0.877
 6260SOL     OW19678   3.024   5.515   0.114
 6260SOL    HW119679   2.950   5.548   0.173
 6260SOL    HW219680   3.088   5.461   0.169
 6261SOL     OW19681   3.906   0.153   6.775
 6261SOL    HW119682   3.826   0.180   6.722
 6261SOL    HW219683   3.887   0.164   6.872
 6262SOL     OW19684   1.408   4.851   0.918
 6262SOL    HW119685   1.359   4.905   0.850
 6262SOL    HW219686   1.506   4.851   0.895
 6263SOL     OW19687   0.076   0.658   5.546
 6263SOL    HW119688   7.022   0.613   5.579
 6263SOL    HW219689   0.065   0.681   5.449
 6264SOL     OW19690   1.403   0.281   1.513
 6264SOL    HW119691   1.343   0.239   1.581
 6264SOL    HW219692   1.409   0.221   1.433
 6265SOL     OW19693   2.817   4.647   0.519
 6265SOL    HW119694   2.844   4.741   0.500
 6265SOL    HW219695   2.792   4.638   0.615
 6266SOL     OW19696   3.797   0.668   4.584
 6266SOL    HW119697   3.749   0.728   4.520
 6266SOL    HW219698   3.749   0.580   4.590
 6267SOL     OW19699   2.647   0.467   6.731
 6267SOL    HW119700   2.583   0.524   6.680
 6267SOL    HW219701   2.740   0.482   6.697
 6268SOL     OW19702   3.444   6.356   3.144
 6268SOL    HW119703   3.527   6.335   3.195
 6268SOL    HW219704   3.366   6.361   3.207
 6269SOL     OW19705   6.588   5.341   1.575
 6269SOL    HW119706   6.633   5.252   1.570
 6269SOL    HW219707   6.626   5.393   1.652
 6270SOL     OW19708   1.703   0.427   5.513
 6270SOL    HW119709   1.740   0.364   5.444
 6270SOL    HW219710   1.750   0.413   5.600
 6271SOL     OW19711   5.508   2.743   5.952
 6271SOL    HW119712   5.463   2.738   6.042
 6271SOL    HW219713   5.440   2.764   5.882
 6272SOL     OW19714   0.853   2.513   6.339
 6272SOL    HW119715   0.920   2.503   6.411
 6272SOL    HW219716   0.881   2.458   6.259
 6273SOL     OW19717   2.092   0.231   2.970
 6273SOL    HW119718   2.167   0.272   3.022
 6273SOL    HW219719   2.062   0.294   2.898
 6274SOL     OW19720   2.200   5.459   5.901
 6274SOL    HW119721   2.151   5.546   5.908
 6274SOL    HW219722   2.208   5.417   5.991
 6275SOL     OW19723   1.995   6.039   4.696
 6275SOL    HW119724   2.004   5.954   4.643
 6275SOL    HW219725   2.069   6.101   4.672
 6276SOL     OW19726   2.140   5.012   3.402
 6276SOL    HW119727   2.193   4.931   3.426
 6276SOL    HW219728   2.108   5.056   3.486
 6277SOL     OW19729   5.532   3.643   1.911
 6277SOL    HW119730   5.618   3.604   1.878
 6277SOL    HW219731   5.521   3.736   1.876
 6278SOL     OW19732   4.957   0.131   4.521
 6278SOL    HW119733   4.897   0.158   4.445
 6278SOL    HW219734   4.902   0.121   4.604
 6279SOL     OW19735   3.497   1.005   6.767
 6279SOL    HW119736   3.488   0.939   6.692
 6279SOL    HW219737   3.455   0.966   6.850
 6280SOL     OW19738   1.051   2.438   5.108
 6280SOL    HW119739   0.995   2.380   5.167
 6280SOL    HW219740   1.142   2.399   5.099
 6281SOL     OW19741   1.834   5.245   4.008
 6281SOL    HW119742   1.924   5.276   3.978
 6281SOL    HW219743   1.831   5.241   4.108
 6282SOL     OW19744   1.220   0.228   4.843
 6282SOL    HW119745   1.126   0.235   4.811
 6282SOL    HW219746   1.244   0.132   4.857
 6283SOL     OW19747   6.880   3.446   5.893
 6283SOL    HW119748   6.870   3.420   5.797
 6283SOL    HW219749   6.932   3.375   5.942
 6284SOL     OW19750   2.005   5.494   4.731
 6284SOL    HW119751   1.942   5.422   4.761
 6284SOL    HW219752   1.987   5.516   4.635
 6285SOL     OW19753   0.891   2.840   3.780
 6285SOL    HW119754   0.861   2.826   3.685
 6285SOL    HW219755   0.830   2.906   3.824
 6286SOL     OW19756   6.600   1.893   3.826
 6286SOL    HW119757   6.564   1.956   3.757
 6286SOL    HW219758   6.643   1.815   3.781
 6287SOL     OW19759   3.539   5.096   3.841
 6287SOL    HW119760   3.617   5.048   3.882
 6287SOL    HW219761   3.455   5.072   3.890
 6288SOL     OW19762   5.706   4.834   2.883
 6288SOL    HW119763   5.726   4.867   2.790
 6288SOL    HW219764   5.740   4.741   2.893
 6289SOL     OW19765   1.373   5.055   2.352
 6289SOL    HW119766   1.427   5.098   2.280
 6289SOL    HW219767   1.315   5.125   2.396
 6290SOL     OW19768   6.101   3.214   4.088
 6290SOL    HW119769   6.138   3.289   4.034
 6290SOL    HW219770   6.080   3.246   4.180
 6291SOL     OW19771   3.521   2.885   4.393
 6291SOL    HW119772   3.562   2.795   4.374
 6291SOL    HW219773   3.551   2.950   4.324
 6292SOL     OW19774   1.692   2.013   3.757
 6292SOL    HW119775   1.785   1.989   3.785
 6292SOL    HW219776   1.643   2.053   3.835
 6293SOL     OW19777   3.670   0.680   0.285
 6293SOL    HW119778   3.706   0.587   0.294
 6293SOL    HW219779   3.570   0.677   0.281
 6294SOL     OW19780   3.748   4.957   3.976
 6294SOL    HW119781   3.848   4.955   3.986
 6294SOL    HW219782   3.720   4.886   3.911
 6295SOL     OW19783   5.299   4.941   5.700
 6295SOL    HW119784   5.359   4.916   5.776
 6295SOL    HW219785   5.204   4.919   5.723
 6296SOL     OW19786   0.076   6.829   4.741
 6296SOL    HW119787   0.095   6.802   4.647
 6296SOL    HW219788   7.008   6.810   4.763
 6297SOL     OW19789   4.637   0.045   4.992
 6297SOL    HW119790   4.547   0.022   5.029
 6297SOL    HW219791   4.633   0.133   4.946
 6298SOL     OW19792   1.379   2.499   6.000
 6298SOL    HW119793   1.369   2.517   5.902
 6298SOL    HW219794   1.374   2.585   6.050
 6299SOL     OW19795   5.219   1.341   0.488
 6299SOL    HW119796   5.184   1.348   0.581
 6299SOL    HW219797   5.180   1.259   0.444
 6300SOL     OW19798   4.977   0.430   6.635
 6300SOL    HW119799   4.943   0.361   6.572
 6300SOL    HW219800   4.981   0.392   6.727
 6301SOL     OW19801   3.246   0.495   0.524
 6301SOL    HW119802   3.203   0.583   0.543
 6301SOL    HW219803   3.183   0.420   0.545
 6302SOL     OW19804   1.793   1.765   4.068
 6302SOL    HW119805   1.723   1.736   4.134
 6302SOL    HW219806   1.751   1.777   3.978
 6303SOL     OW19807   2.130   0.863   4.642
 6303SOL    HW119808   2.210   0.835   4.695
 6303SOL    HW219809   2.121   0.962   4.645
 6304SOL     OW19810   2.376   0.982   1.104
 6304SOL    HW119811   2.338   1.048   1.039
 6304SOL    HW219812   2.468   1.010   1.130
 6305SOL     OW19813   6.302   0.064   1.747
 6305SOL    HW119814   6.298   7.023   1.818
 6305SOL    HW219815   6.314   0.154   1.789
 6306SOL     OW19816   1.269   3.506   4.455
 6306SOL    HW119817   1.219   3.555   4.384
 6306SOL    HW219818   1.367   3.518   4.441
 6307SOL     OW19819   4.122   4.669   6.046
 6307SOL    HW119820   4.146   4.572   6.045
 6307SOL    HW219821   4.199   4.722   6.082
 6308SOL     OW19822   1.787   1.595   4.898
 6308SOL    HW119823   1.817   1.520   4.838
 6308SOL    HW219824   1.763   1.674   4.842
 6309SOL     OW19825   4.976   3.864   4.444
 6309SOL    HW119826   5.034   3.817   4.510
 6309SOL    HW219827   4.983   3.819   4.355
 6310SOL     OW19828   2.034   5.537   3.300
 6310SOL    HW119829   2.111   5.502   3.353
 6310SOL    HW219830   2.014   5.631   3.328
 6311SOL     OW19831   5.436   0.153   5.331
 6311SOL    HW119832   5.390   0.064   5.321
 6311SOL    HW219833   5.414   0.191   5.421
 6312SOL     OW19834   5.746   5.152   5.799
 6312SOL    HW119835   5.833   5.161   5.848
 6312SOL    HW219836   5.720   5.240   5.761
 6313SOL     OW19837   1.345   6.131   3.396
 6313SOL    HW119838   1.420   6.188   3.361
 6313SOL    HW219839   1.376   6.078   3.474
 6314SOL     OW19840   4.230   6.575   1.451
 6314SOL    HW119841   4.176   6.517   1.512
 6314SOL    HW219842   4.301   6.519   1.406
 6315SOL     OW19843   3.582   3.333   6.279
 6315SOL    HW119844   3.606   3.260   6.216
 6315SOL    HW219845   3.591   3.300   6.373
 6316SOL     OW19846   4.646   1.956   6.506
 6316SOL    HW119847   4.586   2.024   6.548
 6316SOL    HW219848   4.721   1.934   6.568
 6317SOL     OW19849   5.184   5.264   2.576
 6317SOL    HW119850   5.109   5.241   2.514
 6317SOL    HW219851   5.149   5.322   2.650
 6318SOL     OW19852   2.766   2.132   4.598
 6318SOL    HW119853   2.838   2.147   4.530
 6318SOL    HW219854   2.777   2.198   4.673
 6319SOL     OW19855   0.108   2.146   3.822
 6319SOL    HW119856   0.024   2.108   3.859
 6319SOL    HW219857   0.163   2.184   3.896
 6320SOL     OW19858   5.864   5.338   5.100
 6320SOL    HW119859   5.791   5.297   5.045
 6320SOL    HW219860   5.826   5.410   5.158
 6321SOL     OW19861   3.369   4.161   1.024
 6321SOL    HW119862   3.418   4.177   1.110
 6321SOL    HW219863   3.271   4.151   1.044
 6322SOL     OW19864   1.782   2.167   0.037
 6322SOL    HW119865   1.730   2.107   0.098
 6322SOL    HW219866   1.757   2.150   6.970
 6323SOL     OW19867   3.088   2.557   1.562
 6323SOL    HW119868   3.031   2.476   1.562
 6323SOL    HW219869   3.159   2.547   1.632
 6324SOL     OW19870   4.966   6.920   6.288
 6324SOL    HW119871   4.962   7.011   6.247
 6324SOL    HW219872   4.942   6.926   6.385
 6325SOL     OW19873   2.076   2.077   2.566
 6325SOL    HW119874   2.090   2.141   2.490
 6325SOL    HW219875   2.033   2.125   2.642
 6326SOL     OW19876   4.880   5.704   1.437
 6326SOL    HW119877   4.902   5.746   1.525
 6326SOL    HW219878   4.962   5.660   1.401
 6327SOL     OW19879   0.280   0.526   4.984
 6327SOL    HW119880   0.255   0.620   5.008
 6327SOL    HW219881   0.339   0.527   4.903
 6328SOL     OW19882   1.708   4.026   0.808
 6328SOL    HW119883   1.795   4.030   0.857
 6328SOL    HW219884   1.722   3.983   0.719
 6329SOL     OW19885   2.492   2.531   3.217
 6329SOL    HW119886   2.548   2.509   3.297
 6329SOL    HW219887   2.398   2.502   3.233
 6330SOL     OW19888   4.480   1.385   1.196
 6330SOL    HW119889   4.564   1.417   1.152
 6330SOL    HW219890   4.429   1.464   1.230
 6331SOL     OW19891   6.268   2.078   0.196
 6331SOL    HW119892   6.242   2.174   0.183
 6331SOL    HW219893   6.355   2.061   0.150
 6332SOL     OW19894   6.551   3.841   1.920
 6332SOL    HW119895   6.636   3.791   1.902
 6332SOL    HW219896   6.537   3.908   1.847
 6333SOL     OW19897   4.131   5.472   4.568
 6333SOL    HW119898   4.191   5.400   4.534
 6333SOL    HW219899   4.182   5.558   4.571
 6334SOL     OW19900   3.231   6.828   1.960
 6334SOL    HW119901   3.274   6.753   1.909
 6334SOL    HW219902   3.256   6.916   1.918
 6335SOL     OW19903   4.710   1.510   0.173
 6335SOL    HW119904   4.694   1.518   0.075
 6335SOL    HW219905   4.639   1.454   0.214
 6336SOL     OW19906   0.717   1.459   6.466
 6336SOL    HW119907   0.670   1.524   6.526
 6336SOL    HW219908   0.651   1.419   6.403
 6337SOL     OW19909   4.883   4.548   6.190
 6337SOL    HW119910   4.938   4.505   6.118
 6337SOL    HW219911   4.803   4.490   6.210
 6338SOL     OW19912   3.428   2.148   2.972
 6338SOL    HW119913   3.519   2.151   3.015
 6338SOL    HW219914   3.438   2.128   2.875
 6339SOL     OW19915   1.415   3.004   2.781
 6339SOL    HW119916   1.429   2.906   2.791
 6339SOL    HW219917   1.489   3.053   2.828
 6340SOL     OW19918   1.710   4.732   2.763
 6340SOL    HW119919   1.768   4.771   2.691
 6340SOL    HW219920   1.718   4.632   2.762
 6341SOL     OW19921   0.466   4.415   4.133
 6341SOL    HW119922   0.463   4.316   4.140
 6341SOL    HW219923   0.488   4.442   4.039
 6342SOL     OW19924   2.485   1.798   1.628
 6342SOL    HW119925   2.564   1.792   1.689
 6342SOL    HW219926   2.419   1.726   1.651
 6343SOL     OW19927   4.983   2.427   6.757
 6343SOL    HW119928   4.906   2.366   6.739
 6343SOL    HW219929   4.996   2.488   6.678
 6344SOL     OW19930   5.464   3.585   4.940
 6344SOL    HW119931   5.438   3.627   5.027
 6344SOL    HW219932   5.550   3.625   4.908
 6345SOL     OW19933   4.733   1.873   2.244
 6345SOL    HW119934   4.800   1.894   2.315
 6345SOL    HW219935   4.749   1.933   2.165
 6346SOL     OW19936   6.969   4.497   3.804
 6346SOL    HW119937   6.915   4.494   3.720
 6346SOL    HW219938   0.004   4.419   3.806
 6347SOL     OW19939   1.592   0.048   2.002
 6347SOL    HW119940   1.509   0.088   1.963
 6347SOL    HW219941   1.672   0.102   1.975
 6348SOL     OW19942   1.500   3.682   5.222
 6348SOL    HW119943   1.432   3.754   5.206
 6348SOL    HW219944   1.454   3.594   5.230
 6349SOL     OW19945   3.462   0.099   1.209
 6349SOL    HW119946   3.443   0.070   1.116
 6349SOL    HW219947   3.561   0.099   1.224
 6350SOL     OW19948   2.758   4.656   4.113
 6350SOL    HW119949   2.680   4.641   4.173
 6350SOL    HW219950   2.838   4.608   4.148
 6351SOL     OW19951   6.345   3.340   3.377
 6351SOL    HW119952   6.397   3.282   3.314
 6351SOL    HW219953   6.261   3.292   3.404
 6352SOL     OW19954   2.606   5.302   4.741
 6352SOL    HW119955   2.667   5.352   4.802
 6352SOL    HW219956   2.629   5.204   4.743
 6353SOL     OW19957   7.002   1.048   6.028
 6353SOL    HW119958   0.060   1.008   5.999
 6353SOL    HW219959   6.941   0.976   6.061
 6354SOL     OW19960   1.774   6.796   3.286
 6354SOL    HW119961   1.713   6.717   3.279
 6354SOL    HW219962   1.812   6.816   3.196
 6355SOL     OW19963   1.027   5.311   5.748
 6355SOL    HW119964   0.961   5.341   5.817
 6355SOL    HW219965   1.101   5.261   5.794
 6356SOL     OW19966   3.630   4.905   2.808
 6356SOL    HW119967   3.640   4.860   2.720
 6356SOL    HW219968   3.704   4.971   2.821
 6357SOL     OW19969   5.058   2.977   2.380
 6357SOL    HW119970   4.960   2.988   2.398
 6357SOL    HW219971   5.100   3.067   2.372
 6358SOL     OW19972   1.438   2.222   6.421
 6358SOL    HW119973   1.529   2.183   6.408
 6358SOL    HW219974   1.447   2.319   6.445
 6359SOL     OW19975   6.299   6.647   5.611
 6359SOL    HW119976   6.260   6.668   5.522
 6359SOL    HW219977   6.389   6.690   5.619
 6360SOL     OW19978   1.840   3.753   4.307
 6360SOL    HW119979   1.759   3.798   4.344
 6360SOL    HW219980   1.897   3.720   4.383
 6361SOL     OW19981   6.027   0.162   0.361
 6361SOL    HW119982   6.057   0.205   0.446
 6361SOL    HW219983   6.047   0.222   0.284
 6362SOL     OW19984   6.626   5.611   6.994
 6362SOL    HW119985   6.702   5.550   6.971
 6362SOL    HW219986   6.662   5.702   7.014
 6363SOL     OW19987   2.263   4.200   3.085
 6363SOL    HW119988   2.250   4.187   3.183
 6363SOL    HW219989   2.249   4.113   3.038
 6364SOL     OW19990   3.280   1.150   5.803
 6364SOL    HW119991   3.211   1.111   5.742
 6364SOL    HW219992   3.270   1.250   5.803
 6365SOL     OW19993   5.478   6.761   4.320
 6365SOL    HW119994   5.467   6.848   4.272
 6365SOL    HW219995   5.571   6.752   4.354
 6366SOL     OW19996   1.220   5.576   6.576
 6366SOL    HW119997   1.164   5.587   6.658
 6366SOL    HW219998   1.186   5.638   6.504
 6367SOL     OW19999   3.810   0.174   4.344
 6367SOL    HW120000   3.771   0.230   4.417
 6367SOL    HW220001   3.891   0.220   4.307
 6368SOL     OW20002   3.387   6.315   3.501
 6368SOL    HW120003   3.304   6.371   3.510
 6368SOL    HW220004   3.418   6.288   3.592
 6369SOL     OW20005   1.967   4.850   4.554
 6369SOL    HW120006   1.974   4.908   4.636
 6369SOL    HW220007   2.056   4.847   4.508
 6370SOL     OW20008   0.920   3.405   2.543
 6370SOL    HW120009   0.944   3.481   2.604
 6370SOL    HW220010   0.934   3.319   2.591
 6371SOL     OW20011   5.225   3.571   4.245
 6371SOL    HW120012   5.274   3.498   4.198
 6371SOL    HW220013   5.133   3.580   4.206
 6372SOL     OW20014   3.503   0.199   1.979
 6372SOL    HW120015   3.568   0.223   1.906
 6372SOL    HW220016   3.415   0.243   1.961
 6373SOL     OW20017   5.501   4.416   3.539
 6373SOL    HW120018   5.514   4.327   3.583
 6373SOL    HW220019   5.444   4.405   3.458
 6374SOL     OW20020   3.427   4.047   4.490
 6374SOL    HW120021   3.520   4.080   4.508
 6374SOL    HW220022   3.421   4.012   4.397
 6375SOL     OW20023   6.815   1.647   4.039
 6375SOL    HW120024   6.720   1.675   4.027
 6375SOL    HW220025   6.833   1.566   3.983
 6376SOL     OW20026   6.278   2.682   5.318
 6376SOL    HW120027   6.334   2.600   5.303
 6376SOL    HW220028   6.209   2.663   5.388
 6377SOL     OW20029   6.434   1.795   5.524
 6377SOL    HW120030   6.502   1.835   5.585
 6377SOL    HW220031   6.451   1.697   5.514
 6378SOL     OW20032   5.003   5.075   3.537
 6378SOL    HW120033   4.923   5.033   3.493
 6378SOL    HW220034   5.073   5.093   3.469
 6379SOL     OW20035   2.222   3.923   4.110
 6379SOL    HW120036   2.187   3.914   4.203
 6379SOL    HW220037   2.230   3.832   4.068
 6380SOL     OW20038   0.780   1.286   6.081
 6380SOL    HW120039   0.798   1.251   6.173
 6380SOL    HW220040   0.696   1.246   6.046
 6381SOL     OW20041   4.082   3.325   1.942
 6381SOL    HW120042   4.170   3.280   1.927
 6381SOL    HW220043   4.028   3.322   1.858
 6382SOL     OW20044   0.890   2.622   0.203
 6382SOL    HW120045   0.930   2.592   0.290
 6382SOL    HW220046   0.808   2.569   0.184
 6383SOL     OW20047   2.037   2.131   2.966
 6383SOL    HW120048   2.076   2.202   2.908
 6383SOL    HW220049   2.071   2.042   2.938
 6384SOL     OW20050   5.309   3.978   1.452
 6384SOL    HW120051   5.366   3.896   1.448
 6384SOL    HW220052   5.224   3.963   1.403
 6385SOL     OW20053   6.420   4.932   4.252
 6385SOL    HW120054   6.364   4.852   4.231
 6385SOL    HW220055   6.517   4.905   4.251
 6386SOL     OW20056   2.240   4.314   6.486
 6386SOL    HW120057   2.299   4.299   6.407
 6386SOL    HW220058   2.296   4.335   6.566
 6387SOL     OW20059   0.973   1.234   6.797
 6387SOL    HW120060   1.060   1.186   6.784
 6387SOL    HW220061   0.975   1.322   6.749
 6388SOL     OW20062   4.192   4.990   1.129
 6388SOL    HW120063   4.169   4.910   1.184
 6388SOL    HW220064   4.197   5.071   1.188
 6389SOL     OW20065   0.664   6.058   2.293
 6389SOL    HW120066   0.670   6.101   2.384
 6389SOL    HW220067   0.630   6.124   2.227
 6390SOL     OW20068   1.138   2.568   4.753
 6390SOL    HW120069   1.053   2.534   4.793
 6390SOL    HW220070   1.171   2.644   4.809
 6391SOL     OW20071   3.012   0.116   5.837
 6391SOL    HW120072   2.916   0.128   5.812
 6391SOL    HW220073   3.060   0.068   5.763
 6392SOL     OW20074   2.385   0.230   3.506
 6392SOL    HW120075   2.325   0.229   3.425
 6392SOL    HW220076   2.478   0.205   3.479
 6393SOL     OW20077   5.771   6.965   1.259
 6393SOL    HW120078   5.827   0.000   1.205
 6393SOL    HW220079   5.698   6.929   1.201
 6394SOL     OW20080   2.440   4.635   1.174
 6394SOL    HW120081   2.473   4.566   1.238
 6394SOL    HW220082   2.376   4.696   1.221
 6395SOL     OW20083   6.600   3.086   2.266
 6395SOL    HW120084   6.536   3.127   2.201
 6395SOL    HW220085   6.668   3.032   2.217
 6396SOL     OW20086   5.449   2.727   6.699
 6396SOL    HW120087   5.495   2.798   6.645
 6396SOL    HW220088   5.514   2.685   6.761
 6397SOL     OW20089   5.716   2.700   6.172
 6397SOL    HW120090   5.685   2.774   6.112
 6397SOL    HW220091   5.656   2.694   6.252
 6398SOL     OW20092   3.090   0.984   0.638
 6398SOL    HW120093   3.162   1.041   0.598
 6398SOL    HW220094   3.008   0.989   0.580
 6399SOL     OW20095   1.430   5.137   6.840
 6399SOL    HW120096   1.445   5.233   6.816
 6399SOL    HW220097   1.381   5.091   6.766
 6400SOL     OW20098   2.415   6.209   2.824
 6400SOL    HW120099   2.370   6.126   2.790
 6400SOL    HW220100   2.514   6.195   2.821
 6401SOL     OW20101   0.273   4.868   3.437
 6401SOL    HW120102   0.239   4.813   3.361
 6401SOL    HW220103   0.212   4.858   3.515
 6402SOL     OW20104   4.354   1.071   3.173
 6402SOL    HW120105   4.286   1.105   3.108
 6402SOL    HW220106   4.327   0.980   3.204
 6403SOL     OW20107   0.026   6.165   6.291
 6403SOL    HW120108   6.993   6.244   6.286
 6403SOL    HW220109   0.050   6.136   6.199
 6404SOL     OW20110   4.204   1.381   3.092
 6404SOL    HW120111   4.182   1.294   3.048
 6404SOL    HW220112   4.136   1.400   3.163
 6405SOL     OW20113   2.024   0.958   3.250
 6405SOL    HW120114   2.102   0.923   3.302
 6405SOL    HW220115   2.035   1.057   3.236
 6406SOL     OW20116   1.640   2.657   3.650
 6406SOL    HW120117   1.669   2.618   3.738
 6406SOL    HW220118   1.612   2.583   3.589
 6407SOL     OW20119   3.401   0.110   3.286
 6407SOL    HW120120   3.485   0.083   3.239
 6407SOL    HW220121   3.325   0.106   3.222
 6408SOL     OW20122   6.161   2.309   0.166
 6408SOL    HW120123   6.080   2.296   0.110
 6408SOL    HW220124   6.151   2.392   0.221
 6409SOL     OW20125   0.160   5.073   3.086
 6409SOL    HW120126   0.204   5.092   3.174
 6409SOL    HW220127   0.227   5.080   3.013
 6410SOL     OW20128   2.096   1.326   0.288
 6410SOL    HW120129   2.141   1.278   0.363
 6410SOL    HW220130   1.997   1.327   0.303
 6411SOL     OW20131   0.112   2.478   3.307
 6411SOL    HW120132   0.063   2.561   3.332
 6411SOL    HW220133   0.068   2.399   3.350
 6412SOL     OW20134   0.115   2.853   5.117
 6412SOL    HW120135   0.017   2.861   5.137
 6412SOL    HW220136   0.129   2.854   5.018
 6413SOL     OW20137   4.183   4.705   3.046
 6413SOL    HW120138   4.268   4.676   3.090
 6413SOL    HW220139   4.149   4.631   2.988
 6414SOL     OW20140   5.811   0.706   1.433
 6414SOL    HW120141   5.909   0.684   1.436
 6414SOL    HW220142   5.758   0.624   1.454
 6415SOL     OW20143   2.124   2.353   2.802
 6415SOL    HW120144   2.092   2.445   2.825
 6415SOL    HW220145   2.210   2.360   2.750
 6416SOL     OW20146   1.241   1.336   6.537
 6416SOL    HW120147   1.176   1.405   6.504
 6416SOL    HW220148   1.274   1.362   6.627
 6417SOL     OW20149   6.998   4.403   2.193
 6417SOL    HW120150   6.960   4.423   2.102
 6417SOL    HW220151   0.001   4.488   2.235
 6418SOL     OW20152   4.875   4.451   1.953
 6418SOL    HW120153   4.838   4.407   1.871
 6418SOL    HW220154   4.814   4.433   2.030
 6419SOL     OW20155   2.260   4.623   2.909
 6419SOL    HW120156   2.217   4.636   2.820
 6419SOL    HW220157   2.259   4.709   2.960
 6420SOL     OW20158   2.954   3.719   5.766
 6420SOL    HW120159   2.973   3.773   5.848
 6420SOL    HW220160   3.018   3.745   5.694
 6421SOL     OW20161   5.765   1.088   2.162
 6421SOL    HW120162   5.818   1.004   2.163
 6421SOL    HW220163   5.771   1.131   2.072
 6422SOL     OW20164   0.128   0.641   4.216
 6422SOL    HW120165   0.166   0.722   4.261
 6422SOL    HW220166   0.127   0.655   4.117
 6423SOL     OW20167   4.581   5.325   2.609
 6423SOL    HW120168   4.589   5.331   2.708
 6423SOL    HW220169   4.664   5.362   2.567
 6424SOL     OW20170   6.717   6.175   5.670
 6424SOL    HW120171   6.634   6.137   5.627
 6424SOL    HW220172   6.715   6.275   5.663
 6425SOL     OW20173   6.473   5.623   3.149
 6425SOL    HW120174   6.450   5.649   3.055
 6425SOL    HW220175   6.512   5.531   3.150
 6426SOL     OW20176   0.637   5.032   3.239
 6426SOL    HW120177   0.644   5.004   3.144
 6426SOL    HW220178   0.624   4.951   3.297
 6427SOL     OW20179   2.293   3.307   6.424
 6427SOL    HW120180   2.210   3.272   6.382
 6427SOL    HW220181   2.279   3.402   6.453
 6428SOL     OW20182   6.669   3.185   0.164
 6428SOL    HW120183   6.670   3.111   0.096
 6428SOL    HW220184   6.600   3.253   0.138
 6429SOL     OW20185   0.920   1.883   5.626
 6429SOL    HW120186   0.977   1.873   5.544
 6429SOL    HW220187   0.875   1.796   5.646
 6430SOL     OW20188   5.117   0.955   2.484
 6430SOL    HW120189   5.141   0.885   2.417
 6430SOL    HW220190   5.179   1.033   2.473
 6431SOL     OW20191   5.387   6.483   3.262
 6431SOL    HW120192   5.305   6.525   3.223
 6431SOL    HW220193   5.468   6.521   3.217
 6432SOL     OW20194   4.551   3.916   0.033
 6432SOL    HW120195   4.632   3.969   0.058
 6432SOL    HW220196   4.576   3.846   6.994
 6433SOL     OW20197   3.811   4.521   0.689
 6433SOL    HW120198   3.780   4.429   0.665
 6433SOL    HW220199   3.741   4.566   0.745
 6434SOL     OW20200   1.898   3.683   0.216
 6434SOL    HW120201   1.817   3.667   0.160
 6434SOL    HW220202   1.965   3.736   0.164
 6435SOL     OW20203   4.181   6.386   6.658
 6435SOL    HW120204   4.137   6.361   6.745
 6435SOL    HW220205   4.125   6.455   6.611
 6436SOL     OW20206   2.012   3.203   3.308
 6436SOL    HW120207   1.925   3.197   3.260
 6436SOL    HW220208   2.021   3.293   3.350
 6437SOL     OW20209   2.269   0.698   1.048
 6437SOL    HW120210   2.356   0.747   1.042
 6437SOL    HW220211   2.247   0.680   1.144
 6438SOL     OW20212   0.627   4.659   6.362
 6438SOL    HW120213   0.573   4.663   6.278
 6438SOL    HW220214   0.599   4.733   6.423
 6439SOL     OW20215   6.480   0.441   1.750
 6439SOL    HW120216   6.506   0.443   1.847
 6439SOL    HW220217   6.495   0.531   1.710
 6440SOL     OW20218   2.229   1.822   1.090
 6440SOL    HW120219   2.282   1.850   1.170
 6440SOL    HW220220   2.201   1.903   1.038
 6441SOL     OW20221   1.071   6.917   2.295
 6441SOL    HW120222   1.116   7.007   2.298
 6441SOL    HW220223   0.971   6.930   2.301
 6442SOL     OW20224   2.652   1.236   3.645
 6442SOL    HW120225   2.728   1.231   3.710
 6442SOL    HW220226   2.642   1.148   3.599
 6443SOL     OW20227   4.218   2.456   6.568
 6443SOL    HW120228   4.205   2.509   6.484
 6443SOL    HW220229   4.196   2.360   6.549
 6444SOL     OW20230   0.227   2.670   3.966
 6444SOL    HW120231   0.151   2.606   3.959
 6444SOL    HW220232   0.192   2.762   3.986
 6445SOL     OW20233   5.002   3.026   5.887
 6445SOL    HW120234   4.990   2.971   5.804
 6445SOL    HW220235   4.944   3.108   5.882
 6446SOL     OW20236   1.242   1.121   6.380
 6446SOL    HW120237   1.232   1.205   6.434
 6446SOL    HW220238   1.207   1.137   6.287
 6447SOL     OW20239   0.188   5.469   2.636
 6447SOL    HW120240   0.231   5.489   2.548
 6447SOL    HW220241   0.224   5.532   2.705
 6448SOL     OW20242   5.005   4.239   2.639
 6448SOL    HW120243   5.001   4.260   2.541
 6448SOL    HW220244   4.912   4.240   2.677
 6449SOL     OW20245   2.630   4.572   0.312
 6449SOL    HW120246   2.678   4.548   0.396
 6449SOL    HW220247   2.681   4.643   0.264
 6450SOL     OW20248   0.288   3.486   1.397
 6450SOL    HW120249   0.363   3.443   1.447
 6450SOL    HW220250   0.235   3.415   1.349
 6451SOL     OW20251   2.539   6.673   5.077
 6451SOL    HW120252   2.482   6.750   5.049
 6451SOL    HW220253   2.634   6.703   5.081
 6452SOL     OW20254   3.435   6.222   4.680
 6452SOL    HW120255   3.425   6.321   4.687
 6452SOL    HW220256   3.526   6.196   4.712
 6453SOL     OW20257   1.250   6.634   0.304
 6453SOL    HW120258   1.313   6.696   0.349
 6453SOL    HW220259   1.156   6.656   0.330
 6454SOL     OW20260   3.209   1.160   2.822
 6454SOL    HW120261   3.305   1.144   2.843
 6454SOL    HW220262   3.164   1.201   2.902
 6455SOL     OW20263   0.354   1.959   4.307
 6455SOL    HW120264   0.275   1.900   4.285
 6455SOL    HW220265   0.324   2.034   4.366
 6456SOL     OW20266   1.960   1.009   3.695
 6456SOL    HW120267   1.960   1.089   3.634
 6456SOL    HW220268   1.912   0.934   3.650
 6457SOL     OW20269   5.284   1.376   1.262
 6457SOL    HW120270   5.250   1.468   1.280
 6457SOL    HW220271   5.367   1.360   1.316
 6458SOL     OW20272   0.739   6.939   3.515
 6458SOL    HW120273   0.829   6.916   3.552
 6458SOL    HW220274   0.747   7.019   3.455
 6459SOL     OW20275   5.971   4.907   0.437
 6459SOL    HW120276   6.042   4.844   0.467
 6459SOL    HW220277   5.900   4.913   0.508
 6460SOL     OW20278   4.420   5.435   5.544
 6460SOL    HW120279   4.436   5.522   5.591
 6460SOL    HW220280   4.405   5.452   5.447
 6461SOL     OW20281   2.996   4.893   4.994
 6461SOL    HW120282   3.072   4.882   4.930
 6461SOL    HW220283   2.947   4.806   5.003
 6462SOL     OW20284   2.408   2.732   4.934
 6462SOL    HW120285   2.408   2.817   4.986
 6462SOL    HW220286   2.398   2.753   4.836
 6463SOL     OW20287   1.323   3.560   0.153
 6463SOL    HW120288   1.320   3.500   0.073
 6463SOL    HW220289   1.358   3.650   0.127
 6464SOL     OW20290   1.033   5.512   4.747
 6464SOL    HW120291   0.949   5.480   4.703
 6464SOL    HW220292   1.071   5.438   4.803
 6465SOL     OW20293   6.072   2.543   4.009
 6465SOL    HW120294   5.984   2.536   3.961
 6465SOL    HW220295   6.146   2.546   3.943
 6466SOL     OW20296   0.950   1.468   6.629
 6466SOL    HW120297   0.920   1.478   6.534
 6466SOL    HW220298   1.043   1.502   6.639
 6467SOL     OW20299   3.094   0.861   0.085
 6467SOL    HW120300   3.165   0.904   0.140
 6467SOL    HW220301   3.135   0.784   0.035
 6468SOL     OW20302   4.084   6.598   1.854
 6468SOL    HW120303   4.038   6.615   1.941
 6468SOL    HW220304   4.132   6.510   1.858
 6469SOL     OW20305   4.564   0.907   5.401
 6469SOL    HW120306   4.606   0.997   5.394
 6469SOL    HW220307   4.596   0.861   5.483
 6470SOL     OW20308   5.879   5.669   6.434
 6470SOL    HW120309   5.923   5.634   6.350
 6470SOL    HW220310   5.907   5.613   6.512
 6471SOL     OW20311   6.454   6.213   5.880
 6471SOL    HW120312   6.427   6.290   5.822
 6471SOL    HW220313   6.440   6.128   5.830
 6472SOL     OW20314   0.841   4.279   0.984
 6472SOL    HW120315   0.829   4.358   1.045
 6472SOL    HW220316   0.753   4.250   0.948
 6473SOL     OW20317   2.049   1.657   4.629
 6473SOL    HW120318   1.957   1.626   4.607
 6473SOL    HW220319   2.044   1.745   4.677
 6474SOL     OW20320   2.230   3.921   5.856
 6474SOL    HW120321   2.175   3.889   5.934
 6474SOL    HW220322   2.326   3.896   5.871
 6475SOL     OW20323   6.760   5.223   4.341
 6475SOL    HW120324   6.759   5.124   4.358
 6475SOL    HW220325   6.670   5.251   4.307
 6476SOL     OW20326   4.344   3.591   1.469
 6476SOL    HW120327   4.326   3.509   1.524
 6476SOL    HW220328   4.276   3.598   1.396
 6477SOL     OW20329   6.748   4.841   1.004
 6477SOL    HW120330   6.734   4.863   1.100
 6477SOL    HW220331   6.693   4.901   0.947
 6478SOL     OW20332   3.848   5.870   2.328
 6478SOL    HW120333   3.828   5.905   2.237
 6478SOL    HW220334   3.945   5.846   2.334
 6479SOL     OW20335   3.789   5.734   3.456
 6479SOL    HW120336   3.690   5.716   3.457
 6479SOL    HW220337   3.806   5.825   3.420
 6480SOL     OW20338   3.026   2.398   5.483
 6480SOL    HW120339   3.018   2.320   5.544
 6480SOL    HW220340   3.023   2.483   5.536
 6481SOL     OW20341   3.365   1.992   2.176
 6481SOL    HW120342   3.356   2.013   2.078
 6481SOL    HW220343   3.288   2.034   2.226
 6482SOL     OW20344   0.489   0.830   6.129
 6482SOL    HW120345   0.479   0.738   6.169
 6482SOL    HW220346   0.526   0.892   6.199
 6483SOL     OW20347   2.532   5.699   1.941
 6483SOL    HW120348   2.473   5.632   1.896
 6483SOL    HW220349   2.476   5.759   1.999
 6484SOL     OW20350   3.824   0.966   2.706
 6484SOL    HW120351   3.897   0.932   2.764
 6484SOL    HW220352   3.863   1.017   2.629
 6485SOL     OW20353   1.953   4.036   2.959
 6485SOL    HW120354   1.927   4.073   3.048
 6485SOL    HW220355   1.900   4.083   2.888
 6486SOL     OW20356   1.742   4.319   4.681
 6486SOL    HW120357   1.741   4.409   4.723
 6486SOL    HW220358   1.650   4.279   4.684
 6487SOL     OW20359   6.568   5.725   4.943
 6487SOL    HW120360   6.593   5.716   5.039
 6487SOL    HW220361   6.482   5.775   4.935
 6488SOL     OW20362   2.911   5.911   5.265
 6488SOL    HW120363   2.831   5.854   5.282
 6488SOL    HW220364   2.993   5.853   5.265
 6489SOL     OW20365   2.741   3.184   6.904
 6489SOL    HW120366   2.754   3.153   6.998
 6489SOL    HW220367   2.816   3.149   6.847
 6490SOL     OW20368   4.324   1.920   6.648
 6490SOL    HW120369   4.266   1.888   6.573
 6490SOL    HW220370   4.272   1.982   6.706
 6491SOL     OW20371   4.517   1.178   6.547
 6491SOL    HW120372   4.425   1.185   6.510
 6491SOL    HW220373   4.574   1.123   6.486
 6492SOL     OW20374   5.813   5.934   0.168
 6492SOL    HW120375   5.783   5.981   0.085
 6492SOL    HW220376   5.794   5.837   0.160
 6493SOL     OW20377   1.282   5.643   4.725
 6493SOL    HW120378   1.198   5.594   4.747
 6493SOL    HW220379   1.303   5.630   4.628
 6494SOL     OW20380   0.266   1.065   2.916
 6494SOL    HW120381   0.269   1.095   3.011
 6494SOL    HW220382   0.331   0.990   2.903
 6495SOL     OW20383   4.822   6.497   4.336
 6495SOL    HW120384   4.876   6.572   4.374
 6495SOL    HW220385   4.789   6.439   4.410
 6496SOL     OW20386   0.392   6.855   2.108
 6496SOL    HW120387   0.320   6.888   2.047
 6496SOL    HW220388   0.415   6.926   2.174
 6497SOL     OW20389   2.376   3.730   0.159
 6497SOL    HW120390   2.289   3.695   0.123
 6497SOL    HW220391   2.451   3.671   0.128
 6498SOL     OW20392   2.203   4.168   3.984
 6498SOL    HW120393   2.161   4.212   4.063
 6498SOL    HW220394   2.227   4.074   4.007
 6499SOL     OW20395   5.534   2.412   5.246
 6499SOL    HW120396   5.598   2.373   5.180
 6499SOL    HW220397   5.575   2.491   5.291
 6500SOL     OW20398   6.982   5.011   3.742
 6500SOL    HW120399   6.934   5.080   3.689
 6500SOL    HW220400   6.915   4.947   3.780
 6501SOL     OW20401   6.839   2.595   6.911
 6501SOL    HW120402   6.763   2.577   6.973
 6501SOL    HW220403   6.804   2.609   6.818
 6502SOL     OW20404   6.389   4.075   2.283
 6502SOL    HW120405   6.440   4.140   2.340
 6502SOL    HW220406   6.375   4.114   2.192
 6503SOL     OW20407   5.377   0.289   4.163
 6503SOL    HW120408   5.376   0.371   4.106
 6503SOL    HW220409   5.300   0.292   4.227
 6504SOL     OW20410   4.768   6.481   6.158
 6504SOL    HW120411   4.859   6.504   6.192
 6504SOL    HW220412   4.731   6.560   6.108
 6505SOL     OW20413   5.398   4.879   1.365
 6505SOL    HW120414   5.438   4.788   1.351
 6505SOL    HW220415   5.302   4.870   1.390
 6506SOL     OW20416   6.782   3.405   1.566
 6506SOL    HW120417   6.835   3.329   1.527
 6506SOL    HW220418   6.781   3.482   1.502
 6507SOL     OW20419   1.369   5.506   5.389
 6507SOL    HW120420   1.438   5.567   5.351
 6507SOL    HW220421   1.315   5.555   5.458
 6508SOL     OW20422   2.472   1.729   3.463
 6508SOL    HW120423   2.494   1.732   3.365
 6508SOL    HW220424   2.457   1.634   3.491
 6509SOL     OW20425   2.820   2.307   3.896
 6509SOL    HW120426   2.867   2.270   3.976
 6509SOL    HW220427   2.756   2.239   3.860
 6510SOL     OW20428   0.019   5.034   6.807
 6510SOL    HW120429   6.969   5.082   6.846
 6510SOL    HW220430   0.101   5.090   6.818
 6511SOL     OW20431   5.419   0.809   4.812
 6511SOL    HW120432   5.415   0.732   4.749
 6511SOL    HW220433   5.403   0.894   4.762
 6512SOL     OW20434   5.129   0.541   2.109
 6512SOL    HW120435   5.205   0.538   2.173
 6512SOL    HW220436   5.161   0.574   2.020
 6513SOL     OW20437   3.262   5.217   3.333
 6513SOL    HW120438   3.191   5.149   3.353
 6513SOL    HW220439   3.226   5.309   3.352
 6514SOL     OW20440   5.892   6.946   3.227
 6514SOL    HW120441   5.900   6.964   3.129
 6514SOL    HW220442   5.797   6.961   3.255
 6515SOL     OW20443   0.898   5.362   4.235
 6515SOL    HW120444   0.913   5.459   4.251
 6515SOL    HW220445   0.942   5.309   4.307
 6516SOL     OW20446   0.423   3.035   1.019
 6516SOL    HW120447   0.404   3.073   0.928
 6516SOL    HW220448   0.352   3.064   1.083
 6517SOL     OW20449   6.510   1.302   0.784
 6517SOL    HW120450   6.449   1.379   0.801
 6517SOL    HW220451   6.557   1.276   0.868
 6518SOL     OW20452   0.466   6.870   6.771
 6518SOL    HW120453   0.391   6.911   6.821
 6518SOL    HW220454   0.532   6.831   6.835
 6519SOL     OW20455   2.457   1.906   3.671
 6519SOL    HW120456   2.421   1.994   3.640
 6519SOL    HW220457   2.455   1.841   3.595
 6520SOL     OW20458   6.109   5.516   2.565
 6520SOL    HW120459   6.064   5.557   2.485
 6520SOL    HW220460   6.052   5.530   2.646
 6521SOL     OW20461   1.276   1.741   4.261
 6521SOL    HW120462   1.177   1.745   4.273
 6521SOL    HW220463   1.321   1.798   4.330
 6522SOL     OW20464   3.400   4.276   0.098
 6522SOL    HW120465   3.314   4.227   0.115
 6522SOL    HW220466   3.477   4.216   0.119
 6523SOL     OW20467   3.193   0.638   6.905
 6523SOL    HW120468   3.262   0.702   6.941
 6523SOL    HW220469   3.236   0.550   6.887
 6524SOL     OW20470   3.088   3.102   2.788
 6524SOL    HW120471   3.172   3.139   2.827
 6524SOL    HW220472   3.111   3.044   2.709
 6525SOL     OW20473   1.973   2.888   3.011
 6525SOL    HW120474   2.055   2.851   3.055
 6525SOL    HW220475   1.911   2.923   3.081
 6526SOL     OW20476   1.403   6.963   5.503
 6526SOL    HW120477   1.488   6.910   5.507
 6526SOL    HW220478   1.378   6.993   5.595
 6527SOL     OW20479   1.006   1.697   4.401
 6527SOL    HW120480   0.949   1.651   4.333
 6527SOL    HW220481   0.973   1.790   4.415
 6528SOL     OW20482   6.889   0.725   3.355
 6528SOL    HW120483   6.854   0.767   3.438
 6528SOL    HW220484   6.883   0.625   3.363
 6529SOL     OW20485   6.985   1.408   3.322
 6529SOL    HW120486   6.922   1.457   3.261
 6529SOL    HW220487   6.955   1.313   3.332
 6530SOL     OW20488   6.701   3.599   1.383
 6530SOL    HW120489   6.676   3.696   1.374
 6530SOL    HW220490   6.658   3.547   1.309
 6531SOL     OW20491   5.465   3.676   4.586
 6531SOL    HW120492   5.512   3.696   4.500
 6531SOL    HW220493   5.532   3.669   4.660
 6532SOL     OW20494   6.401   0.816   0.028
 6532SOL    HW120495   6.362   0.862   6.977
 6532SOL    HW220496   6.328   0.772   0.081
 6533SOL     OW20497   4.635   5.971   1.152
 6533SOL    HW120498   4.728   5.983   1.186
 6533SOL    HW220499   4.627   6.012   1.061
 6534SOL     OW20500   2.994   4.603   1.403
 6534SOL    HW120501   2.940   4.573   1.481
 6534SOL    HW220502   3.063   4.533   1.381
 6535SOL     OW20503   6.804   3.323   4.248
 6535SOL    HW120504   6.901   3.344   4.260
 6535SOL    HW220505   6.750   3.380   4.310
 6536SOL     OW20506   7.012   2.446   5.970
 6536SOL    HW120507   0.039   2.516   6.015
 6536SOL    HW220508   6.988   2.375   6.036
 6537SOL     OW20509   6.008   5.399   7.015
 6537SOL    HW120510   5.962   5.312   6.994
 6537SOL    HW220511   6.066   5.388   0.068
 6538SOL     OW20512   3.917   4.480   0.303
 6538SOL    HW120513   3.832   4.510   0.347
 6538SOL    HW220514   3.950   4.552   0.242
 6539SOL     OW20515   3.198   1.166   6.301
 6539SOL    HW120516   3.240   1.112   6.374
 6539SOL    HW220517   3.201   1.113   6.215
 6540SOL     OW20518   4.792   1.785   5.339
 6540SOL    HW120519   4.707   1.733   5.346
 6540SOL    HW220520   4.869   1.723   5.327
 6541SOL     OW20521   4.016   1.859   5.200
 6541SOL    HW120522   4.112   1.833   5.201
 6541SOL    HW220523   3.997   1.914   5.119
 6542SOL     OW20524   6.718   5.019   3.447
 6542SOL    HW120525   6.738   5.070   3.363
 6542SOL    HW220526   6.677   5.080   3.514
 6543SOL     OW20527   6.334   3.949   6.927
 6543SOL    HW120528   6.340   4.022   6.995
 6543SOL    HW220529   6.238   3.936   6.901
 6544SOL     OW20530   0.459   5.733   3.269
 6544SOL    HW120531   0.485   5.821   3.230
 6544SOL    HW220532   0.457   5.739   3.369
 6545SOL     OW20533   5.576   2.021   6.501
 6545SOL    HW120534   5.526   1.958   6.441
 6545SOL    HW220535   5.522   2.104   6.514
 6546SOL     OW20536   4.767   4.306   6.565
 6546SOL    HW120537   4.712   4.224   6.579
 6546SOL    HW220538   4.772   4.358   6.650
 6547SOL     OW20539   4.925   1.388   5.818
 6547SOL    HW120540   4.991   1.447   5.772
 6547SOL    HW220541   4.968   1.303   5.845
 6548SOL     OW20542   1.060   3.690   0.272
 6548SOL    HW120543   1.131   3.650   0.215
 6548SOL    HW220544   1.068   3.655   0.365
 6549SOL     OW20545   3.855   1.350   0.709
 6549SOL    HW120546   3.770   1.388   0.745
 6549SOL    HW220547   3.930   1.370   0.772
 6550SOL     OW20548   0.006   6.558   3.482
 6550SOL    HW120549   6.984   6.639   3.514
 6550SOL    HW220550   0.093   6.587   3.442
 6551SOL     OW20551   1.755   4.129   1.865
 6551SOL    HW120552   1.721   4.218   1.833
 6551SOL    HW220553   1.739   4.060   1.795
 6552SOL     OW20554   2.328   6.854   5.057
 6552SOL    HW120555   2.281   6.871   5.144
 6552SOL    HW220556   2.259   6.837   4.986
 6553SOL     OW20557   0.518   1.610   2.386
 6553SOL    HW120558   0.444   1.586   2.449
 6553SOL    HW220559   0.480   1.636   2.297
 6554SOL     OW20560   6.211   1.455   5.910
 6554SOL    HW120561   6.165   1.510   5.840
 6554SOL    HW220562   6.143   1.421   5.975
 6555SOL     OW20563   1.248   2.025   1.687
 6555SOL    HW120564   1.335   1.983   1.712
 6555SOL    HW220565   1.174   1.985   1.741
 6556SOL     OW20566   4.661   4.695   5.036
 6556SOL    HW120567   4.761   4.697   5.027
 6556SOL    HW220568   4.626   4.789   5.030
 6557SOL     OW20569   4.913   5.505   1.057
 6557SOL    HW120570   4.847   5.555   1.113
 6557SOL    HW220571   4.960   5.437   1.113
 6558SOL     OW20572   5.947   5.783   1.047
 6558SOL    HW120573   6.041   5.814   1.063
 6558SOL    HW220574   5.949   5.704   0.986
 6559SOL     OW20575   6.636   3.970   6.425
 6559SOL    HW120576   6.694   3.987   6.505
 6559SOL    HW220577   6.583   4.053   6.405
 6560SOL     OW20578   3.572   3.065   1.609
 6560SOL    HW120579   3.528   3.155   1.615
 6560SOL    HW220580   3.503   2.997   1.584
 6561SOL     OW20581   3.592   3.829   2.530
 6561SOL    HW120582   3.637   3.769   2.596
 6561SOL    HW220583   3.495   3.838   2.553
 6562SOL     OW20584   5.612   4.557   7.017
 6562SOL    HW120585   5.578   4.650   7.009
 6562SOL    HW220586   5.535   4.495   0.007
 6563SOL     OW20587   0.522   6.479   6.854
 6563SOL    HW120588   0.590   6.551   6.867
 6563SOL    HW220589   0.470   6.467   6.938
 6564SOL     OW20590   6.941   4.172   2.315
 6564SOL    HW120591   6.918   4.099   2.251
 6564SOL    HW220592   6.951   4.258   2.265
 6565SOL     OW20593   6.072   2.190   3.999
 6565SOL    HW120594   6.109   2.221   4.087
 6565SOL    HW220595   6.129   2.115   3.965
 6566SOL     OW20596   3.101   6.903   0.757
 6566SOL    HW120597   3.023   6.880   0.698
 6566SOL    HW220598   3.183   6.912   0.701
 6567SOL     OW20599   3.916   2.305   1.320
 6567SOL    HW120600   3.917   2.259   1.231
 6567SOL    HW220601   3.985   2.377   1.322
 6568SOL     OW20602   5.062   5.438   2.765
 6568SOL    HW120603   5.021   5.351   2.794
 6568SOL    HW220604   4.990   5.498   2.730
 6569SOL     OW20605   3.785   3.968   0.541
 6569SOL    HW120606   3.722   3.982   0.617
 6569SOL    HW220607   3.879   3.981   0.573
 6570SOL     OW20608   4.340   6.987   1.953
 6570SOL    HW120609   4.295   6.927   1.887
 6570SOL    HW220610   4.415   0.008   1.908
 6571SOL     OW20611   2.742   6.341   2.158
 6571SOL    HW120612   2.833   6.338   2.116
 6571SOL    HW220613   2.729   6.429   2.204
 6572SOL     OW20614   6.581   5.394   5.520
 6572SOL    HW120615   6.503   5.334   5.536
 6572SOL    HW220616   6.655   5.372   5.584
 6573SOL     OW20617   2.512   1.186   2.894
 6573SOL    HW120618   2.452   1.142   2.827
 6573SOL    HW220619   2.607   1.167   2.871
 6574SOL     OW20620   3.158   5.985   2.297
 6574SOL    HW120621   3.112   5.973   2.209
 6574SOL    HW220622   3.089   6.000   2.368
 6575SOL     OW20623   1.181   1.743   1.781
 6575SOL    HW120624   1.102   1.702   1.734
 6575SOL    HW220625   1.244   1.671   1.809
 6576SOL     OW20626   1.418   0.098   6.762
 6576SOL    HW120627   1.330   0.103   6.810
 6576SOL    HW220628   1.493   0.106   6.828
 6577SOL     OW20629   0.248   1.612   3.375
 6577SOL    HW120630   0.343   1.580   3.387
 6577SOL    HW220631   0.192   1.574   3.449
 6578SOL     OW20632   0.679   4.470   2.625
 6578SOL    HW120633   0.592   4.456   2.671
 6578SOL    HW220634   0.678   4.423   2.537
 6579SOL     OW20635   0.384   3.930   4.589
 6579SOL    HW120636   0.358   4.021   4.555
 6579SOL    HW220637   0.455   3.940   4.659
 6580SOL     OW20638   6.871   1.499   1.242
 6580SOL    HW120639   6.818   1.415   1.244
 6580SOL    HW220640   6.820   1.570   1.195
 6581SOL     OW20641   3.392   1.007   6.469
 6581SOL    HW120642   3.389   0.914   6.431
 6581SOL    HW220643   3.487   1.039   6.470
 6582SOL     OW20644   1.581   0.647   1.998
 6582SOL    HW120645   1.597   0.571   1.935
 6582SOL    HW220646   1.482   0.659   2.011
 6583SOL     OW20647   3.946   0.234   5.353
 6583SOL    HW120648   3.970   0.198   5.263
 6583SOL    HW220649   3.872   0.179   5.392
 6584SOL     OW20650   5.116   1.451   0.252
 6584SOL    HW120651   5.175   1.419   0.326
 6584SOL    HW220652   5.094   1.548   0.267
 6585SOL     OW20653   6.632   0.911   0.278
 6585SOL    HW120654   6.608   0.814   0.284
 6585SOL    HW220655   6.586   0.961   0.351
 6586SOL     OW20656   6.259   2.467   6.133
 6586SOL    HW120657   6.231   2.423   6.047
 6586SOL    HW220658   6.191   2.449   6.203
 6587SOL     OW20659   2.958   5.515   3.952
 6587SOL    HW120660   3.033   5.461   3.990
 6587SOL    HW220661   2.978   5.613   3.964
 6588SOL     OW20662   1.633   3.914   1.718
 6588SOL    HW120663   1.703   3.851   1.751
 6588SOL    HW220664   1.543   3.872   1.727
 6589SOL     OW20665   4.757   0.403   6.401
 6589SOL    HW120666   4.724   0.496   6.387
 6589SOL    HW220667   4.695   0.354   6.462
 6590SOL     OW20668   0.939   1.218   5.875
 6590SOL    HW120669   0.968   1.292   5.815
 6590SOL    HW220670   0.883   1.254   5.949
 6591SOL     OW20671   4.892   5.939   2.336
 6591SOL    HW120672   4.806   5.974   2.299
 6591SOL    HW220673   4.948   5.902   2.262
 6592SOL     OW20674   5.923   6.764   3.999
 6592SOL    HW120675   6.006   6.818   4.014
 6592SOL    HW220676   5.856   6.818   3.949
 6593SOL     OW20677   2.329   2.451   3.719
 6593SOL    HW120678   2.279   2.509   3.655
 6593SOL    HW220679   2.266   2.413   3.787
 6594SOL     OW20680   4.159   1.831   0.451
 6594SOL    HW120681   4.063   1.804   0.464
 6594SOL    HW220682   4.188   1.807   0.358
 6595SOL     OW20683   0.593   3.396   0.760
 6595SOL    HW120684   0.515   3.334   0.772
 6595SOL    HW220685   0.668   3.348   0.714
 6596SOL     OW20686   3.486   6.515   4.699
 6596SOL    HW120687   3.424   6.584   4.736
 6596SOL    HW220688   3.470   6.504   4.601
 6597SOL     OW20689   1.165   6.173   3.132
 6597SOL    HW120690   1.102   6.238   3.088
 6597SOL    HW220691   1.259   6.207   3.123
 6598SOL     OW20692   0.952   0.004   4.405
 6598SOL    HW120693   0.953   6.935   4.380
 6598SOL    HW220694   0.991   0.015   4.496
 6599SOL     OW20695   3.401   5.629   5.317
 6599SOL    HW120696   3.320   5.639   5.259
 6599SOL    HW220697   3.373   5.604   5.410
 6600SOL     OW20698   4.718   5.202   5.971
 6600SOL    HW120699   4.662   5.271   5.925
 6600SOL    HW220700   4.660   5.144   6.028
 6601SOL     OW20701   0.895   0.808   0.307
 6601SOL    HW120702   0.902   0.896   0.353
 6601SOL    HW220703   0.806   0.801   0.262
 6602SOL     OW20704   6.530   1.468   1.786
 6602SOL    HW120705   6.593   1.473   1.710
 6602SOL    HW220706   6.504   1.373   1.803
 6603SOL     OW20707   0.666   2.795   4.299
 6603SOL    HW120708   0.753   2.760   4.335
 6603SOL    HW220709   0.609   2.719   4.269
 6604SOL     OW20710   2.267   6.347   0.849
 6604SOL    HW120711   2.295   6.256   0.876
 6604SOL    HW220712   2.313   6.373   0.764
 6605SOL     OW20713   5.248   4.586   0.633
 6605SOL    HW120714   5.174   4.532   0.672
 6605SOL    HW220715   5.332   4.531   0.631
 6606SOL     OW20716   5.286   6.888   2.266
 6606SOL    HW120717   5.192   6.871   2.236
 6606SOL    HW220718   5.286   6.915   2.362
 6607SOL     OW20719   1.433   2.275   1.205
 6607SOL    HW120720   1.427   2.176   1.196
 6607SOL    HW220721   1.441   2.298   1.302
 6608SOL     OW20722   5.009   5.231   1.624
 6608SOL    HW120723   4.964   5.186   1.701
 6608SOL    HW220724   4.954   5.216   1.541
 6609SOL     OW20725   4.486   1.004   6.299
 6609SOL    HW120726   4.442   0.974   6.383
 6609SOL    HW220727   4.580   0.971   6.297
 6610SOL     OW20728   2.201   1.014   6.045
 6610SOL    HW120729   2.296   0.995   6.067
 6610SOL    HW220730   2.178   0.973   5.956
 6611SOL     OW20731   6.663   2.739   3.285
 6611SOL    HW120732   6.567   2.729   3.260
 6611SOL    HW220733   6.721   2.697   3.215
 6612SOL     OW20734   0.441   2.723   6.822
 6612SOL    HW120735   0.366   2.748   6.883
 6612SOL    HW220736   0.425   2.632   6.784
 6613SOL     OW20737   5.545   5.775   4.252
 6613SOL    HW120738   5.580   5.693   4.297
 6613SOL    HW220739   5.620   5.825   4.209
 6614SOL     OW20740   5.050   5.985   6.753
 6614SOL    HW120741   5.031   6.065   6.697
 6614SOL    HW220742   5.142   5.991   6.791
 6615SOL     OW20743   1.142   4.885   3.904
 6615SOL    HW120744   1.232   4.909   3.940
 6615SOL    HW220745   1.105   4.961   3.851
 6616SOL     OW20746   4.271   1.210   6.438
 6616SOL    HW120747   4.243   1.287   6.380
 6616SOL    HW220748   4.192   1.178   6.490
 6617SOL     OW20749   3.156   6.491   3.250
 6617SOL    HW120750   3.117   6.425   3.315
 6617SOL    HW220751   3.114   6.479   3.161
 6618SOL     OW20752   1.208   3.180   3.164
 6618SOL    HW120753   1.261   3.230   3.096
 6618SOL    HW220754   1.232   3.213   3.255
 6619SOL     OW20755   0.055   6.958   4.298
 6619SOL    HW120756   0.070   6.893   4.224
 6619SOL    HW220757   0.021   6.909   4.379
 6620SOL     OW20758   2.473   2.823   5.320
 6620SOL    HW120759   2.476   2.907   5.265
 6620SOL    HW220760   2.557   2.818   5.375
 6621SOL     OW20761   2.314   3.123   0.020
 6621SOL    HW120762   2.386   3.187   7.022
 6621SOL    HW220763   2.349   3.061   0.091
 6622SOL     OW20764   5.950   6.272   1.543
 6622SOL    HW120765   5.931   6.224   1.629
 6622SOL    HW220766   6.035   6.237   1.503
 6623SOL     OW20767   2.484   3.700   0.952
 6623SOL    HW120768   2.570   3.730   0.992
 6623SOL    HW220769   2.408   3.748   0.996
 6624SOL     OW20770   1.930   0.513   4.054
 6624SOL    HW120771   1.927   0.510   4.154
 6624SOL    HW220772   1.849   0.561   4.020
 6625SOL     OW20773   5.285   1.892   6.005
 6625SOL    HW120774   5.302   1.796   6.029
 6625SOL    HW220775   5.367   1.931   5.964
 6626SOL     OW20776   3.908   4.971   4.470
 6626SOL    HW120777   3.921   5.007   4.562
 6626SOL    HW220778   3.873   5.043   4.410
 6627SOL     OW20779   2.395   0.465   6.000
 6627SOL    HW120780   2.399   0.486   6.097
 6627SOL    HW220781   2.309   0.417   5.980
 6628SOL     OW20782   4.341   5.032   4.216
 6628SOL    HW120783   4.402   5.079   4.280
 6628SOL    HW220784   4.281   4.970   4.268
 6629SOL     OW20785   2.673   5.671   6.878
 6629SOL    HW120786   2.626   5.600   6.931
 6629SOL    HW220787   2.621   5.691   6.795
 6630SOL     OW20788   3.395   1.533   1.527
 6630SOL    HW120789   3.393   1.577   1.617
 6630SOL    HW220790   3.453   1.585   1.465
 6631SOL     OW20791   4.094   0.350   2.272
 6631SOL    HW120792   4.130   0.412   2.202
 6631SOL    HW220793   4.007   0.386   2.307
 6632SOL     OW20794   0.563   0.306   1.955
 6632SOL    HW120795   0.645   0.271   1.909
 6632SOL    HW220796   0.524   0.235   2.013
 6633SOL     OW20797   1.414   4.906   5.773
 6633SOL    HW120798   1.353   4.973   5.814
 6633SOL    HW220799   1.414   4.918   5.673
 6634SOL     OW20800   5.957   2.836   5.144
 6634SOL    HW120801   5.942   2.809   5.239
 6634SOL    HW220802   5.965   2.755   5.086
 6635SOL     OW20803   3.928   5.158   3.252
 6635SOL    HW120804   3.972   5.072   3.225
 6635SOL    HW220805   3.980   5.235   3.215
 6636SOL     OW20806   3.363   1.995   6.307
 6636SOL    HW120807   3.444   1.946   6.273
 6636SOL    HW220808   3.388   2.090   6.326
 6637SOL     OW20809   1.807   0.346   6.247
 6637SOL    HW120810   1.863   0.378   6.171
 6637SOL    HW220811   1.744   0.275   6.214
 6638SOL     OW20812   3.928   4.747   5.258
 6638SOL    HW120813   3.850   4.804   5.233
 6638SOL    HW220814   4.013   4.791   5.228
 6639SOL     OW20815   5.677   5.682   0.072
 6639SOL    HW120816   5.588   5.644   0.048
 6639SOL    HW220817   5.727   5.705   7.016
 6640SOL     OW20818   0.033   2.188   5.202
 6640SOL    HW120819   6.973   2.193   5.154
 6640SOL    HW220820   0.060   2.093   5.214
 6641SOL     OW20821   2.121   2.388   6.798
 6641SOL    HW120822   2.062   2.373   6.877
 6641SOL    HW220823   2.129   2.486   6.780
 6642SOL     OW20824   2.412   5.703   0.367
 6642SOL    HW120825   2.377   5.778   0.422
 6642SOL    HW220826   2.443   5.738   0.278
 6643SOL     OW20827   6.384   4.513   6.516
 6643SOL    HW120828   6.326   4.504   6.596
 6643SOL    HW220829   6.338   4.474   6.436
 6644SOL     OW20830   2.831   4.793   1.767
 6644SOL    HW120831   2.928   4.801   1.745
 6644SOL    HW220832   2.818   4.721   1.835
 6645SOL     OW20833   0.149   5.057   0.316
 6645SOL    HW120834   0.067   5.114   0.325
 6645SOL    HW220835   0.226   5.102   0.362
 6646SOL     OW20836   3.921   6.323   4.747
 6646SOL    HW120837   3.868   6.238   4.743
 6646SOL    HW220838   3.919   6.367   4.657
 6647SOL     OW20839   3.875   1.226   2.150
 6647SOL    HW120840   3.885   1.247   2.053
 6647SOL    HW220841   3.914   1.301   2.204
 6648SOL     OW20842   3.550   5.812   2.070
 6648SOL    HW120843   3.578   5.809   1.974
 6648SOL    HW220844   3.451   5.821   2.075
 6649SOL     OW20845   4.912   1.675   0.103
 6649SOL    HW120846   4.977   1.693   0.177
 6649SOL    HW220847   4.834   1.624   0.138
 6650SOL     OW20848   4.106   1.151   5.341
 6650SOL    HW120849   4.168   1.227   5.361
 6650SOL    HW220850   4.040   1.179   5.272
 6651SOL     OW20851   2.199   1.735   6.642
 6651SOL    HW120852   2.216   1.657   6.702
 6651SOL    HW220853   2.198   1.819   6.696
 6652SOL     OW20854   6.773   5.036   0.363
 6652SOL    HW120855   6.820   5.123   0.348
 6652SOL    HW220856   6.675   5.053   0.377
 6653SOL     OW20857   3.331   3.225   2.913
 6653SOL    HW120858   3.321   3.139   2.963
 6653SOL    HW220859   3.417   3.224   2.862
 6654SOL     OW20860   2.026   3.165   1.035
 6654SOL    HW120861   2.082   3.083   1.030
 6654SOL    HW220862   1.953   3.160   0.966
 6655SOL     OW20863   3.186   0.054   1.255
 6655SOL    HW120864   3.281   0.042   1.230
 6655SOL    HW220865   3.128   0.049   1.174
 6656SOL     OW20866   6.025   1.793   2.213
 6656SOL    HW120867   6.065   1.833   2.130
 6656SOL    HW220868   5.926   1.811   2.214
 6657SOL     OW20869   4.789   5.975   6.465
 6657SOL    HW120870   4.878   6.014   6.440
 6657SOL    HW220871   4.726   5.984   6.388
 6658SOL     OW20872   6.030   1.683   5.000
 6658SOL    HW120873   6.110   1.729   4.961
 6658SOL    HW220874   5.981   1.634   4.927
 6659SOL     OW20875   2.340   2.279   0.922
 6659SOL    HW120876   2.305   2.328   0.842
 6659SOL    HW220877   2.382   2.193   0.893
 6660SOL     OW20878   0.296   6.061   0.860
 6660SOL    HW120879   0.341   6.122   0.926
 6660SOL    HW220880   0.241   6.115   0.797
 6661SOL     OW20881   0.442   5.906   3.984
 6661SOL    HW120882   0.357   5.905   4.038
 6661SOL    HW220883   0.520   5.917   4.046
 6662SOL     OW20884   1.136   0.601   6.881
 6662SOL    HW120885   1.079   0.625   6.960
 6662SOL    HW220886   1.119   0.507   6.855
 6663SOL     OW20887   6.964   5.111   2.522
 6663SOL    HW120888   6.915   5.121   2.436
 6663SOL    HW220889   6.904   5.068   2.590
 6664SOL     OW20890   1.751   6.653   0.824
 6664SOL    HW120891   1.817   6.702   0.766
 6664SOL    HW220892   1.677   6.715   0.850
 6665SOL     OW20893   2.068   0.542   3.272
 6665SOL    HW120894   2.133   0.467   3.289
 6665SOL    HW220895   2.076   0.573   3.178
 6666SOL     OW20896   5.661   1.156   6.267
 6666SOL    HW120897   5.606   1.196   6.340
 6666SOL    HW220898   5.615   1.075   6.231
 6667SOL     OW20899   0.241   5.217   5.447
 6667SOL    HW120900   0.178   5.177   5.514
 6667SOL    HW220901   0.211   5.193   5.355
 6668SOL     OW20902   6.285   5.993   1.756
 6668SOL    HW120903   6.217   5.928   1.791
 6668SOL    HW220904   6.376   5.966   1.787
 6669SOL     OW20905   2.225   2.988   3.943
 6669SOL    HW120906   2.203   2.954   4.034
 6669SOL    HW220907   2.183   3.078   3.929
 6670SOL     OW20908   3.569   2.939   5.938
 6670SOL    HW120909   3.624   2.943   5.855
 6670SOL    HW220910   3.476   2.911   5.915
 6671SOL     OW20911   5.070   5.772   1.024
 6671SOL    HW120912   5.023   5.692   1.061
 6671SOL    HW220913   5.033   5.795   0.934
 6672SOL     OW20914   0.879   1.893   5.228
 6672SOL    HW120915   0.957   1.942   5.188
 6672SOL    HW220916   0.894   1.794   5.219
 6673SOL     OW20917   5.089   6.407   3.208
 6673SOL    HW120918   5.016   6.443   3.150
 6673SOL    HW220919   5.070   6.312   3.230
 6674SOL     OW20920   0.960   5.251   6.529
 6674SOL    HW120921   0.897   5.244   6.606
 6674SOL    HW220922   0.913   5.290   6.450
 6675SOL     OW20923   4.232   4.046   1.741
 6675SOL    HW120924   4.170   4.119   1.712
 6675SOL    HW220925   4.307   4.085   1.794
 6676SOL     OW20926   0.179   4.368   5.267
 6676SOL    HW120927   0.164   4.457   5.310
 6676SOL    HW220928   0.273   4.363   5.234
 6677SOL     OW20929   0.829   2.265   0.051
 6677SOL    HW120930   0.758   2.210   0.009
 6677SOL    HW220931   0.865   2.219   0.132
 6678SOL     OW20932   2.417   2.294   0.390
 6678SOL    HW120933   2.362   2.211   0.400
 6678SOL    HW220934   2.510   2.277   0.423
 6679SOL     OW20935   2.760   1.662   4.126
 6679SOL    HW120936   2.728   1.677   4.032
 6679SOL    HW220937   2.709   1.587   4.168
 6680SOL     OW20938   4.305   6.766   6.579
 6680SOL    HW120939   4.264   6.766   6.488
 6680SOL    HW220940   4.239   6.802   6.645
 6681SOL     OW20941   4.653   5.040   0.344
 6681SOL    HW120942   4.660   5.010   0.439
 6681SOL    HW220943   4.642   5.139   0.341
 6682SOL     OW20944   1.297   4.116   2.022
 6682SOL    HW120945   1.333   4.101   1.930
 6682SOL    HW220946   1.260   4.030   2.058
 6683SOL     OW20947   4.920   2.824   5.725
 6683SOL    HW120948   4.929   2.738   5.674
 6683SOL    HW220949   4.902   2.803   5.821
 6684SOL     OW20950   1.938   6.782   0.655
 6684SOL    HW120951   1.987   6.760   0.571
 6684SOL    HW220952   1.999   6.830   0.718
 6685SOL     OW20953   5.729   3.215   5.103
 6685SOL    HW120954   5.778   3.166   5.032
 6685SOL    HW220955   5.769   3.195   5.192
 6686SOL     OW20956   5.135   5.685   3.831
 6686SOL    HW120957   5.127   5.610   3.767
 6686SOL    HW220958   5.232   5.709   3.843
 6687SOL     OW20959   0.151   1.934   0.800
 6687SOL    HW120960   0.196   1.973   0.720
 6687SOL    HW220961   0.219   1.892   0.860
 6688SOL     OW20962   6.901   4.093   1.753
 6688SOL    HW120963   6.963   4.159   1.796
 6688SOL    HW220964   6.954   4.023   1.706
 6689SOL     OW20965   4.321   3.070   0.545
 6689SOL    HW120966   4.262   3.023   0.611
 6689SOL    HW220967   4.269   3.142   0.500
 6690SOL     OW20968   2.265   0.854   2.074
 6690SOL    HW120969   2.300   0.937   2.030
 6690SOL    HW220970   2.166   0.848   2.058
 6691SOL     OW20971   3.243   5.925   1.921
 6691SOL    HW120972   3.252   6.018   1.956
 6691SOL    HW220973   3.209   5.866   1.994
 6692SOL     OW20974   2.897   4.685   5.387
 6692SOL    HW120975   2.910   4.652   5.293
 6692SOL    HW220976   2.979   4.668   5.440
 6693SOL     OW20977   4.534   3.430   5.975
 6693SOL    HW120978   4.472   3.485   6.030
 6693SOL    HW220979   4.607   3.488   5.939
 6694SOL     OW20980   4.884   6.229   0.210
 6694SOL    HW120981   4.796   6.265   0.240
 6694SOL    HW220982   4.910   6.273   0.124
 6695SOL     OW20983   2.276   2.349   5.788
 6695SOL    HW120984   2.258   2.373   5.693
 6695SOL    HW220985   2.366   2.382   5.814
 6696SOL     OW20986   1.989   1.974   0.310
 6696SOL    HW120987   2.083   1.970   0.343
 6696SOL    HW220988   1.989   1.972   0.210
 6697SOL     OW20989   4.810   2.516   3.282
 6697SOL    HW120990   4.802   2.417   3.269
 6697SOL    HW220991   4.746   2.545   3.354
 6698SOL     OW20992   3.263   3.002   0.381
 6698SOL    HW120993   3.164   3.019   0.382
 6698SOL    HW220994   3.288   2.944   0.459
 6699SOL     OW20995   3.395   5.069   6.897
 6699SOL    HW120996   3.326   5.039   6.831
 6699SOL    HW220997   3.404   5.168   6.893
 6700SOL     OW20998   7.020   6.320   1.012
 6700SOL    HW120999   0.010   6.313   0.914
 6700SOL    HW221000   0.078   6.316   1.062
 6701SOL     OW21001   5.581   3.301   1.570
 6701SOL    HW121002   5.592   3.319   1.668
 6701SOL    HW221003   5.537   3.213   1.556
 6702SOL     OW21004   2.534   2.598   0.470
 6702SOL    HW121005   2.548   2.517   0.527
 6702SOL    HW221006   2.437   2.620   0.467
 6703SOL     OW21007   6.505   1.710   6.792
 6703SOL    HW121008   6.434   1.775   6.821
 6703SOL    HW221009   6.523   1.646   6.867
 6704SOL     OW21010   4.288   2.233   2.795
 6704SOL    HW121011   4.257   2.241   2.890
 6704SOL    HW221012   4.238   2.298   2.738
 6705SOL     OW21013   0.310   2.065   1.536
 6705SOL    HW121014   0.334   2.104   1.624
 6705SOL    HW221015   0.325   2.132   1.464
 6706SOL     OW21016   1.175   3.815   0.606
 6706SOL    HW121017   1.219   3.904   0.619
 6706SOL    HW221018   1.111   3.798   0.681
 6707SOL     OW21019   6.952   5.208   4.702
 6707SOL    HW121020   0.001   5.145   4.712
 6707SOL    HW221021   6.978   5.299   4.736
 6708SOL     OW21022   1.567   5.283   2.406
 6708SOL    HW121023   1.613   5.371   2.392
 6708SOL    HW221024   1.562   5.235   2.319
 6709SOL     OW21025   3.186   5.519   1.942
 6709SOL    HW121026   3.199   5.560   2.033
 6709SOL    HW221027   3.274   5.512   1.896
 6710SOL     OW21028   2.773   1.822   6.172
 6710SOL    HW121029   2.851   1.869   6.131
 6710SOL    HW221030   2.804   1.770   6.252
 6711SOL     OW21031   5.416   4.730   6.489
 6711SOL    HW121032   5.430   4.631   6.487
 6711SOL    HW221033   5.318   4.748   6.504
 6712SOL     OW21034   4.472   5.277   0.019
 6712SOL    HW121035   4.485   5.186   7.008
 6712SOL    HW221036   4.541   5.293   0.089
 6713SOL     OW21037   2.074   2.099   1.300
 6713SOL    HW121038   2.146   2.169   1.307
 6713SOL    HW221039   2.000   2.133   1.242
 6714SOL     OW21040   5.335   0.483   6.046
 6714SOL    HW121041   5.350   0.478   5.948
 6714SOL    HW221042   5.327   0.579   6.074
 6715SOL     OW21043   0.061   0.651   6.981
 6715SOL    HW121044   7.006   0.655   0.008
 6715SOL    HW221045   0.094   0.557   6.976
 6716SOL     OW21046   1.099   5.777   2.157
 6716SOL    HW121047   1.027   5.832   2.200
 6716SOL    HW221048   1.063   5.687   2.133
 6717SOL     OW21049   4.493   2.756   0.888
 6717SOL    HW121050   4.401   2.729   0.915
 6717SOL    HW221051   4.489   2.798   0.797
 6718SOL     OW21052   3.809   6.332   6.422
 6718SOL    HW121053   3.828   6.236   6.397
 6718SOL    HW221054   3.803   6.339   6.521
 6719SOL     OW21055   0.210   0.239   6.071
 6719SOL    HW121056   0.298   0.278   6.098
 6719SOL    HW221057   0.137   0.303   6.095
 6720SOL     OW21058   1.566   6.227   2.386
 6720SOL    HW121059   1.481   6.278   2.400
 6720SOL    HW221060   1.606   6.203   2.474
 6721SOL     OW21061   6.117   6.723   4.621
 6721SOL    HW121062   6.047   6.764   4.680
 6721SOL    HW221063   6.095   6.627   4.606
 6722SOL     OW21064   5.362   3.017   1.096
 6722SOL    HW121065   5.458   3.043   1.102
 6722SOL    HW221066   5.355   2.924   1.060
 6723SOL     OW21067   1.964   0.002   3.091
 6723SOL    HW121068   2.023   7.011   3.170
 6723SOL    HW221069   1.966   0.101   3.072
 6724SOL     OW21070   1.257   3.609   5.901
 6724SOL    HW121071   1.215   3.523   5.871
 6724SOL    HW221072   1.282   3.663   5.820
 6725SOL     OW21073   0.705   4.221   2.077
 6725SOL    HW121074   0.790   4.178   2.048
 6725SOL    HW221075   0.708   4.319   2.057
 6726SOL     OW21076   0.635   1.976   4.297
 6726SOL    HW121077   0.680   2.033   4.228
 6726SOL    HW221078   0.544   1.950   4.265
 6727SOL     OW21079   6.313   3.916   5.928
 6727SOL    HW121080   6.382   3.987   5.911
 6727SOL    HW221081   6.336   3.867   6.012
 6728SOL     OW21082   4.586   1.411   4.429
 6728SOL    HW121083   4.610   1.342   4.361
 6728SOL    HW221084   4.641   1.398   4.511
 6729SOL     OW21085   6.394   1.402   2.305
 6729SOL    HW121086   6.306   1.404   2.352
 6729SOL    HW221087   6.468   1.417   2.371
 6730SOL     OW21088   1.891   6.349   6.483
 6730SOL    HW121089   1.862   6.282   6.415
 6730SOL    HW221090   1.843   6.435   6.468
 6731SOL     OW21091   2.310   4.604   0.910
 6731SOL    HW121092   2.355   4.634   0.994
 6731SOL    HW221093   2.377   4.560   0.849
 6732SOL     OW21094   3.684   5.721   6.463
 6732SOL    HW121095   3.702   5.624   6.474
 6732SOL    HW221096   3.642   5.757   6.547
 6733SOL     OW21097   4.048   5.150   6.571
 6733SOL    HW121098   4.032   5.051   6.573
 6733SOL    HW221099   4.101   5.176   6.651
 6734SOL     OW21100   0.694   3.355   5.803
 6734SOL    HW121101   0.622   3.331   5.737
 6734SOL    HW221102   0.653   3.405   5.880
 6735SOL     OW21103   0.716   5.453   4.918
 6735SOL    HW121104   0.721   5.355   4.939
 6735SOL    HW221105   0.654   5.467   4.841
 6736SOL     OW21106   2.088   3.433   0.408
 6736SOL    HW121107   2.078   3.401   0.314
 6736SOL    HW221108   2.117   3.528   0.407
 6737SOL     OW21109   1.816   2.388   0.994
 6737SOL    HW121110   1.717   2.403   0.995
 6737SOL    HW221111   1.859   2.450   0.929
 6738SOL     OW21112   1.974   2.952   2.014
 6738SOL    HW121113   1.921   2.929   1.933
 6738SOL    HW221114   2.065   2.911   2.007
 6739SOL     OW21115   2.687   5.038   5.971
 6739SOL    HW121116   2.715   4.942   5.981
 6739SOL    HW221117   2.597   5.042   5.927
 6740SOL     OW21118   1.811   1.414   4.706
 6740SOL    HW121119   1.736   1.354   4.732
 6740SOL    HW221120   1.874   1.365   4.645
 6741SOL     OW21121   4.356   1.558   6.171
 6741SOL    HW121122   4.408   1.473   6.159
 6741SOL    HW221123   4.332   1.570   6.267
 6742SOL     OW21124   0.209   5.674   3.147
 6742SOL    HW121125   0.196   5.576   3.138
 6742SOL    HW221126   0.286   5.693   3.209
 6743SOL     OW21127   4.065   4.484   6.748
 6743SOL    HW121128   4.053   4.502   6.651
 6743SOL    HW221129   4.154   4.516   6.778
 6744SOL     OW21130   4.721   5.599   6.068
 6744SOL    HW121131   4.739   5.695   6.092
 6744SOL    HW221132   4.724   5.543   6.151
 6745SOL     OW21133   0.930   5.610   2.731
 6745SOL    HW121134   0.998   5.536   2.723
 6745SOL    HW221135   0.935   5.649   2.823
 6746SOL     OW21136   0.412   0.853   2.843
 6746SOL    HW121137   0.336   0.793   2.816
 6746SOL    HW221138   0.479   0.858   2.769
 6747SOL     OW21139   5.160   6.145   4.670
 6747SOL    HW121140   5.074   6.096   4.683
 6747SOL    HW221141   5.206   6.110   4.588
 6748SOL     OW21142   1.496   0.486   2.558
 6748SOL    HW121143   1.513   0.395   2.520
 6748SOL    HW221144   1.539   0.555   2.501
 6749SOL     OW21145   2.950   6.649   6.896
 6749SOL    HW121146   3.036   6.605   6.922
 6749SOL    HW221147   2.961   6.748   6.900
 6750SOL     OW21148   3.893   1.884   4.614
 6750SOL    HW121149   3.796   1.861   4.608
 6750SOL    HW221150   3.903   1.977   4.649
 6751SOL     OW21151   3.503   2.154   4.008
 6751SOL    HW121152   3.560   2.228   3.971
 6751SOL    HW221153   3.542   2.066   3.982
 6752SOL     OW21154   6.190   3.174   2.298
 6752SOL    HW121155   6.185   3.113   2.219
 6752SOL    HW221156   6.132   3.254   2.282
 6753SOL     OW21157   4.412   1.726   6.467
 6753SOL    HW121158   4.431   1.639   6.512
 6753SOL    HW221159   4.458   1.800   6.517
 6754SOL     OW21160   6.402   2.158   5.548
 6754SOL    HW121161   6.328   2.148   5.482
 6754SOL    HW221162   6.382   2.104   5.630
 6755SOL     OW21163   5.027   1.716   3.705
 6755SOL    HW121164   5.063   1.808   3.686
 6755SOL    HW221165   5.025   1.700   3.803
 6756SOL     OW21166   4.762   4.338   4.336
 6756SOL    HW121167   4.699   4.396   4.387
 6756SOL    HW221168   4.795   4.264   4.395
 6757SOL     OW21169   4.859   6.013   0.651
 6757SOL    HW121170   4.849   6.111   0.632
 6757SOL    HW221171   4.954   5.994   0.675
 6758SOL     OW21172   5.099   3.665   2.171
 6758SOL    HW121173   5.172   3.604   2.140
 6758SOL    HW221174   5.085   3.738   2.104
 6759SOL     OW21175   0.746   4.319   4.229
 6759SOL    HW121176   0.682   4.274   4.167
 6759SOL    HW221177   0.731   4.418   4.224
 6760SOL     OW21178   6.455   4.928   4.590
 6760SOL    HW121179   6.492   4.950   4.500
 6760SOL    HW221180   6.449   4.828   4.600
 6761SOL     OW21181   5.482   2.421   5.849
 6761SOL    HW121182   5.501   2.357   5.775
 6761SOL    HW221183   5.562   2.427   5.909
 6762SOL     OW21184   6.849   5.596   3.024
 6762SOL    HW121185   6.880   5.501   3.030
 6762SOL    HW221186   6.771   5.610   3.085
 6763SOL     OW21187   6.088   6.211   4.223
 6763SOL    HW121188   6.153   6.135   4.231
 6763SOL    HW221189   6.137   6.298   4.228
 6764SOL     OW21190   2.870   3.879   6.489
 6764SOL    HW121191   2.863   3.883   6.390
 6764SOL    HW221192   2.963   3.903   6.517
 6765SOL     OW21193   6.330   4.900   3.693
 6765SOL    HW121194   6.296   4.923   3.602
 6765SOL    HW221195   6.404   4.963   3.718
 6766SOL     OW21196   2.784   6.887   5.933
 6766SOL    HW121197   2.791   6.985   5.912
 6766SOL    HW221198   2.688   6.858   5.924
 6767SOL     OW21199   0.083   3.008   0.950
 6767SOL    HW121200   0.047   2.932   1.005
 6767SOL    HW221201   0.057   2.994   0.855
 6768SOL     OW21202   0.632   0.613   3.205
 6768SOL    HW121203   0.710   0.555   3.181
 6768SOL    HW221204   0.554   0.591   3.146
 6769SOL     OW21205   3.210   1.629   5.326
 6769SOL    HW121206   3.278   1.639   5.399
 6769SOL    HW221207   3.219   1.705   5.262
 6770SOL     OW21208   0.254   2.577   4.282
 6770SOL    HW121209   0.261   2.653   4.347
 6770SOL    HW221210   0.207   2.608   4.200
 6771SOL     OW21211   3.907   2.172   3.574
 6771SOL    HW121212   3.860   2.172   3.486
 6771SOL    HW221213   3.843   2.197   3.646
 6772SOL     OW21214   5.429   1.991   2.267
 6772SOL    HW121215   5.458   2.084   2.288
 6772SOL    HW221216   5.496   1.926   2.302
 6773SOL     OW21217   6.757   6.630   1.278
 6773SOL    HW121218   6.685   6.680   1.326
 6773SOL    HW221219   6.802   6.691   1.212
 6774SOL     OW21220   1.832   1.843   5.496
 6774SOL    HW121221   1.875   1.753   5.491
 6774SOL    HW221222   1.857   1.888   5.581
 6775SOL     OW21223   1.411   1.869   3.673
 6775SOL    HW121224   1.411   1.967   3.692
 6775SOL    HW221225   1.504   1.840   3.649
 6776SOL     OW21226   3.718   4.122   1.111
 6776SOL    HW121227   3.700   4.032   1.070
 6776SOL    HW221228   3.647   4.144   1.178
 6777SOL     OW21229   4.227   5.467   1.137
 6777SOL    HW121230   4.306   5.421   1.097
 6777SOL    HW221231   4.240   5.566   1.131
 6778SOL     OW21232   5.387   3.454   2.618
 6778SOL    HW121233   5.294   3.479   2.647
 6778SOL    HW221234   5.381   3.380   2.551
 6779SOL     OW21235   6.145   4.254   6.045
 6779SOL    HW121236   6.085   4.310   6.101
 6779SOL    HW221237   6.162   4.166   6.090
 6780SOL     OW21238   2.436   2.597   2.966
 6780SOL    HW121239   2.503   2.671   2.958
 6780SOL    HW221240   2.427   2.570   3.061
 6781SOL     OW21241   6.532   1.088   4.011
 6781SOL    HW121242   6.579   1.031   4.078
 6781SOL    HW221243   6.433   1.076   4.021
 6782SOL     OW21244   7.026   1.234   3.597
 6782SOL    HW121245   7.018   1.158   3.662
 6782SOL    HW221246   6.954   1.227   3.529
 6783SOL     OW21247   1.474   4.434   5.306
 6783SOL    HW121248   1.560   4.394   5.274
 6783SOL    HW221249   1.411   4.362   5.334
 6784SOL     OW21250   2.277   3.205   1.753
 6784SOL    HW121251   2.245   3.158   1.835
 6784SOL    HW221252   2.283   3.303   1.771
 6785SOL     OW21253   5.404   4.694   5.021
 6785SOL    HW121254   5.379   4.599   5.003
 6785SOL    HW221255   5.449   4.734   4.941
 6786SOL     OW21256   6.340   3.002   0.915
 6786SOL    HW121257   6.303   3.063   0.985
 6786SOL    HW221258   6.265   2.955   0.869
 6787SOL     OW21259   3.641   2.524   0.851
 6787SOL    HW121260   3.666   2.437   0.809
 6787SOL    HW221261   3.724   2.574   0.876
 6788SOL     OW21262   1.165   3.899   3.195
 6788SOL    HW121263   1.166   3.919   3.293
 6788SOL    HW221264   1.138   3.980   3.144
 6789SOL     OW21265   6.340   3.928   4.362
 6789SOL    HW121266   6.329   3.838   4.402
 6789SOL    HW221267   6.433   3.962   4.382
 6790SOL     OW21268   0.879   5.078   6.185
 6790SOL    HW121269   0.899   5.038   6.095
 6790SOL    HW221270   0.950   5.050   6.250
 6791SOL     OW21271   4.408   1.619   3.997
 6791SOL    HW121272   4.327   1.624   4.057
 6791SOL    HW221273   4.382   1.647   3.905
 6792SOL     OW21274   4.380   0.012   5.114
 6792SOL    HW121275   4.308   7.013   5.177
 6792SOL    HW221276   4.344   0.014   5.020
 6793SOL     OW21277   2.726   2.738   6.987
 6793SOL    HW121278   2.687   2.647   6.975
 6793SOL    HW221279   2.819   2.731   7.021
 6794SOL     OW21280   4.644   1.425   5.854
 6794SOL    HW121281   4.743   1.411   5.861
 6794SOL    HW221282   4.620   1.514   5.892
 6795SOL     OW21283   1.304   0.711   1.219
 6795SOL    HW121284   1.379   0.682   1.159
 6795SOL    HW221285   1.286   0.808   1.204
 6796SOL     OW21286   6.563   1.054   2.206
 6796SOL    HW121287   6.490   1.107   2.161
 6796SOL    HW221288   6.523   0.973   2.249
 6797SOL     OW21289   6.837   2.416   1.965
 6797SOL    HW121290   6.921   2.399   1.914
 6797SOL    HW221291   6.805   2.509   1.947
 6798SOL     OW21292   5.177   0.435   1.670
 6798SOL    HW121293   5.179   0.496   1.748
 6798SOL    HW221294   5.204   0.343   1.698
 6799SOL     OW21295   5.839   6.905   3.561
 6799SOL    HW121296   5.921   6.911   3.504
 6799SOL    HW221297   5.827   6.990   3.612
 6800SOL     OW21298   0.940   1.007   1.391
 6800SOL    HW121299   0.995   0.992   1.309
 6800SOL    HW221300   0.996   1.052   1.461
 6801SOL     OW21301   1.419   6.255   4.735
 6801SOL    HW121302   1.337   6.264   4.678
 6801SOL    HW221303   1.396   6.208   4.820
 6802SOL     OW21304   3.035   6.057   1.738
 6802SOL    HW121305   3.080   5.995   1.802
 6802SOL    HW221306   3.089   6.141   1.730
 6803SOL     OW21307   4.928   4.664   0.193
 6803SOL    HW121308   5.022   4.690   0.211
 6803SOL    HW221309   4.922   4.564   0.183
 6804SOL     OW21310   2.704   4.948   2.904
 6804SOL    HW121311   2.608   4.966   2.880
 6804SOL    HW221312   2.753   4.918   2.822
 6805SOL     OW21313   0.183   5.075   5.692
 6805SOL    HW121314   0.258   5.130   5.729
 6805SOL    HW221315   0.096   5.107   5.729
 6806SOL     OW21316   6.923   0.701   3.657
 6806SOL    HW121317   6.855   0.635   3.624
 6806SOL    HW221318   6.957   0.672   3.746
 6807SOL     OW21319   3.273   4.115   3.683
 6807SOL    HW121320   3.282   4.149   3.777
 6807SOL    HW221321   3.299   4.018   3.681
 6808SOL     OW21322   4.836   1.074   5.137
 6808SOL    HW121323   4.780   1.047   5.215
 6808SOL    HW221324   4.932   1.072   5.162
 6809SOL     OW21325   5.812   4.672   1.851
 6809SOL    HW121326   5.761   4.731   1.913
 6809SOL    HW221327   5.790   4.576   1.871
 6810SOL     OW21328   3.128   1.172   3.073
 6810SOL    HW121329   3.088   1.087   3.108
 6810SOL    HW221330   3.075   1.250   3.106
 6811SOL     OW21331   6.076   1.513   2.221
 6811SOL    HW121332   6.122   1.509   2.310
 6811SOL    HW221333   6.044   1.606   2.204
 6812SOL     OW21334   3.399   3.936   5.581
 6812SOL    HW121335   3.305   3.916   5.552
 6812SOL    HW221336   3.399   3.959   5.679
 6813SOL     OW21337   5.277   3.365   1.484
 6813SOL    HW121338   5.304   3.378   1.389
 6813SOL    HW221339   5.313   3.278   1.518
 6814SOL     OW21340   4.064   1.440   6.305
 6814SOL    HW121341   3.980   1.391   6.327
 6814SOL    HW221342   4.084   1.507   6.376
 6815SOL     OW21343   1.885   5.150   6.607
 6815SOL    HW121344   1.809   5.106   6.559
 6815SOL    HW221345   1.939   5.203   6.541
 6816SOL     OW21346   6.964   1.866   4.471
 6816SOL    HW121347   6.929   1.852   4.378
 6816SOL    HW221348   6.888   1.858   4.536
 6817SOL     OW21349   2.987   2.170   2.979
 6817SOL    HW121350   2.918   2.240   2.964
 6817SOL    HW221351   2.943   2.087   3.015
 6818SOL     OW21352   2.053   6.197   5.933
 6818SOL    HW121353   2.024   6.292   5.923
 6818SOL    HW221354   2.073   6.158   5.843
 6819SOL     OW21355   5.013   5.175   2.776
 6819SOL    HW121356   5.003   5.144   2.681
 6819SOL    HW221357   4.944   5.130   2.832
 6820SOL     OW21358   1.651   6.561   1.532
 6820SOL    HW121359   1.667   6.470   1.495
 6820SOL    HW221360   1.593   6.613   1.469
 6821SOL     OW21361   4.378   2.517   5.375
 6821SOL    HW121362   4.478   2.519   5.373
 6821SOL    HW221363   4.344   2.611   5.382
 6822SOL     OW21364   6.968   3.191   6.051
 6822SOL    HW121365   6.993   3.166   5.957
 6822SOL    HW221366   0.023   3.204   6.105
 6823SOL     OW21367   5.570   3.494   0.109
 6823SOL    HW121368   5.648   3.433   0.101
 6823SOL    HW221369   5.547   3.532   0.019
 6824SOL     OW21370   1.668   1.585   6.855
 6824SOL    HW121371   1.599   1.522   6.823
 6824SOL    HW221372   1.758   1.559   6.819
 6825SOL     OW21373   6.849   6.187   1.259
 6825SOL    HW121374   6.822   6.103   1.305
 6825SOL    HW221375   6.899   6.166   1.176
 6826SOL     OW21376   0.890   3.300   3.005
 6826SOL    HW121377   0.800   3.337   2.980
 6826SOL    HW221378   0.960   3.370   2.992
 6827SOL     OW21379   4.394   5.718   5.278
 6827SOL    HW121380   4.479   5.708   5.227
 6827SOL    HW221381   4.348   5.629   5.284
 6828SOL     OW21382   3.643   1.378   2.990
 6828SOL    HW121383   3.682   1.361   3.081
 6828SOL    HW221384   3.624   1.475   2.980
 6829SOL     OW21385   5.025   7.008   4.801
 6829SOL    HW121386   4.993   7.007   4.896
 6829SOL    HW221387   5.097   0.048   4.791
 6830SOL     OW21388   5.928   0.861   3.096
 6830SOL    HW121389   5.837   0.835   3.065
 6830SOL    HW221390   5.931   0.862   3.196
 6831SOL     OW21391   1.378   1.576   5.409
 6831SOL    HW121392   1.434   1.498   5.381
 6831SOL    HW221393   1.401   1.601   5.503
 6832SOL     OW21394   2.997   2.009   0.662
 6832SOL    HW121395   2.952   2.095   0.636
 6832SOL    HW221396   3.088   2.029   0.699
 6833SOL     OW21397   2.840   5.617   6.149
 6833SOL    HW121398   2.798   5.697   6.105
 6833SOL    HW221399   2.896   5.568   6.083
 6834SOL     OW21400   4.849   0.312   0.824
 6834SOL    HW121401   4.927   0.259   0.858
 6834SOL    HW221402   4.850   0.313   0.724
 6835SOL     OW21403   3.464   2.129   4.284
 6835SOL    HW121404   3.503   2.161   4.198
 6835SOL    HW221405   3.401   2.198   4.319
 6836SOL     OW21406   1.982   4.632   6.293
 6836SOL    HW121407   1.951   4.540   6.270
 6836SOL    HW221408   2.016   4.677   6.211
 6837SOL     OW21409   1.304   0.672   2.020
 6837SOL    HW121410   1.259   0.586   2.042
 6837SOL    HW221411   1.269   0.744   2.079
 6838SOL     OW21412   2.583   4.605   5.129
 6838SOL    HW121413   2.652   4.675   5.111
 6838SOL    HW221414   2.546   4.570   5.043
 6839SOL     OW21415   5.280   1.756   4.265
 6839SOL    HW121416   5.300   1.694   4.340
 6839SOL    HW221417   5.328   1.843   4.279
 6840SOL     OW21418   2.490   6.565   4.749
 6840SOL    HW121419   2.487   6.549   4.848
 6840SOL    HW221420   2.525   6.483   4.703
 6841SOL     OW21421   4.022   5.633   1.742
 6841SOL    HW121422   4.010   5.698   1.817
 6841SOL    HW221423   4.067   5.678   1.666
 6842SOL     OW21424   0.463   3.326   6.690
 6842SOL    HW121425   0.448   3.367   6.780
 6842SOL    HW221426   0.537   3.259   6.696
 6843SOL     OW21427   4.557   1.992   1.961
 6843SOL    HW121428   4.585   2.053   2.035
 6843SOL    HW221429   4.458   1.988   1.956
 6844SOL     OW21430   4.402   5.198   4.880
 6844SOL    HW121431   4.377   5.158   4.792
 6844SOL    HW221432   4.465   5.275   4.865
 6845SOL     OW21433   4.370   4.586   2.815
 6845SOL    HW121434   4.353   4.680   2.846
 6845SOL    HW221435   4.363   4.582   2.716
 6846SOL     OW21436   3.455   3.144   2.032
 6846SOL    HW121437   3.546   3.182   2.018
 6846SOL    HW221438   3.411   3.129   1.943
 6847SOL     OW21439   4.848   3.373   1.665
 6847SOL    HW121440   4.842   3.398   1.569
 6847SOL    HW221441   4.781   3.301   1.685
 6848SOL     OW21442   0.718   4.977   4.509
 6848SOL    HW121443   0.789   5.016   4.450
 6848SOL    HW221444   0.720   4.878   4.502
 6849SOL     OW21445   3.649   5.442   4.078
 6849SOL    HW121446   3.580   5.511   4.053
 6849SOL    HW221447   3.606   5.352   4.083
 6850SOL     OW21448   5.721   1.859   3.374
 6850SOL    HW121449   5.692   1.836   3.281
 6850SOL    HW221450   5.641   1.864   3.434
 6851SOL     OW21451   0.690   4.990   5.827
 6851SOL    HW121452   0.698   5.049   5.747
 6851SOL    HW221453   0.774   4.938   5.840
 6852SOL     OW21454   0.749   4.020   1.826
 6852SOL    HW121455   0.748   3.924   1.795
 6852SOL    HW221456   0.803   4.074   1.763
 6853SOL     OW21457   0.941   5.706   5.796
 6853SOL    HW121458   0.930   5.656   5.709
 6853SOL    HW221459   1.028   5.755   5.795
 6854SOL     OW21460   6.547   1.885   6.006
 6854SOL    HW121461   6.622   1.820   5.995
 6854SOL    HW221462   6.583   1.971   6.044
 6855SOL     OW21463   3.836   6.949   2.879
 6855SOL    HW121464   3.832   7.015   2.803
 6855SOL    HW221465   3.823   6.998   2.965
 6856SOL     OW21466   6.521   4.113   4.670
 6856SOL    HW121467   6.524   4.132   4.768
 6856SOL    HW221468   6.609   4.076   4.640
 6857SOL     OW21469   3.211   1.576   6.444
 6857SOL    HW121470   3.206   1.674   6.428
 6857SOL    HW221471   3.300   1.541   6.414
 6858SOL     OW21472   4.110   3.412   4.078
 6858SOL    HW121473   4.205   3.443   4.087
 6858SOL    HW221474   4.089   3.347   4.151
 6859SOL     OW21475   2.381   6.757   0.603
 6859SOL    HW121476   2.443   6.810   0.660
 6859SOL    HW221477   2.422   6.669   0.581
 6860SOL     OW21478   5.749   4.780   1.594
 6860SOL    HW121479   5.827   4.841   1.608
 6860SOL    HW221480   5.738   4.721   1.674
 6861SOL     OW21481   5.831   5.188   0.387
 6861SOL    HW121482   5.856   5.128   0.463
 6861SOL    HW221483   5.912   5.237   0.354
 6862SOL     OW21484   2.679   5.030   4.735
 6862SOL    HW121485   2.680   4.947   4.790
 6862SOL    HW221486   2.716   5.010   4.644
 6863SOL     OW21487   6.278   1.397   4.668
 6863SOL    HW121488   6.229   1.349   4.595
 6863SOL    HW221489   6.354   1.448   4.628
 6864SOL     OW21490   3.222   5.745   3.569
 6864SOL    HW121491   3.171   5.800   3.503
 6864SOL    HW221492   3.181   5.654   3.576
 6865SOL     OW21493   6.254   4.035   4.121
 6865SOL    HW121494   6.270   3.955   4.064
 6865SOL    HW221495   6.294   4.021   4.211
 6866SOL     OW21496   6.692   4.179   2.128
 6866SOL    HW121497   6.606   4.171   2.078
 6866SOL    HW221498   6.767   4.147   2.070
 6867SOL     OW21499   1.574   4.081   1.522
 6867SOL    HW121500   1.506   4.150   1.547
 6867SOL    HW221501   1.584   4.015   1.597
 6868SOL     OW21502   1.778   6.094   4.514
 6868SOL    HW121503   1.854   6.096   4.579
 6868SOL    HW221504   1.717   6.172   4.533
 6869SOL     OW21505   5.995   3.086   4.826
 6869SOL    HW121506   6.003   3.163   4.890
 6869SOL    HW221507   6.081   3.035   4.824
 6870SOL     OW21508   5.616   3.653   3.167
 6870SOL    HW121509   5.527   3.681   3.131
 6870SOL    HW221510   5.608   3.639   3.266
 6871SOL     OW21511   6.060   4.779   1.888
 6871SOL    HW121512   6.080   4.812   1.795
 6871SOL    HW221513   5.973   4.730   1.888
 6872SOL     OW21514   1.574   3.403   1.017
 6872SOL    HW121515   1.510   3.340   0.973
 6872SOL    HW221516   1.571   3.390   1.116
 6873SOL     OW21517   6.020   2.866   6.021
 6873SOL    HW121518   5.924   2.873   6.049
 6873SOL    HW221519   6.063   2.789   6.067
 6874SOL     OW21520   0.310   3.752   4.133
 6874SOL    HW121521   0.292   3.656   4.157
 6874SOL    HW221522   0.228   3.792   4.093
 6875SOL     OW21523   1.410   1.747   3.034
 6875SOL    HW121524   1.448   1.661   3.001
 6875SOL    HW221525   1.313   1.735   3.055
 6876SOL     OW21526   3.297   5.736   6.610
 6876SOL    HW121527   3.266   5.653   6.657
 6876SOL    HW221528   3.310   5.717   6.513
 6877SOL     OW21529   2.206   4.535   6.980
 6877SOL    HW121530   2.200   4.436   6.969
 6877SOL    HW221531   2.193   4.580   6.892
 6878SOL     OW21532   2.283   1.941   6.228
 6878SOL    HW121533   2.369   1.915   6.185
 6878SOL    HW221534   2.244   2.019   6.180
 6879SOL     OW21535   0.110   1.642   0.144
 6879SOL    HW121536   0.011   1.653   0.152
 6879SOL    HW221537   0.155   1.699   0.213
 6880SOL     OW21538   2.100   3.904   5.077
 6880SOL    HW121539   2.188   3.944   5.049
 6880SOL    HW221540   2.089   3.915   5.176
 6881SOL     OW21541   6.998   4.352   1.531
 6881SOL    HW121542   6.970   4.258   1.510
 6881SOL    HW221543   0.068   4.353   1.552
 6882SOL     OW21544   2.125   0.336   5.008
 6882SOL    HW121545   2.105   0.369   4.916
 6882SOL    HW221546   2.054   0.367   5.071
 6883SOL     OW21547   3.558   6.983   0.728
 6883SOL    HW121548   3.609   6.972   0.643
 6883SOL    HW221549   3.548   0.052   0.749
 6884SOL     OW21550   2.164   4.415   4.285
 6884SOL    HW121551   2.226   4.423   4.364
 6884SOL    HW221552   2.217   4.425   4.201
 6885SOL     OW21553   3.081   5.886   3.398
 6885SOL    HW121554   2.985   5.875   3.422
 6885SOL    HW221555   3.096   5.979   3.364
 6886SOL     OW21556   5.311   1.096   2.346
 6886SOL    HW121557   5.392   1.126   2.295
 6886SOL    HW221558   5.229   1.117   2.294
 6887SOL     OW21559   5.244   0.108   4.746
 6887SOL    HW121560   5.313   0.176   4.771
 6887SOL    HW221561   5.288   0.034   4.695
 6888SOL     OW21562   6.011   0.325   5.336
 6888SOL    HW121563   6.019   0.404   5.396
 6888SOL    HW221564   6.084   0.260   5.357
 6889SOL     OW21565   1.004   2.590   5.629
 6889SOL    HW121566   1.085   2.552   5.584
 6889SOL    HW221567   0.975   2.528   5.702
 6890SOL     OW21568   2.281   0.235   0.660
 6890SOL    HW121569   2.234   0.312   0.617
 6890SOL    HW221570   2.268   0.152   0.605
 6891SOL     OW21571   2.118   3.378   4.778
 6891SOL    HW121572   2.041   3.441   4.779
 6891SOL    HW221573   2.161   3.379   4.687
 6892SOL     OW21574   4.052   0.229   3.952
 6892SOL    HW121575   3.957   0.221   3.981
 6892SOL    HW221576   4.102   0.146   3.977
 6893SOL     OW21577   5.445   5.819   2.458
 6893SOL    HW121578   5.454   5.726   2.493
 6893SOL    HW221579   5.536   5.861   2.453
 6894SOL     OW21580   6.309   5.551   0.663
 6894SOL    HW121581   6.311   5.651   0.666
 6894SOL    HW221582   6.378   5.519   0.599
 6895SOL     OW21583   2.961   4.232   6.738
 6895SOL    HW121584   2.940   4.223   6.835
 6895SOL    HW221585   2.877   4.225   6.685
 6896SOL     OW21586   3.862   0.434   3.770
 6896SOL    HW121587   3.780   0.490   3.762
 6896SOL    HW221588   3.845   0.345   3.728
 6897SOL     OW21589   2.563   3.331   0.265
 6897SOL    HW121590   2.492   3.266   0.238
 6897SOL    HW221591   2.618   3.293   0.339
 6898SOL     OW21592   4.507   1.347   1.940
 6898SOL    HW121593   4.514   1.443   1.913
 6898SOL    HW221594   4.585   1.296   1.902
 6899SOL     OW21595   5.209   6.828   6.558
 6899SOL    HW121596   5.218   6.801   6.462
 6899SOL    HW221597   5.194   6.927   6.563
 6900SOL     OW21598   5.885   0.857   5.866
 6900SOL    HW121599   5.794   0.834   5.901
 6900SOL    HW221600   5.948   0.869   5.942
 6901SOL     OW21601   0.179   0.154   6.495
 6901SOL    HW121602   0.197   0.248   6.526
 6901SOL    HW221603   0.248   0.127   6.428
 6902SOL     OW21604   0.656   6.686   0.386
 6902SOL    HW121605   0.756   6.680   0.397
 6902SOL    HW221606   0.624   6.772   0.424
 6903SOL     OW21607   3.867   3.220   0.470
 6903SOL    HW121608   3.768   3.229   0.463
 6903SOL    HW221609   3.911   3.303   0.438
 6904SOL     OW21610   6.521   1.309   3.510
 6904SOL    HW121611   6.568   1.280   3.594
 6904SOL    HW221612   6.422   1.305   3.525
 6905SOL     OW21613   5.696   6.593   0.486
 6905SOL    HW121614   5.737   6.678   0.518
 6905SOL    HW221615   5.738   6.516   0.536
 6906SOL     OW21616   3.584   1.064   4.595
 6906SOL    HW121617   3.487   1.068   4.574
 6906SOL    HW221618   3.599   1.090   4.691
 6907SOL     OW21619   3.908   1.956   0.719
 6907SOL    HW121620   3.927   1.861   0.697
 6907SOL    HW221621   3.882   2.006   0.637
 6908SOL     OW21622   1.266   0.065   5.702
 6908SOL    HW121623   1.172   0.033   5.717
 6908SOL    HW221624   1.270   0.164   5.714
 6909SOL     OW21625   4.380   4.767   0.882
 6909SOL    HW121626   4.395   4.703   0.807
 6909SOL    HW221627   4.393   4.861   0.849
 6910SOL     OW21628   6.279   1.430   2.728
 6910SOL    HW121629   6.318   1.489   2.798
 6910SOL    HW221630   6.346   1.361   2.700
 6911SOL     OW21631   4.246   0.295   3.772
 6911SOL    HW121632   4.193   0.269   3.853
 6911SOL    HW221633   4.334   0.248   3.773
 6912SOL     OW21634   5.008   4.981   1.273
 6912SOL    HW121635   5.033   4.912   1.206
 6912SOL    HW221636   5.040   4.953   1.364
 6913SOL     OW21637   5.289   4.134   5.081
 6913SOL    HW121638   5.357   4.163   5.148
 6913SOL    HW221639   5.198   4.155   5.115
 6914SOL     OW21640   5.691   5.517   6.796
 6914SOL    HW121641   5.754   5.595   6.806
 6914SOL    HW221642   5.617   5.526   6.862
 6915SOL     OW21643   0.385   4.642   2.357
 6915SOL    HW121644   0.480   4.649   2.388
 6915SOL    HW221645   0.371   4.553   2.313
 6916SOL     OW21646   6.663   4.232   6.785
 6916SOL    HW121647   6.640   4.328   6.771
 6916SOL    HW221648   6.590   4.175   6.748
 6917SOL     OW21649   4.610   5.343   6.420
 6917SOL    HW121650   4.538   5.377   6.360
 6917SOL    HW221651   4.606   5.391   6.507
 6918SOL     OW21652   0.441   4.115   4.152
 6918SOL    HW121653   0.483   4.026   4.168
 6918SOL    HW221654   0.383   4.112   4.071
 6919SOL     OW21655   1.774   5.406   2.647
 6919SOL    HW121656   1.724   5.442   2.568
 6919SOL    HW221657   1.721   5.422   2.730
 6920SOL     OW21658   5.032   4.916   5.730
 6920SOL    HW121659   5.024   5.016   5.728
 6920SOL    HW221660   4.953   4.877   5.776
 6921SOL     OW21661   5.932   5.807   3.419
 6921SOL    HW121662   5.980   5.841   3.500
 6921SOL    HW221663   5.995   5.803   3.342
 6922SOL     OW21664   2.048   6.382   0.214
 6922SOL    HW121665   2.010   6.454   0.271
 6922SOL    HW221666   2.137   6.353   0.250
 6923SOL     OW21667   4.653   6.734   4.161
 6923SOL    HW121668   4.568   6.775   4.128
 6923SOL    HW221669   4.692   6.676   4.089
 6924SOL     OW21670   0.615   3.775   0.331
 6924SOL    HW121671   0.674   3.708   0.375
 6924SOL    HW221672   0.651   3.867   0.347
 6925SOL     OW21673   4.044   6.252   3.849
 6925SOL    HW121674   4.110   6.232   3.922
 6925SOL    HW221675   3.951   6.240   3.884
 6926SOL     OW21676   3.696   4.038   3.166
 6926SOL    HW121677   3.675   4.068   3.259
 6926SOL    HW221678   3.663   4.105   3.101
 6927SOL     OW21679   5.231   3.508   5.786
 6927SOL    HW121680   5.189   3.571   5.720
 6927SOL    HW221681   5.165   3.436   5.809
 6928SOL     OW21682   4.554   0.342   6.564
 6928SOL    HW121683   4.473   0.401   6.564
 6928SOL    HW221684   4.526   0.248   6.546
 6929SOL     OW21685   4.466   6.160   0.157
 6929SOL    HW121686   4.455   6.067   0.121
 6929SOL    HW221687   4.463   6.226   0.082
 6930SOL     OW21688   0.197   6.630   1.989
 6930SOL    HW121689   0.276   6.688   2.012
 6930SOL    HW221690   0.157   6.661   1.903
 6931SOL     OW21691   0.968   0.482   1.756
 6931SOL    HW121692   0.894   0.508   1.694
 6931SOL    HW221693   1.042   0.550   1.750
 6932SOL     OW21694   3.001   1.252   0.080
 6932SOL    HW121695   3.011   1.182   0.010
 6932SOL    HW221696   2.965   1.336   0.038
 6933SOL     OW21697   3.269   5.541   4.795
 6933SOL    HW121698   3.231   5.579   4.711
 6933SOL    HW221699   3.344   5.600   4.827
 6934SOL     OW21700   5.570   3.405   6.561
 6934SOL    HW121701   5.550   3.440   6.469
 6934SOL    HW221702   5.605   3.479   6.618
 6935SOL     OW21703   4.347   6.266   3.290
 6935SOL    HW121704   4.367   6.242   3.195
 6935SOL    HW221705   4.393   6.202   3.351
 6936SOL     OW21706   6.897   1.816   2.689
 6936SOL    HW121707   6.964   1.887   2.667
 6936SOL    HW221708   6.816   1.828   2.631
 6937SOL     OW21709   5.007   6.542   6.832
 6937SOL    HW121710   4.972   6.493   6.752
 6937SOL    HW221711   5.095   6.584   6.810
 6938SOL     OW21712   5.027   3.711   5.326
 6938SOL    HW121713   4.951   3.646   5.316
 6938SOL    HW221714   5.113   3.666   5.300
 6939SOL     OW21715   0.352   4.884   2.672
 6939SOL    HW121716   0.443   4.871   2.633
 6939SOL    HW221717   0.294   4.806   2.648
 6940SOL     OW21718   4.390   1.115   0.844
 6940SOL    HW121719   4.458   1.057   0.799
 6940SOL    HW221720   4.299   1.080   0.824
 6941SOL     OW21721   4.037   3.558   1.697
 6941SOL    HW121722   4.045   3.658   1.687
 6941SOL    HW221723   4.128   3.517   1.687
 6942SOL     OW21724   0.161   3.021   1.230
 6942SOL    HW121725   0.197   2.940   1.275
 6942SOL    HW221726   0.156   3.005   1.131
 6943SOL     OW21727   4.983   6.653   6.471
 6943SOL    HW121728   5.037   6.660   6.387
 6943SOL    HW221729   4.996   6.736   6.526
 6944SOL     OW21730   1.290   5.669   5.008
 6944SOL    HW121731   1.291   5.676   4.909
 6944SOL    HW221732   1.325   5.754   5.048
 6945SOL     OW21733   6.343   3.109   6.851
 6945SOL    HW121734   6.379   3.178   6.788
 6945SOL    HW221735   6.258   3.141   6.891
 6946SOL     OW21736   6.134   5.186   2.338
 6946SOL    HW121737   6.146   5.095   2.299
 6946SOL    HW221738   6.038   5.213   2.331
 6947SOL     OW21739   3.970   6.825   4.073
 6947SOL    HW121740   3.904   6.829   4.148
 6947SOL    HW221741   3.921   6.831   3.986
 6948SOL     OW21742   5.234   0.321   0.574
 6948SOL    HW121743   5.280   0.408   0.592
 6948SOL    HW221744   5.276   0.249   0.629
 6949SOL     OW21745   5.187   5.932   2.943
 6949SOL    HW121746   5.259   5.976   2.997
 6949SOL    HW221747   5.218   5.923   2.848
 6950SOL     OW21748   2.667   0.354   2.790
 6950SOL    HW121749   2.622   0.321   2.873
 6950SOL    HW221750   2.758   0.389   2.813
 6951SOL     OW21751   6.133   6.461   6.077
 6951SOL    HW121752   6.205   6.530   6.084
 6951SOL    HW221753   6.106   6.450   5.982
 6952SOL     OW21754   6.856   5.173   3.243
 6952SOL    HW121755   6.920   5.153   3.318
 6952SOL    HW221756   6.890   5.135   3.158
 6953SOL     OW21757   5.439   0.447   5.790
 6953SOL    HW121758   5.522   0.442   5.846
 6953SOL    HW221759   5.442   0.375   5.720
 6954SOL     OW21760   0.837   3.987   4.084
 6954SOL    HW121761   0.745   4.016   4.113
 6954SOL    HW221762   0.903   4.058   4.109
 6955SOL     OW21763   6.805   0.185   1.935
 6955SOL    HW121764   6.905   0.192   1.939
 6955SOL    HW221765   6.773   0.213   1.845
 6956SOL     OW21766   4.262   6.218   2.414
 6956SOL    HW121767   4.256   6.292   2.347
 6956SOL    HW221768   4.336   6.237   2.478
 6957SOL     OW21769   0.123   4.675   1.487
 6957SOL    HW121770   0.204   4.619   1.469
 6957SOL    HW221771   0.041   4.624   1.462
 6958SOL     OW21772   2.623   2.837   6.055
 6958SOL    HW121773   2.529   2.866   6.075
 6958SOL    HW221774   2.657   2.780   6.130
 6959SOL     OW21775   2.107   1.189   4.956
 6959SOL    HW121776   2.138   1.278   4.922
 6959SOL    HW221777   2.007   1.187   4.959
 6960SOL     OW21778   0.688   5.442   0.349
 6960SOL    HW121779   0.761   5.379   0.378
 6960SOL    HW221780   0.657   5.495   0.427
 6961SOL     OW21781   0.681   2.234   3.825
 6961SOL    HW121782   0.756   2.189   3.777
 6961SOL    HW221783   0.605   2.171   3.837
 6962SOL     OW21784   5.593   5.182   3.246
 6962SOL    HW121785   5.518   5.248   3.250
 6962SOL    HW221786   5.611   5.158   3.150
 6963SOL     OW21787   0.166   5.791   1.424
 6963SOL    HW121788   0.104   5.717   1.396
 6963SOL    HW221789   0.202   5.835   1.342
 6964SOL     OW21790   4.840   5.019   5.376
 6964SOL    HW121791   4.893   4.934   5.380
 6964SOL    HW221792   4.786   5.029   5.459
 6965SOL     OW21793   0.316   3.536   6.195
 6965SOL    HW121794   0.392   3.520   6.257
 6965SOL    HW221795   0.331   3.621   6.145
 6966SOL     OW21796   5.853   2.495   2.850
 6966SOL    HW121797   5.945   2.457   2.839
 6966SOL    HW221798   5.824   2.536   2.765
 6967SOL     OW21799   1.381   1.835   5.353
 6967SOL    HW121800   1.462   1.860   5.406
 6967SOL    HW221801   1.368   1.736   5.358
 6968SOL     OW21802   3.763   6.502   0.869
 6968SOL    HW121803   3.755   6.570   0.942
 6968SOL    HW221804   3.692   6.519   0.800
 6969SOL     OW21805   3.987   1.826   1.488
 6969SOL    HW121806   3.893   1.849   1.511
 6969SOL    HW221807   4.005   1.731   1.514
 6970SOL     OW21808   3.898   4.270   0.468
 6970SOL    HW121809   3.929   4.351   0.417
 6970SOL    HW221810   3.939   4.188   0.428
 6971SOL     OW21811   6.592   3.354   2.394
 6971SOL    HW121812   6.511   3.372   2.450
 6971SOL    HW221813   6.582   3.265   2.349
 6972SOL     OW21814   5.766   4.683   4.455
 6972SOL    HW121815   5.726   4.636   4.533
 6972SOL    HW221816   5.711   4.763   4.432
 6973SOL     OW21817   1.476   4.549   4.535
 6973SOL    HW121818   1.484   4.557   4.634
 6973SOL    HW221819   1.562   4.577   4.492
 6974SOL     OW21820   3.855   3.061   3.386
 6974SOL    HW121821   3.858   3.153   3.424
 6974SOL    HW221822   3.939   3.045   3.332
 6975SOL     OW21823   3.076   6.497   5.763
 6975SOL    HW121824   3.143   6.482   5.835
 6975SOL    HW221825   2.989   6.524   5.804
 6976SOL     OW21826   3.732   4.504   6.428
 6976SOL    HW121827   3.670   4.572   6.468
 6976SOL    HW221828   3.691   4.413   6.436
 6977SOL     OW21829   5.481   2.095   1.439
 6977SOL    HW121830   5.571   2.122   1.472
 6977SOL    HW221831   5.413   2.104   1.512
 6978SOL     OW21832   6.500   0.693   1.656
 6978SOL    HW121833   6.459   0.742   1.733
 6978SOL    HW221834   6.493   0.749   1.573
 6979SOL     OW21835   1.617   5.518   1.978
 6979SOL    HW121836   1.688   5.465   2.023
 6979SOL    HW221837   1.654   5.560   1.895
 6980SOL     OW21838   2.125   0.930   3.907
 6980SOL    HW121839   2.092   0.949   3.815
 6980SOL    HW221840   2.166   1.013   3.946
 6981SOL     OW21841   2.722   4.089   6.624
 6981SOL    HW121842   2.767   4.008   6.587
 6981SOL    HW221843   2.693   4.071   6.718
 6982SOL     OW21844   1.577   1.440   3.983
 6982SOL    HW121845   1.527   1.354   3.972
 6982SOL    HW221846   1.515   1.517   3.967
 6983SOL     OW21847   0.199   1.538   3.792
 6983SOL    HW121848   0.194   1.566   3.888
 6983SOL    HW221849   0.245   1.450   3.785
 6984SOL     OW21850   2.946   1.916   5.522
 6984SOL    HW121851   2.853   1.951   5.516
 6984SOL    HW221852   2.968   1.864   5.440
 6985SOL     OW21853   3.684   5.254   2.399
 6985SOL    HW121854   3.622   5.183   2.432
 6985SOL    HW221855   3.715   5.232   2.307
 6986SOL     OW21856   2.133   6.031   5.741
 6986SOL    HW121857   2.072   5.953   5.731
 6986SOL    HW221858   2.171   6.056   5.652
 6987SOL     OW21859   0.513   1.673   6.266
 6987SOL    HW121860   0.562   1.757   6.288
 6987SOL    HW221861   0.541   1.601   6.330
 6988SOL     OW21862   6.289   0.914   4.951
 6988SOL    HW121863   6.356   0.843   4.973
 6988SOL    HW221864   6.293   0.986   5.020
 6989SOL     OW21865   0.907   2.520   3.216
 6989SOL    HW121866   0.986   2.471   3.254
 6989SOL    HW221867   0.934   2.614   3.194
 6990SOL     OW21868   5.118   1.732   0.286
 6990SOL    HW121869   5.131   1.740   0.385
 6990SOL    HW221870   5.177   1.797   0.239
 6991SOL     OW21871   2.680   4.814   4.875
 6991SOL    HW121872   2.617   4.811   4.952
 6991SOL    HW221873   2.747   4.740   4.884
 6992SOL     OW21874   5.441   5.728   4.973
 6992SOL    HW121875   5.449   5.632   4.947
 6992SOL    HW221876   5.421   5.735   5.071
 6993SOL     OW21877   5.919   6.450   3.018
 6993SOL    HW121878   5.936   6.536   3.066
 6993SOL    HW221879   5.974   6.446   2.935
 6994SOL     OW21880   0.366   3.401   5.018
 6994SOL    HW121881   0.449   3.401   5.074
 6994SOL    HW221882   0.392   3.412   4.922
 6995SOL     OW21883   6.437   5.243   4.608
 6995SOL    HW121884   6.478   5.326   4.571
 6995SOL    HW221885   6.507   5.192   4.659
 6996SOL     OW21886   2.583   1.343   4.945
 6996SOL    HW121887   2.527   1.426   4.936
 6996SOL    HW221888   2.651   1.357   5.017
 6997SOL     OW21889   4.735   6.223   5.515
 6997SOL    HW121890   4.732   6.282   5.596
 6997SOL    HW221891   4.764   6.277   5.435
 6998SOL     OW21892   1.459   2.393   1.441
 6998SOL    HW121893   1.511   2.377   1.525
 6998SOL    HW221894   1.432   2.489   1.436
 6999SOL     OW21895   2.744   1.744   6.793
 6999SOL    HW121896   2.731   1.647   6.813
 6999SOL    HW221897   2.839   1.759   6.764
 7000SOL     OW21898   0.291   6.346   2.670
 7000SOL    HW121899   0.327   6.256   2.692
 7000SOL    HW221900   0.238   6.341   2.585
 7001SOL     OW21901   2.654   2.613   5.721
 7001SOL    HW121902   2.597   2.664   5.786
 7001SOL    HW221903   2.612   2.618   5.630
 7002SOL     OW21904   2.333   4.810   3.451
 7002SOL    HW121905   2.370   4.733   3.398
 7002SOL    HW221906   2.391   4.890   3.437
 7003SOL     OW21907   2.938   6.918   6.874
 7003SOL    HW121908   2.912   6.924   6.778
 7003SOL    HW221909   2.936   7.010   6.915
 7004SOL     OW21910   2.081   4.838   1.799
 7004SOL    HW121911   2.135   4.897   1.859
 7004SOL    HW221912   1.984   4.849   1.819
 7005SOL     OW21913   0.129   5.719   5.071
 7005SOL    HW121914   0.119   5.647   5.140
 7005SOL    HW221915   0.101   5.807   5.110
 7006SOL     OW21916   5.194   5.101   5.023
 7006SOL    HW121917   5.128   5.161   5.067
 7006SOL    HW221918   5.287   5.134   5.040
 7007SOL     OW21919   5.467   6.858   3.244
 7007SOL    HW121920   5.521   6.795   3.301
 7007SOL    HW221921   5.402   6.807   3.190
 7008SOL     OW21922   2.443   4.931   4.112
 7008SOL    HW121923   2.426   4.938   4.211
 7008SOL    HW221924   2.387   4.857   4.074
 7009SOL     OW21925   6.416   5.081   2.107
 7009SOL    HW121926   6.447   5.175   2.097
 7009SOL    HW221927   6.365   5.071   2.193
 7010SOL     OW21928   4.493   4.416   5.905
 7010SOL    HW121929   4.490   4.359   5.987
 7010SOL    HW221930   4.571   4.477   5.910
 7011SOL     OW21931   1.322   0.407   6.193
 7011SOL    HW121932   1.378   0.490   6.187
 7011SOL    HW221933   1.225   0.432   6.196
 7012SOL     OW21934   1.725   0.866   2.067
 7012SOL    HW121935   1.664   0.789   2.051
 7012SOL    HW221936   1.676   0.952   2.052
 7013SOL     OW21937   0.328   6.598   0.496
 7013SOL    HW121938   0.264   6.675   0.493
 7013SOL    HW221939   0.418   6.629   0.466
 7014SOL     OW21940   4.660   3.977   1.330
 7014SOL    HW121941   4.678   3.973   1.232
 7014SOL    HW221942   4.565   4.003   1.345
 7015SOL     OW21943   5.585   3.814   2.291
 7015SOL    HW121944   5.569   3.716   2.296
 7015SOL    HW221945   5.593   3.852   2.383
 7016SOL     OW21946   3.544   5.035   2.517
 7016SOL    HW121947   3.455   4.990   2.512
 7016SOL    HW221948   3.614   4.977   2.475
 7017SOL     OW21949   2.458   0.372   2.039
 7017SOL    HW121950   2.408   0.440   2.092
 7017SOL    HW221951   2.408   0.285   2.042
 7018SOL     OW21952   6.871   4.336   4.795
 7018SOL    HW121953   6.791   4.374   4.747
 7018SOL    HW221954   6.940   4.408   4.806
 7019SOL     OW21955   2.921   4.496   6.402
 7019SOL    HW121956   2.893   4.591   6.393
 7019SOL    HW221957   2.861   4.438   6.347
 7020SOL     OW21958   5.807   6.544   0.238
 7020SOL    HW121959   5.804   6.448   0.208
 7020SOL    HW221960   5.758   6.553   0.324
 7021SOL     OW21961   2.901   0.920   5.666
 7021SOL    HW121962   2.954   0.856   5.721
 7021SOL    HW221963   2.951   1.006   5.656
 7022SOL     OW21964   4.760   4.341   0.475
 7022SOL    HW121965   4.740   4.259   0.529
 7022SOL    HW221966   4.712   4.335   0.388
 7023SOL     OW21967   7.020   2.210   3.336
 7023SOL    HW121968   0.064   2.154   3.295
 7023SOL    HW221969   6.942   2.151   3.358
 7024SOL     OW21970   1.380   6.037   5.983
 7024SOL    HW121971   1.349   6.054   6.077
 7024SOL    HW221972   1.440   5.957   5.983
 7025SOL     OW21973   3.970   1.552   0.016
 7025SOL    HW121974   3.971   1.634   6.987
 7025SOL    HW221975   3.914   1.482   7.002
 7026SOL     OW21976   2.708   1.391   1.974
 7026SOL    HW121977   2.659   1.370   1.889
 7026SOL    HW221978   2.804   1.408   1.953
 7027SOL     OW21979   3.232   5.665   2.633
 7027SOL    HW121980   3.174   5.747   2.635
 7027SOL    HW221981   3.189   5.593   2.687
 7028SOL     OW21982   5.518   6.249   4.286
 7028SOL    HW121983   5.498   6.218   4.193
 7028SOL    HW221984   5.613   6.281   4.291
 7029SOL     OW21985   3.725   6.715   6.882
 7029SOL    HW121986   3.722   6.801   6.932
 7029SOL    HW221987   3.812   6.709   6.832
 7030SOL     OW21988   0.364   2.855   5.723
 7030SOL    HW121989   0.371   2.781   5.657
 7030SOL    HW221990   0.268   2.868   5.748
 7031SOL     OW21991   2.016   5.988   3.539
 7031SOL    HW121992   2.055   5.990   3.631
 7031SOL    HW221993   1.943   6.057   3.533
 7032SOL     OW21994   3.749   6.814   3.860
 7032SOL    HW121995   3.793   6.839   3.773
 7032SOL    HW221996   3.661   6.860   3.867
 7033SOL     OW21997   6.533   1.724   4.024
 7033SOL    HW121998   6.437   1.708   4.002
 7033SOL    HW221999   6.574   1.783   3.955
 7034SOL     OW22000   5.753   0.845   3.520
 7034SOL    HW122001   5.734   0.891   3.434
 7034SOL    HW222002   5.847   0.867   3.549
 7035SOL     OW22003   0.968   6.697   2.061
 7035SOL    HW122004   0.924   6.768   2.116
 7035SOL    HW222005   0.982   6.616   2.117
 7036SOL     OW22006   6.525   6.538   1.625
 7036SOL    HW122007   6.498   6.466   1.562
 7036SOL    HW222008   6.443   6.576   1.669
 7037SOL     OW22009   0.107   6.824   6.489
 7037SOL    HW122010   0.169   6.902   6.503
 7037SOL    HW222011   0.051   6.812   6.570
 7038SOL     OW22012   1.946   3.650   4.555
 7038SOL    HW122013   1.922   3.596   4.635
 7038SOL    HW222014   1.942   3.747   4.578
 7039SOL     OW22015   3.029   6.737   0.243
 7039SOL    HW122016   3.096   6.702   0.308
 7039SOL    HW222017   3.069   6.810   0.188
 7040SOL     OW22018   4.241   2.569   5.940
 7040SOL    HW122019   4.274   2.518   6.019
 7040SOL    HW222020   4.320   2.608   5.891
 7041SOL     OW22021   1.048   2.060   3.523
 7041SOL    HW122022   0.960   2.087   3.484
 7041SOL    HW222023   1.039   1.971   3.567
 7042SOL     OW22024   5.239   5.332   6.670
 7042SOL    HW122025   5.153   5.321   6.720
 7042SOL    HW222026   5.294   5.403   6.714
 7043SOL     OW22027   2.432   2.511   2.703
 7043SOL    HW122028   2.413   2.565   2.785
 7043SOL    HW222029   2.510   2.451   2.720
 7044SOL     OW22030   4.829   4.050   2.949
 7044SOL    HW122031   4.852   4.128   3.007
 7044SOL    HW222032   4.874   3.968   2.984
 7045SOL     OW22033   4.463   6.624   1.606
 7045SOL    HW122034   4.374   6.635   1.563
 7045SOL    HW222035   4.491   6.711   1.648
 7046SOL     OW22036   3.534   2.119   3.610
 7046SOL    HW122037   3.475   2.042   3.634
 7046SOL    HW222038   3.530   2.134   3.511
 7047SOL     OW22039   1.235   2.486   3.075
 7047SOL    HW122040   1.321   2.492   3.127
 7047SOL    HW222041   1.237   2.554   3.002
 7048SOL     OW22042   0.477   6.110   1.300
 7048SOL    HW122043   0.378   6.099   1.310
 7048SOL    HW222044   0.509   6.049   1.227
 7049SOL     OW22045   2.533   0.638   0.596
 7049SOL    HW122046   2.445   0.685   0.604
 7049SOL    HW222047   2.518   0.539   0.599
 7050SOL     OW22048   3.638   3.800   3.952
 7050SOL    HW122049   3.616   3.894   3.980
 7050SOL    HW222050   3.736   3.785   3.962
 7051SOL     OW22051   0.476   0.517   0.904
 7051SOL    HW122052   0.513   0.469   0.824
 7051SOL    HW222053   0.437   0.450   0.967
 7052SOL     OW22054   6.116   2.558   4.435
 7052SOL    HW122055   6.174   2.587   4.511
 7052SOL    HW222056   6.029   2.523   4.471
 7053SOL     OW22057   0.484   3.174   5.718
 7053SOL    HW122058   0.485   3.115   5.637
 7053SOL    HW222059   0.459   3.119   5.798
 7054SOL     OW22060   1.000   6.263   1.376
 7054SOL    HW122061   0.956   6.187   1.425
 7054SOL    HW222062   1.082   6.291   1.426
 7055SOL     OW22063   3.997   6.810   5.203
 7055SOL    HW122064   3.999   6.750   5.123
 7055SOL    HW222065   3.953   6.763   5.279
 7056SOL     OW22066   5.636   4.948   3.657
 7056SOL    HW122067   5.685   4.861   3.667
 7056SOL    HW222068   5.702   5.023   3.656
 7057SOL     OW22069   1.007   4.312   4.350
 7057SOL    HW122070   1.039   4.219   4.366
 7057SOL    HW222071   0.915   4.309   4.309
 7058SOL     OW22072   6.882   5.643   5.460
 7058SOL    HW122073   6.880   5.554   5.506
 7058SOL    HW222074   6.887   5.630   5.361
 7059SOL     OW22075   0.211   0.182   2.793
 7059SOL    HW122076   0.113   0.202   2.792
 7059SOL    HW222077   0.229   0.108   2.858
 7060SOL     OW22078   3.392   0.259   1.449
 7060SOL    HW122079   3.422   0.206   1.370
 7060SOL    HW222080   3.468   0.315   1.482
 7061SOL     OW22081   0.459   1.836   3.697
 7061SOL    HW122082   0.423   1.756   3.744
 7061SOL    HW222083   0.404   1.854   3.615
 7062SOL     OW22084   5.771   1.635   6.116
 7062SOL    HW122085   5.767   1.735   6.107
 7062SOL    HW222086   5.686   1.601   6.155
 7063SOL     OW22087   1.417   6.829   0.435
 7063SOL    HW122088   1.413   6.913   0.489
 7063SOL    HW222089   1.476   6.762   0.481
 7064SOL     OW22090   4.178   2.366   1.795
 7064SOL    HW122091   4.094   2.418   1.777
 7064SOL    HW222092   4.254   2.409   1.747
 7065SOL     OW22093   4.221   3.893   1.169
 7065SOL    HW122094   4.222   3.803   1.213
 7065SOL    HW222095   4.276   3.889   1.086
 7066SOL     OW22096   4.022   0.678   0.772
 7066SOL    HW122097   3.976   0.745   0.830
 7066SOL    HW222098   4.042   0.595   0.825
 7067SOL     OW22099   1.451   2.518   5.244
 7067SOL    HW122100   1.537   2.553   5.207
 7067SOL    HW222101   1.380   2.589   5.237
 7068SOL     OW22102   0.702   3.918   3.600
 7068SOL    HW122103   0.767   3.938   3.526
 7068SOL    HW222104   0.752   3.887   3.681
 7069SOL     OW22105   6.584   2.640   4.610
 7069SOL    HW122106   6.595   2.572   4.538
 7069SOL    HW222107   6.593   2.732   4.571
 7070SOL     OW22108   6.740   5.946   4.937
 7070SOL    HW122109   6.663   6.003   4.907
 7070SOL    HW222110   6.705   5.864   4.982
 7071SOL     OW22111   0.619   6.595   5.673
 7071SOL    HW122112   0.600   6.616   5.769
 7071SOL    HW222113   0.638   6.497   5.664
 7072SOL     OW22114   6.735   6.843   5.859
 7072SOL    HW122115   6.719   6.746   5.879
 7072SOL    HW222116   6.665   6.898   5.905
 7073SOL     OW22117   6.418   0.705   4.360
 7073SOL    HW122118   6.332   0.691   4.408
 7073SOL    HW222119   6.460   0.791   4.390
 7074SOL     OW22120   3.695   3.181   1.952
 7074SOL    HW122121   3.705   3.231   1.866
 7074SOL    HW222122   3.772   3.118   1.964
 7075SOL     OW22123   0.846   6.274   4.433
 7075SOL    HW122124   0.808   6.183   4.451
 7075SOL    HW222125   0.852   6.325   4.518
 7076SOL     OW22126   4.386   2.474   0.407
 7076SOL    HW122127   4.343   2.388   0.381
 7076SOL    HW222128   4.324   2.550   0.387
 7077SOL     OW22129   2.011   5.272   5.540
 7077SOL    HW122130   2.111   5.270   5.542
 7077SOL    HW222131   1.976   5.188   5.499
 7078SOL     OW22132   6.248   0.343   1.605
 7078SOL    HW122133   6.323   0.373   1.664
 7078SOL    HW222134   6.263   0.248   1.578
 7079SOL     OW22135   0.087   6.240   5.478
 7079SOL    HW122136   0.017   6.231   5.407
 7079SOL    HW222137   0.078   6.165   5.544
 7080SOL     OW22138   4.278   2.366   4.062
 7080SOL    HW122139   4.277   2.336   4.157
 7080SOL    HW222140   4.186   2.357   4.023
 7081SOL     OW22141   3.504   0.625   5.640
 7081SOL    HW122142   3.428   0.677   5.679
 7081SOL    HW222143   3.480   0.595   5.547
 7082SOL     OW22144   5.809   6.282   0.117
 7082SOL    HW122145   5.775   6.223   0.044
 7082SOL    HW222146   5.909   6.276   0.122
 7083SOL     OW22147   3.215   1.098   6.698
 7083SOL    HW122148   3.237   1.194   6.713
 7083SOL    HW222149   3.294   1.051   6.658
 7084SOL     OW22150   0.244   6.733   5.442
 7084SOL    HW122151   0.259   6.701   5.535
 7084SOL    HW222152   0.195   6.662   5.390
 7085SOL     OW22153   1.877   0.946   2.967
 7085SOL    HW122154   1.856   0.862   3.017
 7085SOL    HW222155   1.969   0.977   2.992
 7086SOL     OW22156   5.300   1.600   6.115
 7086SOL    HW122157   5.357   1.597   6.196
 7086SOL    HW222158   5.216   1.549   6.131
 7087SOL     OW22159   6.374   4.398   3.584
 7087SOL    HW122160   6.280   4.427   3.567
 7087SOL    HW222161   6.437   4.458   3.536
 7088SOL     OW22162   4.837   3.005   3.908
 7088SOL    HW122163   4.841   2.942   3.985
 7088SOL    HW222164   4.871   3.095   3.937
 7089SOL     OW22165   3.361   2.718   6.127
 7089SOL    HW122166   3.373   2.788   6.197
 7089SOL    HW222167   3.263   2.701   6.113
 7090SOL     OW22168   2.813   1.482   6.518
 7090SOL    HW122169   2.754   1.479   6.599
 7090SOL    HW222170   2.864   1.568   6.517
 7091SOL     OW22171   0.468   1.990   6.831
 7091SOL    HW122172   0.531   1.916   6.851
 7091SOL    HW222173   0.417   1.969   6.747
 7092SOL     OW22174   4.235   2.620   6.322
 7092SOL    HW122175   4.301   2.690   6.297
 7092SOL    HW222176   4.209   2.567   6.241
 7093SOL     OW22177   3.053   3.946   4.284
 7093SOL    HW122178   2.998   3.863   4.277
 7093SOL    HW222179   3.081   3.960   4.379
 7094SOL     OW22180   0.836   6.321   5.815
 7094SOL    HW122181   0.823   6.223   5.831
 7094SOL    HW222182   0.764   6.355   5.754
 7095SOL     OW22183   2.748   2.771   0.558
 7095SOL    HW122184   2.670   2.717   0.527
 7095SOL    HW222185   2.726   2.814   0.646
 7096SOL     OW22186   5.943   0.766   3.794
 7096SOL    HW122187   5.873   0.836   3.807
 7096SOL    HW222188   6.024   0.808   3.752
 7097SOL     OW22189   6.563   0.467   2.011
 7097SOL    HW122190   6.529   0.407   2.084
 7097SOL    HW222191   6.648   0.511   2.041
 7098SOL     OW22192   1.150   6.331   4.608
 7098SOL    HW122193   1.061   6.287   4.617
 7098SOL    HW222194   1.182   6.324   4.514
 7099SOL     OW22195   2.171   0.346   4.384
 7099SOL    HW122196   2.205   0.384   4.470
 7099SOL    HW222197   2.074   0.366   4.374
 7100SOL     OW22198   5.402   3.393   0.960
 7100SOL    HW122199   5.472   3.348   0.904
 7100SOL    HW222200   5.447   3.449   1.030
 7101SOL     OW22201   2.416   6.944   4.414
 7101SOL    HW122202   2.373   0.001   4.442
 7101SOL    HW222203   2.391   6.871   4.477
 7102SOL     OW22204   4.468   0.446   1.111
 7102SOL    HW122205   4.535   0.431   1.184
 7102SOL    HW222206   4.409   0.523   1.135
 7103SOL     OW22207   4.169   5.476   0.251
 7103SOL    HW122208   4.198   5.555   0.305
 7103SOL    HW222209   4.081   5.495   0.208
 7104SOL     OW22210   1.265   3.241   4.614
 7104SOL    HW122211   1.213   3.277   4.537
 7104SOL    HW222212   1.208   3.241   4.696
 7105SOL     OW22213   3.022   2.696   5.591
 7105SOL    HW122214   3.118   2.698   5.619
 7105SOL    HW222215   2.964   2.717   5.669
 7106SOL     OW22216   3.165   3.006   3.199
 7106SOL    HW122217   3.262   2.999   3.179
 7106SOL    HW222218   3.138   2.931   3.260
 7107SOL     OW22219   2.746   0.973   0.643
 7107SOL    HW122220   2.769   0.876   0.639
 7107SOL    HW222221   2.780   1.019   0.561
 7108SOL     OW22222   3.909   6.305   1.488
 7108SOL    HW122223   4.002   6.334   1.514
 7108SOL    HW222224   3.867   6.377   1.431
 7109SOL     OW22225   3.531   7.021   6.823
 7109SOL    HW122226   3.595   7.026   6.747
 7109SOL    HW222227   3.565   6.955   6.890
 7110SOL     OW22228   5.197   5.131   3.911
 7110SOL    HW122229   5.292   5.146   3.886
 7110SOL    HW222230   5.168   5.199   3.978
 7111SOL     OW22231   1.557   2.520   4.359
 7111SOL    HW122232   1.497   2.443   4.338
 7111SOL    HW222233   1.596   2.508   4.450
 7112SOL     OW22234   2.067   5.397   3.813
 7112SOL    HW122235   2.008   5.373   3.736
 7112SOL    HW222236   2.059   5.495   3.832
 7113SOL     OW22237   2.994   4.101   5.430
 7113SOL    HW122238   2.984   4.052   5.344
 7113SOL    HW222239   2.987   4.200   5.414
 7114SOL     OW22240   3.831   6.874   2.251
 7114SOL    HW122241   3.806   6.920   2.166
 7114SOL    HW222242   3.931   6.875   2.261
 7115SOL     OW22243   4.945   2.711   1.875
 7115SOL    HW122244   4.860   2.758   1.852
 7115SOL    HW222245   4.979   2.746   1.963
 7116SOL     OW22246   5.709   2.989   3.477
 7116SOL    HW122247   5.749   2.905   3.440
 7116SOL    HW222248   5.745   3.004   3.570
 7117SOL     OW22249   0.254   0.332   4.488
 7117SOL    HW122250   0.167   0.366   4.525
 7117SOL    HW222251   0.241   0.239   4.452
 7118SOL     OW22252   3.635   3.663   1.162
 7118SOL    HW122253   3.581   3.743   1.135
 7118SOL    HW222254   3.584   3.580   1.139
 7119SOL     OW22255   4.932   1.528   3.508
 7119SOL    HW122256   4.886   1.589   3.443
 7119SOL    HW222257   4.974   1.583   3.581
 7120SOL     OW22258   4.007   1.694   3.047
 7120SOL    HW122259   4.098   1.669   3.012
 7120SOL    HW222260   3.937   1.668   2.981
 7121SOL     OW22261   3.028   0.438   2.410
 7121SOL    HW122262   2.942   0.481   2.385
 7121SOL    HW222263   3.014   0.378   2.489
 7122SOL     OW22264   6.513   1.162   6.410
 7122SOL    HW122265   6.465   1.187   6.494
 7122SOL    HW222266   6.606   1.199   6.412
 7123SOL     OW22267   3.105   4.841   1.465
 7123SOL    HW122268   3.089   4.866   1.561
 7123SOL    HW222269   3.053   4.759   1.442
 7124SOL     OW22270   0.691   3.365   0.351
 7124SOL    HW122271   0.748   3.284   0.343
 7124SOL    HW222272   0.594   3.338   0.344
 7125SOL     OW22273   6.924   6.437   1.402
 7125SOL    HW122274   6.849   6.497   1.375
 7125SOL    HW222275   6.910   6.345   1.363
 7126SOL     OW22276   2.879   4.806   6.683
 7126SOL    HW122277   2.964   4.822   6.634
 7126SOL    HW222278   2.847   4.713   6.668
 7127SOL     OW22279   2.955   5.762   4.238
 7127SOL    HW122280   2.970   5.795   4.145
 7127SOL    HW222281   2.902   5.677   4.235
 7128SOL     OW22282   2.595   5.180   0.257
 7128SOL    HW122283   2.552   5.111   0.316
 7128SOL    HW222284   2.610   5.140   0.166
 7129SOL     OW22285   3.531   0.695   0.626
 7129SOL    HW122286   3.516   0.598   0.605
 7129SOL    HW222287   3.544   0.706   0.724
 7130SOL     OW22288   3.217   4.852   4.846
 7130SOL    HW122289   3.275   4.917   4.798
 7130SOL    HW222290   3.266   4.766   4.859
 7131SOL     OW22291   2.530   1.572   0.432
 7131SOL    HW122292   2.626   1.596   0.450
 7131SOL    HW222293   2.520   1.544   0.336
 7132SOL     OW22294   3.167   4.135   1.414
 7132SOL    HW122295   3.072   4.106   1.403
 7132SOL    HW222296   3.176   4.231   1.387
 7133SOL     OW22297   5.099   4.713   3.692
 7133SOL    HW122298   5.035   4.729   3.616
 7133SOL    HW222299   5.166   4.787   3.695
 7134SOL     OW22300   6.332   5.691   2.526
 7134SOL    HW122301   6.256   5.635   2.560
 7134SOL    HW222302   6.355   5.663   2.433
 7135SOL     OW22303   2.049   1.814   3.205
 7135SOL    HW122304   2.117   1.767   3.150
 7135SOL    HW222305   2.069   1.912   3.206
 7136SOL     OW22306   1.967   2.572   0.829
 7136SOL    HW122307   1.931   2.621   0.749
 7136SOL    HW222308   2.012   2.638   0.890
 7137SOL     OW22309   5.367   0.714   5.757
 7137SOL    HW122310   5.332   0.729   5.665
 7137SOL    HW222311   5.402   0.621   5.765
 7138SOL     OW22312   2.636   2.505   0.747
 7138SOL    HW122313   2.709   2.521   0.814
 7138SOL    HW222314   2.553   2.553   0.775
 7139SOL     OW22315   4.817   3.092   2.319
 7139SOL    HW122316   4.803   3.100   2.220
 7139SOL    HW222317   4.730   3.069   2.363
 7140SOL     OW22318   6.556   3.254   5.047
 7140SOL    HW122319   6.613   3.215   5.119
 7140SOL    HW222320   6.610   3.261   4.963
 7141SOL     OW22321   3.573   6.539   0.670
 7141SOL    HW122322   3.490   6.595   0.667
 7141SOL    HW222323   3.548   6.443   0.664
 7142SOL     OW22324   4.683   6.504   3.057
 7142SOL    HW122325   4.682   6.583   2.996
 7142SOL    HW222326   4.591   6.490   3.094
 7143SOL     OW22327   1.335   2.684   6.437
 7143SOL    HW122328   1.357   2.774   6.399
 7143SOL    HW222329   1.261   2.693   6.503
 7144SOL     OW22330   1.665   1.732   3.508
 7144SOL    HW122331   1.576   1.729   3.462
 7144SOL    HW222332   1.712   1.645   3.494
 7145SOL     OW22333   4.380   6.503   5.892
 7145SOL    HW122334   4.332   6.524   5.977
 7145SOL    HW222335   4.352   6.568   5.821
 7146SOL     OW22336   2.014   0.365   6.857
 7146SOL    HW122337   2.096   0.311   6.839
 7146SOL    HW222338   2.031   0.461   6.832
 7147SOL     OW22339   6.394   6.331   3.122
 7147SOL    HW122340   6.445   6.387   3.186
 7147SOL    HW222341   6.381   6.239   3.160
 7148SOL     OW22342   6.855   5.823   1.811
 7148SOL    HW122343   6.810   5.770   1.883
 7148SOL    HW222344   6.889   5.761   1.740
 7149SOL     OW22345   6.667   6.755   3.083
 7149SOL    HW122346   6.747   6.731   3.139
 7149SOL    HW222347   6.617   6.830   3.126
 7150SOL     OW22348   4.750   2.542   1.676
 7150SOL    HW122349   4.748   2.641   1.691
 7150SOL    HW222350   4.683   2.498   1.736
 7151SOL     OW22351   0.582   5.609   1.034
 7151SOL    HW122352   0.564   5.646   0.943
 7151SOL    HW222353   0.570   5.510   1.032
 7152SOL     OW22354   0.726   2.524   5.199
 7152SOL    HW122355   0.719   2.510   5.298
 7152SOL    HW222356   0.729   2.622   5.179
 7153SOL     OW22357   3.908   6.014   3.418
 7153SOL    HW122358   3.895   6.100   3.469
 7153SOL    HW222359   3.964   6.032   3.337
 7154SOL     OW22360   3.791   6.964   4.677
 7154SOL    HW122361   3.711   6.971   4.618
 7154SOL    HW222362   3.801   6.870   4.709
 7155SOL     OW22363   1.950   6.058   1.478
 7155SOL    HW122364   1.943   6.154   1.506
 7155SOL    HW222365   2.037   6.044   1.429
 7156SOL     OW22366   0.743   4.629   4.522
 7156SOL    HW122367   0.688   4.626   4.439
 7156SOL    HW222368   0.686   4.604   4.600
 7157SOL     OW22369   6.132   4.731   0.931
 7157SOL    HW122370   6.076   4.661   0.976
 7157SOL    HW222371   6.176   4.788   1.000
 7158SOL     OW22372   0.586   6.675   2.992
 7158SOL    HW122373   0.682   6.681   2.964
 7158SOL    HW222374   0.532   6.632   2.919
 7159SOL     OW22375   0.439   4.507   2.775
 7159SOL    HW122376   0.352   4.462   2.755
 7159SOL    HW222377   0.453   4.511   2.874
 7160SOL     OW22378   6.596   6.949   3.269
 7160SOL    HW122379   6.557   0.006   3.302
 7160SOL    HW222380   6.661   6.914   3.337
 7161SOL     OW22381   3.253   4.105   5.176
 7161SOL    HW122382   3.156   4.128   5.172
 7161SOL    HW222383   3.296   4.156   5.250
 7162SOL     OW22384   2.863   6.352   6.095
 7162SOL    HW122385   2.957   6.318   6.100
 7162SOL    HW222386   2.805   6.285   6.050
 7163SOL     OW22387   3.280   6.672   3.854
 7163SOL    HW122388   3.253   6.760   3.815
 7163SOL    HW222389   3.209   6.604   3.836
 7164SOL     OW22390   2.301   1.715   3.026
 7164SOL    HW122391   2.269   1.799   2.983
 7164SOL    HW222392   2.265   1.636   2.975
 7165SOL     OW22393   6.106   0.963   1.236
 7165SOL    HW122394   6.184   1.005   1.283
 7165SOL    HW222395   6.103   0.865   1.257
 7166SOL     OW22396   5.118   3.507   0.597
 7166SOL    HW122397   5.172   3.589   0.618
 7166SOL    HW222398   5.049   3.494   0.668
 7167SOL     OW22399   5.229   3.868   5.040
 7167SOL    HW122400   5.218   3.963   5.067
 7167SOL    HW222401   5.296   3.824   5.099
 7168SOL     OW22402   0.939   2.401   3.642
 7168SOL    HW122403   0.969   2.317   3.686
 7168SOL    HW222404   1.003   2.425   3.568
 7169SOL     OW22405   0.624   3.267   4.973
 7169SOL    HW122406   0.651   3.287   5.067
 7169SOL    HW222407   0.691   3.206   4.931
 7170SOL     OW22408   4.327   5.909   3.839
 7170SOL    HW122409   4.240   5.861   3.832
 7170SOL    HW222410   4.373   5.882   3.924
 7171SOL     OW22411   5.743   3.850   6.287
 7171SOL    HW122412   5.705   3.929   6.237
 7171SOL    HW222413   5.672   3.781   6.297
 7172SOL     OW22414   1.422   0.371   5.432
 7172SOL    HW122415   1.507   0.377   5.485
 7172SOL    HW222416   1.387   0.277   5.436
 7173SOL     OW22417   6.871   5.046   5.579
 7173SOL    HW122418   6.855   4.950   5.599
 7173SOL    HW222419   6.928   5.087   5.649
 7174SOL     OW22420   1.179   5.249   6.686
 7174SOL    HW122421   1.122   5.276   6.609
 7174SOL    HW222422   1.186   5.326   6.750
 7175SOL     OW22423   5.502   3.586   0.645
 7175SOL    HW122424   5.515   3.609   0.741
 7175SOL    HW222425   5.591   3.580   0.600
 7176SOL     OW22426   0.415   5.237   2.707
 7176SOL    HW122427   0.488   5.197   2.651
 7176SOL    HW222428   0.374   5.314   2.659
 7177SOL     OW22429   2.702   0.030   4.065
 7177SOL    HW122430   2.721   6.979   4.006
 7177SOL    HW222431   2.776   0.040   4.131
 7178SOL     OW22432   2.591   3.123   5.717
 7178SOL    HW122433   2.660   3.113   5.788
 7178SOL    HW222434   2.635   3.120   5.627
 7179SOL     OW22435   1.440   3.457   4.874
 7179SOL    HW122436   1.472   3.549   4.851
 7179SOL    HW222437   1.403   3.457   4.967
 7180SOL     OW22438   1.424   5.401   6.298
 7180SOL    HW122439   1.326   5.412   6.314
 7180SOL    HW222440   1.447   5.435   6.207
 7181SOL     OW22441   2.951   6.548   0.523
 7181SOL    HW122442   2.934   6.587   0.613
 7181SOL    HW222443   3.035   6.586   0.486
 7182SOL     OW22444   2.021   3.437   5.699
 7182SOL    HW122445   2.089   3.373   5.662
 7182SOL    HW222446   1.952   3.385   5.750
 7183SOL     OW22447   1.686   5.082   1.252
 7183SOL    HW122448   1.748   5.160   1.261
 7183SOL    HW222449   1.692   5.026   1.335
 7184SOL     OW22450   0.831   0.082   3.121
 7184SOL    HW122451   0.873   0.116   3.206
 7184SOL    HW222452   0.791   7.020   3.138
 7185SOL     OW22453   4.985   1.561   5.386
 7185SOL    HW122454   5.028   1.575   5.476
 7185SOL    HW222455   4.928   1.479   5.389
 7186SOL     OW22456   7.004   0.258   5.862
 7186SOL    HW122457   6.938   0.279   5.933
 7186SOL    HW222458   0.069   0.269   5.898
 7187SOL     OW22459   1.956   4.651   0.976
 7187SOL    HW122460   1.955   4.745   1.010
 7187SOL    HW222461   2.034   4.639   0.914
 7188SOL     OW22462   5.232   6.957   0.370
 7188SOL    HW122463   5.321   6.975   0.411
 7188SOL    HW222464   5.189   6.879   0.416
 7189SOL     OW22465   6.152   1.250   6.582
 7189SOL    HW122466   6.214   1.327   6.564
 7189SOL    HW222467   6.137   1.242   6.680
 7190SOL     OW22468   5.278   3.130   2.937
 7190SOL    HW122469   5.346   3.158   3.004
 7190SOL    HW222470   5.324   3.109   2.850
 7191SOL     OW22471   0.349   4.352   2.351
 7191SOL    HW122472   0.442   4.331   2.380
 7191SOL    HW222473   0.325   4.293   2.273
 7192SOL     OW22474   1.900   5.568   5.216
 7192SOL    HW122475   1.972   5.499   5.213
 7192SOL    HW222476   1.822   5.538   5.162
 7193SOL     OW22477   2.650   1.849   2.988
 7193SOL    HW122478   2.609   1.941   2.985
 7193SOL    HW222479   2.631   1.802   2.902
 7194SOL     OW22480   2.713   2.566   1.141
 7194SOL    HW122481   2.754   2.548   1.230
 7194SOL    HW222482   2.688   2.663   1.136
 7195SOL     OW22483   0.547   5.328   6.376
 7195SOL    HW122484   0.589   5.399   6.320
 7195SOL    HW222485   0.542   5.359   6.471
 7196SOL     OW22486   3.264   3.863   2.159
 7196SOL    HW122487   3.332   3.885   2.088
 7196SOL    HW222488   3.178   3.910   2.138
 7197SOL     OW22489   6.761   2.333   6.180
 7197SOL    HW122490   6.830   2.293   6.240
 7197SOL    HW222491   6.693   2.381   6.235
 7198SOL     OW22492   1.102   0.898   5.640
 7198SOL    HW122493   1.035   0.825   5.627
 7198SOL    HW222494   1.069   0.982   5.595
 7199SOL     OW22495   2.278   0.563   2.155
 7199SOL    HW122496   2.283   0.661   2.134
 7199SOL    HW222497   2.185   0.530   2.137
 7200SOL     OW22498   2.434   0.928   7.016
 7200SOL    HW122499   2.435   0.837   6.974
 7200SOL    HW222500   2.528   0.956   0.007
 7201SOL     OW22501   1.572   5.683   3.618
 7201SOL    HW122502   1.670   5.701   3.622
 7201SOL    HW222503   1.533   5.691   3.710
 7202SOL     OW22504   4.201   6.798   6.314
 7202SOL    HW122505   4.124   6.762   6.261
 7202SOL    HW222506   4.257   6.857   6.256
 7203SOL     OW22507   6.879   1.429   0.910
 7203SOL    HW122508   6.899   1.342   0.954
 7203SOL    HW222509   6.953   1.494   0.929
 7204SOL     OW22510   5.921   6.860   4.797
 7204SOL    HW122511   5.949   6.820   4.885
 7204SOL    HW222512   5.856   6.935   4.813
 7205SOL     OW22513   2.010   5.998   3.057
 7205SOL    HW122514   2.087   6.059   3.073
 7205SOL    HW222515   2.010   5.969   2.961
 7206SOL     OW22516   1.951   0.521   1.681
 7206SOL    HW122517   1.977   0.502   1.586
 7206SOL    HW222518   2.019   0.480   1.742
 7207SOL     OW22519   3.378   6.686   1.321
 7207SOL    HW122520   3.294   6.724   1.282
 7207SOL    HW222521   3.399   6.731   1.407
 7208SOL     OW22522   4.349   6.533   4.580
 7208SOL    HW122523   4.415   6.462   4.602
 7208SOL    HW222524   4.271   6.527   4.642
 7209SOL     OW22525   3.187   3.454   2.785
 7209SOL    HW122526   3.235   3.379   2.830
 7209SOL    HW222527   3.173   3.528   2.850
 7210SOL     OW22528   4.784   6.782   3.582
 7210SOL    HW122529   4.814   6.754   3.491
 7210SOL    HW222530   4.848   6.748   3.650
 7211SOL     OW22531   2.077   5.704   3.792
 7211SOL    HW122532   2.075   5.763   3.872
 7211SOL    HW222533   2.172   5.686   3.766
 7212SOL     OW22534   0.875   6.270   3.274
 7212SOL    HW122535   0.929   6.263   3.358
 7212SOL    HW222536   0.869   6.180   3.230
 7213SOL     OW22537   5.869   0.336   6.081
 7213SOL    HW122538   5.798   0.378   6.025
 7213SOL    HW222539   5.839   0.245   6.111
 7214SOL     OW22540   2.146   5.868   4.045
 7214SOL    HW122541   2.098   5.876   4.132
 7214SOL    HW222542   2.242   5.845   4.062
 7215SOL     OW22543   0.362   3.340   3.962
 7215SOL    HW122544   0.404   3.252   3.939
 7215SOL    HW222545   0.396   3.410   3.899
 7216SOL     OW22546   2.368   6.037   6.760
 7216SOL    HW122547   2.398   5.944   6.739
 7216SOL    HW222548   2.344   6.043   6.857
 7217SOL     OW22549   2.193   4.195   1.831
 7217SOL    HW122550   2.230   4.239   1.913
 7217SOL    HW222551   2.235   4.236   1.750
 7218SOL     OW22552   4.398   2.862   5.323
 7218SOL    HW122553   4.316   2.804   5.329
 7218SOL    HW222554   4.419   2.899   5.413
 7219SOL     OW22555   5.210   5.535   3.627
 7219SOL    HW122556   5.265   5.479   3.690
 7219SOL    HW222557   5.162   5.475   3.563
 7220SOL     OW22558   0.207   5.507   3.972
 7220SOL    HW122559   0.141   5.545   3.907
 7220SOL    HW222560   0.260   5.435   3.926
 7221SOL     OW22561   5.278   5.151   5.342
 7221SOL    HW122562   5.275   5.054   5.368
 7221SOL    HW222563   5.257   5.207   5.422
 7222SOL     OW22564   6.043   6.759   0.422
 7222SOL    HW122565   6.105   6.686   0.453
 7222SOL    HW222566   5.960   6.758   0.477
 7223SOL     OW22567   2.894   1.884   1.739
 7223SOL    HW122568   2.910   1.936   1.655
 7223SOL    HW222569   2.871   1.946   1.813
 7224SOL     OW22570   5.843   1.995   4.699
 7224SOL    HW122571   5.862   1.983   4.601
 7224SOL    HW222572   5.807   1.910   4.736
 7225SOL     OW22573   1.495   5.809   6.360
 7225SOL    HW122574   1.517   5.814   6.457
 7225SOL    HW222575   1.463   5.717   6.337
 7226SOL     OW22576   0.762   0.429   0.248
 7226SOL    HW122577   0.779   0.415   0.150
 7226SOL    HW222578   0.843   0.469   0.290
 7227SOL     OW22579   0.976   2.103   0.972
 7227SOL    HW122580   0.887   2.091   1.017
 7227SOL    HW222581   0.986   2.198   0.943
 7228SOL     OW22582   0.066   0.860   1.972
 7228SOL    HW122583   0.089   0.954   1.998
 7228SOL    HW222584   0.008   0.861   1.891
 7229SOL     OW22585   1.243   0.970   3.831
 7229SOL    HW122586   1.232   1.038   3.758
 7229SOL    HW222587   1.154   0.953   3.873
 7230SOL     OW22588   4.663   5.871   4.948
 7230SOL    HW122589   4.571   5.880   4.986
 7230SOL    HW222590   4.696   5.960   4.918
 7231SOL     OW22591   4.852   0.174   0.150
 7231SOL    HW122592   4.949   0.192   0.135
 7231SOL    HW222593   4.840   0.082   0.187
 7232SOL     OW22594   3.597   4.985   3.584
 7232SOL    HW122595   3.519   4.960   3.528
 7232SOL    HW222596   3.566   5.034   3.665
 7233SOL     OW22597   0.418   2.968   4.972
 7233SOL    HW122598   0.334   2.944   4.925
 7233SOL    HW222599   0.409   3.059   5.011
 7234SOL     OW22600   6.206   2.512   2.867
 7234SOL    HW122601   6.189   2.550   2.776
 7234SOL    HW222602   6.180   2.579   2.936
 7235SOL     OW22603   6.229   4.498   3.272
 7235SOL    HW122604   6.235   4.496   3.372
 7235SOL    HW222605   6.168   4.572   3.244
 7236SOL     OW22606   3.071   1.748   2.463
 7236SOL    HW122607   3.152   1.792   2.425
 7236SOL    HW222608   3.096   1.694   2.543
 7237SOL     OW22609   6.666   6.511   5.159
 7237SOL    HW122610   6.575   6.498   5.119
 7237SOL    HW222611   6.678   6.450   5.237
 7238SOL     OW22612   2.297   2.419   1.162
 7238SOL    HW122613   2.340   2.362   1.232
 7238SOL    HW222614   2.312   2.378   1.072
 7239SOL     OW22615   2.763   1.855   3.645
 7239SOL    HW122616   2.665   1.869   3.638
 7239SOL    HW222617   2.791   1.782   3.582
 7240SOL     OW22618   2.650   4.395   6.908
 7240SOL    HW122619   2.605   4.308   6.885
 7240SOL    HW222620   2.667   4.398   7.006
 7241SOL     OW22621   3.131   0.413   6.465
 7241SOL    HW122622   3.161   0.396   6.371
 7241SOL    HW222623   3.103   0.509   6.474
 7242SOL     OW22624   6.210   4.469   6.921
 7242SOL    HW122625   6.190   4.542   6.986
 7242SOL    HW222626   6.286   4.413   6.956
 7243SOL     OW22627   0.642   4.528   6.755
 7243SOL    HW122628   0.559   4.546   6.703
 7243SOL    HW222629   0.717   4.508   6.691
 7244SOL     OW22630   4.387   0.530   1.449
 7244SOL    HW122631   4.375   0.568   1.358
 7244SOL    HW222632   4.298   0.500   1.485
 7245SOL     OW22633   0.667   2.624   4.889
 7245SOL    HW122634   0.620   2.630   4.801
 7245SOL    HW222635   0.604   2.593   4.959
 7246SOL     OW22636   6.759   6.715   4.563
 7246SOL    HW122637   6.812   6.667   4.634
 7246SOL    HW222638   6.667   6.677   4.559
 7247SOL     OW22639   2.795   6.858   2.799
 7247SOL    HW122640   2.717   6.908   2.838
 7247SOL    HW222641   2.836   6.800   2.869
 7248SOL     OW22642   3.300   1.216   3.793
 7248SOL    HW122643   3.285   1.199   3.695
 7248SOL    HW222644   3.398   1.220   3.811
 7249SOL     OW22645   5.804   4.998   2.041
 7249SOL    HW122646   5.768   4.916   2.087
 7249SOL    HW222647   5.728   5.053   2.007
 7250SOL     OW22648   2.578   4.864   6.391
 7250SOL    HW122649   2.605   4.916   6.472
 7250SOL    HW222650   2.590   4.766   6.408
 7251SOL     OW22651   0.041   6.518   5.284
 7251SOL    HW122652   0.005   6.424   5.284
 7251SOL    HW222653   7.012   6.576   5.227
 7252SOL     OW22654   3.404   3.175   4.780
 7252SOL    HW122655   3.311   3.142   4.792
 7252SOL    HW222656   3.467   3.116   4.830
 7253SOL     OW22657   1.638   6.466   0.508
 7253SOL    HW122658   1.603   6.454   0.415
 7253SOL    HW222659   1.610   6.389   0.565
 7254SOL     OW22660   3.697   5.564   4.861
 7254SOL    HW122661   3.763   5.508   4.812
 7254SOL    HW222662   3.645   5.507   4.924
 7255SOL     OW22663   3.481   3.729   1.940
 7255SOL    HW122664   3.515   3.695   2.028
 7255SOL    HW222665   3.385   3.756   1.950
 7256SOL     OW22666   4.855   4.916   4.787
 7256SOL    HW122667   4.879   4.834   4.839
 7256SOL    HW222668   4.853   4.995   4.847
 7257SOL     OW22669   6.096   3.160   3.158
 7257SOL    HW122670   6.019   3.138   3.098
 7257SOL    HW222671   6.170   3.199   3.104
 7258SOL     OW22672   4.176   0.346   4.658
 7258SOL    HW122673   4.123   0.413   4.710
 7258SOL    HW222674   4.138   0.254   4.673
 7259SOL     OW22675   2.883   4.270   0.725
 7259SOL    HW122676   2.976   4.253   0.757
 7259SOL    HW222677   2.822   4.278   0.804
 7260SOL     OW22678   3.169   1.564   3.168
 7260SOL    HW122679   3.155   1.663   3.168
 7260SOL    HW222680   3.092   1.519   3.121
 7261SOL     OW22681   2.642   2.951   1.687
 7261SOL    HW122682   2.610   3.042   1.660
 7261SOL    HW222683   2.568   2.902   1.733
 7262SOL     OW22684   6.191   2.358   4.182
 7262SOL    HW122685   6.233   2.433   4.233
 7262SOL    HW222686   6.129   2.396   4.112
 7263SOL     OW22687   1.207   5.395   1.860
 7263SOL    HW122688   1.207   5.375   1.763
 7263SOL    HW222689   1.163   5.321   1.910
 7264SOL     OW22690   0.024   1.617   6.732
 7264SOL    HW122691   0.086   1.572   6.668
 7264SOL    HW222692   0.002   1.709   6.700
 7265SOL     OW22693   5.673   5.269   6.236
 7265SOL    HW122694   5.756   5.248   6.286
 7265SOL    HW222695   5.696   5.311   6.148
 7266SOL     OW22696   4.205   0.468   0.911
 7266SOL    HW122697   4.185   0.370   0.920
 7266SOL    HW222698   4.279   0.492   0.973
 7267SOL     OW22699   6.266   4.726   5.274
 7267SOL    HW122700   6.248   4.800   5.209
 7267SOL    HW222701   6.213   4.645   5.248
 7268SOL     OW22702   4.136   4.967   2.792
 7268SOL    HW122703   4.120   4.885   2.736
 7268SOL    HW222704   4.231   4.967   2.825
 7269SOL     OW22705   0.523   5.754   1.563
 7269SOL    HW122706   0.581   5.731   1.642
 7269SOL    HW222707   0.578   5.797   1.492
 7270SOL     OW22708   2.381   2.026   3.219
 7270SOL    HW122709   2.448   2.016   3.293
 7270SOL    HW222710   2.429   2.022   3.131
 7271SOL     OW22711   0.486   4.159   3.019
 7271SOL    HW122712   0.536   4.195   2.941
 7271SOL    HW222713   0.546   4.153   3.098
 7272SOL     OW22714   5.673   2.771   2.955
 7272SOL    HW122715   5.740   2.736   2.890
 7272SOL    HW222716   5.581   2.757   2.920
 7273SOL     OW22717   5.564   4.089   1.716
 7273SOL    HW122718   5.632   4.108   1.647
 7273SOL    HW222719   5.482   4.144   1.699
 7274SOL     OW22720   6.863   5.507   6.190
 7274SOL    HW122721   6.837   5.465   6.103
 7274SOL    HW222722   6.959   5.485   6.211
 7275SOL     OW22723   6.352   0.674   0.430
 7275SOL    HW122724   6.285   0.655   0.359
 7275SOL    HW222725   6.314   0.740   0.495
 7276SOL     OW22726   2.827   1.653   3.428
 7276SOL    HW122727   2.743   1.599   3.434
 7276SOL    HW222728   2.852   1.667   3.332
 7277SOL     OW22729   4.670   1.206   5.678
 7277SOL    HW122730   4.643   1.134   5.742
 7277SOL    HW222731   4.643   1.295   5.715
 7278SOL     OW22732   3.917   1.885   3.203
 7278SOL    HW122733   3.961   1.863   3.291
 7278SOL    HW222734   3.939   1.814   3.136
 7279SOL     OW22735   4.116   4.235   0.974
 7279SOL    HW122736   4.209   4.218   0.942
 7279SOL    HW222737   4.059   4.155   0.956
 7280SOL     OW22738   5.304   2.438   5.401
 7280SOL    HW122739   5.389   2.418   5.351
 7280SOL    HW222740   5.247   2.497   5.345
 7281SOL     OW22741   3.315   0.158   0.512
 7281SOL    HW122742   3.245   0.183   0.579
 7281SOL    HW222743   3.347   0.241   0.466
 7282SOL     OW22744   6.663   5.490   1.798
 7282SOL    HW122745   6.761   5.475   1.811
 7282SOL    HW222746   6.631   5.559   1.863
 7283SOL     OW22747   2.807   6.600   2.308
 7283SOL    HW122748   2.790   6.665   2.234
 7283SOL    HW222749   2.776   6.638   2.395
 7284SOL     OW22750   6.674   2.663   3.965
 7284SOL    HW122751   6.583   2.702   3.979
 7284SOL    HW222752   6.692   2.655   3.867
 7285SOL     OW22753   5.043   2.894   1.335
 7285SOL    HW122754   4.975   2.907   1.407
 7285SOL    HW222755   5.079   2.983   1.306
 7286SOL     OW22756   0.630   1.281   0.498
 7286SOL    HW122757   0.542   1.269   0.453
 7286SOL    HW222758   0.633   1.227   0.582
 7287SOL     OW22759   0.025   2.466   3.934
 7287SOL    HW122760   7.015   2.460   3.842
 7287SOL    HW222761   6.980   2.487   4.000
 7288SOL     OW22762   2.806   2.341   2.885
 7288SOL    HW122763   2.777   2.355   2.790
 7288SOL    HW222764   2.725   2.338   2.944
 7289SOL     OW22765   5.360   2.618   1.727
 7289SOL    HW122766   5.347   2.572   1.815
 7289SOL    HW222767   5.343   2.554   1.653
 7290SOL     OW22768   4.348   0.675   6.056
 7290SOL    HW122769   4.269   0.685   5.996
 7290SOL    HW222770   4.391   0.765   6.069
 7291SOL     OW22771   3.207   0.128   7.013
 7291SOL    HW122772   3.198   0.136   0.084
 7291SOL    HW222773   3.119   0.146   6.969
 7292SOL     OW22774   1.799   6.911   3.579
 7292SOL    HW122775   1.800   6.846   3.503
 7292SOL    HW222776   1.716   6.896   3.634
 7293SOL     OW22777   1.005   1.247   5.380
 7293SOL    HW122778   1.044   1.249   5.473
 7293SOL    HW222779   0.972   1.155   5.360
 7294SOL     OW22780   3.108   4.689   1.736
 7294SOL    HW122781   3.050   4.619   1.778
 7294SOL    HW222782   3.193   4.648   1.705
 7295SOL     OW22783   6.104   4.917   1.632
 7295SOL    HW122784   6.030   4.974   1.596
 7295SOL    HW222785   6.192   4.963   1.617
 7296SOL     OW22786   3.372   4.937   2.903
 7296SOL    HW122787   3.443   4.876   2.869
 7296SOL    HW222788   3.385   4.952   3.001
 7297SOL     OW22789   3.033   6.295   2.113
 7297SOL    HW122790   3.108   6.231   2.098
 7297SOL    HW222791   3.041   6.335   2.205
 7298SOL     OW22792   4.526   6.300   6.459
 7298SOL    HW122793   4.430   6.277   6.476
 7298SOL    HW222794   4.534   6.399   6.445
 7299SOL     OW22795   1.220   2.997   0.056
 7299SOL    HW122796   1.227   2.912   0.108
 7299SOL    HW222797   1.220   2.976   6.987
 7300SOL     OW22798   0.947   4.929   2.109
 7300SOL    HW122799   0.961   4.912   2.011
 7300SOL    HW222800   0.857   4.898   2.136
 7301SOL     OW22801   6.308   0.512   5.956
 7301SOL    HW122802   6.299   0.593   6.013
 7301SOL    HW222803   6.270   0.531   5.865
 7302SOL     OW22804   5.738   2.936   5.999
 7302SOL    HW122805   5.652   2.918   5.951
 7302SOL    HW222806   5.767   3.030   5.981
 7303SOL     OW22807   3.270   1.414   0.556
 7303SOL    HW122808   3.364   1.390   0.581
 7303SOL    HW222809   3.271   1.484   0.484
 7304SOL     OW22810   2.397   5.329   2.019
 7304SOL    HW122811   2.347   5.295   2.098
 7304SOL    HW222812   2.375   5.426   2.004
 7305SOL     OW22813   5.879   2.296   0.125
 7305SOL    HW122814   5.921   2.206   0.139
 7305SOL    HW222815   5.811   2.313   0.196
 7306SOL     OW22816   3.620   1.728   1.104
 7306SOL    HW122817   3.694   1.774   1.153
 7306SOL    HW222818   3.532   1.757   1.142
 7307SOL     OW22819   3.416   6.496   1.855
 7307SOL    HW122820   3.357   6.504   1.775
 7307SOL    HW222821   3.360   6.482   1.937
 7308SOL     OW22822   6.157   1.233   1.741
 7308SOL    HW122823   6.106   1.154   1.774
 7308SOL    HW222824   6.247   1.235   1.784
 7309SOL     OW22825   2.788   5.812   3.048
 7309SOL    HW122826   2.773   5.906   3.078
 7309SOL    HW222827   2.729   5.793   2.969
 7310SOL     OW22828   1.470   3.107   0.412
 7310SOL    HW122829   1.534   3.181   0.433
 7310SOL    HW222830   1.521   3.029   0.376
 7311SOL     OW22831   1.004   0.574   0.378
 7311SOL    HW122832   1.101   0.586   0.399
 7311SOL    HW222833   0.964   0.661   0.351
 7312SOL     OW22834   0.151   1.950   5.315
 7312SOL    HW122835   0.245   1.982   5.328
 7312SOL    HW222836   0.152   1.861   5.269
 7313SOL     OW22837   2.789   0.793   0.973
 7313SOL    HW122838   2.869   0.846   0.944
 7313SOL    HW222839   2.787   0.706   0.924
 7314SOL     OW22840   0.029   4.247   0.068
 7314SOL    HW122841   0.018   4.157   0.108
 7314SOL    HW222842   0.126   4.266   0.055
 7315SOL     OW22843   6.577   5.367   2.452
 7315SOL    HW122844   6.500   5.389   2.392
 7315SOL    HW222845   6.623   5.452   2.479
 7316SOL     OW22846   3.301   2.344   6.233
 7316SOL    HW122847   3.360   2.372   6.158
 7316SOL    HW222848   3.207   2.375   6.215
 7317SOL     OW22849   3.311   1.696   1.756
 7317SOL    HW122850   3.343   1.660   1.844
 7317SOL    HW222851   3.227   1.651   1.729
 7318SOL     OW22852   3.774   6.604   2.382
 7318SOL    HW122853   3.781   6.680   2.317
 7318SOL    HW222854   3.835   6.620   2.459
 7319SOL     OW22855   6.996   3.994   6.924
 7319SOL    HW122856   7.006   3.971   6.827
 7319SOL    HW222857   0.057   3.992   6.968
 7320SOL     OW22858   0.192   4.060   1.323
 7320SOL    HW122859   0.141   4.128   1.269
 7320SOL    HW222860   0.285   4.093   1.338
 7321SOL     OW22861   1.813   6.163   6.289
 7321SOL    HW122862   1.801   6.074   6.333
 7321SOL    HW222863   1.894   6.160   6.230
 7322SOL     OW22864   1.029   1.470   2.979
 7322SOL    HW122865   0.950   1.531   2.971
 7322SOL    HW222866   1.044   1.447   3.075
 7323SOL     OW22867   2.154   1.131   1.717
 7323SOL    HW122868   2.219   1.110   1.790
 7323SOL    HW222869   2.148   1.230   1.705
 7324SOL     OW22870   5.862   4.475   2.623
 7324SOL    HW122871   5.806   4.399   2.655
 7324SOL    HW222872   5.858   4.550   2.688
 7325SOL     OW22873   3.682   0.479   5.811
 7325SOL    HW122874   3.756   0.441   5.754
 7325SOL    HW222875   3.627   0.541   5.756
 7326SOL     OW22876   3.355   0.528   6.040
 7326SOL    HW122877   3.374   0.441   5.994
 7326SOL    HW222878   3.336   0.511   6.137
 7327SOL     OW22879   5.759   3.432   3.038
 7327SOL    HW122880   5.671   3.386   3.023
 7327SOL    HW222881   5.745   3.512   3.096
 7328SOL     OW22882   3.660   5.365   5.977
 7328SOL    HW122883   3.599   5.441   5.954
 7328SOL    HW222884   3.653   5.345   6.075
 7329SOL     OW22885   1.528   2.724   7.015
 7329SOL    HW122886   1.535   2.641   6.960
 7329SOL    HW222887   1.446   2.718   0.045
 7330SOL     OW22888   2.933   3.091   1.263
 7330SOL    HW122889   3.020   3.089   1.312
 7330SOL    HW222890   2.866   3.037   1.314
 7331SOL     OW22891   5.027   0.281   2.015
 7331SOL    HW122892   4.997   0.309   1.924
 7331SOL    HW222893   5.077   0.356   2.058
 7332SOL     OW22894   4.081   4.120   0.090
 7332SOL    HW122895   4.161   4.173   0.116
 7332SOL    HW222896   4.056   4.141   7.024
 7333SOL     OW22897   6.327   3.265   3.009
 7333SOL    HW122898   6.293   3.359   3.020
 7333SOL    HW222899   6.352   3.250   2.914
 7334SOL     OW22900   2.643   6.534   5.990
 7334SOL    HW122901   2.621   6.606   6.055
 7334SOL    HW222902   2.718   6.479   6.027
 7335SOL     OW22903   6.560   3.813   2.878
 7335SOL    HW122904   6.634   3.748   2.891
 7335SOL    HW222905   6.514   3.794   2.791
 7336SOL     OW22906   1.653   6.124   0.893
 7336SOL    HW122907   1.725   6.079   0.946
 7336SOL    HW222908   1.670   6.222   0.891
 7337SOL     OW22909   3.630   2.668   1.814
 7337SOL    HW122910   3.659   2.742   1.874
 7337SOL    HW222911   3.671   2.582   1.845
 7338SOL     OW22912   5.283   2.786   1.268
 7338SOL    HW122913   5.362   2.833   1.308
 7338SOL    HW222914   5.199   2.827   1.303
 7339SOL     OW22915   0.021   6.410   4.966
 7339SOL    HW122916   0.069   6.324   4.984
 7339SOL    HW222917   0.086   6.476   4.929
 7340SOL     OW22918   3.655   1.414   0.198
 7340SOL    HW122919   3.601   1.343   0.153
 7340SOL    HW222920   3.630   1.504   0.161
 7341SOL     OW22921   0.538   4.753   3.712
 7341SOL    HW122922   0.540   4.840   3.761
 7341SOL    HW222923   0.613   4.751   3.645
 7342SOL     OW22924   6.638   0.688   0.469
 7342SOL    HW122925   6.630   0.776   0.517
 7342SOL    HW222926   6.547   0.649   0.457
 7343SOL     OW22927   6.013   3.986   1.958
 7343SOL    HW122928   6.023   3.889   1.981
 7343SOL    HW222929   5.928   3.999   1.908
 7344SOL     OW22930   1.455   6.682   6.594
 7344SOL    HW122931   1.516   6.607   6.619
 7344SOL    HW222932   1.494   6.733   6.517
 7345SOL     OW22933   4.283   5.050   5.924
 7345SOL    HW122934   4.308   5.118   5.993
 7345SOL    HW222935   4.338   4.968   5.939
 7346SOL     OW22936   3.189   4.404   1.432
 7346SOL    HW122937   3.275   4.437   1.392
 7346SOL    HW222938   3.199   4.397   1.531
 7347SOL     OW22939   6.237   2.348   1.863
 7347SOL    HW122940   6.271   2.259   1.831
 7347SOL    HW222941   6.261   2.419   1.797
 7348SOL     OW22942   1.386   3.192   3.837
 7348SOL    HW122943   1.348   3.147   3.918
 7348SOL    HW222944   1.478   3.226   3.857
 7349SOL     OW22945   3.221   2.039   1.367
 7349SOL    HW122946   3.306   2.055   1.416
 7349SOL    HW222947   3.239   2.038   1.268
 7350SOL     OW22948   0.267   2.531   3.653
 7350SOL    HW122949   0.301   2.506   3.744
 7350SOL    HW222950   0.204   2.461   3.620
 7351SOL     OW22951   3.962   4.793   6.480
 7351SOL    HW122952   4.003   4.840   6.402
 7351SOL    HW222953   3.995   4.699   6.483
 7352SOL     OW22954   1.606   1.518   2.955
 7352SOL    HW122955   1.598   1.495   3.052
 7352SOL    HW222956   1.665   1.451   2.910
 7353SOL     OW22957   6.733   2.061   5.222
 7353SOL    HW122958   6.805   2.039   5.156
 7353SOL    HW222959   6.766   2.043   5.315
 7354SOL     OW22960   6.431   1.106   5.798
 7354SOL    HW122961   6.520   1.073   5.766
 7354SOL    HW222962   6.445   1.164   5.878
 7355SOL     OW22963   1.754   6.018   1.271
 7355SOL    HW122964   1.688   5.943   1.268
 7355SOL    HW222965   1.809   6.010   1.355
 7356SOL     OW22966   5.820   2.620   6.564
 7356SOL    HW122967   5.827   2.524   6.590
 7356SOL    HW222968   5.882   2.638   6.487
 7357SOL     OW22969   4.873   0.853   1.185
 7357SOL    HW122970   4.805   0.885   1.119
 7357SOL    HW222971   4.849   0.761   1.215
 7358SOL     OW22972   3.487   1.947   3.185
 7358SOL    HW122973   3.432   2.018   3.142
 7358SOL    HW222974   3.434   1.903   3.257
 7359SOL     OW22975   3.354   2.762   1.878
 7359SOL    HW122976   3.361   2.800   1.971
 7359SOL    HW222977   3.445   2.733   1.848
 7360SOL     OW22978   1.470   2.817   4.991
 7360SOL    HW122979   1.448   2.852   5.082
 7360SOL    HW222980   1.550   2.864   4.955
 7361SOL     OW22981   4.787   0.045   0.942
 7361SOL    HW122982   4.816   0.138   0.964
 7361SOL    HW222983   4.832   0.015   0.858
 7362SOL     OW22984   0.963   0.104   5.087
 7362SOL    HW122985   1.041   0.160   5.117
 7362SOL    HW222986   0.896   0.098   5.161
 7363SOL     OW22987   5.705   2.360   0.332
 7363SOL    HW122988   5.673   2.308   0.411
 7363SOL    HW222989   5.763   2.436   0.363
 7364SOL     OW22990   4.058   6.602   1.190
 7364SOL    HW122991   4.104   6.528   1.140
 7364SOL    HW222992   4.106   6.618   1.276
 7365SOL     OW22993   3.478   6.517   2.276
 7365SOL    HW122994   3.477   6.615   2.260
 7365SOL    HW222995   3.493   6.499   2.374
 7366SOL     OW22996   0.959   5.347   7.011
 7366SOL    HW122997   0.866   5.381   7.018
 7366SOL    HW222998   1.024   5.421   7.027
 7367SOL     OW22999   4.206   4.138   1.301
 7367SOL    HW123000   4.107   4.142   1.311
 7367SOL    HW223001   4.232   4.055   1.252
 7368SOL     OW23002   3.239   3.521   4.484
 7368SOL    HW123003   3.188   3.556   4.563
 7368SOL    HW223004   3.255   3.423   4.495
 7369SOL     OW23005   4.647   3.359   1.357
 7369SOL    HW123006   4.615   3.451   1.339
 7369SOL    HW223007   4.603   3.295   1.294
 7370SOL     OW23008   1.505   0.485   6.609
 7370SOL    HW123009   1.487   0.580   6.581
 7370SOL    HW223010   1.578   0.448   6.553
 7371SOL     OW23011   2.856   5.408   3.744
 7371SOL    HW123012   2.897   5.453   3.823
 7371SOL    HW223013   2.766   5.448   3.726
 7372SOL     OW23014   3.526   6.978   5.515
 7372SOL    HW123015   3.510   6.912   5.588
 7372SOL    HW223016   3.443   6.987   5.459
 7373SOL     OW23017   4.901   1.306   3.381
 7373SOL    HW123018   4.802   1.295   3.385
 7373SOL    HW223019   4.931   1.371   3.451
 7374SOL     OW23020   2.177   2.921   5.204
 7374SOL    HW123021   2.167   2.847   5.271
 7374SOL    HW223022   2.260   2.905   5.150
 7375SOL     OW23023   1.414   1.694   3.944
 7375SOL    HW123024   1.427   1.749   4.026
 7375SOL    HW223025   1.392   1.753   3.866
 7376SOL     OW23026   3.018   2.898   6.937
 7376SOL    HW123027   2.999   2.822   6.998
 7376SOL    HW223028   3.054   2.975   6.990
 7377SOL     OW23029   4.439   5.379   1.959
 7377SOL    HW123030   4.381   5.458   1.937
 7377SOL    HW223031   4.479   5.391   2.049
 7378SOL     OW23032   6.273   2.127   4.336
 7378SOL    HW123033   6.255   2.190   4.261
 7378SOL    HW223034   6.225   2.040   4.319
 7379SOL     OW23035   4.352   0.997   2.753
 7379SOL    HW123036   4.374   1.065   2.682
 7379SOL    HW223037   4.421   0.925   2.753
 7380SOL     OW23038   6.714   3.493   6.129
 7380SOL    HW123039   6.733   3.468   6.034
 7380SOL    HW223040   6.704   3.410   6.184
 7381SOL     OW23041   4.729   2.768   2.425
 7381SOL    HW123042   4.751   2.779   2.328
 7381SOL    HW223043   4.717   2.858   2.467
 7382SOL     OW23044   0.569   4.879   4.867
 7382SOL    HW123045   0.539   4.949   4.931
 7382SOL    HW223046   0.490   4.840   4.821
 7383SOL     OW23047   6.826   6.930   2.404
 7383SOL    HW123048   6.818   6.838   2.366
 7383SOL    HW223049   6.786   6.932   2.495
 7384SOL     OW23050   5.216   0.841   2.274
 7384SOL    HW123051   5.251   0.749   2.258
 7384SOL    HW223052   5.287   0.908   2.254
 7385SOL     OW23053   4.351   5.240   2.308
 7385SOL    HW123054   4.294   5.280   2.236
 7385SOL    HW223055   4.376   5.310   2.374
 7386SOL     OW23056   0.915   2.835   5.606
 7386SOL    HW123057   0.966   2.897   5.547
 7386SOL    HW223058   0.969   2.752   5.622
 7387SOL     OW23059   3.969   6.223   4.415
 7387SOL    HW123060   3.912   6.220   4.333
 7387SOL    HW223061   3.985   6.319   4.441
 7388SOL     OW23062   6.811   5.945   4.150
 7388SOL    HW123063   6.764   6.029   4.175
 7388SOL    HW223064   6.788   5.921   4.055
 7389SOL     OW23065   1.375   4.750   6.782
 7389SOL    HW123066   1.334   4.841   6.772
 7389SOL    HW223067   1.312   4.681   6.748
 7390SOL     OW23068   1.127   1.878   6.521
 7390SOL    HW123069   1.052   1.830   6.476
 7390SOL    HW223070   1.205   1.886   6.459
 7391SOL     OW23071   4.903   4.090   5.684
 7391SOL    HW123072   4.881   4.032   5.606
 7391SOL    HW223073   5.002   4.097   5.694
 7392SOL     OW23074   1.823   6.001   5.647
 7392SOL    HW123075   1.746   6.065   5.640
 7392SOL    HW223076   1.873   5.999   5.560
 7393SOL     OW23077   5.731   5.373   1.510
 7393SOL    HW123078   5.638   5.395   1.537
 7393SOL    HW223079   5.762   5.436   1.440
 7394SOL     OW23080   3.901   3.207   5.964
 7394SOL    HW123081   3.956   3.167   6.038
 7394SOL    HW223082   3.912   3.306   5.964
 7395SOL     OW23083   0.584   0.399   6.396
 7395SOL    HW123084   0.659   0.423   6.458
 7395SOL    HW223085   0.549   0.482   6.352
 7396SOL     OW23086   1.758   0.991   6.421
 7396SOL    HW123087   1.763   0.891   6.424
 7396SOL    HW223088   1.763   1.021   6.326
 7397SOL     OW23089   6.083   4.923   4.416
 7397SOL    HW123090   6.121   5.008   4.381
 7397SOL    HW223091   6.037   4.874   4.341
 7398SOL     OW23092   3.466   5.256   4.139
 7398SOL    HW123093   3.396   5.283   4.073
 7398SOL    HW223094   3.437   5.283   4.231
 7399SOL     OW23095   0.371   4.068   5.503
 7399SOL    HW123096   0.358   3.976   5.541
 7399SOL    HW223097   0.464   4.100   5.523
 7400SOL     OW23098   3.395   4.290   6.837
 7400SOL    HW123099   3.351   4.210   6.795
 7400SOL    HW223100   3.411   4.272   6.934
 7401SOL     OW23101   0.465   1.272   3.551
 7401SOL    HW123102   0.467   1.370   3.531
 7401SOL    HW223103   0.390   1.229   3.500
 7402SOL     OW23104   2.186   0.128   3.693
 7402SOL    HW123105   2.206   0.031   3.705
 7402SOL    HW223106   2.254   0.169   3.632
 7403SOL     OW23107   2.269   2.969   3.121
 7403SOL    HW123108   2.358   2.985   3.164
 7403SOL    HW223109   2.198   2.969   3.191
 7404SOL     OW23110   2.214   0.410   1.169
 7404SOL    HW123111   2.219   0.492   1.225
 7404SOL    HW223112   2.258   0.427   1.081
 7405SOL     OW23113   1.366   4.789   4.438
 7405SOL    HW123114   1.295   4.720   4.433
 7405SOL    HW223115   1.403   4.793   4.531
 7406SOL     OW23116   1.626   3.913   2.801
 7406SOL    HW123117   1.724   3.904   2.821
 7406SOL    HW223118   1.577   3.833   2.837
 7407SOL     OW23119   0.240   6.400   4.526
 7407SOL    HW123120   0.188   6.323   4.489
 7407SOL    HW223121   0.334   6.371   4.544
 7408SOL     OW23122   1.387   4.288   5.699
 7408SOL    HW123123   1.451   4.243   5.637
 7408SOL    HW223124   1.426   4.376   5.728
 7409SOL     OW23125   0.764   0.818   4.807
 7409SOL    HW123126   0.741   0.850   4.899
 7409SOL    HW223127   0.794   0.723   4.811
 7410SOL     OW23128   6.922   4.831   1.302
 7410SOL    HW123129   6.922   4.733   1.322
 7410SOL    HW223130   6.976   4.848   1.220
 7411SOL     OW23131   2.729   6.877   4.387
 7411SOL    HW123132   2.658   6.933   4.428
 7411SOL    HW223133   2.775   6.928   4.314
 7412SOL     OW23134   2.840   1.003   1.166
 7412SOL    HW123135   2.836   0.912   1.125
 7412SOL    HW223136   2.908   1.003   1.239
 7413SOL     OW23137   0.312   4.381   3.591
 7413SOL    HW123138   0.308   4.282   3.604
 7413SOL    HW223139   0.408   4.408   3.580
 7414SOL     OW23140   7.001   0.504   2.650
 7414SOL    HW123141   7.028   0.577   2.712
 7414SOL    HW223142   7.014   0.416   2.696
 7415SOL     OW23143   0.863   3.547   3.435
 7415SOL    HW123144   0.881   3.589   3.346
 7415SOL    HW223145   0.905   3.601   3.507
 7416SOL     OW23146   3.321   1.031   4.141
 7416SOL    HW123147   3.373   1.115   4.129
 7416SOL    HW223148   3.344   0.967   4.067
 7417SOL     OW23149   1.103   6.730   5.833
 7417SOL    HW123150   1.045   6.803   5.867
 7417SOL    HW223151   1.088   6.647   5.887
 7418SOL     OW23152   3.569   4.574   0.849
 7418SOL    HW123153   3.502   4.500   0.849
 7418SOL    HW223154   3.523   4.660   0.829
 7419SOL     OW23155   5.846   2.027   5.176
 7419SOL    HW123156   5.877   1.934   5.198
 7419SOL    HW223157   5.806   2.028   5.085
 7420SOL     OW23158   6.446   6.907   2.564
 7420SOL    HW123159   6.539   6.916   2.601
 7420SOL    HW223160   6.381   6.951   2.626
 7421SOL     OW23161   2.843   3.031   1.009
 7421SOL    HW123162   2.813   3.122   0.981
 7421SOL    HW223163   2.870   3.032   1.105
 7422SOL     OW23164   6.856   3.384   2.359
 7422SOL    HW123165   6.760   3.404   2.379
 7422SOL    HW223166   6.862   3.296   2.310
 7423SOL     OW23167   0.605   4.453   6.088
 7423SOL    HW123168   0.684   4.514   6.093
 7423SOL    HW223169   0.535   4.494   6.029
 7424SOL     OW23170   6.031   1.392   4.176
 7424SOL    HW123171   6.035   1.446   4.092
 7424SOL    HW223172   6.076   1.304   4.161
 7425SOL     OW23173   3.863   4.992   6.859
 7425SOL    HW123174   3.957   4.957   6.854
 7425SOL    HW223175   3.828   5.008   6.766
 7426SOL     OW23176   0.542   2.283   6.597
 7426SOL    HW123177   0.635   2.265   6.628
 7426SOL    HW223178   0.515   2.375   6.626
 7427SOL     OW23179   3.160   5.760   4.430
 7427SOL    HW123180   3.211   5.820   4.368
 7427SOL    HW223181   3.075   5.731   4.385
 7428SOL     OW23182   3.826   1.680   5.570
 7428SOL    HW123183   3.897   1.742   5.602
 7428SOL    HW223184   3.868   1.608   5.513
 7429SOL     OW23185   6.308   6.834   2.891
 7429SOL    HW123186   6.268   6.745   2.870
 7429SOL    HW223187   6.275   6.865   2.981
 7430SOL     OW23188   0.111   4.598   5.407
 7430SOL    HW123189   0.139   4.686   5.445
 7430SOL    HW223190   0.012   4.591   5.408
 7431SOL     OW23191   0.981   3.622   2.320
 7431SOL    HW123192   0.887   3.652   2.301
 7431SOL    HW223193   0.995   3.531   2.280
 7432SOL     OW23194   0.198   6.493   4.102
 7432SOL    HW123195   0.267   6.530   4.164
 7432SOL    HW223196   0.241   6.470   4.015
 7433SOL     OW23197   6.348   4.953   0.731
 7433SOL    HW123198   6.299   4.990   0.811
 7433SOL    HW223199   6.282   4.919   0.665
 7434SOL     OW23200   3.032   1.039   6.915
 7434SOL    HW123201   3.050   0.962   6.976
 7434SOL    HW223202   3.105   1.045   6.847
 7435SOL     OW23203   3.306   6.415   6.314
 7435SOL    HW123204   3.383   6.453   6.263
 7435SOL    HW223205   3.313   6.441   6.410
 7436SOL     OW23206   6.596   2.898   6.542
 7436SOL    HW123207   6.528   2.971   6.539
 7436SOL    HW223208   6.576   2.831   6.471
 7437SOL     OW23209   6.794   5.247   6.558
 7437SOL    HW123210   6.885   5.214   6.533
 7437SOL    HW223211   6.794   5.277   6.653
 7438SOL     OW23212   1.425   3.930   1.341
 7438SOL    HW123213   1.462   3.933   1.248
 7438SOL    HW223214   1.487   3.977   1.404
 7439SOL     OW23215   2.811   6.778   4.093
 7439SOL    HW123216   2.820   6.832   4.009
 7439SOL    HW223217   2.871   6.815   4.163
 7440SOL     OW23218   0.509   3.397   4.773
 7440SOL    HW123219   0.538   3.344   4.853
 7440SOL    HW223220   0.590   3.429   4.723
 7441SOL     OW23221   5.948   6.492   4.003
 7441SOL    HW123222   5.875   6.457   4.062
 7441SOL    HW223223   5.947   6.592   4.005
 7442SOL     OW23224   1.102   0.558   6.447
 7442SOL    HW123225   1.017   0.585   6.491
 7442SOL    HW223226   1.152   0.640   6.419
 7443SOL     OW23227   0.055   1.690   0.579
 7443SOL    HW123228   0.078   1.594   0.563
 7443SOL    HW223229   7.013   1.696   0.651
 7444SOL     OW23230   0.375   3.193   6.324
 7444SOL    HW123231   0.453   3.248   6.294
 7444SOL    HW223232   0.405   3.098   6.339
 7445SOL     OW23233   4.026   1.404   1.593
 7445SOL    HW123234   4.028   1.465   1.672
 7445SOL    HW223235   4.113   1.411   1.544
 7446SOL     OW23236   5.832   4.524   0.168
 7446SOL    HW123237   5.772   4.517   0.089
 7446SOL    HW223238   5.925   4.496   0.142
 7447SOL     OW23239   2.752   4.463   6.179
 7447SOL    HW123240   2.716   4.461   6.086
 7447SOL    HW223241   2.733   4.375   6.224
 7448SOL     OW23242   5.567   6.785   5.649
 7448SOL    HW123243   5.592   6.795   5.553
 7448SOL    HW223244   5.628   6.840   5.706
 7449SOL     OW23245   4.886   2.375   2.417
 7449SOL    HW123246   4.862   2.307   2.348
 7449SOL    HW223247   4.802   2.415   2.455
 7450SOL     OW23248   5.013   2.752   4.064
 7450SOL    HW123249   5.096   2.786   4.021
 7450SOL    HW223250   5.005   2.790   4.156
 7451SOL     OW23251   1.437   0.472   3.244
 7451SOL    HW123252   1.351   0.508   3.280
 7451SOL    HW223253   1.510   0.488   3.310
 7452SOL     OW23254   1.668   0.355   4.685
 7452SOL    HW123255   1.712   0.442   4.707
 7452SOL    HW223256   1.570   0.369   4.671
 7453SOL     OW23257   5.403   6.165   4.993
 7453SOL    HW123258   5.460   6.128   4.920
 7453SOL    HW223259   5.459   6.219   5.055
 7454SOL     OW23260   1.028   3.118   1.340
 7454SOL    HW123261   1.028   3.170   1.255
 7454SOL    HW223262   1.004   3.023   1.322
 7455SOL     OW23263   6.685   1.471   1.566
 7455SOL    HW123264   6.695   1.561   1.525
 7455SOL    HW223265   6.720   1.401   1.503
 7456SOL     OW23266   1.645   2.391   4.816
 7456SOL    HW123267   1.725   2.382   4.756
 7456SOL    HW223268   1.665   2.348   4.904
 7457SOL     OW23269   5.077   0.502   6.016
 7457SOL    HW123270   5.174   0.491   6.035
 7457SOL    HW223271   5.025   0.489   6.100
 7458SOL     OW23272   1.938   6.683   6.747
 7458SOL    HW123273   1.934   6.781   6.765
 7458SOL    HW223274   1.995   6.638   6.816
 7459SOL     OW23275   4.337   0.075   0.150
 7459SOL    HW123276   4.423   0.127   0.158
 7459SOL    HW223277   4.303   0.083   0.056
 7460SOL     OW23278   1.639   5.364   0.275
 7460SOL    HW123279   1.582   5.302   0.328
 7460SOL    HW223280   1.706   5.311   0.223
 7461SOL     OW23281   5.215   1.320   5.387
 7461SOL    HW123282   5.115   1.322   5.390
 7461SOL    HW223283   5.251   1.335   5.479
 7462SOL     OW23284   1.612   2.443   1.715
 7462SOL    HW123285   1.691   2.491   1.753
 7462SOL    HW223286   1.622   2.345   1.732
 7463SOL     OW23287   3.594   3.419   1.423
 7463SOL    HW123288   3.680   3.469   1.422
 7463SOL    HW223289   3.580   3.378   1.513
 7464SOL     OW23290   3.834   6.061   6.585
 7464SOL    HW123291   3.814   6.138   6.646
 7464SOL    HW223292   3.822   5.975   6.635
 7465SOL     OW23293   1.866   0.045   1.275
 7465SOL    HW123294   1.778   0.045   1.321
 7465SOL    HW223295   1.860   0.101   1.192
 7466SOL     OW23296   0.423   0.168   6.352
 7466SOL    HW123297   0.477   0.244   6.387
 7466SOL    HW223298   0.444   0.155   6.255
 7467SOL     OW23299   6.302   2.404   1.224
 7467SOL    HW123300   6.232   2.352   1.173
 7467SOL    HW223301   6.390   2.393   1.179
 7468SOL     OW23302   5.119   2.191   2.393
 7468SOL    HW123303   5.087   2.286   2.385
 7468SOL    HW223304   5.164   2.179   2.481
 7469SOL     OW23305   1.255   0.090   7.028
 7469SOL    HW123306   1.302   0.178   0.006
 7469SOL    HW223307   1.304   0.022   0.054
 7470SOL     OW23308   0.252   2.776   3.257
 7470SOL    HW123309   0.184   2.842   3.290
 7470SOL    HW223310   0.312   2.821   3.190
 7471SOL     OW23311   5.841   6.562   4.365
 7471SOL    HW123312   5.930   6.554   4.410
 7471SOL    HW223313   5.770   6.578   4.434
 7472SOL     OW23314   5.173   6.475   4.264
 7472SOL    HW123315   5.096   6.523   4.305
 7472SOL    HW223316   5.245   6.463   4.332
 7473SOL     OW23317   0.120   4.134   3.285
 7473SOL    HW123318   0.056   4.107   3.213
 7473SOL    HW223319   0.073   4.190   3.352
 7474SOL     OW23320   2.814   1.059   4.768
 7474SOL    HW123321   2.735   1.058   4.706
 7474SOL    HW223322   2.894   1.093   4.720
 7475SOL     OW23323   4.517   1.423   2.659
 7475SOL    HW123324   4.474   1.479   2.589
 7475SOL    HW223325   4.600   1.467   2.691
 7476SOL     OW23326   3.910   6.488   4.521
 7476SOL    HW123327   3.879   6.554   4.590
 7476SOL    HW223328   3.850   6.493   4.441
 7477SOL     OW23329   4.861   0.864   4.057
 7477SOL    HW123330   4.876   0.765   4.047
 7477SOL    HW223331   4.930   0.913   4.004
 7478SOL     OW23332   3.867   3.953   6.474
 7478SOL    HW123333   3.810   3.999   6.406
 7478SOL    HW223334   3.852   3.854   6.468
 7479SOL     OW23335   3.567   1.905   0.552
 7479SOL    HW123336   3.604   1.829   0.605
 7479SOL    HW223337   3.642   1.951   0.503
 7480SOL     OW23338   5.910   5.323   1.109
 7480SOL    HW123339   5.896   5.301   1.012
 7480SOL    HW223340   5.972   5.401   1.117
 7481SOL     OW23341   5.480   5.404   1.589
 7481SOL    HW123342   5.467   5.501   1.610
 7481SOL    HW223343   5.400   5.353   1.620
 7482SOL     OW23344   4.209   1.563   2.089
 7482SOL    HW123345   4.272   1.587   2.015
 7482SOL    HW223346   4.240   1.606   2.174
 7483SOL     OW23347   4.027   2.058   4.973
 7483SOL    HW123348   4.085   2.113   4.913
 7483SOL    HW223349   3.932   2.088   4.962
 7484SOL     OW23350   6.957   6.911   2.110
 7484SOL    HW123351   6.896   6.962   2.170
 7484SOL    HW223352   6.905   6.837   2.065
 7485SOL     OW23353   2.522   6.292   5.259
 7485SOL    HW123354   2.426   6.282   5.232
 7485SOL    HW223355   2.558   6.203   5.284
 7486SOL     OW23356   2.044   6.912   5.384
 7486SOL    HW123357   2.022   6.997   5.335
 7486SOL    HW223358   2.141   6.891   5.371
 7487SOL     OW23359   2.479   6.675   2.491
 7487SOL    HW123360   2.455   6.706   2.584
 7487SOL    HW223361   2.420   6.721   2.425
 7488SOL     OW23362   2.085   6.645   5.041
 7488SOL    HW123363   2.098   6.688   4.952
 7488SOL    HW223364   2.009   6.689   5.088
 7489SOL     OW23365   4.903   2.274   4.999
 7489SOL    HW123366   4.899   2.231   4.909
 7489SOL    HW223367   4.916   2.204   5.069
 7490SOL     OW23368   0.800   1.404   1.103
 7490SOL    HW123369   0.876   1.358   1.056
 7490SOL    HW223370   0.791   1.366   1.195
 7491SOL     OW23371   0.585   5.002   0.254
 7491SOL    HW123372   0.685   4.998   0.249
 7491SOL    HW223373   0.545   4.960   0.173
 7492SOL     OW23374   2.784   1.663   5.061
 7492SOL    HW123375   2.687   1.637   5.064
 7492SOL    HW223376   2.833   1.614   5.133
 7493SOL     OW23377   6.182   4.374   6.345
 7493SOL    HW123378   6.101   4.318   6.363
 7493SOL    HW223379   6.157   4.471   6.350
 7494SOL     OW23380   5.795   0.742   2.406
 7494SOL    HW123381   5.796   0.752   2.505
 7494SOL    HW223382   5.748   0.821   2.365
 7495SOL     OW23383   2.399   1.220   1.571
 7495SOL    HW123384   2.450   1.192   1.490
 7495SOL    HW223385   2.309   1.253   1.544
 7496SOL     OW23386   0.875   4.335   6.050
 7496SOL    HW123387   0.941   4.300   5.983
 7496SOL    HW223388   0.785   4.340   6.008
 7497SOL     OW23389   2.888   5.034   1.294
 7497SOL    HW123390   2.909   5.053   1.390
 7497SOL    HW223391   2.917   4.941   1.272
 7498SOL     OW23392   2.686   1.205   4.015
 7498SOL    HW123393   2.732   1.282   4.060
 7498SOL    HW223394   2.733   1.183   3.930
 7499SOL     OW23395   6.167   0.432   2.934
 7499SOL    HW123396   6.219   0.502   2.984
 7499SOL    HW223397   6.078   0.469   2.906
 7500SOL     OW23398   3.981   6.095   2.796
 7500SOL    HW123399   3.919   6.064   2.868
 7500SOL    HW223400   3.953   6.185   2.763
 7501SOL     OW23401   6.217   4.526   4.521
 7501SOL    HW123402   6.289   4.457   4.512
 7501SOL    HW223403   6.201   4.569   4.432
 7502SOL     OW23404   1.104   1.945   5.076
 7502SOL    HW123405   1.136   1.854   5.053
 7502SOL    HW223406   1.160   2.013   5.028
 7503SOL     OW23407   2.655   1.060   6.619
 7503SOL    HW123408   2.663   0.985   6.554
 7503SOL    HW223409   2.736   1.118   6.612
 7504SOL     OW23410   3.694   6.898   3.378
 7504SOL    HW123411   3.675   6.995   3.363
 7504SOL    HW223412   3.629   6.843   3.326
 7505SOL     OW23413   2.559   0.832   5.361
 7505SOL    HW123414   2.463   0.802   5.364
 7505SOL    HW223415   2.584   0.875   5.448
 7506SOL     OW23416   4.472   0.746   2.757
 7506SOL    HW123417   4.480   0.697   2.670
 7506SOL    HW223418   4.541   0.713   2.821
 7507SOL     OW23419   0.034   7.016   0.383
 7507SOL    HW123420   0.108   7.005   0.316
 7507SOL    HW223421   6.978   6.977   0.345
 7508SOL     OW23422   5.517   6.540   2.582
 7508SOL    HW123423   5.503   6.633   2.617
 7508SOL    HW223424   5.430   6.501   2.554
 7509SOL     OW23425   4.860   4.576   0.538
 7509SOL    HW123426   4.950   4.565   0.581
 7509SOL    HW223427   4.830   4.488   0.501
 7510SOL     OW23428   2.911   3.987   5.179
 7510SOL    HW123429   2.901   3.898   5.135
 7510SOL    HW223430   2.820   4.029   5.189
 7511SOL     OW23431   1.726   0.673   2.695
 7511SOL    HW123432   1.659   0.626   2.638
 7511SOL    HW223433   1.756   0.757   2.649
 7512SOL     OW23434   2.907   4.051   1.312
 7512SOL    HW123435   2.829   4.114   1.304
 7512SOL    HW223436   2.875   3.963   1.347
 7513SOL     OW23437   1.764   1.945   0.725
 7513SOL    HW123438   1.849   1.993   0.705
 7513SOL    HW223439   1.754   1.935   0.824
 7514SOL     OW23440   2.707   5.859   2.146
 7514SOL    HW123441   2.613   5.878   2.176
 7514SOL    HW223442   2.720   5.761   2.135
 7515SOL     OW23443   1.054   6.740   2.655
 7515SOL    HW123444   0.986   6.802   2.615
 7515SOL    HW223445   1.068   6.662   2.594
 7516SOL     OW23446   6.778   5.435   4.549
 7516SOL    HW123447   6.741   5.363   4.490
 7516SOL    HW223448   6.834   5.394   4.621
 7517SOL     OW23449   6.640   3.371   1.796
 7517SOL    HW123450   6.709   3.346   1.865
 7517SOL    HW223451   6.680   3.366   1.705
 7518SOL     OW23452   3.827   5.927   3.889
 7518SOL    HW123453   3.859   6.015   3.856
 7518SOL    HW223454   3.790   5.873   3.813
 7519SOL     OW23455   6.963   6.806   3.611
 7519SOL    HW123456   6.919   6.813   3.701
 7519SOL    HW223457   0.026   6.846   3.616
 7520SOL     OW23458   2.643   0.433   1.829
 7520SOL    HW123459   2.586   0.432   1.912
 7520SOL    HW223460   2.605   0.498   1.764
 7521SOL     OW23461   4.498   4.670   5.368
 7521SOL    HW123462   4.437   4.747   5.383
 7521SOL    HW223463   4.575   4.675   5.432
 7522SOL     OW23464   2.662   0.757   6.365
 7522SOL    HW123465   2.612   0.842   6.377
 7522SOL    HW223466   2.737   0.772   6.299
 7523SOL     OW23467   5.532   1.301   5.623
 7523SOL    HW123468   5.513   1.280   5.719
 7523SOL    HW223469   5.490   1.389   5.599
 7524SOL     OW23470   0.671   2.563   5.780
 7524SOL    HW123471   0.655   2.512   5.696
 7524SOL    HW223472   0.586   2.608   5.809
 7525SOL     OW23473   2.544   0.154   6.055
 7525SOL    HW123474   2.506   0.064   6.076
 7525SOL    HW223475   2.480   0.202   5.995
 7526SOL     OW23476   3.955   3.058   2.839
 7526SOL    HW123477   4.014   3.123   2.791
 7526SOL    HW223478   3.962   3.073   2.937
 7527SOL     OW23479   4.824   5.031   2.910
 7527SOL    HW123480   4.878   4.955   2.874
 7527SOL    HW223481   4.833   5.034   3.010
 7528SOL     OW23482   4.769   2.489   0.255
 7528SOL    HW123483   4.846   2.446   0.208
 7528SOL    HW223484   4.719   2.420   0.306
 7529SOL     OW23485   5.351   1.248   4.142
 7529SOL    HW123486   5.320   1.290   4.057
 7529SOL    HW223487   5.451   1.257   4.149
 7530SOL     OW23488   6.471   3.271   2.773
 7530SOL    HW123489   6.436   3.331   2.701
 7530SOL    HW223490   6.571   3.268   2.768
 7531SOL     OW23491   4.440   2.471   4.351
 7531SOL    HW123492   4.478   2.548   4.402
 7531SOL    HW223493   4.485   2.465   4.262
 7532SOL     OW23494   5.405   5.674   1.686
 7532SOL    HW123495   5.399   5.679   1.785
 7532SOL    HW223496   5.325   5.719   1.645
 7533SOL     OW23497   2.049   1.228   3.212
 7533SOL    HW123498   1.952   1.245   3.227
 7533SOL    HW223499   2.102   1.302   3.251
 7534SOL     OW23500   3.707   6.465   4.904
 7534SOL    HW123501   3.626   6.486   4.850
 7534SOL    HW223502   3.761   6.395   4.857
 7535SOL     OW23503   2.976   1.186   5.660
 7535SOL    HW123504   3.001   1.271   5.707
 7535SOL    HW223505   2.996   1.195   5.562
 7536SOL     OW23506   5.163   5.122   4.722
 7536SOL    HW123507   5.087   5.184   4.740
 7536SOL    HW223508   5.160   5.046   4.787
 7537SOL     OW23509   1.910   4.500   5.205
 7537SOL    HW123510   2.006   4.500   5.231
 7537SOL    HW223511   1.853   4.521   5.285
 7538SOL     OW23512   3.259   3.676   2.349
 7538SOL    HW123513   3.165   3.644   2.361
 7538SOL    HW223514   3.261   3.749   2.281
 7539SOL     OW23515   2.445   2.455   4.971
 7539SOL    HW123516   2.436   2.552   4.951
 7539SOL    HW223517   2.466   2.443   5.068
 7540SOL     OW23518   3.621   1.255   6.043
 7540SOL    HW123519   3.545   1.277   6.104
 7540SOL    HW223520   3.585   1.218   5.957
 7541SOL     OW23521   6.546   3.629   5.270
 7541SOL    HW123522   6.594   3.567   5.209
 7541SOL    HW223523   6.536   3.588   5.360
 7542SOL     OW23524   0.220   6.373   6.306
 7542SOL    HW123525   0.217   6.442   6.235
 7542SOL    HW223526   0.127   6.345   6.330
 7543SOL     OW23527   4.600   1.978   0.798
 7543SOL    HW123528   4.530   2.048   0.784
 7543SOL    HW223529   4.688   2.012   0.764
 7544SOL     OW23530   0.317   1.869   3.476
 7544SOL    HW123531   0.285   1.932   3.405
 7544SOL    HW223532   0.313   1.775   3.442
 7545SOL     OW23533   5.014   6.687   3.051
 7545SOL    HW123534   5.057   6.692   3.141
 7545SOL    HW223535   5.050   6.608   3.001
 7546SOL     OW23536   4.352   0.685   1.188
 7546SOL    HW123537   4.408   0.739   1.251
 7546SOL    HW223538   4.260   0.724   1.185
 7547SOL     OW23539   3.791   6.432   0.289
 7547SOL    HW123540   3.815   6.491   0.366
 7547SOL    HW223541   3.705   6.464   0.248
 7548SOL     OW23542   2.708   1.883   0.428
 7548SOL    HW123543   2.687   1.934   0.345
 7548SOL    HW223544   2.789   1.825   0.413
 7549SOL     OW23545   5.396   1.721   1.632
 7549SOL    HW123546   5.452   1.720   1.714
 7549SOL    HW223547   5.309   1.766   1.652
 7550SOL     OW23548   2.831   5.085   2.488
 7550SOL    HW123549   2.903   5.117   2.549
 7550SOL    HW223550   2.855   5.107   2.393
 7551SOL     OW23551   4.768   4.048   0.141
 7551SOL    HW123552   4.742   4.009   0.229
 7551SOL    HW223553   4.859   4.014   0.115
 7552SOL     OW23554   1.743   5.685   3.970
 7552SOL    HW123555   1.836   5.681   4.006
 7552SOL    HW223556   1.713   5.593   3.946
 7553SOL     OW23557   3.341   4.771   5.947
 7553SOL    HW123558   3.277   4.841   5.917
 7553SOL    HW223559   3.403   4.809   6.016
 7554SOL     OW23560   5.061   1.167   0.801
 7554SOL    HW123561   5.065   1.078   0.755
 7554SOL    HW223562   4.984   1.167   0.865
 7555SOL     OW23563   1.346   5.219   4.662
 7555SOL    HW123564   1.351   5.145   4.729
 7555SOL    HW223565   1.284   5.290   4.696
 7556SOL     OW23566   0.407   2.390   5.803
 7556SOL    HW123567   0.361   2.459   5.747
 7556SOL    HW223568   0.342   2.352   5.869
 7557SOL     OW23569   5.528   3.189   5.828
 7557SOL    HW123570   5.525   3.286   5.802
 7557SOL    HW223571   5.438   3.159   5.857
 7558SOL     OW23572   2.358   2.734   3.900
 7558SOL    HW123573   2.453   2.713   3.925
 7558SOL    HW223574   2.337   2.828   3.924
 7559SOL     OW23575   6.428   5.358   1.328
 7559SOL    HW123576   6.357   5.293   1.302
 7559SOL    HW223577   6.471   5.327   1.413
 7560SOL     OW23578   5.042   6.384   0.029
 7560SOL    HW123579   5.112   6.313   0.016
 7560SOL    HW223580   5.050   6.453   6.985
 7561SOL     OW23581   0.689   3.254   6.973
 7561SOL    HW123582   0.765   3.255   6.909
 7561SOL    HW223583   0.670   3.160   7.001
 7562SOL     OW23584   4.340   6.252   4.919
 7562SOL    HW123585   4.312   6.158   4.941
 7562SOL    HW223586   4.403   6.285   4.988
 7563SOL     OW23587   2.767   0.200   0.617
 7563SOL    HW123588   2.735   0.190   0.523
 7563SOL    HW223589   2.703   0.256   0.669
 7564SOL     OW23590   5.274   1.191   3.093
 7564SOL    HW123591   5.202   1.256   3.117
 7564SOL    HW223592   5.252   1.148   3.005
 7565SOL     OW23593   4.992   4.167   6.429
 7565SOL    HW123594   4.947   4.078   6.426
 7565SOL    HW223595   4.929   4.235   6.466
 7566SOL     OW23596   0.737   4.815   3.468
 7566SOL    HW123597   0.815   4.753   3.474
 7566SOL    HW223598   0.753   4.895   3.524
 7567SOL     OW23599   1.557   2.582   5.501
 7567SOL    HW123600   1.611   2.666   5.506
 7567SOL    HW223601   1.513   2.576   5.411
 7568SOL     OW23602   5.678   6.003   4.135
 7568SOL    HW123603   5.589   6.033   4.101
 7568SOL    HW223604   5.747   6.071   4.112
 7569SOL     OW23605   4.162   5.312   6.370
 7569SOL    HW123606   4.133   5.268   6.455
 7569SOL    HW223607   4.083   5.324   6.311
 7570SOL     OW23608   5.353   4.879   5.424
 7570SOL    HW123609   5.289   4.805   5.403
 7570SOL    HW223610   5.343   4.905   5.520
 7571SOL     OW23611   5.152   4.822   2.007
 7571SOL    HW123612   5.188   4.850   2.096
 7571SOL    HW223613   5.156   4.722   2.000
 7572SOL     OW23614   5.082   0.674   3.711
 7572SOL    HW123615   5.011   0.648   3.776
 7572SOL    HW223616   5.170   0.682   3.760
 7573SOL     OW23617   5.656   5.552   4.435
 7573SOL    HW123618   5.754   5.543   4.418
 7573SOL    HW223619   5.641   5.585   4.528
 7574SOL     OW23620   6.406   1.165   4.834
 7574SOL    HW123621   6.357   1.169   4.746
 7574SOL    HW223622   6.423   1.257   4.867
 7575SOL     OW23623   4.663   0.770   5.651
 7575SOL    HW123624   4.641   0.688   5.705
 7575SOL    HW223625   4.760   0.791   5.661
 7576SOL     OW23626   6.323   5.344   0.116
 7576SOL    HW123627   6.329   5.248   0.086
 7576SOL    HW223628   6.311   5.347   0.215
 7577SOL     OW23629   6.838   6.944   5.248
 7577SOL    HW123630   6.865   7.009   5.319
 7577SOL    HW223631   6.850   6.986   5.158
 7578SOL     OW23632   1.775   6.476   3.645
 7578SOL    HW123633   1.801   6.515   3.557
 7578SOL    HW223634   1.825   6.524   3.718
 7579SOL     OW23635   4.266   1.724   2.337
 7579SOL    HW123636   4.323   1.805   2.325
 7579SOL    HW223637   4.202   1.738   2.412
 7580SOL     OW23638   1.367   4.017   4.111
 7580SOL    HW123639   1.432   4.048   4.041
 7580SOL    HW223640   1.383   3.920   4.131
 7581SOL     OW23641   4.560   0.902   1.332
 7581SOL    HW123642   4.484   0.967   1.331
 7581SOL    HW223643   4.644   0.951   1.354
 7582SOL     OW23644   3.831   1.179   0.327
 7582SOL    HW123645   3.822   1.189   0.228
 7582SOL    HW223646   3.900   1.110   0.347
 7583SOL     OW23647   6.314   3.699   1.904
 7583SOL    HW123648   6.396   3.756   1.899
 7583SOL    HW223649   6.297   3.676   2.000
 7584SOL     OW23650   3.003   6.499   1.232
 7584SOL    HW123651   2.980   6.549   1.315
 7584SOL    HW223652   2.921   6.489   1.176
 7585SOL     OW23653   1.803   2.823   5.842
 7585SOL    HW123654   1.863   2.804   5.920
 7585SOL    HW223655   1.839   2.900   5.790
 7586SOL     OW23656   3.457   0.854   3.112
 7586SOL    HW123657   3.488   0.885   3.022
 7586SOL    HW223658   3.482   0.921   3.182
 7587SOL     OW23659   3.360   1.717   6.816
 7587SOL    HW123660   3.339   1.664   6.898
 7587SOL    HW223661   3.458   1.710   6.797
 7588SOL     OW23662   0.429   3.299   2.150
 7588SOL    HW123663   0.342   3.335   2.186
 7588SOL    HW223664   0.439   3.204   2.179
 7589SOL     OW23665   6.077   6.445   0.306
 7589SOL    HW123666   6.164   6.455   0.354
 7589SOL    HW223667   6.046   6.350   0.311
 7590SOL     OW23668   2.895   1.735   6.390
 7590SOL    HW123669   2.967   1.795   6.427
 7590SOL    HW223670   2.808   1.760   6.431
 7591SOL     OW23671   0.497   5.252   0.691
 7591SOL    HW123672   0.428   5.269   0.761
 7591SOL    HW223673   0.459   5.194   0.619
 7592SOL     OW23674   0.305   4.998   6.545
 7592SOL    HW123675   0.223   4.940   6.544
 7592SOL    HW223676   0.297   5.068   6.474
 7593SOL     OW23677   6.016   2.328   6.841
 7593SOL    HW123678   5.949   2.291   6.905
 7593SOL    HW223679   5.977   2.330   6.749
 7594SOL     OW23680   0.289   4.679   2.094
 7594SOL    HW123681   0.372   4.726   2.066
 7594SOL    HW223682   0.287   4.673   2.194
 7595SOL     OW23683   0.494   2.740   5.935
 7595SOL    HW123684   0.454   2.791   5.859
 7595SOL    HW223685   0.452   2.770   6.021
 7596SOL     OW23686   4.683   5.269   2.865
 7596SOL    HW123687   4.709   5.334   2.936
 7596SOL    HW223688   4.727   5.181   2.882
 7597SOL     OW23689   3.039   5.693   1.762
 7597SOL    HW123690   2.940   5.697   1.774
 7597SOL    HW223691   3.080   5.641   1.837
 7598SOL     OW23692   6.596   1.004   2.812
 7598SOL    HW123693   6.678   0.964   2.769
 7598SOL    HW223694   6.604   1.103   2.813
 7599SOL     OW23695   5.079   0.838   3.491
 7599SOL    HW123696   5.164   0.882   3.462
 7599SOL    HW223697   5.097   0.777   3.568
 7600SOL     OW23698   2.121   0.434   2.431
 7600SOL    HW123699   2.106   0.442   2.529
 7600SOL    HW223700   2.209   0.474   2.406
 7601SOL     OW23701   1.655   5.443   2.869
 7601SOL    HW123702   1.566   5.477   2.840
 7601SOL    HW223703   1.702   5.513   2.922
 7602SOL     OW23704   2.039   3.709   5.653
 7602SOL    HW123705   2.124   3.752   5.620
 7602SOL    HW223706   2.045   3.610   5.640
 7603SOL     OW23707   1.379   6.026   6.250
 7603SOL    HW123708   1.416   5.950   6.304
 7603SOL    HW223709   1.356   6.102   6.311
 7604SOL     OW23710   2.433   5.781   3.960
 7604SOL    HW123711   2.434   5.749   3.865
 7604SOL    HW223712   2.403   5.876   3.962
 7605SOL     OW23713   1.667   6.148   0.607
 7605SOL    HW123714   1.704   6.072   0.554
 7605SOL    HW223715   1.683   6.132   0.705
 7606SOL     OW23716   0.137   2.561   2.427
 7606SOL    HW123717   0.131   2.463   2.444
 7606SOL    HW223718   0.044   2.599   2.417
 7607SOL     OW23719   4.206   6.377   0.306
 7607SOL    HW123720   4.232   6.445   0.237
 7607SOL    HW223721   4.237   6.287   0.277
 7608SOL     OW23722   3.210   3.548   3.791
 7608SOL    HW123723   3.289   3.578   3.844
 7608SOL    HW223724   3.240   3.492   3.714
 7609SOL     OW23725   6.743   4.114   3.202
 7609SOL    HW123726   6.822   4.071   3.157
 7609SOL    HW223727   6.659   4.073   3.168
 7610SOL     OW23728   6.049   0.335   0.150
 7610SOL    HW123729   6.141   0.340   0.110
 7610SOL    HW223730   6.019   0.426   0.176
 7611SOL     OW23731   0.717   1.922   0.041
 7611SOL    HW123732   0.789   1.860   0.074
 7611SOL    HW223733   0.714   2.003   0.101
 7612SOL     OW23734   4.248   2.010   4.612
 7612SOL    HW123735   4.283   2.018   4.705
 7612SOL    HW223736   4.307   1.948   4.559
 7613SOL     OW23737   5.123   1.799   1.990
 7613SOL    HW123738   5.102   1.888   2.031
 7613SOL    HW223739   5.055   1.732   2.019
 7614SOL     OW23740   4.766   2.564   1.413
 7614SOL    HW123741   4.764   2.539   1.509
 7614SOL    HW223742   4.815   2.494   1.361
 7615SOL     OW23743   5.112   4.239   5.884
 7615SOL    HW123744   5.146   4.189   5.805
 7615SOL    HW223745   5.104   4.178   5.962
 7616SOL     OW23746   0.165   4.469   4.138
 7616SOL    HW123747   0.141   4.565   4.128
 7616SOL    HW223748   0.265   4.460   4.147
 7617SOL     OW23749   3.086   5.941   2.631
 7617SOL    HW123750   3.013   5.957   2.565
 7617SOL    HW223751   3.052   5.959   2.723
 7618SOL     OW23752   0.645   2.437   0.138
 7618SOL    HW123753   0.607   2.360   0.188
 7618SOL    HW223754   0.716   2.404   0.075
 7619SOL     OW23755   6.039   3.303   4.324
 7619SOL    HW123756   6.033   3.246   4.407
 7619SOL    HW223757   5.974   3.378   4.331
 7620SOL     OW23758   3.886   5.494   0.178
 7620SOL    HW123759   3.892   5.511   0.277
 7620SOL    HW223760   3.825   5.562   0.136
 7621SOL     OW23761   0.801   1.435   0.662
 7621SOL    HW123762   0.741   1.376   0.608
 7621SOL    HW223763   0.758   1.456   0.749
 7622SOL     OW23764   5.249   4.597   1.760
 7622SOL    HW123765   5.157   4.617   1.727
 7622SOL    HW223766   5.244   4.557   1.852
 7623SOL     OW23767   4.367   4.621   6.482
 7623SOL    HW123768   4.449   4.664   6.442
 7623SOL    HW223769   4.380   4.610   6.581
 7624SOL     OW23770   0.315   2.837   4.405
 7624SOL    HW123771   0.400   2.850   4.456
 7624SOL    HW223772   0.245   2.899   4.439
 7625SOL     OW23773   4.290   0.596   1.813
 7625SOL    HW123774   4.197   0.627   1.830
 7625SOL    HW223775   4.352   0.675   1.814
 7626SOL     OW23776   6.937   6.246   5.279
 7626SOL    HW123777   6.966   6.164   5.231
 7626SOL    HW223778   6.838   6.244   5.294
 7627SOL     OW23779   5.782   3.300   0.082
 7627SOL    HW123780   5.870   3.304   0.035
 7627SOL    HW223781   5.783   3.224   0.147
 7628SOL     OW23782   3.277   0.836   1.252
 7628SOL    HW123783   3.241   0.755   1.298
 7628SOL    HW223784   3.370   0.855   1.285
 7629SOL     OW23785   6.190   6.618   2.770
 7629SOL    HW123786   6.160   6.522   2.769
 7629SOL    HW223787   6.248   6.636   2.691
 7630SOL     OW23788   5.648   6.282   1.796
 7630SOL    HW123789   5.714   6.238   1.857
 7630SOL    HW223790   5.654   6.381   1.806
 7631SOL     OW23791   0.612   1.954   5.542
 7631SOL    HW123792   0.599   1.932   5.639
 7631SOL    HW223793   0.677   2.030   5.534
 7632SOL     OW23794   3.527   2.343   1.639
 7632SOL    HW123795   3.593   2.347   1.565
 7632SOL    HW223796   3.574   2.352   1.727
 7633SOL     OW23797   5.172   2.568   0.324
 7633SOL    HW123798   5.167   2.517   0.238
 7633SOL    HW223799   5.238   2.642   0.315
 7634SOL     OW23800   1.064   1.025   1.947
 7634SOL    HW123801   1.136   1.018   1.878
 7634SOL    HW223802   1.094   1.085   2.020
 7635SOL     OW23803   2.678   5.078   5.258
 7635SOL    HW123804   2.709   5.098   5.165
 7635SOL    HW223805   2.590   5.031   5.254
 7636SOL     OW23806   1.328   1.384   3.389
 7636SOL    HW123807   1.394   1.392   3.463
 7636SOL    HW223808   1.274   1.468   3.384
 7637SOL     OW23809   2.467   6.402   2.388
 7637SOL    HW123810   2.451   6.492   2.427
 7637SOL    HW223811   2.461   6.407   2.289
 7638SOL     OW23812   4.461   5.969   1.793
 7638SOL    HW123813   4.447   5.938   1.699
 7638SOL    HW223814   4.399   5.920   1.854
 7639SOL     OW23815   1.282   2.193   0.559
 7639SOL    HW123816   1.260   2.215   0.654
 7639SOL    HW223817   1.364   2.137   0.556
 7640SOL     OW23818   3.452   2.512   0.412
 7640SOL    HW123819   3.417   2.485   0.322
 7640SOL    HW223820   3.473   2.430   0.465
 7641SOL     OW23821   0.553   4.271   1.529
 7641SOL    HW123822   0.555   4.358   1.480
 7641SOL    HW223823   0.540   4.288   1.627
 7642SOL     OW23824   2.515   1.391   3.086
 7642SOL    HW123825   2.526   1.314   3.024
 7642SOL    HW223826   2.579   1.464   3.061
 7643SOL     OW23827   4.736   1.928   3.852
 7643SOL    HW123828   4.767   1.866   3.924
 7643SOL    HW223829   4.750   1.886   3.763
 7644SOL     OW23830   6.194   1.893   2.598
 7644SOL    HW123831   6.274   1.880   2.656
 7644SOL    HW223832   6.123   1.826   2.623
 7645SOL     OW23833   4.786   4.143   5.931
 7645SOL    HW123834   4.859   4.100   5.984
 7645SOL    HW223835   4.812   4.144   5.834
 7646SOL     OW23836   2.097   2.254   2.358
 7646SOL    HW123837   2.055   2.246   2.268
 7646SOL    HW223838   2.148   2.340   2.363
 7647SOL     OW23839   0.839   2.871   1.268
 7647SOL    HW123840   0.792   2.813   1.201
 7647SOL    HW223841   0.938   2.856   1.261
 7648SOL     OW23842   4.078   2.248   3.902
 7648SOL    HW123843   4.002   2.289   3.851
 7648SOL    HW223844   4.162   2.255   3.848
 7649SOL     OW23845   1.264   0.895   2.618
 7649SOL    HW123846   1.216   0.983   2.617
 7649SOL    HW223847   1.348   0.904   2.670
 7650SOL     OW23848   5.802   3.598   1.557
 7650SOL    HW123849   5.890   3.554   1.577
 7650SOL    HW223850   5.732   3.563   1.620
 7651SOL     OW23851   2.609   7.026   4.621
 7651SOL    HW123852   2.542   0.040   4.561
 7651SOL    HW223853   2.564   6.957   4.678
 7652SOL     OW23854   0.117   4.287   3.855
 7652SOL    HW123855   0.176   4.207   3.845
 7652SOL    HW223856   0.142   4.336   3.939
 7653SOL     OW23857   2.508   1.788   0.819
 7653SOL    HW123858   2.534   1.692   0.831
 7653SOL    HW223859   2.489   1.805   0.722
 7654SOL     OW23860   5.035   3.360   3.478
 7654SOL    HW123861   5.127   3.325   3.462
 7654SOL    HW223862   5.003   3.330   3.568
 7655SOL     OW23863   3.822   0.168   3.627
 7655SOL    HW123864   3.748   0.143   3.564
 7655SOL    HW223865   3.904   0.115   3.606
 7656SOL     OW23866   1.262   5.501   5.847
 7656SOL    HW123867   1.315   5.441   5.787
 7656SOL    HW223868   1.287   5.596   5.829
 7657SOL     OW23869   2.599   2.302   3.076
 7657SOL    HW123870   2.547   2.382   3.105
 7657SOL    HW223871   2.633   2.253   3.156
 7658SOL     OW23872   3.970   6.470   5.543
 7658SOL    HW123873   4.009   6.422   5.621
 7658SOL    HW223874   4.040   6.527   5.500
 7659SOL     OW23875   5.522   5.871   6.623
 7659SOL    HW123876   5.595   5.934   6.649
 7659SOL    HW223877   5.556   5.806   6.555
 7660SOL     OW23878   6.083   5.821   4.276
 7660SOL    HW123879   6.168   5.767   4.277
 7660SOL    HW223880   6.079   5.879   4.358
 7661SOL     OW23881   6.087   2.169   4.878
 7661SOL    HW123882   5.996   2.128   4.868
 7661SOL    HW223883   6.136   2.165   4.791
 7662SOL     OW23884   0.496   2.264   2.936
 7662SOL    HW123885   0.523   2.358   2.957
 7662SOL    HW223886   0.547   2.202   2.996
 7663SOL     OW23887   6.257   0.050   6.440
 7663SOL    HW123888   6.274   0.142   6.406
 7663SOL    HW223889   6.209   0.056   6.528
 7664SOL     OW23890   4.048   1.325   2.419
 7664SOL    HW123891   4.006   1.389   2.355
 7664SOL    HW223892   4.075   1.373   2.502
 7665SOL     OW23893   4.030   0.309   4.278
 7665SOL    HW123894   4.061   0.399   4.309
 7665SOL    HW223895   4.109   0.258   4.243
 7666SOL     OW23896   0.656   6.545   1.122
 7666SOL    HW123897   0.579   6.526   1.060
 7666SOL    HW223898   0.742   6.538   1.072
 7667SOL     OW23899   4.434   5.935   1.480
 7667SOL    HW123900   4.450   5.845   1.519
 7667SOL    HW223901   4.455   5.934   1.382
 7668SOL     OW23902   2.810   4.559   0.795
 7668SOL    HW123903   2.753   4.563   0.877
 7668SOL    HW223904   2.791   4.474   0.745
 7669SOL     OW23905   5.133   1.777   5.287
 7669SOL    HW123906   5.061   1.708   5.290
 7669SOL    HW223907   5.222   1.732   5.279
 7670SOL     OW23908   1.462   5.697   5.740
 7670SOL    HW123909   1.503   5.611   5.771
 7670SOL    HW223910   1.489   5.715   5.646
 7671SOL     OW23911   4.484   0.924   4.877
 7671SOL    HW123912   4.474   0.888   4.970
 7671SOL    HW223913   4.434   0.866   4.813
 7672SOL     OW23914   5.728   6.217   3.633
 7672SOL    HW123915   5.786   6.273   3.574
 7672SOL    HW223916   5.728   6.254   3.726
 7673SOL     OW23917   2.159   5.289   0.448
 7673SOL    HW123918   2.075   5.320   0.493
 7673SOL    HW223919   2.201   5.365   0.399
 7674SOL     OW23920   6.496   2.472   4.143
 7674SOL    HW123921   6.562   2.517   4.082
 7674SOL    HW223922   6.442   2.542   4.191
 7675SOL     OW23923   4.766   1.113   3.068
 7675SOL    HW123924   4.701   1.166   3.122
 7675SOL    HW223925   4.745   1.015   3.076
 7676SOL     OW23926   1.535   2.185   0.292
 7676SOL    HW123927   1.602   2.160   0.363
 7676SOL    HW223928   1.483   2.103   0.266
 7677SOL     OW23929   0.449   3.795   1.894
 7677SOL    HW123930   0.372   3.732   1.886
 7677SOL    HW223931   0.515   3.777   1.822
 7678SOL     OW23932   1.904   1.275   5.783
 7678SOL    HW123933   1.883   1.178   5.780
 7678SOL    HW223934   1.982   1.291   5.843
 7679SOL     OW23935   1.770   6.371   5.182
 7679SOL    HW123936   1.798   6.455   5.229
 7679SOL    HW223937   1.851   6.314   5.166
 7680SOL     OW23938   1.776   2.386   0.261
 7680SOL    HW123939   1.776   2.468   0.204
 7680SOL    HW223940   1.727   2.312   0.215
 7681SOL     OW23941   2.964   6.985   0.362
 7681SOL    HW123942   2.965   6.910   0.296
 7681SOL    HW223943   2.929   6.951   0.450
 7682SOL     OW23944   3.270   0.303   1.877
 7682SOL    HW123945   3.170   0.301   1.883
 7682SOL    HW223946   3.297   0.345   1.790
 7683SOL     OW23947   6.455   1.839   4.272
 7683SOL    HW123948   6.462   1.937   4.253
 7683SOL    HW223949   6.454   1.788   4.187
 7684SOL     OW23950   5.167   2.124   0.550
 7684SOL    HW123951   5.169   2.124   0.650
 7684SOL    HW223952   5.104   2.196   0.519
 7685SOL     OW23953   3.342   3.239   0.290
 7685SOL    HW123954   3.313   3.148   0.319
 7685SOL    HW223955   3.265   3.289   0.252
 7686SOL     OW23956   5.113   0.474   3.509
 7686SOL    HW123957   5.039   0.411   3.534
 7686SOL    HW223958   5.135   0.532   3.587
 7687SOL     OW23959   5.900   5.438   5.661
 7687SOL    HW123960   5.996   5.434   5.633
 7687SOL    HW223961   5.844   5.384   5.598
 7688SOL     OW23962   0.084   0.590   5.982
 7688SOL    HW123963   0.101   0.680   6.023
 7688SOL    HW223964   0.160   0.567   5.920
 7689SOL     OW23965   5.381   5.672   3.230
 7689SOL    HW123966   5.470   5.717   3.222
 7689SOL    HW223967   5.380   5.612   3.310
 7690SOL     OW23968   6.022   5.085   1.184
 7690SOL    HW123969   5.954   5.031   1.135
 7690SOL    HW223970   5.999   5.182   1.176
 7691SOL     OW23971   5.219   2.804   4.271
 7691SOL    HW123972   5.308   2.849   4.261
 7691SOL    HW223973   5.182   2.822   4.362
 7692SOL     OW23974   0.934   6.863   1.480
 7692SOL    HW123975   0.993   6.782   1.477
 7692SOL    HW223976   0.928   6.902   1.388
 7693SOL     OW23977   4.340   6.564   0.934
 7693SOL    HW123978   4.339   6.534   1.030
 7693SOL    HW223979   4.414   6.630   0.922
 7694SOL     OW23980   6.864   4.276   4.147
 7694SOL    HW123981   6.836   4.355   4.093
 7694SOL    HW223982   6.891   4.202   4.085
 7695SOL     OW23983   3.681   6.977   0.457
 7695SOL    HW123984   3.634   6.944   0.375
 7695SOL    HW223985   3.719   0.040   0.439
 7696SOL     OW23986   6.973   1.763   4.952
 7696SOL    HW123987   6.952   1.665   4.956
 7696SOL    HW223988   6.963   1.795   4.857
 7697SOL     OW23989   2.943   0.657   2.631
 7697SOL    HW123990   2.947   0.695   2.538
 7697SOL    HW223991   3.036   0.641   2.664
 7698SOL     OW23992   0.055   2.938   4.619
 7698SOL    HW123993   0.010   2.862   4.573
 7698SOL    HW223994   0.102   2.995   4.552
 7699SOL     OW23995   4.011   5.634   6.658
 7699SOL    HW123996   4.050   5.621   6.567
 7699SOL    HW223997   3.917   5.600   6.659
 7700SOL     OW23998   4.682   6.470   5.368
 7700SOL    HW123999   4.612   6.524   5.415
 7700SOL    HW224000   4.637   6.408   5.303
 7701SOL     OW24001   6.618   1.838   6.596
 7701SOL    HW124002   6.654   1.922   6.638
 7701SOL    HW224003   6.564   1.788   6.663
 7702SOL     OW24004   3.282   6.484   5.957
 7702SOL    HW124005   3.357   6.472   5.892
 7702SOL    HW224006   3.260   6.582   5.964
 7703SOL     OW24007   6.922   1.510   4.907
 7703SOL    HW124008   6.972   1.473   4.985
 7703SOL    HW224009   6.863   1.438   4.868
 7704SOL     OW24010   5.183   4.674   5.389
 7704SOL    HW124011   5.096   4.722   5.401
 7704SOL    HW224012   5.185   4.593   5.448
 7705SOL     OW24013   3.461   5.160   6.267
 7705SOL    HW124014   3.437   5.152   6.170
 7705SOL    HW224015   3.500   5.251   6.284
 7706SOL     OW24016   5.140   1.578   5.612
 7706SOL    HW124017   5.230   1.558   5.575
 7706SOL    HW224018   5.147   1.646   5.684
 7707SOL     OW24019   1.265   6.198   6.438
 7707SOL    HW124020   1.338   6.267   6.439
 7707SOL    HW224021   1.266   6.148   6.525
 7708SOL     OW24022   5.153   6.147   5.177
 7708SOL    HW124023   5.090   6.072   5.161
 7708SOL    HW224024   5.191   6.178   5.089
 7709SOL     OW24025   5.370   3.897   2.101
 7709SOL    HW124026   5.383   3.885   2.002
 7709SOL    HW224027   5.451   3.865   2.150
 7710SOL     OW24028   3.038   0.925   0.920
 7710SOL    HW124029   3.049   0.941   0.822
 7710SOL    HW224030   3.103   0.982   0.970
 7711SOL     OW24031   6.128   6.209   5.360
 7711SOL    HW124032   6.036   6.190   5.326
 7711SOL    HW224033   6.147   6.153   5.441
 7712SOL     OW24034   6.355   3.654   1.391
 7712SOL    HW124035   6.437   3.673   1.444
 7712SOL    HW224036   6.285   3.616   1.452
 7713SOL     OW24037   1.649   4.425   0.014
 7713SOL    HW124038   1.684   4.452   0.104
 7713SOL    HW224039   1.725   4.424   6.977
 7714SOL     OW24040   6.629   5.683   5.197
 7714SOL    HW124041   6.623   5.583   5.201
 7714SOL    HW224042   6.599   5.722   5.284
 7715SOL     OW24043   4.889   1.370   1.046
 7715SOL    HW124044   4.841   1.299   0.994
 7715SOL    HW224045   4.911   1.334   1.137
 7716SOL     OW24046   6.126   3.695   3.810
 7716SOL    HW124047   6.186   3.732   3.739
 7716SOL    HW224048   6.031   3.703   3.780
 7717SOL     OW24049   2.356   1.186   5.094
 7717SOL    HW124050   2.258   1.201   5.079
 7717SOL    HW224051   2.409   1.249   5.038
 7718SOL     OW24052   2.164   1.898   2.879
 7718SOL    HW124053   2.086   1.895   2.817
 7718SOL    HW224054   2.247   1.872   2.830
 7719SOL     OW24055   6.854   4.216   3.657
 7719SOL    HW124056   6.847   4.218   3.757
 7719SOL    HW224057   6.768   4.183   3.618
 7720SOL     OW24058   6.866   0.094   0.108
 7720SOL    HW124059   6.848   0.015   0.049
 7720SOL    HW224060   6.785   0.112   0.164
 7721SOL     OW24061   1.429   4.694   2.678
 7721SOL    HW124062   1.415   4.616   2.617
 7721SOL    HW224063   1.523   4.693   2.713
 7722SOL     OW24064   0.457   5.159   2.307
 7722SOL    HW124065   0.444   5.250   2.346
 7722SOL    HW224066   0.379   5.101   2.332
 7723SOL     OW24067   6.728   4.013   7.001
 7723SOL    HW124068   6.701   4.094   6.950
 7723SOL    HW224069   6.828   4.004   7.000
 7724SOL     OW24070   2.292   4.018   2.039
 7724SOL    HW124071   2.385   4.034   2.004
 7724SOL    HW224072   2.273   4.083   2.112
 7725SOL     OW24073   5.317   2.618   3.179
 7725SOL    HW124074   5.374   2.541   3.149
 7725SOL    HW224075   5.371   2.678   3.238
 7726SOL     OW24076   0.137   5.660   4.342
 7726SOL    HW124077   0.121   5.565   4.316
 7726SOL    HW224078   0.233   5.684   4.323
 7727SOL     OW24079   6.765   1.482   2.888
 7727SOL    HW124080   6.771   1.491   2.987
 7727SOL    HW224081   6.857   1.490   2.849
 7728SOL     OW24082   1.039   4.169   3.550
 7728SOL    HW124083   1.003   4.189   3.641
 7728SOL    HW224084   1.023   4.248   3.490
 7729SOL     OW24085   6.158   3.027   2.074
 7729SOL    HW124086   6.126   3.071   1.991
 7729SOL    HW224087   6.252   2.996   2.062
 7730SOL     OW24088   6.006   5.498   1.642
 7730SOL    HW124089   6.033   5.571   1.706
 7730SOL    HW224090   6.030   5.526   1.549
 7731SOL     OW24091   6.320   1.096   0.718
 7731SOL    HW124092   6.382   1.170   0.746
 7731SOL    HW224093   6.226   1.130   0.716
 7732SOL     OW24094   4.555   6.051   0.890
 7732SOL    HW124095   4.597   6.134   0.854
 7732SOL    HW224096   4.464   6.072   0.927
 7733SOL     OW24097   4.644   6.489   2.274
 7733SOL    HW124098   4.588   6.571   2.282
 7733SOL    HW224099   4.654   6.465   2.177
 7734SOL     OW24100   2.015   4.071   3.797
 7734SOL    HW124101   2.086   4.106   3.858
 7734SOL    HW224102   2.058   4.025   3.719
 7735SOL     OW24103   3.924   5.783   6.317
 7735SOL    HW124104   3.856   5.783   6.390
 7735SOL    HW224105   3.883   5.820   6.234
 7736SOL     OW24106   4.863   4.430   6.801
 7736SOL    HW124107   4.849   4.515   6.851
 7736SOL    HW224108   4.868   4.354   6.866
 7737SOL     OW24109   4.099   0.794   1.235
 7737SOL    HW124110   4.086   0.841   1.323
 7737SOL    HW224111   4.017   0.741   1.213
 7738SOL     OW24112   1.626   5.795   6.936
 7738SOL    HW124113   1.687   5.734   6.885
 7738SOL    HW224114   1.634   5.888   6.900
 7739SOL     OW24115   0.230   1.407   1.837
 7739SOL    HW124116   0.308   1.358   1.876
 7739SOL    HW224117   0.233   1.502   1.867
 7740SOL     OW24118   1.189   0.891   3.309
 7740SOL    HW124119   1.212   0.980   3.346
 7740SOL    HW224120   1.197   0.894   3.209
 7741SOL     OW24121   1.334   6.042   4.238
 7741SOL    HW124122   1.270   6.093   4.295
 7741SOL    HW224123   1.412   6.100   4.215
 7742SOL     OW24124   6.350   2.209   3.442
 7742SOL    HW124125   6.393   2.150   3.373
 7742SOL    HW224126   6.361   2.305   3.415
 7743SOL     OW24127   4.453   2.246   6.290
 7743SOL    HW124128   4.378   2.206   6.238
 7743SOL    HW224129   4.539   2.203   6.262
 7744SOL     OW24130   0.590   6.176   4.096
 7744SOL    HW124131   0.584   6.225   4.009
 7744SOL    HW224132   0.583   6.241   4.172
 7745SOL     OW24133   3.496   1.915   5.865
 7745SOL    HW124134   3.565   1.873   5.926
 7745SOL    HW224135   3.507   1.878   5.773
 7746SOL     OW24136   2.377   6.820   0.034
 7746SOL    HW124137   2.351   6.730   0.070
 7746SOL    HW224138   2.355   6.824   6.965
 7747SOL     OW24139   4.236   5.958   1.177
 7747SOL    HW124140   4.154   6.006   1.208
 7747SOL    HW224141   4.268   5.999   1.092
 7748SOL     OW24142   3.014   4.133   5.732
 7748SOL    HW124143   2.997   4.103   5.639
 7748SOL    HW224144   2.953   4.209   5.754
 7749SOL     OW24145   3.649   3.566   6.151
 7749SOL    HW124146   3.593   3.580   6.070
 7749SOL    HW224147   3.622   3.481   6.196
 7750SOL     OW24148   0.038   6.038   1.538
 7750SOL    HW124149   0.082   6.125   1.518
 7750SOL    HW224150   0.094   5.963   1.501
 7751SOL     OW24151   1.382   1.300   2.568
 7751SOL    HW124152   1.385   1.343   2.657
 7751SOL    HW224153   1.449   1.225   2.565
 7752SOL     OW24154   5.035   0.172   5.354
 7752SOL    HW124155   4.962   0.141   5.293
 7752SOL    HW224156   5.106   0.218   5.300
 7753SOL     OW24157   2.190   1.440   4.917
 7753SOL    HW124158   2.253   1.487   4.855
 7753SOL    HW224159   2.136   1.507   4.968
 7754SOL     OW24160   3.620   6.160   1.461
 7754SOL    HW124161   3.563   6.191   1.384
 7754SOL    HW224162   3.695   6.225   1.475
 7755SOL     OW24163   1.097   3.139   6.212
 7755SOL    HW124164   1.073   3.097   6.124
 7755SOL    HW224165   1.079   3.074   6.285
 7756SOL     OW24166   3.480   6.102   1.691
 7756SOL    HW124167   3.546   6.124   1.619
 7756SOL    HW224168   3.430   6.019   1.666
 7757SOL     OW24169   6.886   4.585   1.425
 7757SOL    HW124170   6.893   4.486   1.442
 7757SOL    HW224171   6.833   4.628   1.498
 7758SOL     OW24172   1.701   6.512   6.413
 7758SOL    HW124173   1.642   6.449   6.362
 7758SOL    HW224174   1.745   6.575   6.349
 7759SOL     OW24175   3.172   2.268   5.946
 7759SOL    HW124176   3.216   2.189   5.989
 7759SOL    HW224177   3.090   2.293   5.996
 7760SOL     OW24178   5.081   2.057   2.144
 7760SOL    HW124179   5.151   2.106   2.092
 7760SOL    HW224180   5.100   2.066   2.242
 7761SOL     OW24181   5.873   6.194   4.621
 7761SOL    HW124182   5.877   6.132   4.699
 7761SOL    HW224183   5.802   6.164   4.557
 7762SOL     OW24184   1.788   0.763   3.635
 7762SOL    HW124185   1.693   0.789   3.647
 7762SOL    HW224186   1.811   0.763   3.537
 7763SOL     OW24187   2.319   6.909   5.340
 7763SOL    HW124188   2.329   6.841   5.412
 7763SOL    HW224189   2.381   6.985   5.357
 7764SOL     OW24190   2.901   4.591   5.808
 7764SOL    HW124191   2.894   4.491   5.809
 7764SOL    HW224192   2.948   4.620   5.725
 7765SOL     OW24193   6.550   3.387   4.497
 7765SOL    HW124194   6.569   3.452   4.571
 7765SOL    HW224195   6.552   3.435   4.410
 7766SOL     OW24196   0.596   4.247   6.858
 7766SOL    HW124197   0.551   4.333   6.834
 7766SOL    HW224198   0.650   4.215   6.780
 7767SOL     OW24199   4.644   6.843   2.530
 7767SOL    HW124200   4.710   6.769   2.538
 7767SOL    HW224201   4.689   6.924   2.491
 7768SOL     OW24202   4.776   4.205   3.411
 7768SOL    HW124203   4.841   4.128   3.409
 7768SOL    HW224204   4.745   4.220   3.505
 7769SOL     OW24205   3.781   1.707   5.153
 7769SOL    HW124206   3.732   1.746   5.074
 7769SOL    HW224207   3.879   1.718   5.140
 7770SOL     OW24208   6.910   3.597   4.707
 7770SOL    HW124209   6.963   3.675   4.673
 7770SOL    HW224210   6.941   3.514   4.662
 7771SOL     OW24211   2.704   2.114   6.456
 7771SOL    HW124212   2.756   2.114   6.541
 7771SOL    HW224213   2.652   2.028   6.448
 7772SOL     OW24214   4.785   1.174   0.911
 7772SOL    HW124215   4.752   1.110   0.980
 7772SOL    HW224216   4.718   1.179   0.836
 7773SOL     OW24217   2.104   5.950   6.299
 7773SOL    HW124218   2.198   5.943   6.334
 7773SOL    HW224219   2.077   6.046   6.295
 7774SOL     OW24220   4.825   2.314   4.376
 7774SOL    HW124221   4.787   2.276   4.292
 7774SOL    HW224222   4.883   2.392   4.355
 7775SOL     OW24223   3.799   0.389   6.968
 7775SOL    HW124224   3.886   0.375   7.015
 7775SOL    HW224225   3.807   0.465   6.903
 7776SOL     OW24226   0.178   6.577   6.123
 7776SOL    HW124227   0.248   6.648   6.136
 7776SOL    HW224228   0.087   6.619   6.125
 7777SOL     OW24229   6.286   5.475   4.845
 7777SOL    HW124230   6.365   5.420   4.820
 7777SOL    HW224231   6.228   5.488   4.765
 7778SOL     OW24232   5.991   4.192   2.518
 7778SOL    HW124233   5.936   4.213   2.437
 7778SOL    HW224234   5.987   4.094   2.537
 7779SOL     OW24235   3.602   0.483   3.001
 7779SOL    HW124236   3.595   0.463   2.903
 7779SOL    HW224237   3.518   0.525   3.033
 7780SOL     OW24238   6.966   6.157   5.963
 7780SOL    HW124239   6.867   6.169   5.973
 7780SOL    HW224240   7.009   6.246   5.952
 7781SOL     OW24241   1.552   4.054   0.251
 7781SOL    HW124242   1.622   4.059   0.180
 7781SOL    HW224243   1.506   4.142   0.258
 7782SOL     OW24244   5.768   4.784   3.418
 7782SOL    HW124245   5.763   4.725   3.338
 7782SOL    HW224246   5.733   4.736   3.498
 7783SOL     OW24247   0.458   6.840   5.760
 7783SOL    HW124248   0.359   6.827   5.762
 7783SOL    HW224249   0.489   6.844   5.665
 7784SOL     OW24250   2.818   2.429   1.638
 7784SOL    HW124251   2.761   2.347   1.628
 7784SOL    HW224252   2.858   2.430   1.730
 7785SOL     OW24253   1.366   6.566   3.590
 7785SOL    HW124254   1.384   6.648   3.646
 7785SOL    HW224255   1.415   6.574   3.503
 7786SOL     OW24256   4.505   1.290   6.808
 7786SOL    HW124257   4.495   1.234   6.890
 7786SOL    HW224258   4.533   1.232   6.732
 7787SOL     OW24259   2.427   2.993   0.980
 7787SOL    HW124260   2.335   2.957   0.994
 7787SOL    HW224261   2.421   3.087   0.947
 7788SOL     OW24262   1.437   6.481   2.059
 7788SOL    HW124263   1.466   6.403   2.113
 7788SOL    HW224264   1.516   6.537   2.036
 7789SOL     OW24265   3.246   7.022   6.241
 7789SOL    HW124266   3.300   7.004   6.158
 7789SOL    HW224267   3.181   0.068   6.223
 7790SOL     OW24268   6.342   4.819   2.464
 7790SOL    HW124269   6.334   4.904   2.517
 7790SOL    HW224270   6.414   4.762   2.504
 7791SOL     OW24271   2.096   5.578   1.658
 7791SOL    HW124272   2.094   5.569   1.757
 7791SOL    HW224273   2.121   5.672   1.633
 7792SOL     OW24274   0.670   0.832   2.671
 7792SOL    HW124275   0.679   0.744   2.718
 7792SOL    HW224276   0.616   0.819   2.588
 7793SOL     OW24277   5.045   1.042   6.312
 7793SOL    HW124278   5.062   0.960   6.367
 7793SOL    HW224279   5.087   1.032   6.222
 7794SOL     OW24280   0.345   5.533   2.011
 7794SOL    HW124281   0.291   5.475   2.071
 7794SOL    HW224282   0.292   5.614   1.986
 7795SOL     OW24283   3.310   5.563   5.590
 7795SOL    HW124284   3.227   5.510   5.574
 7795SOL    HW224285   3.290   5.637   5.654
 7796SOL     OW24286   3.949   3.654   5.855
 7796SOL    HW124287   3.980   3.675   5.762
 7796SOL    HW224288   3.851   3.635   5.854
 7797SOL     OW24289   1.362   5.196   1.711
 7797SOL    HW124290   1.327   5.111   1.752
 7797SOL    HW224291   1.457   5.183   1.683
 7798SOL     OW24292   1.154   1.190   2.135
 7798SOL    HW124293   1.164   1.219   2.230
 7798SOL    HW224294   1.144   1.270   2.077
 7799SOL     OW24295   2.982   5.946   2.884
 7799SOL    HW124296   2.934   5.864   2.916
 7799SOL    HW224297   3.028   5.990   2.961
 7800SOL     OW24298   0.640   5.934   1.927
 7800SOL    HW124299   0.586   5.877   1.988
 7800SOL    HW224300   0.582   6.006   1.889
 7801SOL     OW24301   1.959   1.844   2.698
 7801SOL    HW124302   1.957   1.900   2.615
 7801SOL    HW224303   1.866   1.822   2.725
 7802SOL     OW24304   6.786   4.721   6.595
 7802SOL    HW124305   6.864   4.746   6.652
 7802SOL    HW224306   6.815   4.708   6.501
 7803SOL     OW24307   5.335   2.142   6.990
 7803SOL    HW124308   5.390   2.224   6.976
 7803SOL    HW224309   5.275   2.128   6.911
 7804SOL     OW24310   3.327   1.655   4.237
 7804SOL    HW124311   3.390   1.720   4.280
 7804SOL    HW224312   3.233   1.685   4.253
 7805SOL     OW24313   5.028   3.073   2.051
 7805SOL    HW124314   5.043   2.983   2.093
 7805SOL    HW224315   4.972   3.062   1.969
 7806SOL     OW24316   6.493   2.330   6.325
 7806SOL    HW124317   6.449   2.255   6.276
 7806SOL    HW224318   6.423   2.391   6.363
 7807SOL     OW24319   1.322   4.473   6.145
 7807SOL    HW124320   1.285   4.382   6.164
 7807SOL    HW224321   1.400   4.491   6.205
 7808SOL     OW24322   4.508   4.427   2.341
 7808SOL    HW124323   4.447   4.484   2.286
 7808SOL    HW224324   4.575   4.485   2.388
 7809SOL     OW24325   4.779   5.414   5.002
 7809SOL    HW124326   4.878   5.423   5.009
 7809SOL    HW224327   4.735   5.482   5.061
 7810SOL     OW24328   3.696   0.251   4.587
 7810SOL    HW124329   3.729   0.159   4.606
 7810SOL    HW224330   3.646   0.286   4.666
 7811SOL     OW24331   1.328   5.723   2.944
 7811SOL    HW124332   1.360   5.658   2.875
 7811SOL    HW224333   1.391   5.722   3.022
 7812SOL     OW24334   2.409   3.288   5.329
 7812SOL    HW124335   2.483   3.355   5.338
 7812SOL    HW224336   2.440   3.212   5.273
 7813SOL     OW24337   4.679   2.816   1.377
 7813SOL    HW124338   4.706   2.892   1.436
 7813SOL    HW224339   4.717   2.731   1.414
 7814SOL     OW24340   6.777   3.355   2.786
 7814SOL    HW124341   6.750   3.295   2.862
 7814SOL    HW224342   6.875   3.375   2.792
 7815SOL     OW24343   5.527   2.064   5.288
 7815SOL    HW124344   5.492   2.157   5.276
 7815SOL    HW224345   5.461   2.009   5.339
 7816SOL     OW24346   7.022   1.500   5.884
 7816SOL    HW124347   0.078   1.477   5.835
 7816SOL    HW224348   0.009   1.487   5.982
 7817SOL     OW24349   3.954   3.944   5.681
 7817SOL    HW124350   4.009   4.024   5.656
 7817SOL    HW224351   3.998   3.862   5.646
 7818SOL     OW24352   4.686   1.495   2.389
 7818SOL    HW124353   4.625   1.420   2.414
 7818SOL    HW224354   4.652   1.539   2.305
 7819SOL     OW24355   0.452   3.793   4.363
 7819SOL    HW124356   0.378   3.781   4.296
 7819SOL    HW224357   0.415   3.835   4.445
 7820SOL     OW24358   1.860   1.049   5.487
 7820SOL    HW124359   1.793   1.122   5.471
 7820SOL    HW224360   1.877   1.040   5.585
 7821SOL     OW24361   5.940   5.786   0.724
 7821SOL    HW124362   5.899   5.698   0.751
 7821SOL    HW224363   5.922   5.802   0.627
 7822SOL     OW24364   0.890   1.636   5.957
 7822SOL    HW124365   0.817   1.704   5.951
 7822SOL    HW224366   0.873   1.576   6.034
 7823SOL     OW24367   1.265   4.222   6.250
 7823SOL    HW124368   1.340   4.190   6.191
 7823SOL    HW224369   1.294   4.218   6.345
 7824SOL     OW24370   5.764   0.773   4.352
 7824SOL    HW124371   5.746   0.675   4.338
 7824SOL    HW224372   5.775   0.791   4.449
 7825SOL     OW24373   2.361   2.827   1.774
 7825SOL    HW124374   2.290   2.814   1.705
 7825SOL    HW224375   2.320   2.867   1.856
 7826SOL     OW24376   5.578   1.661   0.001
 7826SOL    HW124377   5.670   1.630   7.005
 7826SOL    HW224378   5.510   1.601   6.987
 7827SOL     OW24379   3.780   4.573   1.375
 7827SOL    HW124380   3.847   4.537   1.310
 7827SOL    HW224381   3.688   4.554   1.341
 7828SOL     OW24382   0.838   5.622   0.665
 7828SOL    HW124383   0.839   5.699   0.729
 7828SOL    HW224384   0.890   5.546   0.704
 7829SOL     OW24385   2.660   3.459   1.223
 7829SOL    HW124386   2.743   3.515   1.219
 7829SOL    HW224387   2.597   3.497   1.291
 7830SOL     OW24388   5.880   3.959   6.003
 7830SOL    HW124389   5.959   3.987   5.949
 7830SOL    HW224390   5.839   3.877   5.961
 7831SOL     OW24391   1.033   4.423   6.899
 7831SOL    HW124392   1.048   4.483   6.978
 7831SOL    HW224393   1.069   4.467   6.817
 7832SOL     OW24394   3.110   1.374   5.007
 7832SOL    HW124395   3.090   1.442   4.936
 7832SOL    HW224396   3.123   1.284   4.965
 7833SOL     OW24397   1.141   0.664   0.768
 7833SOL    HW124398   1.168   0.710   0.684
 7833SOL    HW224399   1.090   0.728   0.826
 7834SOL     OW24400   0.069   1.452   2.330
 7834SOL    HW124401   0.037   1.441   2.236
 7834SOL    HW224402   0.142   1.387   2.348
 7835SOL     OW24403   2.383   2.770   4.652
 7835SOL    HW124404   2.434   2.698   4.606
 7835SOL    HW224405   2.294   2.781   4.609
 7836SOL     OW24406   2.931   0.559   6.721
 7836SOL    HW124407   3.024   0.526   6.733
 7836SOL    HW224408   2.909   0.625   6.793
 7837SOL     OW24409   5.895   6.594   1.752
 7837SOL    HW124410   5.798   6.574   1.737
 7837SOL    HW224411   5.907   6.692   1.767
 7838SOL     OW24412   4.630   6.439   5.740
 7838SOL    HW124413   4.701   6.471   5.803
 7838SOL    HW224414   4.540   6.463   5.776
 7839SOL     OW24415   6.358   4.285   4.560
 7839SOL    HW124416   6.398   4.274   4.469
 7839SOL    HW224417   6.404   4.224   4.624
 7840SOL     OW24418   4.654   2.519   4.143
 7840SOL    HW124419   4.674   2.598   4.201
 7840SOL    HW224420   4.735   2.462   4.134
 7841SOL     OW24421   5.202   2.187   6.428
 7841SOL    HW124422   5.246   2.207   6.340
 7841SOL    HW224423   5.139   2.261   6.451
 7842SOL     OW24424   1.037   1.054   3.541
 7842SOL    HW124425   1.075   0.962   3.531
 7842SOL    HW224426   1.006   1.088   3.453
 7843SOL     OW24427   5.795   4.087   1.558
 7843SOL    HW124428   5.787   4.013   1.490
 7843SOL    HW224429   5.818   4.172   1.512
 7844SOL     OW24430   4.350   0.788   3.881
 7844SOL    HW124431   4.383   0.706   3.835
 7844SOL    HW224432   4.258   0.771   3.917
 7845SOL     OW24433   0.985   0.976   3.865
 7845SOL    HW124434   0.945   1.066   3.847
 7845SOL    HW224435   0.924   0.905   3.831
 7846SOL     OW24436   2.572   0.862   1.365
 7846SOL    HW124437   2.474   0.884   1.368
 7846SOL    HW224438   2.625   0.940   1.400
 7847SOL     OW24439   0.425   1.261   0.886
 7847SOL    HW124440   0.367   1.329   0.841
 7847SOL    HW224441   0.408   1.171   0.846
 7848SOL     OW24442   3.380   4.408   0.833
 7848SOL    HW124443   3.375   4.331   0.897
 7848SOL    HW224444   3.303   4.404   0.770
 7849SOL     OW24445   5.240   3.498   3.822
 7849SOL    HW124446   5.332   3.461   3.805
 7849SOL    HW224447   5.248   3.589   3.862
 7850SOL     OW24448   0.224   0.991   3.863
 7850SOL    HW124449   0.192   0.959   3.952
 7850SOL    HW224450   0.323   0.979   3.857
 7851SOL     OW24451   6.324   6.520   0.458
 7851SOL    HW124452   6.328   6.613   0.495
 7851SOL    HW224453   6.398   6.466   0.496
 7852SOL     OW24454   2.929   6.615   6.634
 7852SOL    HW124455   2.941   6.617   6.733
 7852SOL    HW224456   2.851   6.671   6.609
 7853SOL     OW24457   3.406   1.695   0.264
 7853SOL    HW124458   3.345   1.664   0.191
 7853SOL    HW224459   3.442   1.785   0.242
 7854SOL     OW24460   3.681   3.854   0.909
 7854SOL    HW124461   3.596   3.892   0.873
 7854SOL    HW224462   3.660   3.780   0.973
 7855SOL     OW24463   4.523   5.994   6.332
 7855SOL    HW124464   4.517   6.094   6.327
 7855SOL    HW224465   4.446   5.960   6.387
 7856SOL     OW24466   6.170   4.574   4.253
 7856SOL    HW124467   6.215   4.513   4.188
 7856SOL    HW224468   6.163   4.666   4.214
 7857SOL     OW24469   6.670   2.508   5.927
 7857SOL    HW124470   6.615   2.442   5.876
 7857SOL    HW224471   6.746   2.461   5.971
 7858SOL     OW24472   5.104   4.657   3.285
 7858SOL    HW124473   5.052   4.695   3.362
 7858SOL    HW224474   5.200   4.682   3.294
 7859SOL     OW24475   0.289   3.798   6.124
 7859SOL    HW124476   0.331   3.857   6.056
 7859SOL    HW224477   0.251   3.853   6.198
 7860SOL     OW24478   3.882   6.368   2.725
 7860SOL    HW124479   3.889   6.446   2.787
 7860SOL    HW224480   3.797   6.319   2.743
 7861SOL     OW24481   4.349   5.356   1.698
 7861SOL    HW124482   4.424   5.344   1.632
 7861SOL    HW224483   4.380   5.328   1.789
 7862SOL     OW24484   2.975   4.290   1.735
 7862SOL    HW124485   2.966   4.363   1.802
 7862SOL    HW224486   2.919   4.311   1.655
 7863SOL     OW24487   6.523   5.865   3.246
 7863SOL    HW124488   6.585   5.911   3.183
 7863SOL    HW224489   6.500   5.775   3.211
 7864SOL     OW24490   6.998   6.051   5.655
 7864SOL    HW124491   6.911   6.097   5.671
 7864SOL    HW224492   0.019   6.041   5.742
 7865SOL     OW24493   4.437   6.848   4.030
 7865SOL    HW124494   4.349   6.812   4.000
 7865SOL    HW224495   4.469   6.916   3.964
 7866SOL     OW24496   2.496   1.557   2.276
 7866SOL    HW124497   2.498   1.558   2.176
 7866SOL    HW224498   2.583   1.523   2.312
 7867SOL     OW24499   5.416   5.216   2.337
 7867SOL    HW124500   5.341   5.234   2.273
 7867SOL    HW224501   5.397   5.132   2.388
 7868SOL     OW24502   4.993   6.874   2.203
 7868SOL    HW124503   4.971   6.784   2.167
 7868SOL    HW224504   4.964   6.944   2.138
 7869SOL     OW24505   6.363   3.840   0.969
 7869SOL    HW124506   6.271   3.836   0.931
 7869SOL    HW224507   6.360   3.876   1.062
 7870SOL     OW24508   6.034   5.199   3.359
 7870SOL    HW124509   5.950   5.145   3.360
 7870SOL    HW224510   6.056   5.228   3.452
 7871SOL     OW24511   5.491   4.093   3.304
 7871SOL    HW124512   5.433   4.022   3.264
 7871SOL    HW224513   5.544   4.138   3.232
 7872SOL     OW24514   1.020   4.555   2.041
 7872SOL    HW124515   0.993   4.587   2.132
 7872SOL    HW224516   1.096   4.491   2.050
 7873SOL     OW24517   6.677   0.539   5.542
 7873SOL    HW124518   6.621   0.602   5.595
 7873SOL    HW224519   6.743   0.493   5.602
 7874SOL     OW24520   6.488   1.357   6.653
 7874SOL    HW124521   6.398   1.401   6.647
 7874SOL    HW224522   6.559   1.426   6.639
 7875SOL     OW24523   4.639   4.113   6.715
 7875SOL    HW124524   4.550   4.086   6.681
 7875SOL    HW224525   4.698   4.033   6.724
 7876SOL     OW24526   6.683   0.306   4.668
 7876SOL    HW124527   6.657   0.257   4.751
 7876SOL    HW224528   6.694   0.241   4.593
 7877SOL     OW24529   0.367   2.699   2.419
 7877SOL    HW124530   0.271   2.674   2.410
 7877SOL    HW224531   0.399   2.676   2.511
 7878SOL     OW24532   4.980   4.574   3.019
 7878SOL    HW124533   5.006   4.575   3.116
 7878SOL    HW224534   4.888   4.536   3.010
 7879SOL     OW24535   4.558   5.720   3.213
 7879SOL    HW124536   4.491   5.702   3.285
 7879SOL    HW224537   4.516   5.706   3.124
 7880SOL     OW24538   0.144   6.263   0.662
 7880SOL    HW124539   0.052   6.283   0.629
 7880SOL    HW224540   0.199   6.224   0.588
 7881SOL     OW24541   0.159   3.791   4.699
 7881SOL    HW124542   0.146   3.825   4.792
 7881SOL    HW224543   0.238   3.836   4.657
 7882SOL     OW24544   1.832   2.148   2.388
 7882SOL    HW124545   1.796   2.164   2.480
 7882SOL    HW224546   1.927   2.178   2.382
 7883SOL     OW24547   2.055   0.734   1.553
 7883SOL    HW124548   2.086   0.667   1.620
 7883SOL    HW224549   1.961   0.760   1.574
 7884SOL     OW24550   1.319   4.493   3.339
 7884SOL    HW124551   1.358   4.461   3.425
 7884SOL    HW224552   1.388   4.484   3.266
 7885SOL     OW24553   5.754   5.588   2.980
 7885SOL    HW124554   5.727   5.679   3.012
 7885SOL    HW224555   5.678   5.524   2.989
 7886SOL     OW24556   6.095   3.998   1.369
 7886SOL    HW124557   6.025   4.036   1.308
 7886SOL    HW224558   6.052   3.934   1.433
 7887SOL     OW24559   3.329   2.862   5.222
 7887SOL    HW124560   3.240   2.901   5.247
 7887SOL    HW224561   3.360   2.800   5.294
 7888SOL     OW24562   0.205   1.303   4.283
 7888SOL    HW124563   0.142   1.333   4.211
 7888SOL    HW224564   0.297   1.298   4.246
 7889SOL     OW24565   0.427   5.436   6.657
 7889SOL    HW124566   0.390   5.528   6.671
 7889SOL    HW224567   0.352   5.373   6.640
 7890SOL     OW24568   1.404   2.738   4.027
 7890SOL    HW124569   1.497   2.738   4.064
 7890SOL    HW224570   1.342   2.779   4.093
 7891SOL     OW24571   0.931   3.017   4.154
 7891SOL    HW124572   1.010   3.036   4.212
 7891SOL    HW224573   0.859   2.974   4.208
 7892SOL     OW24574   1.344   1.979   4.075
 7892SOL    HW124575   1.295   1.920   4.140
 7892SOL    HW224576   1.279   2.030   4.020
 7893SOL     OW24577   5.534   6.134   1.599
 7893SOL    HW124578   5.552   6.171   1.689
 7893SOL    HW224579   5.526   6.035   1.604
 7894SOL     OW24580   2.400   1.414   0.629
 7894SOL    HW124581   2.442   1.468   0.557
 7894SOL    HW224582   2.470   1.359   0.675
 7895SOL     OW24583   3.615   6.193   4.359
 7895SOL    HW124584   3.568   6.120   4.408
 7895SOL    HW224585   3.671   6.154   4.286
 7896SOL     OW24586   5.052   3.166   1.399
 7896SOL    HW124587   5.026   3.206   1.312
 7896SOL    HW224588   5.147   3.189   1.420
 7897SOL     OW24589   3.604   3.592   6.755
 7897SOL    HW124590   3.622   3.587   6.656
 7897SOL    HW224591   3.578   3.686   6.779
 7898SOL     OW24592   4.717   0.040   4.175
 7898SOL    HW124593   4.726   7.000   4.248
 7898SOL    HW224594   4.686   7.023   4.091
 7899SOL     OW24595   5.204   6.520   1.945
 7899SOL    HW124596   5.297   6.503   1.914
 7899SOL    HW224597   5.141   6.512   1.867
 7900SOL     OW24598   0.748   3.622   0.709
 7900SOL    HW124599   0.681   3.548   0.714
 7900SOL    HW224600   0.782   3.630   0.615
 7901SOL     OW24601   5.465   1.425   5.990
 7901SOL    HW124602   5.398   1.494   6.020
 7901SOL    HW224603   5.420   1.361   5.927
 7902SOL     OW24604   0.029   6.348   3.327
 7902SOL    HW124605   0.036   6.435   3.375
 7902SOL    HW224606   7.023   6.362   3.234
 7903SOL     OW24607   4.232   1.686   3.789
 7903SOL    HW124608   4.154   1.746   3.779
 7903SOL    HW224609   4.308   1.720   3.733
 7904SOL     OW24610   6.047   0.005   3.418
 7904SOL    HW124611   6.007   0.087   3.459
 7904SOL    HW224612   5.987   7.000   3.345
 7905SOL     OW24613   5.485   1.063   0.483
 7905SOL    HW124614   5.390   1.081   0.507
 7905SOL    HW224615   5.541   1.144   0.502
 7906SOL     OW24616   1.070   5.171   1.069
 7906SOL    HW124617   1.013   5.234   1.016
 7906SOL    HW224618   1.156   5.215   1.093
 7907SOL     OW24619   6.320   0.914   3.002
 7907SOL    HW124620   6.309   1.012   3.018
 7907SOL    HW224621   6.323   0.896   2.904
 7908SOL     OW24622   1.041   2.197   6.443
 7908SOL    HW124623   1.095   2.152   6.515
 7908SOL    HW224624   1.079   2.287   6.423
 7909SOL     OW24625   5.144   4.293   3.142
 7909SOL    HW124626   5.200   4.235   3.084
 7909SOL    HW224627   5.051   4.257   3.145
 7910SOL     OW24628   1.579   2.983   1.422
 7910SOL    HW124629   1.543   2.954   1.333
 7910SOL    HW224630   1.591   3.082   1.422
 7911SOL     OW24631   0.801   3.919   1.513
 7911SOL    HW124632   0.860   3.893   1.436
 7911SOL    HW224633   0.775   4.015   1.504
 7912SOL     OW24634   5.248   4.864   0.591
 7912SOL    HW124635   5.233   4.889   0.686
 7912SOL    HW224636   5.232   4.766   0.579
 7913SOL     OW24637   1.709   4.248   1.057
 7913SOL    HW124638   1.764   4.233   0.975
 7913SOL    HW224639   1.737   4.333   1.101
 7914SOL     OW24640   0.229   5.210   6.834
 7914SOL    HW124641   0.268   5.275   6.899
 7914SOL    HW224642   0.303   5.158   6.790
 7915SOL     OW24643   4.172   1.113   2.981
 7915SOL    HW124644   4.097   1.150   2.926
 7915SOL    HW224645   4.241   1.074   2.920
 7916SOL     OW24646   0.902   0.556   4.772
 7916SOL    HW124647   0.993   0.593   4.791
 7916SOL    HW224648   0.872   0.501   4.850
 7917SOL     OW24649   3.954   2.584   5.861
 7917SOL    HW124650   3.937   2.584   5.763
 7917SOL    HW224651   4.053   2.580   5.877
 7918SOL     OW24652   0.862   1.614   5.292
 7918SOL    HW124653   0.835   1.570   5.206
 7918SOL    HW224654   0.959   1.600   5.307
 7919SOL     OW24655   1.164   5.040   2.633
 7919SOL    HW124656   1.133   4.962   2.687
 7919SOL    HW224657   1.264   5.037   2.624
 7920SOL     OW24658   4.879   1.090   2.124
 7920SOL    HW124659   4.929   1.009   2.092
 7920SOL    HW224660   4.782   1.068   2.129
 7921SOL     OW24661   5.926   1.061   1.498
 7921SOL    HW124662   5.870   1.037   1.418
 7921SOL    HW224663   5.974   0.979   1.530
 7922SOL     OW24664   0.663   6.340   6.642
 7922SOL    HW124665   0.585   6.363   6.583
 7922SOL    HW224666   0.649   6.382   6.732
 7923SOL     OW24667   3.170   2.522   6.831
 7923SOL    HW124668   3.120   2.458   6.890
 7923SOL    HW224669   3.244   2.473   6.785
 7924SOL     OW24670   5.002   6.591   1.180
 7924SOL    HW124671   5.066   6.546   1.243
 7924SOL    HW224672   4.920   6.618   1.230
 7925SOL     OW24673   1.725   6.383   0.908
 7925SOL    HW124674   1.759   6.395   1.001
 7925SOL    HW224675   1.722   6.471   0.861
 7926SOL     OW24676   5.665   1.427   6.576
 7926SOL    HW124677   5.598   1.371   6.527
 7926SOL    HW224678   5.752   1.377   6.581
 7927SOL     OW24679   5.222   0.164   1.766
 7927SOL    HW124680   5.277   0.109   1.703
 7927SOL    HW224681   5.178   0.105   1.833
 7928SOL     OW24682   6.890   1.132   3.328
 7928SOL    HW124683   6.950   1.066   3.284
 7928SOL    HW224684   6.812   1.151   3.269
 7929SOL     OW24685   4.681   3.821   6.242
 7929SOL    HW124686   4.675   3.858   6.149
 7929SOL    HW224687   4.600   3.849   6.294
 7930SOL     OW24688   3.199   5.386   6.132
 7930SOL    HW124689   3.173   5.393   6.228
 7930SOL    HW224690   3.136   5.441   6.077
 7931SOL     OW24691   3.472   2.874   0.583
 7931SOL    HW124692   3.394   2.814   0.598
 7931SOL    HW224693   3.525   2.842   0.505
 7932SOL     OW24694   0.312   4.880   1.373
 7932SOL    HW124695   0.271   4.833   1.295
 7932SOL    HW224696   0.280   4.837   1.458
 7933SOL     OW24697   6.731   0.849   5.846
 7933SOL    HW124698   6.781   0.781   5.900
 7933SOL    HW224699   6.658   0.804   5.795
 7934SOL     OW24700   1.317   4.930   0.482
 7934SOL    HW124701   1.319   4.907   0.385
 7934SOL    HW224702   1.343   4.849   0.535
 7935SOL     OW24703   4.800   4.439   2.674
 7935SOL    HW124704   4.837   4.513   2.618
 7935SOL    HW224705   4.707   4.462   2.702
 7936SOL     OW24706   3.203   5.684   3.166
 7936SOL    HW124707   3.239   5.769   3.205
 7936SOL    HW224708   3.258   5.657   3.088
 7937SOL     OW24709   2.130   5.135   3.859
 7937SOL    HW124710   2.130   5.235   3.850
 7937SOL    HW224711   2.116   5.111   3.955
 7938SOL     OW24712   5.213   6.640   5.123
 7938SOL    HW124713   5.141   6.642   5.054
 7938SOL    HW224714   5.287   6.701   5.096
 7939SOL     OW24715   0.257   1.883   5.770
 7939SOL    HW124716   0.305   1.958   5.723
 7939SOL    HW224717   0.319   1.804   5.778
 7940SOL     OW24718   3.579   1.690   2.240
 7940SOL    HW124719   3.483   1.717   2.239
 7940SOL    HW224720   3.622   1.723   2.323
 7941SOL     OW24721   4.766   6.566   3.323
 7941SOL    HW124722   4.744   6.536   3.230
 7941SOL    HW224723   4.717   6.509   3.388
 7942SOL     OW24724   0.513   2.541   3.034
 7942SOL    HW124725   0.464   2.480   3.096
 7942SOL    HW224726   0.539   2.625   3.082
 7943SOL     OW24727   1.043   4.593   5.666
 7943SOL    HW124728   1.068   4.518   5.605
 7943SOL    HW224729   1.103   4.593   5.746
 7944SOL     OW24730   0.532   2.344   1.624
 7944SOL    HW124731   0.503   2.430   1.667
 7944SOL    HW224732   0.504   2.267   1.681
 7945SOL     OW24733   6.288   5.086   2.536
 7945SOL    HW124734   6.251   5.126   2.620
 7945SOL    HW224735   6.238   5.119   2.457
 7946SOL     OW24736   3.930   6.969   6.120
 7946SOL    HW124737   3.903   6.873   6.126
 7946SOL    HW224738   3.888   7.010   6.039
 7947SOL     OW24739   2.419   1.899   5.230
 7947SOL    HW124740   2.342   1.853   5.186
 7947SOL    HW224741   2.443   1.981   5.178
 7948SOL     OW24742   1.100   4.859   1.261
 7948SOL    HW124743   1.009   4.889   1.235
 7948SOL    HW224744   1.148   4.825   1.180
 7949SOL     OW24745   4.339   3.993   5.874
 7949SOL    HW124746   4.418   4.031   5.922
 7949SOL    HW224747   4.264   3.980   5.940
 7950SOL     OW24748   5.248   6.317   4.843
 7950SOL    HW124749   5.308   6.272   4.909
 7950SOL    HW224750   5.230   6.255   4.766
 7951SOL     OW24751   2.046   4.970   2.786
 7951SOL    HW124752   1.997   4.916   2.717
 7951SOL    HW224753   1.999   5.057   2.799
 7952SOL     OW24754   6.788   3.366   6.958
 7952SOL    HW124755   6.782   3.305   0.009
 7952SOL    HW224756   6.872   3.346   6.907
 7953SOL     OW24757   4.755   2.135   1.830
 7953SOL    HW124758   4.744   2.131   1.731
 7953SOL    HW224759   4.688   2.074   1.873
 7954SOL     OW24760   4.212   3.719   6.343
 7954SOL    HW124761   4.139   3.745   6.280
 7954SOL    HW224762   4.174   3.662   6.416
 7955SOL     OW24763   2.417   1.736   6.467
 7955SOL    HW124764   2.394   1.707   6.374
 7955SOL    HW224765   2.335   1.734   6.523
 7956SOL     OW24766   6.052   1.481   1.787
 7956SOL    HW124767   6.120   1.490   1.861
 7956SOL    HW224768   6.056   1.389   1.749
 7957SOL     OW24769   3.424   0.842   6.143
 7957SOL    HW124770   3.458   0.907   6.075
 7957SOL    HW224771   3.334   0.810   6.116
 7958SOL     OW24772   5.356   4.199   6.099
 7958SOL    HW124773   5.395   4.189   6.008
 7958SOL    HW224774   5.355   4.296   6.125
 7959SOL     OW24775   5.396   0.727   6.422
 7959SOL    HW124776   5.415   0.807   6.479
 7959SOL    HW224777   5.329   0.669   6.467
 7960SOL     OW24778   0.811   1.529   6.193
 7960SOL    HW124779   0.810   1.523   6.292
 7960SOL    HW224780   0.824   1.438   6.154
 7961SOL     OW24781   6.450   0.036   0.703
 7961SOL    HW124782   6.366   0.052   0.651
 7961SOL    HW224783   6.529   0.054   0.645
 7962SOL     OW24784   7.007   1.783   5.786
 7962SOL    HW124785   0.072   1.817   5.799
 7962SOL    HW224786   6.993   1.701   5.841
 7963SOL     OW24787   6.778   5.418   3.847
 7963SOL    HW124788   6.679   5.425   3.838
 7963SOL    HW224789   6.801   5.382   3.938
 7964SOL     OW24790   6.558   2.494   1.754
 7964SOL    HW124791   6.491   2.513   1.682
 7964SOL    HW224792   6.619   2.420   1.725
 7965SOL     OW24793   3.725   2.327   6.446
 7965SOL    HW124794   3.758   2.291   6.359
 7965SOL    HW224795   3.737   2.426   6.447
 7966SOL     OW24796   3.786   3.884   6.022
 7966SOL    HW124797   3.850   3.823   5.974
 7966SOL    HW224798   3.832   3.969   6.044
 7967SOL     OW24799   2.265   5.171   2.246
 7967SOL    HW124800   2.261   5.265   2.282
 7967SOL    HW224801   2.274   5.107   2.322
 7968SOL     OW24802   5.962   2.192   5.351
 7968SOL    HW124803   5.916   2.273   5.387
 7968SOL    HW224804   5.903   2.146   5.285
 7969SOL     OW24805   5.103   6.051   0.333
 7969SOL    HW124806   5.058   6.136   0.362
 7969SOL    HW224807   5.200   6.069   0.317
 7970SOL     OW24808   6.064   2.718   2.768
 7970SOL    HW124809   6.079   2.804   2.818
 7970SOL    HW224810   6.000   2.734   2.693
 7971SOL     OW24811   2.912   0.887   1.668
 7971SOL    HW124812   2.858   0.823   1.613
 7971SOL    HW224813   2.982   0.930   1.611
 7972SOL     OW24814   3.524   4.211   1.530
 7972SOL    HW124815   3.450   4.147   1.550
 7972SOL    HW224816   3.564   4.244   1.616
 7973SOL     OW24817   5.524   4.278   4.661
 7973SOL    HW124818   5.472   4.300   4.579
 7973SOL    HW224819   5.462   4.254   4.735
 7974SOL     OW24820   5.957   0.615   5.138
 7974SOL    HW124821   6.039   0.567   5.172
 7974SOL    HW224822   5.914   0.664   5.214
 7975SOL     OW24823   4.623   0.641   0.626
 7975SOL    HW124824   4.530   0.643   0.589
 7975SOL    HW224825   4.686   0.606   0.557
 7976SOL     OW24826   0.976   0.024   5.723
 7976SOL    HW124827   0.883   0.046   5.693
 7976SOL    HW224828   0.971   6.988   5.800
 7977SOL     OW24829   5.335   6.045   1.858
 7977SOL    HW124830   5.263   5.975   1.863
 7977SOL    HW224831   5.424   6.000   1.849
 7978SOL     OW24832   0.512   2.959   6.392
 7978SOL    HW124833   0.492   2.939   6.488
 7978SOL    HW224834   0.595   3.014   6.387
 7979SOL     OW24835   1.980   4.267   5.840
 7979SOL    HW124836   1.919   4.337   5.804
 7979SOL    HW224837   2.032   4.226   5.766
 7980SOL     OW24838   2.874   5.780   6.388
 7980SOL    HW124839   2.924   5.737   6.463
 7980SOL    HW224840   2.853   5.711   6.318
 7981SOL     OW24841   0.984   4.953   1.847
 7981SOL    HW124842   0.995   4.858   1.817
 7981SOL    HW224843   0.928   5.003   1.781
 7982SOL     OW24844   1.590   1.720   6.265
 7982SOL    HW124845   1.558   1.805   6.307
 7982SOL    HW224846   1.586   1.728   6.165
 7983SOL     OW24847   6.314   1.081   1.355
 7983SOL    HW124848   6.251   1.116   1.425
 7983SOL    HW224849   6.402   1.128   1.362
 7984SOL     OW24850   0.818   1.707   0.612
 7984SOL    HW124851   0.913   1.729   0.589
 7984SOL    HW224852   0.811   1.610   0.632
 7985SOL     OW24853   2.156   2.255   4.365
 7985SOL    HW124854   2.191   2.331   4.311
 7985SOL    HW224855   2.186   2.266   4.460
 7986SOL     OW24856   3.767   0.916   5.406
 7986SOL    HW124857   3.784   0.912   5.308
 7986SOL    HW224858   3.669   0.928   5.422
 7987SOL     OW24859   2.277   3.559   0.774
 7987SOL    HW124860   2.309   3.578   0.867
 7987SOL    HW224861   2.181   3.532   0.776
 7988SOL     OW24862   0.707   1.315   1.855
 7988SOL    HW124863   0.800   1.310   1.818
 7988SOL    HW224864   0.641   1.303   1.780
 7989SOL     OW24865   1.872   4.032   0.332
 7989SOL    HW124866   1.865   4.130   0.349
 7989SOL    HW224867   1.813   4.007   0.255
 7990SOL     OW24868   2.572   5.758   4.421
 7990SOL    HW124869   2.543   5.688   4.355
 7990SOL    HW224870   2.568   5.848   4.378
 7991SOL     OW24871   5.751   1.337   4.467
 7991SOL    HW124872   5.816   1.391   4.414
 7991SOL    HW224873   5.791   1.248   4.489
 7992SOL     OW24874   1.911   0.281   0.101
 7992SOL    HW124875   1.968   0.225   0.162
 7992SOL    HW224876   1.931   0.257   0.006
 7993SOL     OW24877   0.496   0.163   1.269
 7993SOL    HW124878   0.471   0.072   1.300
 7993SOL    HW224879   0.529   0.217   1.347
 7994SOL     OW24880   5.074   0.631   3.028
 7994SOL    HW124881   5.107   0.604   3.118
 7994SOL    HW224882   5.119   0.717   3.000
 7995SOL     OW24883   5.470   4.793   3.065
 7995SOL    HW124884   5.533   4.804   2.988
 7995SOL    HW224885   5.463   4.697   3.090
 7996SOL     OW24886   4.183   6.626   4.038
 7996SOL    HW124887   4.114   6.685   4.080
 7996SOL    HW224888   4.206   6.552   4.101
 7997SOL     OW24889   0.231   1.773   0.353
 7997SOL    HW124890   0.192   1.747   0.441
 7997SOL    HW224891   0.301   1.843   0.366
 7998SOL     OW24892   2.942   6.250   6.842
 7998SOL    HW124893   2.910   6.205   6.758
 7998SOL    HW224894   3.012   6.318   6.819
 7999SOL     OW24895   1.291   1.750   5.993
 7999SOL    HW124896   1.255   1.783   5.906
 7999SOL    HW224897   1.391   1.750   5.990
 8000SOL     OW24898   5.853   0.078   6.313
 8000SOL    HW124899   5.849   0.030   6.225
 8000SOL    HW224900   5.806   0.023   6.382
 8001SOL     OW24901   4.373   6.204   1.490
 8001SOL    HW124902   4.440   6.258   1.540
 8001SOL    HW224903   4.398   6.107   1.496
 8002SOL     OW24904   0.855   1.464   5.571
 8002SOL    HW124905   0.871   1.505   5.482
 8002SOL    HW224906   0.757   1.451   5.585
 8003SOL     OW24907   1.642   5.966   1.808
 8003SOL    HW124908   1.722   5.908   1.819
 8003SOL    HW224909   1.560   5.909   1.807
 8004SOL     OW24910   1.707   3.248   3.312
 8004SOL    HW124911   1.702   3.245   3.412
 8004SOL    HW224912   1.702   3.343   3.281
 8005SOL     OW24913   2.929   0.491   3.250
 8005SOL    HW124914   2.858   0.549   3.290
 8005SOL    HW224915   2.890   0.403   3.222
 8006SOL     OW24916   2.523   5.663   5.382
 8006SOL    HW124917   2.593   5.645   5.313
 8006SOL    HW224918   2.477   5.750   5.360
 8007SOL     OW24919   5.654   2.448   6.065
 8007SOL    HW124920   5.638   2.408   6.155
 8007SOL    HW224921   5.688   2.542   6.076
 8008SOL     OW24922   3.400   5.641   7.016
 8008SOL    HW124923   3.485   5.590   7.000
 8008SOL    HW224924   3.374   5.632   0.084
 8009SOL     OW24925   4.527   1.432   0.412
 8009SOL    HW124926   4.491   1.461   0.501
 8009SOL    HW224927   4.476   1.478   0.340
 8010SOL     OW24928   2.925   2.286   5.235
 8010SOL    HW124929   2.998   2.271   5.168
 8010SOL    HW224930   2.965   2.307   5.324
 8011SOL     OW24931   3.408   2.087   1.560
 8011SOL    HW124932   3.424   2.037   1.645
 8011SOL    HW224933   3.424   2.184   1.574
 8012SOL     OW24934   0.983   2.958   6.037
 8012SOL    HW124935   1.019   2.879   6.086
 8012SOL    HW224936   0.918   2.928   5.968
 8013SOL     OW24937   1.270   3.460   3.781
 8013SOL    HW124938   1.305   3.377   3.823
 8013SOL    HW224939   1.232   3.438   3.691
 8014SOL     OW24940   1.908   0.449   4.345
 8014SOL    HW124941   1.832   0.385   4.332
 8014SOL    HW224942   1.894   0.500   4.430
 8015SOL     OW24943   1.902   0.232   6.007
 8015SOL    HW124944   1.937   0.163   6.071
 8015SOL    HW224945   1.822   0.195   5.959
 8016SOL     OW24946   3.906   1.375   5.430
 8016SOL    HW124947   3.838   1.399   5.361
 8016SOL    HW224948   3.888   1.282   5.462
 8017SOL     OW24949   6.754   0.043   6.622
 8017SOL    HW124950   6.847   0.082   6.619
 8017SOL    HW224951   6.698   0.097   6.684
 8018SOL     OW24952   3.717   2.596   6.457
 8018SOL    HW124953   3.679   2.687   6.475
 8018SOL    HW224954   3.724   2.581   6.358
 8019SOL     OW24955   1.915   4.039   1.007
 8019SOL    HW124956   1.903   3.943   1.031
 8019SOL    HW224957   1.854   4.096   1.063
 8020SOL     OW24958   6.334   0.800   6.053
 8020SOL    HW124959   6.309   0.736   6.126
 8020SOL    HW224960   6.382   0.879   6.093
 8021SOL     OW24961   1.770   2.810   1.228
 8021SOL    HW124962   1.709   2.799   1.150
 8021SOL    HW224963   1.745   2.743   1.299
 8022SOL     OW24964   5.915   0.430   1.708
 8022SOL    HW124965   5.939   0.334   1.722
 8022SOL    HW224966   5.988   0.488   1.744
 8023SOL     OW24967   5.947   5.099   2.578
 8023SOL    HW124968   5.948   5.005   2.612
 8023SOL    HW224969   5.884   5.106   2.500
 8024SOL     OW24970   1.144   5.565   5.585
 8024SOL    HW124971   1.163   5.507   5.664
 8024SOL    HW224972   1.050   5.551   5.555
 8025SOL     OW24973   1.984   4.910   1.139
 8025SOL    HW124974   1.990   5.007   1.115
 8025SOL    HW224975   1.888   4.883   1.147
 8026SOL     OW24976   0.025   4.226   1.139
 8026SOL    HW124977   7.021   4.320   1.154
 8026SOL    HW224978   7.026   4.196   1.049
 8027SOL     OW24979   3.227   6.519   5.335
 8027SOL    HW124980   3.142   6.557   5.373
 8027SOL    HW224981   3.282   6.480   5.408
 8028SOL     OW24982   2.717   5.726   4.699
 8028SOL    HW124983   2.661   5.765   4.772
 8028SOL    HW224984   2.675   5.745   4.610
 8029SOL     OW24985   5.023   2.483   2.091
 8029SOL    HW124986   4.994   2.513   2.000
 8029SOL    HW224987   5.107   2.531   2.116
 8030SOL     OW24988   6.316   5.328   0.393
 8030SOL    HW124989   6.317   5.427   0.401
 8030SOL    HW224990   6.370   5.288   0.467
 8031SOL     OW24991   6.649   6.481   2.668
 8031SOL    HW124992   6.639   6.464   2.766
 8031SOL    HW224993   6.588   6.555   2.641
 8032SOL     OW24994   5.460   3.756   1.372
 8032SOL    HW124995   5.464   3.673   1.315
 8032SOL    HW224996   5.445   3.730   1.467
 8033SOL     OW24997   4.854   3.490   0.246
 8033SOL    HW124998   4.870   3.397   0.277
 8033SOL    HW224999   4.864   3.495   0.147
 8034SOL     OW25000   5.859   0.032   6.014
 8034SOL    HW125001   5.853   0.043   5.915
 8034SOL    HW225002   5.861   6.963   6.037
 8035SOL     OW25003   4.792   1.365   2.071
 8035SOL    HW125004   4.842   1.279   2.058
 8035SOL    HW225005   4.705   1.345   2.117
 8036SOL     OW25006   6.915   3.523   3.754
 8036SOL    HW125007   6.976   3.444   3.766
 8036SOL    HW225008   6.821   3.491   3.743
 8037SOL     OW25009   1.851   3.290   6.798
 8037SOL    HW125010   1.803   3.332   6.875
 8037SOL    HW225011   1.939   3.253   6.831
 8038SOL     OW25012   4.928   6.485   2.294
 8038SOL    HW125013   4.829   6.489   2.287
 8038SOL    HW225014   4.954   6.414   2.360
 8039SOL     OW25015   0.259   2.614   4.653
 8039SOL    HW125016   0.281   2.546   4.723
 8039SOL    HW225017   0.343   2.661   4.624
 8040SOL     OW25018   2.112   6.225   0.022
 8040SOL    HW125019   2.055   6.225   6.968
 8040SOL    HW225020   2.072   6.286   0.090
 8041SOL     OW25021   3.051   0.958   2.797
 8041SOL    HW125022   3.076   0.869   2.837
 8041SOL    HW225023   3.123   1.025   2.819
 8042SOL     OW25024   4.429   4.213   5.484
 8042SOL    HW125025   4.519   4.231   5.523
 8042SOL    HW225026   4.390   4.131   5.526
 8043SOL     OW25027   3.774   4.265   0.130
 8043SOL    HW125028   3.793   4.182   0.183
 8043SOL    HW225029   3.827   4.341   0.169
 8044SOL     OW25030   3.511   3.435   0.751
 8044SOL    HW125031   3.426   3.397   0.788
 8044SOL    HW225032   3.515   3.533   0.770
 8045SOL     OW25033   6.732   2.155   2.743
 8045SOL    HW125034   6.821   2.169   2.785
 8045SOL    HW225035   6.670   2.112   2.808
 8046SOL     OW25036   0.722   4.859   2.208
 8046SOL    HW125037   0.661   4.786   2.178
 8046SOL    HW225038   0.677   4.947   2.197
 8047SOL     OW25039   4.399   6.542   6.754
 8047SOL    HW125040   4.392   6.605   6.676
 8047SOL    HW225041   4.324   6.476   6.750
 8048SOL     OW25042   3.200   2.795   6.779
 8048SOL    HW125043   3.128   2.847   6.826
 8048SOL    HW225044   3.186   2.697   6.793
 8049SOL     OW25045   0.916   6.725   0.014
 8049SOL    HW125046   0.907   6.804   0.075
 8049SOL    HW225047   1.013   6.711   7.021
 8050SOL     OW25048   2.088   3.092   4.382
 8050SOL    HW125049   2.029   3.153   4.329
 8050SOL    HW225050   2.066   3.102   4.479
 8051SOL     OW25051   4.723   5.874   4.602
 8051SOL    HW125052   4.626   5.895   4.613
 8051SOL    HW225053   4.738   5.836   4.511
 8052SOL     OW25054   2.408   2.061   1.628
 8052SOL    HW125055   2.444   1.967   1.630
 8052SOL    HW225056   2.403   2.097   1.721
 8053SOL     OW25057   3.075   2.860   5.351
 8053SOL    HW125058   3.031   2.780   5.391
 8053SOL    HW225059   3.088   2.929   5.422
 8054SOL     OW25060   6.262   3.852   4.659
 8054SOL    HW125061   6.207   3.884   4.583
 8054SOL    HW225062   6.203   3.833   4.738
 8055SOL     OW25063   6.886   0.892   5.587
 8055SOL    HW125064   6.801   0.839   5.583
 8055SOL    HW225065   6.946   0.864   5.512
 8056SOL     OW25066   3.423   6.916   3.586
 8056SOL    HW125067   3.473   6.833   3.563
 8056SOL    HW225068   3.448   6.989   3.523
 8057SOL     OW25069   2.970   2.134   2.496
 8057SOL    HW125070   2.907   2.061   2.522
 8057SOL    HW225071   3.049   2.135   2.558
 8058SOL     OW25072   3.393   6.551   2.953
 8058SOL    HW125073   3.414   6.473   3.012
 8058SOL    HW225074   3.471   6.571   2.894
 8059SOL     OW25075   3.280   0.776   5.689
 8059SOL    HW125076   3.199   0.731   5.728
 8059SOL    HW225077   3.252   0.832   5.611
 8060SOL     OW25078   0.299   1.979   6.206
 8060SOL    HW125079   0.234   1.970   6.130
 8060SOL    HW225080   0.279   1.909   6.275
 8061SOL     OW25081   0.497   0.493   2.557
 8061SOL    HW125082   0.469   0.527   2.467
 8061SOL    HW225083   0.453   0.405   2.575
 8062SOL     OW25084   3.882   5.538   5.211
 8062SOL    HW125085   3.843   5.614   5.264
 8062SOL    HW225086   3.819   5.460   5.213
 8063SOL     OW25087   2.693   1.099   3.310
 8063SOL    HW125088   2.656   1.050   3.389
 8063SOL    HW225089   2.666   1.051   3.226
 8064SOL     OW25090   6.231   2.744   0.442
 8064SOL    HW125091   6.301   2.771   0.377
 8064SOL    HW225092   6.272   2.728   0.532
 8065SOL     OW25093   3.340   6.593   4.267
 8065SOL    HW125094   3.362   6.690   4.268
 8065SOL    HW225095   3.400   6.544   4.330
 8066SOL     OW25096   6.463   0.016   4.494
 8066SOL    HW125097   6.380   0.016   4.550
 8066SOL    HW225098   6.543   0.022   4.552
 8067SOL     OW25099   4.714   2.262   3.495
 8067SOL    HW125100   4.677   2.170   3.505
 8067SOL    HW225101   4.759   2.271   3.406
 8068SOL     OW25102   0.430   4.556   0.966
 8068SOL    HW125103   0.525   4.580   0.989
 8068SOL    HW225104   0.417   4.457   0.979
 8069SOL     OW25105   2.232   4.970   2.031
 8069SOL    HW125106   2.221   4.927   2.121
 8069SOL    HW225107   2.227   5.069   2.041
 8070SOL     OW25108   4.156   2.652   0.406
 8070SOL    HW125109   4.142   2.723   0.337
 8070SOL    HW225110   4.182   2.695   0.493
 8071SOL     OW25111   3.273   6.488   5.018
 8071SOL    HW125112   3.235   6.489   4.925
 8071SOL    HW225113   3.247   6.403   5.064
 8072SOL     OW25114   3.238   2.169   0.745
 8072SOL    HW125115   3.312   2.125   0.794
 8072SOL    HW225116   3.172   2.207   0.810
 8073SOL     OW25117   2.523   5.406   5.162
 8073SOL    HW125118   2.463   5.348   5.217
 8073SOL    HW225119   2.473   5.489   5.135
 8074SOL     OW25120   2.612   1.113   1.157
 8074SOL    HW125121   2.617   1.213   1.156
 8074SOL    HW225122   2.699   1.074   1.128
 8075SOL     OW25123   0.357   0.389   0.281
 8075SOL    HW125124   0.392   0.383   0.188
 8075SOL    HW225125   0.262   0.421   0.279
 8076SOL     OW25126   6.729   0.485   5.278
 8076SOL    HW125127   6.710   0.531   5.365
 8076SOL    HW225128   6.827   0.466   5.270
 8077SOL     OW25129   4.105   6.404   2.601
 8077SOL    HW125130   4.113   6.362   2.510
 8077SOL    HW225131   4.016   6.380   2.640
 8078SOL     OW25132   0.896   1.658   1.095
 8078SOL    HW125133   0.876   1.561   1.108
 8078SOL    HW225134   0.812   1.705   1.065
 8079SOL     OW25135   6.733   1.672   3.705
 8079SOL    HW125136   6.800   1.687   3.632
 8079SOL    HW225137   6.749   1.583   3.748
 8080SOL     OW25138   1.038   2.630   2.368
 8080SOL    HW125139   0.973   2.582   2.427
 8080SOL    HW225140   1.112   2.568   2.343
 8081SOL     OW25141   6.245   5.508   6.101
 8081SOL    HW125142   6.339   5.536   6.080
 8081SOL    HW225143   6.182   5.549   6.035
 8082SOL     OW25144   3.520   0.742   2.244
 8082SOL    HW125145   3.445   0.703   2.299
 8082SOL    HW225146   3.523   0.695   2.156
 8083SOL     OW25147   5.020   2.487   4.153
 8083SOL    HW125148   5.014   2.568   4.094
 8083SOL    HW225149   5.048   2.408   4.099
 8084SOL     OW25150   2.543   0.690   6.602
 8084SOL    HW125151   2.608   0.719   6.532
 8084SOL    HW225152   2.452   0.727   6.581
 8085SOL     OW25153   6.258   5.954   2.950
 8085SOL    HW125154   6.314   5.886   2.902
 8085SOL    HW225155   6.161   5.938   2.929
 8086SOL     OW25156   0.382   1.309   1.161
 8086SOL    HW125157   0.410   1.270   1.074
 8086SOL    HW225158   0.284   1.328   1.159
 8087SOL     OW25159   1.841   0.630   6.376
 8087SOL    HW125160   1.886   0.580   6.450
 8087SOL    HW225161   1.752   0.588   6.357
 8088SOL     OW25162   5.956   0.598   0.212
 8088SOL    HW125163   5.900   0.574   0.292
 8088SOL    HW225164   5.902   0.656   0.151
 8089SOL     OW25165   5.887   3.099   6.847
 8089SOL    HW125166   5.801   3.139   6.814
 8089SOL    HW225167   5.925   3.038   6.777
 8090SOL     OW25168   3.683   1.008   6.421
 8090SOL    HW125169   3.685   0.948   6.342
 8090SOL    HW225170   3.731   0.965   6.497
 8091SOL     OW25171   1.441   3.985   5.304
 8091SOL    HW125172   1.368   3.922   5.332
 8091SOL    HW225173   1.513   3.984   5.372
 8092SOL     OW25174   4.782   2.054   5.338
 8092SOL    HW125175   4.708   2.071   5.274
 8092SOL    HW225176   4.793   1.955   5.351
 8093SOL     OW25177   2.687   5.605   3.417
 8093SOL    HW125178   2.667   5.520   3.465
 8093SOL    HW225179   2.753   5.587   3.343
 8094SOL     OW25180   0.467   3.068   5.271
 8094SOL    HW125181   0.482   3.167   5.278
 8094SOL    HW225182   0.379   3.045   5.311
 8095SOL     OW25183   0.870   4.226   4.966
 8095SOL    HW125184   0.894   4.323   4.963
 8095SOL    HW225185   0.870   4.188   4.873
 8096SOL     OW25186   2.247   0.867   2.385
 8096SOL    HW125187   2.332   0.814   2.390
 8096SOL    HW225188   2.234   0.902   2.293
 8097SOL     OW25189   4.166   7.006   4.375
 8097SOL    HW125190   4.201   6.912   4.382
 8097SOL    HW225191   4.193   0.017   4.288
 8098SOL     OW25192   2.609   6.297   3.865
 8098SOL    HW125193   2.540   6.282   3.794
 8098SOL    HW225194   2.605   6.392   3.896
 8099SOL     OW25195   4.659   6.541   4.610
 8099SOL    HW125196   4.613   6.580   4.530
 8099SOL    HW225197   4.592   6.492   4.666
 8100SOL     OW25198   6.732   1.331   6.982
 8100SOL    HW125199   6.760   1.408   6.924
 8100SOL    HW225200   6.693   1.259   6.925
 8101SOL     OW25201   1.483   5.872   0.758
 8101SOL    HW125202   1.576   5.851   0.729
 8101SOL    HW225203   1.471   5.971   0.765
 8102SOL     OW25204   0.757   4.053   3.160
 8102SOL    HW125205   0.677   4.059   3.218
 8102SOL    HW225206   0.740   3.988   3.086
 8103SOL     OW25207   3.825   0.372   2.004
 8103SOL    HW125208   3.864   0.461   1.983
 8103SOL    HW225209   3.895   0.301   1.992
 8104SOL     OW25210   1.480   0.660   6.223
 8104SOL    HW125211   1.560   0.657   6.163
 8104SOL    HW225212   1.427   0.743   6.204
 8105SOL     OW25213   6.934   2.712   2.318
 8105SOL    HW125214   6.979   2.658   2.248
 8105SOL    HW225215   6.988   2.793   2.339
 8106SOL     OW25216   2.668   6.331   3.160
 8106SOL    HW125217   2.757   6.338   3.204
 8106SOL    HW225218   2.596   6.343   3.229
 8107SOL     OW25219   1.430   5.806   4.117
 8107SOL    HW125220   1.376   5.870   4.171
 8107SOL    HW225221   1.419   5.714   4.154
 8108SOL     OW25222   6.948   2.431   6.659
 8108SOL    HW125223   6.982   2.520   6.630
 8108SOL    HW225224   6.853   2.421   6.631
 8109SOL     OW25225   0.257   3.590   6.587
 8109SOL    HW125226   0.192   3.608   6.514
 8109SOL    HW225227   0.331   3.533   6.553
 8110SOL     OW25228   3.819   5.264   2.056
 8110SOL    HW125229   3.739   5.206   2.069
 8110SOL    HW225230   3.902   5.207   2.049
 8111SOL     OW25231   5.159   1.027   4.415
 8111SOL    HW125232   5.201   1.019   4.325
 8111SOL    HW225233   5.154   1.123   4.442
 8112SOL     OW25234   2.466   2.508   4.509
 8112SOL    HW125235   2.367   2.508   4.526
 8112SOL    HW225236   2.514   2.491   4.595
 8113SOL     OW25237   6.825   3.479   0.786
 8113SOL    HW125238   6.894   3.492   0.858
 8113SOL    HW225239   6.858   3.412   0.720
 8114SOL     OW25240   1.843   3.766   2.456
 8114SOL    HW125241   1.764   3.769   2.394
 8114SOL    HW225242   1.910   3.700   2.422
 8115SOL     OW25243   2.923   6.478   6.331
 8115SOL    HW125244   2.890   6.438   6.246
 8115SOL    HW225245   3.018   6.449   6.347
 8116SOL     OW25246   4.055   4.634   7.006
 8116SOL    HW125247   4.003   4.671   0.055
 8116SOL    HW225248   4.000   4.638   6.923
 8117SOL     OW25249   1.763   0.287   3.081
 8117SOL    HW125250   1.862   0.274   3.083
 8117SOL    HW225251   1.740   0.372   3.034
 8118SOL     OW25252   5.490   3.842   5.791
 8118SOL    HW125253   5.588   3.832   5.808
 8118SOL    HW225254   5.475   3.910   5.720
 8119SOL     OW25255   5.428   6.488   6.349
 8119SOL    HW125256   5.376   6.447   6.424
 8119SOL    HW225257   5.447   6.584   6.370
 8120SOL     OW25258   3.119   4.752   1.011
 8120SOL    HW125259   3.142   4.848   0.998
 8120SOL    HW225260   3.030   4.744   1.056
 8121SOL     OW25261   0.706   4.493   1.395
 8121SOL    HW125262   0.747   4.459   1.311
 8121SOL    HW225263   0.662   4.581   1.377
 8122SOL     OW25264   0.660   4.714   2.787
 8122SOL    HW125265   0.609   4.689   2.869
 8122SOL    HW225266   0.664   4.636   2.725
 8123SOL     OW25267   0.208   1.792   6.861
 8123SOL    HW125268   0.265   1.866   6.827
 8123SOL    HW225269   0.227   1.708   6.810
 8124SOL     OW25270   5.410   5.780   2.801
 8124SOL    HW125271   5.475   5.855   2.796
 8124SOL    HW225272   5.395   5.754   2.896
 8125SOL     OW25273   1.294   1.128   3.317
 8125SOL    HW125274   1.287   1.226   3.338
 8125SOL    HW225275   1.385   1.108   3.281
 8126SOL     OW25276   5.358   4.740   3.336
 8126SOL    HW125277   5.378   4.773   3.428
 8126SOL    HW225278   5.423   4.780   3.271
 8127SOL     OW25279   2.964   3.219   6.422
 8127SOL    HW125280   2.911   3.141   6.390
 8127SOL    HW225281   2.924   3.303   6.385
 8128SOL     OW25282   3.019   2.150   2.121
 8128SOL    HW125283   3.042   2.184   2.212
 8128SOL    HW225284   2.975   2.223   2.068
 8129SOL     OW25285   3.877   1.781   6.450
 8129SOL    HW125286   3.842   1.717   6.382
 8129SOL    HW225287   3.804   1.807   6.513
 8130SOL     OW25288   0.866   5.544   6.647
 8130SOL    HW125289   0.845   5.458   6.692
 8130SOL    HW225290   0.963   5.565   6.657
 8131SOL     OW25291   3.022   1.618   1.763
 8131SOL    HW125292   3.025   1.717   1.754
 8131SOL    HW225293   3.011   1.576   1.673
 8132SOL     OW25294   5.628   6.788   5.040
 8132SOL    HW125295   5.697   6.861   5.047
 8132SOL    HW225296   5.538   6.825   5.064
 8133SOL     OW25297   3.238   5.180   2.603
 8133SOL    HW125298   3.314   5.115   2.611
 8133SOL    HW225299   3.266   5.267   2.645
 8134SOL     OW25300   0.305   1.780   6.389
 8134SOL    HW125301   0.323   1.757   6.484
 8134SOL    HW225302   0.364   1.727   6.329
 8135SOL     OW25303   2.468   0.895   1.710
 8135SOL    HW125304   2.515   0.980   1.735
 8135SOL    HW225305   2.434   0.903   1.616
 8136SOL     OW25306   4.993   5.474   2.234
 8136SOL    HW125307   4.954   5.478   2.142
 8136SOL    HW225308   4.953   5.546   2.291
 8137SOL     OW25309   2.989   0.668   4.736
 8137SOL    HW125310   3.016   0.738   4.670
 8137SOL    HW225311   3.002   0.577   4.695
 8138SOL     OW25312   5.338   1.180   1.529
 8138SOL    HW125313   5.325   1.144   1.437
 8138SOL    HW225314   5.357   1.278   1.524
 8139SOL     OW25315   0.239   1.155   1.543
 8139SOL    HW125316   0.181   1.218   1.491
 8139SOL    HW225317   0.332   1.159   1.507
 8140SOL     OW25318   5.571   0.137   6.019
 8140SOL    HW125319   5.602   0.044   6.040
 8140SOL    HW225320   5.548   0.143   5.922
 8141SOL     OW25321   4.422   5.262   6.053
 8141SOL    HW125322   4.401   5.337   6.115
 8141SOL    HW225323   4.445   5.298   5.963
 8142SOL     OW25324   6.629   5.283   0.724
 8142SOL    HW125325   6.680   5.324   0.648
 8142SOL    HW225326   6.638   5.341   0.805
 8143SOL     OW25327   6.697   4.380   0.330
 8143SOL    HW125328   6.707   4.280   0.335
 8143SOL    HW225329   6.760   4.422   0.395
 8144SOL     OW25330   5.932   6.110   6.797
 8144SOL    HW125331   6.006   6.042   6.791
 8144SOL    HW225332   5.972   6.201   6.803
 8145SOL     OW25333   5.317   6.106   1.349
 8145SOL    HW125334   5.270   6.020   1.329
 8145SOL    HW225335   5.415   6.094   1.337
 8146SOL     OW25336   3.533   1.083   5.239
 8146SOL    HW125337   3.533   1.045   5.332
 8146SOL    HW225338   3.510   1.180   5.242
 8147SOL     OW25339   5.961   2.559   3.339
 8147SOL    HW125340   5.938   2.612   3.420
 8147SOL    HW225341   5.926   2.466   3.349
 8148SOL     OW25342   5.439   4.195   2.007
 8148SOL    HW125343   5.418   4.216   1.912
 8148SOL    HW225344   5.427   4.097   2.022
 8149SOL     OW25345   2.332   5.650   2.157
 8149SOL    HW125346   2.414   5.626   2.210
 8149SOL    HW225347   2.253   5.654   2.217
 8150SOL     OW25348   0.345   5.345   0.020
 8150SOL    HW125349   0.365   5.334   0.118
 8150SOL    HW225350   0.389   5.428   7.015
 8151SOL     OW25351   6.660   2.358   2.480
 8151SOL    HW125352   6.562   2.376   2.471
 8151SOL    HW225353   6.677   2.313   2.568
 8152SOL     OW25354   0.745   2.357   2.745
 8152SOL    HW125355   0.645   2.354   2.741
 8152SOL    HW225356   0.774   2.419   2.817
 8153SOL     OW25357   3.881   0.521   3.008
 8153SOL    HW125358   3.936   0.498   3.088
 8153SOL    HW225359   3.785   0.529   3.036
 8154SOL     OW25360   2.838   6.228   3.617
 8154SOL    HW125361   2.917   6.200   3.672
 8154SOL    HW225362   2.762   6.249   3.678
 8155SOL     OW25363   2.613   3.379   1.742
 8155SOL    HW125364   2.586   3.332   1.658
 8155SOL    HW225365   2.535   3.379   1.806
 8156SOL     OW25366   5.226   6.839   6.290
 8156SOL    HW125367   5.262   6.866   6.201
 8156SOL    HW225368   5.136   6.881   6.303
 8157SOL     OW25369   6.000   5.598   6.194
 8157SOL    HW125370   6.090   5.554   6.195
 8157SOL    HW225371   5.944   5.557   6.122
 8158SOL     OW25372   0.327   5.639   0.832
 8158SOL    HW125373   0.310   5.563   0.894
 8158SOL    HW225374   0.241   5.669   0.791
 8159SOL     OW25375   2.891   6.009   2.455
 8159SOL    HW125376   2.861   5.962   2.373
 8159SOL    HW225377   2.850   6.101   2.458
 8160SOL     OW25378   4.452   1.803   1.613
 8160SOL    HW125379   4.471   1.743   1.535
 8160SOL    HW225380   4.473   1.897   1.589
 8161SOL     OW25381   5.051   0.940   0.662
 8161SOL    HW125382   4.951   0.939   0.670
 8161SOL    HW225383   5.088   0.855   0.699
 8162SOL     OW25384   6.314   6.958   6.216
 8162SOL    HW125385   6.290   7.009   6.299
 8162SOL    HW225386   6.250   6.981   6.143
 8163SOL     OW25387   2.157   4.132   5.689
 8163SOL    HW125388   2.131   4.048   5.737
 8163SOL    HW225389   2.257   4.141   5.689
 8164SOL     OW25390   5.764   3.834   0.646
 8164SOL    HW125391   5.820   3.912   0.677
 8164SOL    HW225392   5.781   3.816   0.549
 8165SOL     OW25393   1.211   4.570   0.059
 8165SOL    HW125394   1.165   4.631   0.123
 8165SOL    HW225395   1.286   4.619   0.014
 8166SOL     OW25396   2.566   1.272   2.158
 8166SOL    HW125397   2.478   1.306   2.125
 8166SOL    HW225398   2.640   1.309   2.102
 8167SOL     OW25399   5.615   1.277   4.218
 8167SOL    HW125400   5.681   1.270   4.292
 8167SOL    HW225401   5.628   1.364   4.170
 8168SOL     OW25402   3.318   1.215   2.561
 8168SOL    HW125403   3.277   1.193   2.650
 8168SOL    HW225404   3.398   1.273   2.576
 8169SOL     OW25405   4.716   3.105   1.098
 8169SOL    HW125406   4.814   3.101   1.081
 8169SOL    HW225407   4.667   3.100   1.011
 8170SOL     OW25408   1.751   5.875   3.106
 8170SOL    HW125409   1.705   5.964   3.099
 8170SOL    HW225410   1.850   5.889   3.111
 8171SOL     OW25411   0.868   1.812   6.665
 8171SOL    HW125412   0.867   1.877   6.742
 8171SOL    HW225413   0.961   1.805   6.629
 8172SOL     OW25414   0.469   0.627   1.407
 8172SOL    HW125415   0.485   0.540   1.453
 8172SOL    HW225416   0.549   0.651   1.351
 8173SOL     OW25417   3.504   2.276   0.597
 8173SOL    HW125418   3.474   2.345   0.663
 8173SOL    HW225419   3.598   2.250   0.617
 8174SOL     OW25420   5.164   1.602   1.315
 8174SOL    HW125421   5.238   1.665   1.292
 8174SOL    HW225422   5.107   1.642   1.386
 8175SOL     OW25423   0.402   2.896   6.156
 8175SOL    HW125424   0.434   2.920   6.248
 8175SOL    HW225425   0.413   2.974   6.095
 8176SOL     OW25426   2.988   5.986   2.096
 8176SOL    HW125427   2.908   5.929   2.112
 8176SOL    HW225428   2.961   6.071   2.051
 8177SOL     OW25429   1.412   6.005   3.920
 8177SOL    HW125430   1.379   5.944   3.991
 8177SOL    HW225431   1.385   6.099   3.940
 8178SOL     OW25432   1.495   0.169   6.509
 8178SOL    HW125433   1.410   0.213   6.479
 8178SOL    HW225434   1.487   0.143   6.605
 8179SOL     OW25435   3.583   3.303   0.464
 8179SOL    HW125436   3.538   3.286   0.552
 8179SOL    HW225437   3.533   3.256   0.391
 8180SOL     OW25438   6.174   0.125   3.704
 8180SOL    HW125439   6.206   0.038   3.666
 8180SOL    HW225440   6.154   0.114   3.801
 8181SOL     OW25441   2.324   1.442   2.900
 8181SOL    HW125442   2.336   1.403   2.992
 8181SOL    HW225443   2.324   1.369   2.832
 8182SOL     OW25444   3.615   1.730   6.747
 8182SOL    HW125445   3.706   1.770   6.761
 8182SOL    HW225446   3.625   1.648   6.691
 8183SOL     OW25447   0.445   2.815   5.203
 8183SOL    HW125448   0.488   2.892   5.251
 8183SOL    HW225449   0.422   2.843   5.110
 8184SOL     OW25450   5.941   1.455   5.991
 8184SOL    HW125451   5.900   1.542   6.016
 8184SOL    HW225452   5.875   1.401   5.938
 8185SOL     OW25453   2.781   0.482   0.453
 8185SOL    HW125454   2.718   0.414   0.490
 8185SOL    HW225455   2.787   0.559   0.516
 8186SOL     OW25456   3.149   6.283   6.106
 8186SOL    HW125457   3.180   6.246   6.193
 8186SOL    HW225458   3.173   6.380   6.101
 8187SOL     OW25459   1.491   2.004   4.987
 8187SOL    HW125460   1.402   2.028   4.948
 8187SOL    HW225461   1.485   2.007   5.087
 8188SOL     OW25462   5.006   1.706   2.365
 8188SOL    HW125463   5.105   1.696   2.350
 8188SOL    HW225464   4.990   1.749   2.454
 8189SOL     OW25465   4.965   4.152   2.106
 8189SOL    HW125466   4.958   4.106   2.194
 8189SOL    HW225467   4.891   4.219   2.096
 8190SOL     OW25468   4.988   4.776   4.061
 8190SOL    HW125469   4.957   4.856   4.010
 8190SOL    HW225470   5.086   4.782   4.078
 8191SOL     OW25471   1.917   5.378   3.607
 8191SOL    HW125472   1.817   5.380   3.608
 8191SOL    HW225473   1.951   5.434   3.531
 8192SOL     OW25474   2.735   5.729   0.256
 8192SOL    HW125475   2.721   5.649   0.315
 8192SOL    HW225476   2.771   5.805   0.311
 8193SOL     OW25477   5.767   6.456   4.797
 8193SOL    HW125478   5.729   6.479   4.886
 8193SOL    HW225479   5.778   6.540   4.743
 8194SOL     OW25480   6.362   2.654   6.900
 8194SOL    HW125481   6.269   2.661   6.866
 8194SOL    HW225482   6.419   2.726   6.861
 8195SOL     OW25483   0.323   0.721   0.765
 8195SOL    HW125484   0.390   0.660   0.807
 8195SOL    HW225485   0.332   0.716   0.666
 8196SOL     OW25486   3.840   6.744   5.401
 8196SOL    HW125487   3.818   6.652   5.431
 8196SOL    HW225488   3.872   6.798   5.479
 8197SOL     OW25489   6.048   1.425   6.273
 8197SOL    HW125490   5.998   1.423   6.186
 8197SOL    HW225491   6.121   1.356   6.270
 8198SOL     OW25492   3.285   6.471   2.087
 8198SOL    HW125493   3.352   6.461   2.160
 8198SOL    HW225494   3.193   6.476   2.126
 8199SOL     OW25495   7.001   3.997   0.204
 8199SOL    HW125496   6.947   3.954   0.277
 8199SOL    HW225497   0.017   3.925   0.149
 8200SOL     OW25498   4.441   4.731   1.382
 8200SOL    HW125499   4.438   4.732   1.282
 8200SOL    HW225500   4.481   4.817   1.415
 8201SOL     OW25501   5.182   0.717   4.459
 8201SOL    HW125502   5.256   0.747   4.519
 8201SOL    HW225503   5.128   0.796   4.431
 8202SOL     OW25504   1.437   5.250   4.199
 8202SOL    HW125505   1.374   5.239   4.275
 8202SOL    HW225506   1.510   5.182   4.204
 8203SOL     OW25507   4.824   3.440   0.839
 8203SOL    HW125508   4.766   3.494   0.778
 8203SOL    HW225509   4.910   3.489   0.854
 8204SOL     OW25510   3.462   6.492   1.067
 8204SOL    HW125511   3.524   6.571   1.073
 8204SOL    HW225512   3.415   6.479   1.154
 8205SOL     OW25513   5.479   5.155   1.325
 8205SOL    HW125514   5.475   5.212   1.407
 8205SOL    HW225515   5.457   5.061   1.348
 8206SOL     OW25516   3.065   2.715   6.046
 8206SOL    HW125517   3.019   2.742   5.961
 8206SOL    HW225518   3.053   2.787   6.114
 8207SOL     OW25519   3.347   4.659   5.353
 8207SOL    HW125520   3.278   4.691   5.289
 8207SOL    HW225521   3.436   4.698   5.329
 8208SOL     OW25522   2.717   6.327   1.645
 8208SOL    HW125523   2.774   6.245   1.635
 8208SOL    HW225524   2.647   6.312   1.714
 8209SOL     OW25525   1.463   1.305   5.329
 8209SOL    HW125526   1.463   1.207   5.349
 8209SOL    HW225527   1.500   1.320   5.237
 8210SOL     OW25528   2.907   0.994   0.407
 8210SOL    HW125529   2.963   1.072   0.380
 8210SOL    HW225530   2.868   0.951   0.326
 8211SOL     OW25531   3.680   4.113   4.589
 8211SOL    HW125532   3.681   4.038   4.655
 8211SOL    HW225533   3.693   4.200   4.637
 8212SOL     OW25534   2.542   0.352   0.658
 8212SOL    HW125535   2.459   0.296   0.655
 8212SOL    HW225536   2.559   0.381   0.752
 8213SOL     OW25537   4.343   5.026   3.395
 8213SOL    HW125538   4.273   5.073   3.449
 8213SOL    HW225539   4.394   4.964   3.455
 8214SOL     OW25540   2.674   5.901   4.172
 8214SOL    HW125541   2.728   5.817   4.165
 8214SOL    HW225542   2.577   5.878   4.167
 8215SOL     OW25543   4.399   6.365   7.009
 8215SOL    HW125544   4.337   6.430   0.025
 8215SOL    HW225545   4.481   6.414   6.978
 8216SOL     OW25546   5.080   6.668   2.613
 8216SOL    HW125547   5.107   6.651   2.708
 8216SOL    HW225548   5.100   6.763   2.590
 8217SOL     OW25549   2.278   4.236   2.755
 8217SOL    HW125550   2.345   4.305   2.783
 8217SOL    HW225551   2.297   4.151   2.803
 8218SOL     OW25552   1.901   0.076   4.978
 8218SOL    HW125553   1.901   7.004   4.986
 8218SOL    HW225554   1.925   0.102   4.884
 8219SOL     OW25555   2.994   4.019   1.800
 8219SOL    HW125556   3.000   4.113   1.766
 8219SOL    HW225557   2.952   3.961   1.730
 8220SOL     OW25558   3.616   4.287   5.224
 8220SOL    HW125559   3.640   4.375   5.264
 8220SOL    HW225560   3.550   4.240   5.283
 8221SOL     OW25561   5.562   4.222   3.089
 8221SOL    HW125562   5.651   4.241   3.046
 8221SOL    HW225563   5.502   4.178   3.022
 8222SOL     OW25564   5.870   3.015   1.133
 8222SOL    HW125565   5.925   3.060   1.202
 8222SOL    HW225566   5.916   2.933   1.100
 8223SOL     OW25567   0.143   5.229   5.172
 8223SOL    HW125568   0.082   5.222   5.093
 8223SOL    HW225569   0.231   5.266   5.143
 8224SOL     OW25570   4.949   1.608   0.782
 8224SOL    HW125571   4.928   1.607   0.684
 8224SOL    HW225572   4.876   1.655   0.831
 8225SOL     OW25573   3.768   0.430   0.347
 8225SOL    HW125574   3.784   0.331   0.344
 8225SOL    HW225575   3.840   0.474   0.402
 8226SOL     OW25576   3.736   0.831   0.515
 8226SOL    HW125577   3.696   0.769   0.583
 8226SOL    HW225578   3.728   0.790   0.424
 8227SOL     OW25579   5.771   1.415   2.788
 8227SOL    HW125580   5.686   1.416   2.737
 8227SOL    HW225581   5.781   1.502   2.838
 8228SOL     OW25582   0.937   0.985   5.290
 8228SOL    HW125583   0.866   0.953   5.227
 8228SOL    HW225584   1.027   0.965   5.251
 8229SOL     OW25585   3.894   4.985   0.866
 8229SOL    HW125586   3.931   5.067   0.909
 8229SOL    HW225587   3.966   4.940   0.813
 8230SOL     OW25588   4.220   0.356   5.407
 8230SOL    HW125589   4.225   0.446   5.364
 8230SOL    HW225590   4.124   0.326   5.411
 8231SOL     OW25591   3.413   1.496   1.928
 8231SOL    HW125592   3.399   1.403   1.895
 8231SOL    HW225593   3.327   1.531   1.965
 8232SOL     OW25594   4.398   1.337   2.202
 8232SOL    HW125595   4.339   1.256   2.202
 8232SOL    HW225596   4.398   1.379   2.111
 8233SOL     OW25597   0.522   0.779   5.858
 8233SOL    HW125598   0.532   0.817   5.950
 8233SOL    HW225599   0.598   0.810   5.801
 8234SOL     OW25600   2.848   3.596   0.062
 8234SOL    HW125601   2.905   3.636   0.134
 8234SOL    HW225602   2.906   3.544   7.027
 8235SOL     OW25603   6.606   4.930   6.599
 8235SOL    HW125604   6.676   4.864   6.626
 8235SOL    HW225605   6.650   5.015   6.569
 8236SOL     OW25606   0.388   5.972   5.896
 8236SOL    HW125607   0.339   5.898   5.850
 8236SOL    HW225608   0.444   5.934   5.969
 8237SOL     OW25609   4.482   5.720   6.686
 8237SOL    HW125610   4.540   5.772   6.748
 8237SOL    HW225611   4.396   5.698   6.733
 8238SOL     OW25612   2.070   5.661   0.177
 8238SOL    HW125613   2.130   5.724   0.127
 8238SOL    HW225614   1.976   5.696   0.174
 8239SOL     OW25615   0.646   1.590   4.702
 8239SOL    HW125616   0.642   1.621   4.607
 8239SOL    HW225617   0.624   1.492   4.707
 8240SOL     OW25618   3.301   2.933   3.558
 8240SOL    HW125619   3.381   2.979   3.519
 8240SOL    HW225620   3.238   3.001   3.595
 8241SOL     OW25621   1.516   3.515   6.705
 8241SOL    HW125622   1.609   3.542   6.730
 8241SOL    HW225623   1.505   3.522   6.605
 8242SOL     OW25624   0.951   3.871   4.588
 8242SOL    HW125625   0.893   3.917   4.520
 8242SOL    HW225626   0.960   3.774   4.564
 8243SOL     OW25627   0.448   4.593   5.920
 8243SOL    HW125628   0.502   4.653   5.862
 8243SOL    HW225629   0.395   4.530   5.862
 8244SOL     OW25630   0.522   0.237   3.222
 8244SOL    HW125631   0.468   0.162   3.259
 8244SOL    HW225632   0.547   0.217   3.128
 8245SOL     OW25633   4.777   1.356   3.850
 8245SOL    HW125634   4.754   1.318   3.940
 8245SOL    HW225635   4.699   1.345   3.789
 8246SOL     OW25636   1.364   4.110   6.480
 8246SOL    HW125637   1.286   4.085   6.537
 8246SOL    HW225638   1.399   4.200   6.508
 8247SOL     OW25639   3.114   4.900   3.823
 8247SOL    HW125640   3.176   4.825   3.803
 8247SOL    HW225641   3.024   4.864   3.848
 8248SOL     OW25642   1.061   5.628   3.440
 8248SOL    HW125643   1.062   5.609   3.342
 8248SOL    HW225644   1.154   5.651   3.470
 8249SOL     OW25645   2.203   2.451   5.340
 8249SOL    HW125646   2.112   2.412   5.326
 8249SOL    HW225647   2.196   2.550   5.353
 8250SOL     OW25648   2.456   1.836   0.565
 8250SOL    HW125649   2.541   1.821   0.514
 8250SOL    HW225650   2.388   1.769   0.538
 8251SOL     OW25651   6.886   2.161   4.795
 8251SOL    HW125652   6.843   2.239   4.749
 8251SOL    HW225653   6.970   2.136   4.746
 8252SOL     OW25654   2.380   2.225   6.978
 8252SOL    HW125655   2.311   2.295   6.960
 8252SOL    HW225656   2.455   2.234   6.914
 8253SOL     OW25657   3.377   5.763   6.248
 8253SOL    HW125658   3.370   5.698   6.324
 8253SOL    HW225659   3.312   5.737   6.177
 8254SOL     OW25660   6.053   4.777   6.932
 8254SOL    HW125661   5.982   4.754   6.864
 8254SOL    HW225662   6.010   4.817   7.012
 8255SOL     OW25663   0.487   0.115   6.094
 8255SOL    HW125664   0.553   0.175   6.048
 8255SOL    HW225665   0.479   0.029   6.043
 8256SOL     OW25666   1.079   6.560   2.428
 8256SOL    HW125667   1.175   6.586   2.413
 8256SOL    HW225668   1.038   6.533   2.341
 8257SOL     OW25669   5.591   4.257   4.221
 8257SOL    HW125670   5.679   4.245   4.266
 8257SOL    HW225671   5.551   4.344   4.249
 8258SOL     OW25672   5.707   2.803   1.663
 8258SOL    HW125673   5.744   2.712   1.683
 8258SOL    HW225674   5.721   2.823   1.566
 8259SOL     OW25675   4.086   2.183   4.489
 8259SOL    HW125676   4.009   2.185   4.552
 8259SOL    HW225677   4.154   2.117   4.521
 8260SOL     OW25678   2.539   6.974   0.301
 8260SOL    HW125679   2.493   6.919   0.371
 8260SOL    HW225680   2.558   6.917   0.221
 8261SOL     OW25681   5.791   5.904   2.915
 8261SOL    HW125682   5.825   5.841   2.845
 8261SOL    HW225683   5.747   5.982   2.870
 8262SOL     OW25684   0.131   4.575   0.784
 8262SOL    HW125685   0.156   4.671   0.794
 8262SOL    HW225686   0.202   4.527   0.734
 8263SOL     OW25687   7.001   2.725   6.590
 8263SOL    HW125688   0.072   2.738   6.582
 8263SOL    HW225689   6.959   2.734   6.500
 8264SOL     OW25690   2.140   0.040   1.566
 8264SOL    HW125691   2.206   0.053   1.639
 8264SOL    HW225692   2.162   0.100   1.489
 8265SOL     OW25693   4.173   0.394   1.534
 8265SOL    HW125694   4.078   0.365   1.518
 8265SOL    HW225695   4.211   0.341   1.610
 8266SOL     OW25696   2.798   0.369   3.942
 8266SOL    HW125697   2.866   0.303   3.974
 8266SOL    HW225698   2.755   0.413   4.021
 8267SOL     OW25699   1.426   4.966   2.629
 8267SOL    HW125700   1.430   4.990   2.532
 8267SOL    HW225701   1.442   4.868   2.640
 8268SOL     OW25702   2.922   3.526   6.520
 8268SOL    HW125703   2.938   3.594   6.592
 8268SOL    HW225704   2.934   3.434   6.558
 8269SOL     OW25705   4.400   2.399   3.183
 8269SOL    HW125706   4.405   2.319   3.242
 8269SOL    HW225707   4.307   2.437   3.187
 8270SOL     OW25708   3.484   6.848   5.772
 8270SOL    HW125709   3.408   6.789   5.744
 8270SOL    HW225710   3.456   6.904   5.849
 8271SOL     OW25711   5.288   6.098   4.420
 8271SOL    HW125712   5.221   6.099   4.346
 8271SOL    HW225713   5.363   6.161   4.398
 8272SOL     OW25714   0.841   0.061   2.293
 8272SOL    HW125715   0.765   0.120   2.319
 8272SOL    HW225716   0.836   0.043   2.195
 8273SOL     OW25717   2.619   0.057   6.948
 8273SOL    HW125718   2.633   0.126   7.019
 8273SOL    HW225719   2.639   0.097   6.858
 8274SOL     OW25720   4.783   5.320   6.964
 8274SOL    HW125721   4.719   5.360   6.898
 8274SOL    HW225722   4.766   5.221   6.970
 8275SOL     OW25723   6.926   0.155   4.272
 8275SOL    HW125724   6.981   0.072   4.284
 8275SOL    HW225725   6.983   0.228   4.236
 8276SOL     OW25726   7.012   2.468   5.685
 8276SOL    HW125727   6.999   2.464   5.784
 8276SOL    HW225728   6.994   2.378   5.646
 8277SOL     OW25729   1.516   5.996   5.383
 8277SOL    HW125730   1.606   6.026   5.352
 8277SOL    HW225731   1.460   6.076   5.404
 8278SOL     OW25732   3.546   1.828   6.471
 8278SOL    HW125733   3.485   1.749   6.466
 8278SOL    HW225734   3.511   1.892   6.539
 8279SOL     OW25735   4.600   5.926   6.872
 8279SOL    HW125736   4.692   5.953   6.900
 8279SOL    HW225737   4.543   6.008   6.863
 8280SOL     OW25738   5.534   2.683   0.557
 8280SOL    HW125739   5.557   2.727   0.471
 8280SOL    HW225740   5.469   2.608   0.540
 8281SOL     OW25741   1.154   5.132   0.495
 8281SOL    HW125742   1.209   5.055   0.465
 8281SOL    HW225743   1.153   5.203   0.424
 8282SOL     OW25744   2.553   2.729   1.360
 8282SOL    HW125745   2.511   2.655   1.413
 8282SOL    HW225746   2.482   2.791   1.327
 8283SOL     OW25747   0.541   5.110   3.800
 8283SOL    HW125748   0.551   5.136   3.704
 8283SOL    HW225749   0.618   5.052   3.826
 8284SOL     OW25750   2.664   2.335   2.645
 8284SOL    HW125751   2.603   2.258   2.664
 8284SOL    HW225752   2.725   2.311   2.569
 8285SOL     OW25753   2.842   4.315   5.888
 8285SOL    HW125754   2.899   4.301   5.969
 8285SOL    HW225755   2.752   4.276   5.904
 8286SOL     OW25756   5.758   0.738   4.622
 8286SOL    HW125757   5.799   0.711   4.709
 8286SOL    HW225758   5.662   0.712   4.620
 8287SOL     OW25759   1.260   0.247   3.546
 8287SOL    HW125760   1.282   0.276   3.453
 8287SOL    HW225761   1.212   0.160   3.544
 8288SOL     OW25762   2.377   1.988   1.918
 8288SOL    HW125763   2.323   2.046   1.978
 8288SOL    HW225764   2.443   1.936   1.972
 8289SOL     OW25765   5.822   1.495   5.647
 8289SOL    HW125766   5.789   1.588   5.636
 8289SOL    HW225767   5.760   1.431   5.602
 8290SOL     OW25768   3.652   2.629   1.546
 8290SOL    HW125769   3.661   2.532   1.524
 8290SOL    HW225770   3.640   2.640   1.645
 8291SOL     OW25771   5.802   6.521   6.670
 8291SOL    HW125772   5.774   6.586   6.599
 8291SOL    HW225773   5.770   6.430   6.646
 8292SOL     OW25774   0.745   5.133   5.603
 8292SOL    HW125775   0.692   5.184   5.535
 8292SOL    HW225776   0.813   5.075   5.557
 8293SOL     OW25777   2.003   4.774   2.311
 8293SOL    HW125778   2.094   4.810   2.330
 8293SOL    HW225779   1.999   4.678   2.336
 8294SOL     OW25780   0.278   3.808   5.543
 8294SOL    HW125781   0.188   3.847   5.558
 8294SOL    HW225782   0.289   3.725   5.598
 8295SOL     OW25783   5.019   3.743   2.794
 8295SOL    HW125784   5.037   3.838   2.770
 8295SOL    HW225785   4.957   3.739   2.872
 8296SOL     OW25786   3.240   5.398   0.233
 8296SOL    HW125787   3.259   5.350   0.319
 8296SOL    HW225788   3.288   5.486   0.232
 8297SOL     OW25789   6.921   4.713   2.890
 8297SOL    HW125790   6.857   4.745   2.961
 8297SOL    HW225791   6.984   4.646   2.930
 8298SOL     OW25792   0.905   0.840   6.779
 8298SOL    HW125793   0.999   0.816   6.757
 8298SOL    HW225794   0.900   0.870   6.874
 8299SOL     OW25795   0.108   3.841   2.279
 8299SOL    HW125796   0.121   3.788   2.362
 8299SOL    HW225797   0.174   3.916   2.276
 8300SOL     OW25798   6.005   5.346   3.924
 8300SOL    HW125799   6.088   5.293   3.940
 8300SOL    HW225800   5.926   5.294   3.958
 8301SOL     OW25801   3.964   0.046   0.055
 8301SOL    HW125802   3.981   7.004   0.124
 8301SOL    HW225803   4.051   0.076   0.016
 8302SOL     OW25804   3.381   6.187   4.020
 8302SOL    HW125805   3.400   6.283   3.999
 8302SOL    HW225806   3.341   6.179   4.111
 8303SOL     OW25807   6.415   0.280   2.147
 8303SOL    HW125808   6.435   0.255   2.242
 8303SOL    HW225809   6.468   0.223   2.085
 8304SOL     OW25810   5.801   3.490   3.951
 8304SOL    HW125811   5.764   3.435   3.876
 8304SOL    HW225812   5.735   3.560   3.977
 8305SOL     OW25813   4.657   5.256   4.209
 8305SOL    HW125814   4.707   5.170   4.203
 8305SOL    HW225815   4.593   5.252   4.286
 8306SOL     OW25816   6.423   0.832   2.317
 8306SOL    HW125817   6.464   0.745   2.291
 8306SOL    HW225818   6.385   0.824   2.409
 8307SOL     OW25819   1.324   4.878   1.602
 8307SOL    HW125820   1.305   4.900   1.698
 8307SOL    HW225821   1.337   4.779   1.593
 8308SOL     OW25822   0.909   4.651   0.096
 8308SOL    HW125823   0.869   4.586   0.032
 8308SOL    HW225824   0.945   4.601   0.175
 8309SOL     OW25825   6.401   4.660   4.672
 8309SOL    HW125826   6.322   4.604   4.648
 8309SOL    HW225827   6.432   4.636   4.765
 8310SOL     OW25828   0.150   6.795   0.512
 8310SOL    HW125829   0.123   6.886   0.480
 8310SOL    HW225830   0.131   6.787   0.610
 8311SOL     OW25831   5.281   6.249   3.843
 8311SOL    HW125832   5.304   6.333   3.892
 8311SOL    HW225833   5.306   6.259   3.746
 8312SOL     OW25834   5.111   6.845   0.102
 8312SOL    HW125835   5.169   6.776   0.146
 8312SOL    HW225836   5.119   6.931   0.151
 8313SOL     OW25837   4.201   6.934   5.326
 8313SOL    HW125838   4.121   6.888   5.288
 8313SOL    HW225839   4.176   7.026   5.357
 8314SOL     OW25840   5.171   6.248   6.165
 8314SOL    HW125841   5.140   6.221   6.256
 8314SOL    HW225842   5.270   6.259   6.165
 8315SOL     OW25843   3.840   3.250   4.611
 8315SOL    HW125844   3.937   3.257   4.636
 8315SOL    HW225845   3.813   3.154   4.612
 8316SOL     OW25846   0.929   3.341   0.140
 8316SOL    HW125847   0.852   3.368   0.082
 8316SOL    HW225848   0.940   3.408   0.213
 8317SOL     OW25849   1.966   1.870   5.111
 8317SOL    HW125850   2.006   1.959   5.092
 8317SOL    HW225851   1.930   1.830   5.026
 8318SOL     OW25852   3.922   0.472   6.520
 8318SOL    HW125853   3.866   0.536   6.467
 8318SOL    HW225854   3.998   0.439   6.464
 8319SOL     OW25855   1.089   0.161   6.098
 8319SOL    HW125856   1.052   0.213   6.020
 8319SOL    HW225857   1.119   0.225   6.169
 8320SOL     OW25858   3.154   3.995   4.535
 8320SOL    HW125859   3.251   4.012   4.520
 8320SOL    HW225860   3.129   4.022   4.628
 8321SOL     OW25861   0.149   0.371   6.945
 8321SOL    HW125862   0.131   0.334   6.854
 8321SOL    HW225863   0.246   0.362   6.967
 8322SOL     OW25864   0.125   1.154   0.515
 8322SOL    HW125865   0.130   1.124   0.610
 8322SOL    HW225866   0.145   1.252   0.510
 8323SOL     OW25867   4.882   4.565   1.016
 8323SOL    HW125868   4.820   4.594   0.944
 8323SOL    HW225869   4.880   4.465   1.024
 8324SOL     OW25870   6.041   0.595   6.567
 8324SOL    HW125871   5.984   0.525   6.611
 8324SOL    HW225872   5.986   0.644   6.499
 8325SOL     OW25873   1.591   5.268   4.536
 8325SOL    HW125874   1.509   5.244   4.589
 8325SOL    HW225875   1.616   5.191   4.477
 8326SOL     OW25876   2.498   3.963   0.219
 8326SOL    HW125877   2.450   3.877   0.202
 8326SOL    HW225878   2.597   3.946   0.223
 8327SOL     OW25879   0.668   0.958   5.603
 8327SOL    HW125880   0.750   0.902   5.600
 8327SOL    HW225881   0.679   1.038   5.543
 8328SOL     OW25882   0.640   6.324   5.628
 8328SOL    HW125883   0.557   6.268   5.623
 8328SOL    HW225884   0.702   6.299   5.554
 8329SOL     OW25885   0.833   2.859   5.188
 8329SOL    HW125886   0.861   2.927   5.255
 8329SOL    HW225887   0.782   2.903   5.115
 8330SOL     OW25888   4.072   1.064   6.746
 8330SOL    HW125889   3.982   1.062   6.790
 8330SOL    HW225890   4.123   1.144   6.778
 8331SOL     OW25891   2.195   1.913   0.689
 8331SOL    HW125892   2.186   1.817   0.660
 8331SOL    HW225893   2.288   1.944   0.674
 8332SOL     OW25894   5.275   4.986   1.772
 8332SOL    HW125895   5.239   4.918   1.836
 8332SOL    HW225896   5.373   4.971   1.759
 8333SOL     OW25897   1.714   4.831   1.140
 8333SOL    HW125898   1.672   4.748   1.176
 8333SOL    HW225899   1.691   4.908   1.200
 8334SOL     OW25900   3.365   2.383   6.728
 8334SOL    HW125901   3.451   2.406   6.774
 8334SOL    HW225902   3.384   2.323   6.651
 8335SOL     OW25903   4.784   3.170   6.966
 8335SOL    HW125904   4.750   3.076   6.967
 8335SOL    HW225905   4.721   3.228   7.018
 8336SOL     OW25906   1.533   3.367   2.804
 8336SOL    HW125907   1.610   3.364   2.740
 8336SOL    HW225908   1.544   3.296   2.873
 8337SOL     OW25909   0.727   1.187   4.971
 8337SOL    HW125910   0.664   1.234   4.909
 8337SOL    HW225911   0.701   1.204   5.066
 8338SOL     OW25912   3.814   4.900   1.917
 8338SOL    HW125913   3.816   4.875   1.821
 8338SOL    HW225914   3.724   4.878   1.956
 8339SOL     OW25915   0.056   0.700   0.564
 8339SOL    HW125916   0.102   0.738   0.644
 8339SOL    HW225917   0.112   0.715   0.483
 8340SOL     OW25918   5.182   2.779   0.907
 8340SOL    HW125919   5.160   2.875   0.886
 8340SOL    HW225920   5.117   2.743   0.973
 8341SOL     OW25921   3.559   0.273   7.023
 8341SOL    HW125922   3.548   0.203   6.952
 8341SOL    HW225923   3.646   0.321   7.009
 8342SOL     OW25924   3.553   6.454   0.069
 8342SOL    HW125925   3.538   6.393   7.020
 8342SOL    HW225926   3.585   6.543   0.036
 8343SOL     OW25927   6.497   4.671   3.709
 8343SOL    HW125928   6.507   4.646   3.613
 8343SOL    HW225929   6.432   4.747   3.717
 8344SOL     OW25930   0.611   4.625   4.290
 8344SOL    HW125931   0.570   4.553   4.234
 8344SOL    HW225932   0.633   4.704   4.231
 8345SOL     OW25933   5.405   0.853   3.164
 8345SOL    HW125934   5.344   0.879   3.090
 8345SOL    HW225935   5.495   0.893   3.148
 8346SOL     OW25936   4.441   3.287   6.223
 8346SOL    HW125937   4.496   3.321   6.147
 8346SOL    HW225938   4.346   3.314   6.210
 8347SOL     OW25939   2.259   6.942   5.834
 8347SOL    HW125940   2.339   6.899   5.793
 8347SOL    HW225941   2.245   6.906   5.926
 8348SOL     OW25942   3.674   6.666   1.084
 8348SOL    HW125943   3.628   6.736   1.028
 8348SOL    HW225944   3.715   6.710   1.164
 8349SOL     OW25945   0.314   6.639   2.374
 8349SOL    HW125946   0.360   6.672   2.292
 8349SOL    HW225947   0.215   6.645   2.361
 8350SOL     OW25948   2.789   6.994   6.246
 8350SOL    HW125949   2.738   7.022   6.327
 8350SOL    HW225950   2.726   6.975   6.171
 8351SOL     OW25951   6.306   5.308   4.147
 8351SOL    HW125952   6.280   5.250   4.224
 8351SOL    HW225953   6.325   5.401   4.179
 8352SOL     OW25954   2.432   6.411   2.109
 8352SOL    HW125955   2.512   6.350   2.113
 8352SOL    HW225956   2.461   6.502   2.079
 8353SOL     OW25957   0.986   3.856   1.729
 8353SOL    HW125958   0.965   3.832   1.634
 8353SOL    HW225959   1.000   3.954   1.736
 8354SOL     OW25960   3.611   6.528   3.778
 8354SOL    HW125961   3.558   6.561   3.856
 8354SOL    HW225962   3.597   6.589   3.700
 8355SOL     OW25963   1.189   6.899   6.462
 8355SOL    HW125964   1.283   6.901   6.428
 8355SOL    HW225965   1.140   6.823   6.419
 8356SOL     OW25966   1.090   5.890   1.905
 8356SOL    HW125967   1.093   5.854   1.999
 8356SOL    HW225968   1.124   5.820   1.842
 8357SOL     OW25969   4.260   5.530   5.915
 8357SOL    HW125970   4.337   5.588   5.890
 8357SOL    HW225971   4.190   5.536   5.844
 8358SOL     OW25972   1.726   2.560   5.793
 8358SOL    HW125973   1.746   2.657   5.808
 8358SOL    HW225974   1.642   2.551   5.740
 8359SOL     OW25975   2.531   0.563   4.892
 8359SOL    HW125976   2.577   0.475   4.883
 8359SOL    HW225977   2.594   0.630   4.931
 8360SOL     OW25978   4.775   6.726   0.932
 8360SOL    HW125979   4.749   6.728   0.835
 8360SOL    HW225980   4.874   6.733   0.940
 8361SOL     OW25981   1.997   0.178   6.502
 8361SOL    HW125982   1.988   0.275   6.481
 8361SOL    HW225983   1.909   0.142   6.532
 8362SOL     OW25984   6.784   2.872   0.393
 8362SOL    HW125985   6.738   2.959   0.412
 8362SOL    HW225986   6.721   2.796   0.411
 8363SOL     OW25987   4.025   2.320   0.698
 8363SOL    HW125988   4.010   2.386   0.624
 8363SOL    HW225989   4.119   2.328   0.731
 8364SOL     OW25990   0.021   2.714   3.730
 8364SOL    HW125991   7.025   2.655   3.653
 8364SOL    HW225992   0.121   2.722   3.736
 8365SOL     OW25993   1.853   2.506   2.021
 8365SOL    HW125994   1.791   2.431   2.040
 8365SOL    HW225995   1.831   2.546   1.932
 8366SOL     OW25996   4.156   5.886   0.809
 8366SOL    HW125997   4.135   5.926   0.720
 8366SOL    HW225998   4.221   5.811   0.797
 8367SOL     OW25999   2.993   5.133   4.723
 8367SOL    HW126000   2.920   5.116   4.789
 8367SOL    HW226001   3.000   5.055   4.660
 8368SOL     OW26002   0.713   6.176   6.886
 8368SOL    HW126003   0.656   6.130   6.817
 8368SOL    HW226004   0.664   6.178   6.973
 8369SOL     OW26005   1.137   1.577   0.947
 8369SOL    HW126006   1.054   1.626   0.974
 8369SOL    HW226007   1.124   1.534   0.858
 8370SOL     OW26008   2.795   2.179   6.938
 8370SOL    HW126009   2.724   2.250   6.932
 8370SOL    HW226010   2.753   2.094   6.970
 8371SOL     OW26011   1.715   3.217   5.610
 8371SOL    HW126012   1.802   3.167   5.616
 8371SOL    HW226013   1.699   3.266   5.696
 8372SOL     OW26014   2.545   6.649   2.077
 8372SOL    HW126015   2.628   6.706   2.076
 8372SOL    HW226016   2.474   6.696   2.129
 8373SOL     OW26017   0.846   1.916   4.453
 8373SOL    HW126018   0.820   1.917   4.550
 8373SOL    HW226019   0.765   1.934   4.397
 8374SOL     OW26020   1.346   0.701   3.843
 8374SOL    HW126021   1.311   0.638   3.912
 8374SOL    HW226022   1.309   0.793   3.861
 8375SOL     OW26023   4.441   0.961   6.043
 8375SOL    HW126024   4.396   1.041   6.003
 8375SOL    HW226025   4.447   0.973   6.142
 8376SOL     OW26026   1.386   1.019   3.562
 8376SOL    HW126027   1.342   1.074   3.492
 8376SOL    HW226028   1.417   1.078   3.637
 8377SOL     OW26029   5.242   5.487   0.164
 8377SOL    HW126030   5.147   5.459   0.152
 8377SOL    HW226031   5.261   5.504   0.261
 8378SOL     OW26032   5.324   5.238   3.108
 8378SOL    HW126033   5.263   5.278   3.176
 8378SOL    HW226034   5.318   5.290   3.023
 8379SOL     OW26035   4.848   1.949   1.575
 8379SOL    HW126036   4.842   1.878   1.646
 8379SOL    HW226037   4.900   2.027   1.610
 8380SOL     OW26038   6.920   6.634   7.027
 8380SOL    HW126039   6.868   6.709   0.040
 8380SOL    HW226040   7.015   6.638   0.030
 8381SOL     OW26041   0.237   2.432   2.884
 8381SOL    HW126042   0.306   2.381   2.937
 8381SOL    HW226043   0.283   2.498   2.825
 8382SOL     OW26044   2.564   0.485   0.016
 8382SOL    HW126045   2.514   0.480   6.958
 8382SOL    HW226046   2.610   0.398   0.033
 8383SOL     OW26047   2.605   0.302   4.905
 8383SOL    HW126048   2.615   0.244   4.987
 8383SOL    HW226049   2.690   0.301   4.853
 8384SOL     OW26050   6.642   1.742   1.323
 8384SOL    HW126051   6.681   1.753   1.232
 8384SOL    HW226052   6.545   1.768   1.321
 8385SOL     OW26053   4.419   3.470   1.093
 8385SOL    HW126054   4.511   3.434   1.077
 8385SOL    HW226055   4.360   3.395   1.125
 8386SOL     OW26056   2.095   6.322   1.123
 8386SOL    HW126057   2.066   6.405   1.075
 8386SOL    HW226058   2.057   6.322   1.216
 8387SOL     OW26059   2.275   1.630   1.695
 8387SOL    HW126060   2.263   1.714   1.749
 8387SOL    HW226061   2.240   1.645   1.602
 8388SOL     OW26062   1.689   6.983   0.248
 8388SOL    HW126063   1.687   0.036   0.305
 8388SOL    HW226064   1.652   6.905   0.299
 8389SOL     OW26065   1.692   3.288   4.170
 8389SOL    HW126066   1.757   3.229   4.120
 8389SOL    HW226067   1.742   3.350   4.229
 8390SOL     OW26068   2.980   0.630   6.179
 8390SOL    HW126069   3.008   0.641   6.274
 8390SOL    HW226070   2.894   0.679   6.163
 8391SOL     OW26071   5.106   5.589   1.392
 8391SOL    HW126072   5.159   5.671   1.409
 8391SOL    HW226073   5.168   5.512   1.373
 8392SOL     OW26074   6.279   6.166   5.080
 8392SOL    HW126075   6.309   6.075   5.109
 8392SOL    HW226076   6.190   6.187   5.122
 8393SOL     OW26077   0.126   0.064   3.787
 8393SOL    HW126078   0.071   0.071   3.703
 8393SOL    HW226079   0.117   7.001   3.826
 8394SOL     OW26080   0.914   1.442   2.583
 8394SOL    HW126081   1.005   1.410   2.610
 8394SOL    HW226082   0.883   1.392   2.503
 8395SOL     OW26083   0.547   6.307   4.337
 8395SOL    HW126084   0.502   6.220   4.356
 8395SOL    HW226085   0.631   6.314   4.391
 8396SOL     OW26086   4.090   4.764   2.636
 8396SOL    HW126087   4.143   4.683   2.661
 8396SOL    HW226088   4.045   4.749   2.547
 8397SOL     OW26089   2.602   0.136   2.668
 8397SOL    HW126090   2.597   0.070   2.742
 8397SOL    HW226091   2.611   0.228   2.705
 8398SOL     OW26092   4.102   1.761   0.174
 8398SOL    HW126093   4.061   1.852   0.172
 8398SOL    HW226094   4.034   1.693   0.144
 8399SOL     OW26095   6.133   5.957   0.863
 8399SOL    HW126096   6.222   5.975   0.821
 8399SOL    HW226097   6.091   5.879   0.817
 8400SOL     OW26098   0.393   0.000   2.939
 8400SOL    HW126099   0.357   7.001   3.028
 8400SOL    HW226100   0.477   6.979   2.920
 8401SOL     OW26101   4.375   3.045   5.786
 8401SOL    HW126102   4.288   3.092   5.794
 8401SOL    HW226103   4.450   3.109   5.804
 8402SOL     OW26104   3.266   1.745   5.568
 8402SOL    HW126105   3.355   1.737   5.614
 8402SOL    HW226106   3.247   1.841   5.550
 8403SOL     OW26107   0.635   1.270   3.184
 8403SOL    HW126108   0.715   1.271   3.124
 8403SOL    HW226109   0.650   1.206   3.259
 8404SOL     OW26110   5.766   6.659   6.423
 8404SOL    HW126111   5.846   6.664   6.363
 8404SOL    HW226112   5.689   6.704   6.379
 8405SOL     OW26113   2.043   2.065   0.051
 8405SOL    HW126114   2.111   2.132   0.083
 8405SOL    HW226115   1.954   2.109   0.045
 8406SOL     OW26116   4.433   1.601   0.625
 8406SOL    HW126117   4.483   1.648   0.699
 8406SOL    HW226118   4.335   1.612   0.639
 8407SOL     OW26119   5.663   4.932   4.466
 8407SOL    HW126120   5.735   4.967   4.525
 8407SOL    HW226121   5.632   5.005   4.404
 8408SOL     OW26122   5.492   0.295   3.729
 8408SOL    HW126123   5.471   0.378   3.678
 8408SOL    HW226124   5.587   0.269   3.713
 8409SOL     OW26125   0.441   2.181   3.631
 8409SOL    HW126126   0.412   2.237   3.709
 8409SOL    HW226127   0.402   2.089   3.639
 8410SOL     OW26128   4.301   1.023   1.325
 8410SOL    HW126129   4.293   1.073   1.239
 8410SOL    HW226130   4.327   1.086   1.398
 8411SOL     OW26131   1.345   5.364   3.556
 8411SOL    HW126132   1.390   5.294   3.500
 8411SOL    HW226133   1.247   5.365   3.536
 8412SOL     OW26134   4.581   1.989   1.117
 8412SOL    HW126135   4.672   1.947   1.116
 8412SOL    HW226136   4.560   2.026   1.027
 8413SOL     OW26137   4.145   5.185   0.674
 8413SOL    HW126138   4.118   5.195   0.770
 8413SOL    HW226139   4.122   5.093   0.642
 8414SOL     OW26140   3.645   0.712   2.619
 8414SOL    HW126141   3.651   0.751   2.527
 8414SOL    HW226142   3.731   0.730   2.668
 8415SOL     OW26143   0.233   5.065   3.773
 8415SOL    HW126144   0.181   5.113   3.703
 8415SOL    HW226145   0.331   5.084   3.761
 8416SOL     OW26146   5.139   4.017   2.704
 8416SOL    HW126147   5.101   4.107   2.681
 8416SOL    HW226148   5.209   3.992   2.637
 8417SOL     OW26149   2.186   6.132   5.375
 8417SOL    HW126150   2.159   6.080   5.294
 8417SOL    HW226151   2.165   6.229   5.362
 8418SOL     OW26152   5.255   5.302   1.868
 8418SOL    HW126153   5.237   5.394   1.832
 8418SOL    HW226154   5.226   5.234   1.801
 8419SOL     OW26155   4.492   0.820   2.213
 8419SOL    HW126156   4.459   0.811   2.307
 8419SOL    HW226157   4.582   0.777   2.205
 8420SOL     OW26158   3.915   6.704   0.771
 8420SOL    HW126159   3.865   6.625   0.807
 8420SOL    HW226160   3.959   6.752   0.847
 8421SOL     OW26161   2.783   6.534   0.998
 8421SOL    HW126162   2.754   6.447   1.040
 8421SOL    HW226163   2.732   6.609   1.040
 8422SOL     OW26164   5.533   6.181   1.073
 8422SOL    HW126165   5.553   6.124   1.153
 8422SOL    HW226166   5.611   6.240   1.053
 8423SOL     OW26167   3.708   4.912   6.630
 8423SOL    HW126168   3.786   4.887   6.573
 8423SOL    HW226169   3.643   4.836   6.633
 8424SOL     OW26170   3.172   2.210   2.672
 8424SOL    HW126171   3.133   2.255   2.752
 8424SOL    HW226172   3.258   2.166   2.697
 8425SOL     OW26173   6.932   5.455   0.803
 8425SOL    HW126174   6.931   5.446   0.903
 8425SOL    HW226175   6.962   5.369   0.762
 8426SOL     OW26176   3.713   2.950   3.631
 8426SOL    HW126177   3.800   2.969   3.585
 8426SOL    HW226178   3.637   2.965   3.568
 8427SOL     OW26179   1.771   4.088   5.689
 8427SOL    HW126180   1.777   4.118   5.784
 8427SOL    HW226181   1.796   3.991   5.683
 8428SOL     OW26182   6.916   4.543   1.939
 8428SOL    HW126183   6.991   4.601   1.908
 8428SOL    HW226184   6.868   4.588   2.014
 8429SOL     OW26185   2.119   4.565   4.663
 8429SOL    HW126186   2.057   4.628   4.616
 8429SOL    HW226187   2.213   4.585   4.636
 8430SOL     OW26188   4.416   5.312   2.878
 8430SOL    HW126189   4.513   5.291   2.877
 8430SOL    HW226190   4.384   5.320   2.972
 8431SOL     OW26191   2.384   5.125   1.537
 8431SOL    HW126192   2.475   5.098   1.507
 8431SOL    HW226193   2.391   5.206   1.597
 8432SOL     OW26194   3.799   5.207   5.787
 8432SOL    HW126195   3.844   5.150   5.855
 8432SOL    HW226196   3.730   5.264   5.831
 8433SOL     OW26197   0.923   2.928   6.843
 8433SOL    HW126198   0.832   2.947   6.879
 8433SOL    HW226199   0.962   2.849   6.889
 8434SOL     OW26200   3.075   6.910   5.275
 8434SOL    HW126201   3.037   6.931   5.185
 8434SOL    HW226202   3.002   6.915   5.343
 8435SOL     OW26203   4.999   1.646   1.537
 8435SOL    HW126204   4.994   1.561   1.590
 8435SOL    HW226205   5.015   1.723   1.599
 8436SOL     OW26206   3.800   6.499   3.602
 8436SOL    HW126207   3.883   6.524   3.653
 8436SOL    HW226208   3.726   6.481   3.666
 8437SOL     OW26209   1.239   0.625   1.773
 8437SOL    HW126210   1.273   0.663   1.859
 8437SOL    HW226211   1.315   0.587   1.721
 8438SOL     OW26212   3.008   4.860   2.308
 8438SOL    HW126213   3.013   4.858   2.408
 8438SOL    HW226214   2.993   4.954   2.277
 8439SOL     OW26215   6.855   5.948   1.379
 8439SOL    HW126216   6.870   5.850   1.366
 8439SOL    HW226217   6.917   5.983   1.449
 8440SOL     OW26218   6.804   0.925   2.659
 8440SOL    HW126219   6.846   1.015   2.653
 8440SOL    HW226220   6.874   0.857   2.682
 8441SOL     OW26221   5.926   6.155   0.876
 8441SOL    HW126222   6.006   6.100   0.854
 8441SOL    HW226223   5.861   6.150   0.800
 8442SOL     OW26224   4.067   3.080   6.988
 8442SOL    HW126225   3.995   3.013   7.009
 8442SOL    HW226226   4.060   3.107   6.893
 8443SOL     OW26227   1.247   0.093   2.903
 8443SOL    HW126228   1.304   0.076   2.822
 8443SOL    HW226229   1.215   0.187   2.901
 8444SOL     OW26230   3.161   6.144   3.383
 8444SOL    HW126231   3.250   6.126   3.424
 8444SOL    HW226232   3.109   6.207   3.440
 8445SOL     OW26233   2.911   5.130   2.225
 8445SOL    HW126234   2.991   5.177   2.262
 8445SOL    HW226235   2.912   5.137   2.125
 8446SOL     OW26236   4.709   5.470   1.532
 8446SOL    HW126237   4.777   5.531   1.492
 8446SOL    HW226238   4.733   5.375   1.512
 8447SOL     OW26239   5.920   2.255   2.546
 8447SOL    HW126240   5.933   2.218   2.454
 8447SOL    HW226241   5.823   2.266   2.564
 8448SOL     OW26242   0.190   4.272   5.545
 8448SOL    HW126243   0.203   4.320   5.458
 8448SOL    HW226244   0.239   4.185   5.543
 8449SOL     OW26245   0.207   3.174   4.182
 8449SOL    HW126246   0.260   3.165   4.097
 8449SOL    HW226247   0.114   3.202   4.160
 8450SOL     OW26248   2.096   5.856   2.408
 8450SOL    HW126249   2.052   5.939   2.442
 8450SOL    HW226250   2.159   5.879   2.334
 8451SOL     OW26251   4.097   2.547   1.074
 8451SOL    HW126252   4.038   2.617   1.034
 8451SOL    HW226253   4.064   2.457   1.047
 8452SOL     OW26254   0.300   6.910   1.159
 8452SOL    HW126255   0.247   6.825   1.161
 8452SOL    HW226256   0.397   6.888   1.175
 8453SOL     OW26257   6.755   5.402   5.973
 8453SOL    HW126258   6.809   5.358   5.902
 8453SOL    HW226259   6.664   5.361   5.976
 8454SOL     OW26260   1.733   5.846   2.118
 8454SOL    HW126261   1.635   5.829   2.107
 8454SOL    HW226262   1.774   5.863   2.028
 8455SOL     OW26263   5.090   1.620   1.038
 8455SOL    HW126264   5.033   1.541   1.016
 8455SOL    HW226265   5.115   1.617   1.135
 8456SOL     OW26266   6.092   5.499   3.358
 8456SOL    HW126267   6.108   5.403   3.333
 8456SOL    HW226268   5.995   5.512   3.378
 8457SOL     OW26269   6.941   6.601   5.521
 8457SOL    HW126270   7.004   6.550   5.464
 8457SOL    HW226271   6.938   6.697   5.491
 8458SOL     OW26272   1.954   1.081   6.657
 8458SOL    HW126273   1.889   1.072   6.732
 8458SOL    HW226274   1.920   1.031   6.577
 8459SOL     OW26275   3.603   6.568   1.663
 8459SOL    HW126276   3.569   6.526   1.579
 8459SOL    HW226277   3.562   6.521   1.742
 8460SOL     OW26278   4.155   2.905   6.315
 8460SOL    HW126279   4.155   2.854   6.228
 8460SOL    HW226280   4.089   2.864   6.377
 8461SOL     OW26281   0.679   3.089   1.197
 8461SOL    HW126282   0.727   3.018   1.249
 8461SOL    HW226283   0.600   3.120   1.250
 8462SOL     OW26284   3.641   2.561   6.753
 8462SOL    HW126285   3.693   2.579   6.670
 8462SOL    HW226286   3.570   2.631   6.764
 8463SOL     OW26287   0.006   1.898   7.017
 8463SOL    HW126288   0.038   1.990   0.012
 8463SOL    HW226289   0.080   1.848   6.970
 8464SOL     OW26290   6.937   4.442   5.186
 8464SOL    HW126291   0.006   4.420   5.195
 8464SOL    HW226292   6.885   4.358   5.174
 8465SOL     OW26293   2.733   2.076   0.903
 8465SOL    HW126294   2.743   2.172   0.927
 8465SOL    HW226295   2.637   2.050   0.907
 8466SOL     OW26296   6.649   0.238   5.439
 8466SOL    HW126297   6.737   0.194   5.419
 8466SOL    HW226298   6.658   0.337   5.424
 8467SOL     OW26299   3.853   0.873   0.902
 8467SOL    HW126300   3.934   0.913   0.944
 8467SOL    HW226301   3.827   0.928   0.822
 8468SOL     OW26302   6.452   3.159   6.537
 8468SOL    HW126303   6.501   3.187   6.620
 8468SOL    HW226304   6.371   3.216   6.525
 8469SOL     OW26305   2.771   3.007   5.911
 8469SOL    HW126306   2.811   3.090   5.951
 8469SOL    HW226307   2.718   2.959   5.981
 8470SOL     OW26308   0.896   4.829   0.415
 8470SOL    HW126309   0.890   4.901   0.346
 8470SOL    HW226310   0.891   4.869   0.506
 8471SOL     OW26311   3.417   0.451   5.271
 8471SOL    HW126312   3.443   0.386   5.343
 8471SOL    HW226313   3.475   0.532   5.277
 8472SOL     OW26314   5.406   1.545   5.561
 8472SOL    HW126315   5.434   1.611   5.631
 8472SOL    HW226316   5.404   1.589   5.472
 8473SOL     OW26317   4.615   4.939   0.636
 8473SOL    HW126318   4.640   5.015   0.697
 8473SOL    HW226319   4.529   4.961   0.590
 8474SOL     OW26320   2.991   3.836   2.376
 8474SOL    HW126321   2.956   3.842   2.283
 8474SOL    HW226322   2.955   3.754   2.420
 8475SOL     OW26323   6.925   3.125   2.292
 8475SOL    HW126324   7.016   3.088   2.310
 8475SOL    HW226325   6.883   3.077   2.216
 8476SOL     OW26326   6.965   0.807   1.726
 8476SOL    HW126327   6.877   0.763   1.742
 8476SOL    HW226328   0.008   0.737   1.713
 8477SOL     OW26329   4.660   6.178   2.184
 8477SOL    HW126330   4.648   6.251   2.117
 8477SOL    HW226331   4.659   6.217   2.276
 8478SOL     OW26332   1.047   1.488   5.788
 8478SOL    HW126333   1.009   1.501   5.697
 8478SOL    HW226334   0.996   1.545   5.853
 8479SOL     OW26335   0.731   2.741   1.643
 8479SOL    HW126336   0.811   2.700   1.598
 8479SOL    HW226337   0.722   2.836   1.615
 8480SOL     OW26338   5.012   2.886   6.967
 8480SOL    HW126339   5.036   2.789   6.967
 8480SOL    HW226340   4.916   2.897   6.991
 8481SOL     OW26341   4.201   2.148   5.183
 8481SOL    HW126342   4.151   2.096   5.114
 8481SOL    HW226343   4.279   2.095   5.216
 8482SOL     OW26344   4.179   0.117   1.366
 8482SOL    HW126345   4.173   0.205   1.413
 8482SOL    HW226346   4.142   0.045   1.425
 8483SOL     OW26347   2.390   5.603   3.040
 8483SOL    HW126348   2.314   5.544   3.015
 8483SOL    HW226349   2.396   5.678   2.974
 8484SOL     OW26350   7.016   5.900   4.864
 8484SOL    HW126351   6.925   5.921   4.902
 8484SOL    HW226352   0.009   5.804   4.882
 8485SOL     OW26353   3.944   2.545   0.546
 8485SOL    HW126354   4.025   2.561   0.491
 8485SOL    HW226355   3.910   2.633   0.581
 8486SOL     OW26356   1.687   1.139   2.949
 8486SOL    HW126357   1.696   1.216   2.887
 8486SOL    HW226358   1.759   1.072   2.931
 8487SOL     OW26359   5.341   2.289   6.210
 8487SOL    HW126360   5.316   2.365   6.151
 8487SOL    HW226361   5.437   2.299   6.239
 8488SOL     OW26362   5.512   5.495   3.069
 8488SOL    HW126363   5.455   5.500   2.987
 8488SOL    HW226364   5.458   5.518   3.149
 8489SOL     OW26365   6.944   0.402   1.130
 8489SOL    HW126366   6.971   0.385   1.035
 8489SOL    HW226367   7.016   0.454   1.177
 8490SOL     OW26368   3.248   6.718   5.601
 8490SOL    HW126369   3.299   6.681   5.524
 8490SOL    HW226370   3.169   6.659   5.620
 8491SOL     OW26371   2.063   6.119   2.556
 8491SOL    HW126372   2.005   6.174   2.616
 8491SOL    HW226373   2.077   6.168   2.470
 8492SOL     OW26374   6.019   5.044   4.150
 8492SOL    HW126375   6.058   4.959   4.186
 8492SOL    HW226376   6.080   5.082   4.080
 8493SOL     OW26377   2.497   1.359   7.005
 8493SOL    HW126378   2.440   1.440   7.017
 8493SOL    HW226379   2.474   1.315   6.918
 8494SOL     OW26380   4.670   5.144   2.228
 8494SOL    HW126381   4.594   5.200   2.261
 8494SOL    HW226382   4.710   5.186   2.146
 8495SOL     OW26383   0.178   5.465   0.623
 8495SOL    HW126384   0.114   5.390   0.639
 8495SOL    HW226385   0.264   5.446   0.671
 8496SOL     OW26386   5.515   1.214   2.207
 8496SOL    HW126387   5.501   1.300   2.157
 8496SOL    HW226388   5.602   1.173   2.178
 8497SOL     OW26389   0.781   0.342   3.456
 8497SOL    HW126390   0.720   0.345   3.377
 8497SOL    HW226391   0.728   0.316   3.537
 8498SOL     OW26392   5.900   6.356   3.334
 8498SOL    HW126393   5.892   6.260   3.306
 8498SOL    HW226394   5.886   6.415   3.255
 8499SOL     OW26395   0.747   4.471   7.008
 8499SOL    HW126396   0.728   4.379   0.015
 8499SOL    HW226397   0.713   4.478   6.914
 8500SOL     OW26398   1.606   6.356   5.891
 8500SOL    HW126399   1.663   6.339   5.971
 8500SOL    HW226400   1.510   6.345   5.916
 8501SOL     OW26401   0.912   2.514   6.680
 8501SOL    HW126402   0.867   2.428   6.703
 8501SOL    HW226403   0.851   2.591   6.700
 8502SOL     OW26404   0.917   2.892   0.817
 8502SOL    HW126405   0.993   2.948   0.784
 8502SOL    HW226406   0.845   2.952   0.854
 8503SOL     OW26407   6.333   5.906   5.190
 8503SOL    HW126408   6.430   5.884   5.191
 8503SOL    HW226409   6.292   5.878   5.277
 8504SOL     OW26410   1.519   5.268   1.919
 8504SOL    HW126411   1.453   5.241   1.848
 8504SOL    HW226412   1.519   5.367   1.927
 8505SOL     OW26413   5.528   3.296   2.783
 8505SOL    HW126414   5.464   3.365   2.749
 8505SOL    HW226415   5.508   3.277   2.879
 8506SOL     OW26416   0.956   0.719   0.042
 8506SOL    HW126417   0.912   0.730   0.131
 8506SOL    HW226418   1.012   0.799   0.022
 8507SOL     OW26419   4.033   0.067   4.631
 8507SOL    HW126420   3.950   0.013   4.614
 8507SOL    HW226421   4.102   0.046   4.562
 8508SOL     OW26422   4.073   1.444   5.608
 8508SOL    HW126423   4.018   1.405   5.534
 8508SOL    HW226424   4.093   1.540   5.588
 8509SOL     OW26425   5.682   6.772   3.852
 8509SOL    HW126426   5.763   6.722   3.822
 8509SOL    HW226427   5.637   6.722   3.926
 8510SOL     OW26428   5.609   3.555   3.456
 8510SOL    HW126429   5.588   3.583   3.549
 8510SOL    HW226430   5.707   3.534   3.449
 8511SOL     OW26431   0.150   2.926   2.353
 8511SOL    HW126432   0.174   3.005   2.410
 8511SOL    HW226433   0.215   2.852   2.368
 8512SOL     OW26434   2.468   0.260   2.429
 8512SOL    HW126435   2.469   0.226   2.335
 8512SOL    HW226436   2.486   0.185   2.492
 8513SOL     OW26437   6.993   5.723   0.833
 8513SOL    HW126438   6.909   5.743   0.884
 8513SOL    HW226439   6.991   5.629   0.800
 8514SOL     OW26440   3.598   0.030   3.073
 8514SOL    HW126441   3.546   0.046   2.989
 8514SOL    HW226442   3.602   6.960   3.092
 8515SOL     OW26443   4.670   2.441   1.081
 8515SOL    HW126444   4.598   2.412   1.144
 8515SOL    HW226445   4.680   2.541   1.085
 8516SOL     OW26446   6.815   2.134   2.450
 8516SOL    HW126447   6.739   2.197   2.437
 8516SOL    HW226448   6.780   2.043   2.472
 8517SOL     OW26449   1.130   2.728   6.155
 8517SOL    HW126450   1.204   2.767   6.101
 8517SOL    HW226451   1.102   2.640   6.116
 8518SOL     OW26452   4.070   4.716   0.449
 8518SOL    HW126453   4.101   4.621   0.457
 8518SOL    HW226454   4.016   4.727   0.365
 8519SOL     OW26455   1.870   5.707   2.306
 8519SOL    HW126456   1.931   5.775   2.346
 8519SOL    HW226457   1.816   5.749   2.233
 8520SOL     OW26458   4.227   1.067   0.264
 8520SOL    HW126459   4.178   1.014   0.194
 8520SOL    HW226460   4.323   1.040   0.264
 8521SOL     OW26461   1.291   6.152   5.485
 8521SOL    HW126462   1.275   6.248   5.508
 8521SOL    HW226463   1.324   6.104   5.567
 8522SOL     OW26464   1.693   5.540   2.404
 8522SOL    HW126465   1.775   5.594   2.385
 8522SOL    HW226466   1.611   5.595   2.383
 8523SOL     OW26467   2.313   0.296   5.580
 8523SOL    HW126468   2.335   0.272   5.675
 8523SOL    HW226469   2.219   0.270   5.560
 8524SOL     OW26470   1.357   2.987   4.725
 8524SOL    HW126471   1.322   3.072   4.685
 8524SOL    HW226472   1.399   2.932   4.653
 8525SOL     OW26473   6.205   3.919   2.923
 8525SOL    HW126474   6.240   4.010   2.944
 8525SOL    HW226475   6.194   3.867   3.008
 8526SOL     OW26476   2.741   3.616   1.656
 8526SOL    HW126477   2.698   3.553   1.721
 8526SOL    HW226478   2.840   3.599   1.654
 8527SOL     OW26479   3.889   0.585   4.137
 8527SOL    HW126480   3.917   0.576   4.232
 8527SOL    HW226481   3.965   0.559   4.077
 8528SOL     OW26482   4.982   3.762   6.139
 8528SOL    HW126483   4.883   3.751   6.129
 8528SOL    HW226484   5.019   3.684   6.189
 8529SOL     OW26485   1.062   6.148   0.123
 8529SOL    HW126486   1.009   6.072   0.162
 8529SOL    HW226487   1.156   6.118   0.107
 8530SOL     OW26488   1.044   5.115   5.019
 8530SOL    HW126489   1.036   5.167   5.104
 8530SOL    HW226490   1.071   5.021   5.040
 8531SOL     OW26491   5.515   4.501   3.086
 8531SOL    HW126492   5.523   4.402   3.093
 8531SOL    HW226493   5.420   4.526   3.065
 8532SOL     OW26494   4.330   4.777   4.926
 8532SOL    HW126495   4.410   4.836   4.938
 8532SOL    HW226496   4.352   4.683   4.953
 8533SOL     OW26497   2.214   1.219   5.519
 8533SOL    HW126498   2.153   1.140   5.522
 8533SOL    HW226499   2.305   1.190   5.488
 8534SOL     OW26500   0.617   4.879   2.560
 8534SOL    HW126501   0.643   4.839   2.648
 8534SOL    HW226502   0.630   4.811   2.488
 8535SOL     OW26503   0.684   2.012   4.673
 8535SOL    HW126504   0.588   1.986   4.687
 8535SOL    HW226505   0.716   2.065   4.751
 8536SOL     OW26506   6.448   2.471   4.970
 8536SOL    HW126507   6.416   2.406   5.038
 8536SOL    HW226508   6.446   2.428   4.879
 8537SOL     OW26509   6.087   1.489   0.806
 8537SOL    HW126510   6.184   1.490   0.779
 8537SOL    HW226511   6.043   1.409   0.767
 8538SOL     OW26512   0.162   0.749   5.069
 8538SOL    HW126513   0.229   0.790   5.130
 8538SOL    HW226514   0.084   0.811   5.058
 8539SOL     OW26515   6.537   2.395   2.930
 8539SOL    HW126516   6.492   2.343   2.858
 8539SOL    HW226517   6.552   2.489   2.898
 8540SOL     OW26518   3.339   1.439   0.999
 8540SOL    HW126519   3.292   1.350   1.003
 8540SOL    HW226520   3.357   1.470   1.092
 8541SOL     OW26521   2.842   1.657   5.358
 8541SOL    HW126522   2.939   1.680   5.346
 8541SOL    HW226523   2.786   1.726   5.312
 8542SOL     OW26524   3.065   4.040   6.587
 8542SOL    HW126525   3.049   4.074   6.495
 8542SOL    HW226526   3.041   4.111   6.653
 8543SOL     OW26527   2.677   2.033   5.549
 8543SOL    HW126528   2.613   1.968   5.591
 8543SOL    HW226529   2.646   2.127   5.567
 8544SOL     OW26530   5.222   3.526   5.201
 8544SOL    HW126531   5.247   3.450   5.260
 8544SOL    HW226532   5.240   3.503   5.106
 8545SOL     OW26533   3.322   6.730   4.748
 8545SOL    HW126534   3.328   6.745   4.650
 8545SOL    HW226535   3.233   6.691   4.771
 8546SOL     OW26536   5.405   0.394   1.029
 8546SOL    HW126537   5.362   0.309   1.059
 8546SOL    HW226538   5.355   0.472   1.067
 8547SOL     OW26539   6.926   0.098   5.458
 8547SOL    HW126540   6.946   0.058   5.547
 8547SOL    HW226541   6.999   0.161   5.433
 8548SOL     OW26542   0.186   3.090   5.276
 8548SOL    HW126543   0.167   3.181   5.240
 8548SOL    HW226544   0.164   3.022   5.206
 8549SOL     OW26545   1.292   2.144   3.690
 8549SOL    HW126546   1.353   2.213   3.651
 8549SOL    HW226547   1.221   2.122   3.623
 8550SOL     OW26548   0.549   4.385   6.425
 8550SOL    HW126549   0.584   4.478   6.427
 8550SOL    HW226550   0.557   4.348   6.333
 8551SOL     OW26551   1.909   2.425   6.489
 8551SOL    HW126552   1.826   2.429   6.432
 8551SOL    HW226553   1.931   2.516   6.523
 8552SOL     OW26554   3.178   0.662   1.672
 8552SOL    HW126555   3.157   0.736   1.736
 8552SOL    HW226556   3.268   0.625   1.693
 8553SOL     OW26557   3.693   3.520   0.580
 8553SOL    HW126558   3.710   3.446   0.515
 8553SOL    HW226559   3.631   3.487   0.652
 8554SOL     OW26560   1.010   6.944   1.217
 8554SOL    HW126561   1.017   0.014   1.198
 8554SOL    HW226562   0.959   6.900   1.144
 8555SOL     OW26563   4.173   1.408   3.800
 8555SOL    HW126564   4.179   1.374   3.706
 8555SOL    HW226565   4.196   1.505   3.802
 8556SOL     OW26566   1.351   6.327   6.018
 8556SOL    HW126567   1.328   6.408   6.073
 8556SOL    HW226568   1.267   6.280   5.991
 8557SOL     OW26569   6.522   0.894   0.663
 8557SOL    HW126570   6.540   0.816   0.723
 8557SOL    HW226571   6.465   0.961   0.712
 8558SOL     OW26572   2.100   4.419   3.598
 8558SOL    HW126573   2.009   4.447   3.629
 8558SOL    HW226574   2.097   4.403   3.499
 8559SOL     OW26575   0.516   6.473   2.776
 8559SOL    HW126576   0.607   6.448   2.744
 8559SOL    HW226577   0.447   6.434   2.716
 8560SOL     OW26578   1.549   5.510   1.443
 8560SOL    HW126579   1.592   5.433   1.491
 8560SOL    HW226580   1.612   5.543   1.372
 8561SOL     OW26581   4.335   0.600   2.997
 8561SOL    HW126582   4.303   0.659   3.071
 8561SOL    HW226583   4.265   0.593   2.927
 8562SOL     OW26584   4.370   0.913   6.964
 8562SOL    HW126585   4.351   0.848   6.891
 8562SOL    HW226586   4.297   0.909   0.004
 8563SOL     OW26587   1.391   6.027   2.305
 8563SOL    HW126588   1.315   6.070   2.354
 8563SOL    HW226589   1.473   6.083   2.315
 8564SOL     OW26590   3.890   6.105   6.313
 8564SOL    HW126591   3.835   6.044   6.256
 8564SOL    HW226592   3.905   6.063   6.402
 8565SOL     OW26593   3.506   5.308   1.559
 8565SOL    HW126594   3.582   5.261   1.605
 8565SOL    HW226595   3.424   5.303   1.615
 8566SOL     OW26596   2.813   0.810   2.788
 8566SOL    HW126597   2.868   0.891   2.810
 8566SOL    HW226598   2.863   0.753   2.723
 8567SOL     OW26599   1.469   1.910   1.787
 8567SOL    HW126600   1.497   1.918   1.883
 8567SOL    HW226601   1.514   1.832   1.745
 8568SOL     OW26602   6.992   1.320   0.310
 8568SOL    HW126603   0.027   1.306   0.386
 8568SOL    HW226604   6.906   1.359   0.344
 8569SOL     OW26605   5.057   2.164   5.872
 8569SOL    HW126606   5.135   2.151   5.933
 8569SOL    HW226607   5.080   2.233   5.803
 8570SOL     OW26608   1.667   1.694   4.640
 8570SOL    HW126609   1.591   1.644   4.682
 8570SOL    HW226610   1.703   1.760   4.706
 8571SOL     OW26611   1.405   1.355   4.788
 8571SOL    HW126612   1.364   1.445   4.773
 8571SOL    HW226613   1.387   1.296   4.710
 8572SOL     OW26614   2.715   4.130   5.567
 8572SOL    HW126615   2.781   4.203   5.582
 8572SOL    HW226616   2.707   4.111   5.470
 8573SOL     OW26617   2.775   5.938   6.746
 8573SOL    HW126618   2.767   5.850   6.792
 8573SOL    HW226619   2.703   5.999   6.777
 8574SOL     OW26620   6.534   6.775   6.296
 8574SOL    HW126621   6.628   6.810   6.296
 8574SOL    HW226622   6.476   6.838   6.244
 8575SOL     OW26623   3.364   1.019   2.310
 8575SOL    HW126624   3.356   0.935   2.363
 8575SOL    HW226625   3.416   1.087   2.362
 8576SOL     OW26626   1.269   4.185   4.509
 8576SOL    HW126627   1.287   4.089   4.488
 8576SOL    HW226628   1.315   4.243   4.442
 8577SOL     OW26629   1.636   1.063   6.116
 8577SOL    HW126630   1.576   1.136   6.147
 8577SOL    HW226631   1.603   0.975   6.150
 8578SOL     OW26632   6.308   6.320   5.677
 8578SOL    HW126633   6.249   6.248   5.639
 8578SOL    HW226634   6.252   6.386   5.727
 8579SOL     OW26635   2.286   6.354   2.611
 8579SOL    HW126636   2.336   6.305   2.682
 8579SOL    HW226637   2.343   6.361   2.529
 8580SOL     OW26638   1.217   6.208   0.914
 8580SOL    HW126639   1.209   6.137   0.844
 8580SOL    HW226640   1.143   6.275   0.903
 8581SOL     OW26641   3.882   5.185   1.586
 8581SOL    HW126642   3.978   5.208   1.602
 8581SOL    HW226643   3.875   5.126   1.505
 8582SOL     OW26644   4.534   4.742   5.742
 8582SOL    HW126645   4.481   4.799   5.805
 8582SOL    HW226646   4.477   4.665   5.711
 8583SOL     OW26647   4.082   0.220   3.324
 8583SOL    HW126648   4.126   0.138   3.288
 8583SOL    HW226649   4.083   0.218   3.424
 8584SOL     OW26650   7.013   0.930   4.406
 8584SOL    HW126651   7.011   1.030   4.402
 8584SOL    HW226652   0.079   0.898   4.394
 8585SOL     OW26653   5.867   1.989   1.189
 8585SOL    HW126654   5.819   1.976   1.102
 8585SOL    HW226655   5.834   1.923   1.256
 8586SOL     OW26656   5.158   6.456   1.348
 8586SOL    HW126657   5.189   6.484   1.439
 8586SOL    HW226658   5.237   6.433   1.292
 8587SOL     OW26659   1.055   2.091   4.666
 8587SOL    HW126660   1.005   2.045   4.592
 8587SOL    HW226661   0.994   2.100   4.746
 8588SOL     OW26662   4.564   1.095   6.998
 8588SOL    HW126663   4.496   1.021   6.992
 8588SOL    HW226664   4.651   1.058   0.001
 8589SOL     OW26665   6.771   3.002   4.983
 8589SOL    HW126666   6.804   2.933   4.918
 8589SOL    HW226667   6.674   2.990   4.999
 8590SOL     OW26668   0.060   0.086   2.988
 8590SOL    HW126669   0.059   0.103   3.087
 8590SOL    HW226670   0.019   0.163   2.940
 8591SOL     OW26671   6.423   4.451   0.285
 8591SOL    HW126672   6.506   4.402   0.312
 8591SOL    HW226673   6.395   4.512   0.359
 8592SOL     OW26674   0.325   2.546   0.569
 8592SOL    HW126675   0.259   2.598   0.515
 8592SOL    HW226676   0.412   2.542   0.519
 8593SOL     OW26677   2.797   0.896   6.813
 8593SOL    HW126678   2.877   0.956   6.810
 8593SOL    HW226679   2.735   0.921   6.738
 8594SOL     OW26680   6.284   2.574   5.752
 8594SOL    HW126681   6.324   2.646   5.810
 8594SOL    HW226682   6.286   2.487   5.802
 8595SOL     OW26683   5.503   0.533   3.580
 8595SOL    HW126684   5.596   0.526   3.542
 8595SOL    HW226685   5.475   0.629   3.582
 8596SOL     OW26686   1.199   3.947   3.497
 8596SOL    HW126687   1.205   3.889   3.578
 8596SOL    HW226688   1.151   4.031   3.518
 8597SOL     OW26689   6.315   2.632   0.693
 8597SOL    HW126690   6.266   2.549   0.667
 8597SOL    HW226691   6.405   2.607   0.731
 8598SOL     OW26692   5.788   0.399   5.190
 8598SOL    HW126693   5.883   0.374   5.205
 8598SOL    HW226694   5.781   0.496   5.167
 8599SOL     OW26695   1.597   2.898   3.883
 8599SOL    HW126696   1.616   2.800   3.887
 8599SOL    HW226697   1.498   2.914   3.890
 8600SOL     OW26698   5.138   3.755   1.149
 8600SOL    HW126699   5.042   3.744   1.175
 8600SOL    HW226700   5.190   3.676   1.180
 8601SOL     OW26701   7.021   0.980   3.703
 8601SOL    HW126702   0.087   0.959   3.730
 8601SOL    HW226703   6.961   0.977   3.783
 8602SOL     OW26704   2.533   6.813   3.356
 8602SOL    HW126705   2.558   6.908   3.333
 8602SOL    HW226706   2.576   6.751   3.290
 8603SOL     OW26707   5.940   1.088   6.236
 8603SOL    HW126708   5.857   1.144   6.242
 8603SOL    HW226709   5.988   1.110   6.151
 8604SOL     OW26710   0.803   2.830   6.327
 8604SOL    HW126711   0.771   2.827   6.232
 8604SOL    HW226712   0.735   2.787   6.386
 8605SOL     OW26713   1.166   4.535   4.414
 8605SOL    HW126714   1.127   4.447   4.386
 8605SOL    HW226715   1.265   4.527   4.423
 8606SOL     OW26716   3.327   2.480   0.169
 8606SOL    HW126717   3.381   2.549   0.121
 8606SOL    HW226718   3.334   2.392   0.121
 8607SOL     OW26719   2.226   4.857   0.148
 8607SOL    HW126720   2.245   4.849   0.050
 8607SOL    HW226721   2.304   4.824   0.200
 8608SOL     OW26722   2.205   4.778   2.671
 8608SOL    HW126723   2.151   4.694   2.664
 8608SOL    HW226724   2.159   4.842   2.733
 8609SOL     OW26725   4.909   0.554   3.918
 8609SOL    HW126726   4.939   0.534   4.011
 8609SOL    HW226727   4.809   0.547   3.913
 8610SOL     OW26728   6.913   6.650   3.148
 8610SOL    HW126729   6.957   6.719   3.090
 8610SOL    HW226730   6.951   6.560   3.127
 8611SOL     OW26731   2.841   1.039   4.324
 8611SOL    HW126732   2.931   1.004   4.295
 8611SOL    HW226733   2.844   1.139   4.325
 8612SOL     OW26734   2.921   3.403   2.192
 8612SOL    HW126735   2.905   3.449   2.105
 8612SOL    HW226736   2.964   3.314   2.174
 8613SOL     OW26737   2.558   2.662   1.861
 8613SOL    HW126738   2.471   2.699   1.828
 8613SOL    HW226739   2.624   2.659   1.787
 8614SOL     OW26740   1.236   2.615   2.818
 8614SOL    HW126741   1.193   2.544   2.762
 8614SOL    HW226742   1.182   2.699   2.813
 8615SOL     OW26743   4.488   1.644   5.047
 8615SOL    HW126744   4.520   1.668   4.955
 8615SOL    HW226745   4.557   1.670   5.114
 8616SOL     OW26746   2.461   4.734   2.311
 8616SOL    HW126747   2.456   4.725   2.211
 8616SOL    HW226748   2.552   4.768   2.336
 8617SOL     OW26749   5.771   0.523   4.006
 8617SOL    HW126750   5.820   0.441   4.038
 8617SOL    HW226751   5.786   0.535   3.908
 8618SOL     OW26752   6.517   4.116   0.645
 8618SOL    HW126753   6.575   4.195   0.631
 8618SOL    HW226754   6.568   4.046   0.695
 8619SOL     OW26755   4.406   4.936   2.849
 8619SOL    HW126756   4.383   4.997   2.926
 8619SOL    HW226757   4.472   4.868   2.880
 8620SOL     OW26758   1.732   0.251   4.275
 8620SOL    HW126759   1.716   0.233   4.178
 8620SOL    HW226760   1.646   0.237   4.325
 8621SOL     OW26761   4.748   2.771   2.153
 8621SOL    HW126762   4.700   2.691   2.116
 8621SOL    HW226763   4.734   2.849   2.092
 8622SOL     OW26764   6.151   5.326   1.993
 8622SOL    HW126765   6.144   5.232   2.027
 8622SOL    HW226766   6.212   5.328   1.914
 8623SOL     OW26767   6.861   3.514   4.967
 8623SOL    HW126768   6.872   3.553   4.875
 8623SOL    HW226769   6.950   3.511   5.013
 8624SOL     OW26770   3.550   3.815   6.413
 8624SOL    HW126771   3.460   3.849   6.443
 8624SOL    HW226772   3.556   3.821   6.314
 8625SOL     OW26773   4.834   1.081   6.059
 8625SOL    HW126774   4.735   1.078   6.048
 8625SOL    HW226775   4.858   1.146   6.130
 8626SOL     OW26776   4.009   2.997   0.427
 8626SOL    HW126777   3.988   3.086   0.466
 8626SOL    HW226778   4.082   3.006   0.358
 8627SOL     OW26779   2.314   1.708   2.689
 8627SOL    HW126780   2.384   1.656   2.738
 8627SOL    HW226781   2.297   1.665   2.600
 8628SOL     OW26782   6.848   6.883   0.263
 8628SOL    HW126783   6.856   6.784   0.272
 8628SOL    HW226784   6.761   6.905   0.218
 8629SOL     OW26785   1.209   6.915   4.867
 8629SOL    HW126786   1.299   6.874   4.886
 8629SOL    HW226787   1.148   6.900   4.944
 8630SOL     OW26788   4.925   3.630   3.583
 8630SOL    HW126789   4.953   3.534   3.575
 8630SOL    HW226790   4.937   3.660   3.678
 8631SOL     OW26791   1.777   6.348   6.096
 8631SOL    HW126792   1.800   6.284   6.170
 8631SOL    HW226793   1.851   6.414   6.085
 8632SOL     OW26794   3.983   4.404   5.515
 8632SOL    HW126795   4.052   4.377   5.448
 8632SOL    HW226796   4.029   4.441   5.596
 8633SOL     OW26797   5.952   3.478   6.046
 8633SOL    HW126798   6.046   3.494   6.018
 8633SOL    HW226799   5.939   3.508   6.141
 8634SOL     OW26800   5.241   4.687   0.147
 8634SOL    HW126801   5.243   4.769   0.090
 8634SOL    HW226802   5.255   4.606   0.091
 8635SOL     OW26803   6.272   2.391   6.896
 8635SOL    HW126804   6.180   2.361   6.869
 8635SOL    HW226805   6.267   2.482   6.937
 8636SOL     OW26806   4.132   5.514   0.700
 8636SOL    HW126807   4.169   5.422   0.684
 8636SOL    HW226808   4.040   5.507   0.738
 8637SOL     OW26809   2.227   1.417   6.147
 8637SOL    HW126810   2.301   1.481   6.126
 8637SOL    HW226811   2.218   1.410   6.247
 8638SOL     OW26812   3.846   2.667   5.290
 8638SOL    HW126813   3.921   2.602   5.280
 8638SOL    HW226814   3.760   2.618   5.306
 8639SOL     OW26815   4.889   3.671   6.864
 8639SOL    HW126816   4.908   3.759   6.820
 8639SOL    HW226817   4.969   3.612   6.855
 8640SOL     OW26818   4.291   3.282   1.251
 8640SOL    HW126819   4.198   3.262   1.222
 8640SOL    HW226820   4.309   3.239   1.339
 8641SOL     OW26821   4.314   5.091   3.882
 8641SOL    HW126822   4.340   5.176   3.836
 8641SOL    HW226823   4.251   5.111   3.957
 8642SOL     OW26824   0.067   7.023   3.321
 8642SOL    HW126825   0.109   0.084   3.307
 8642SOL    HW226826   0.009   7.025   3.402
 8643SOL     OW26827   1.777   0.159   0.423
 8643SOL    HW126828   1.856   0.105   0.453
 8643SOL    HW226829   1.807   0.233   0.364
 8644SOL     OW26830   6.668   2.365   6.590
 8644SOL    HW126831   6.635   2.347   6.497
 8644SOL    HW226832   6.652   2.284   6.646
 8645SOL     OW26833   4.778   5.250   1.365
 8645SOL    HW126834   4.766   5.211   1.274
 8645SOL    HW226835   4.708   5.215   1.427
 8646SOL     OW26836   0.632   1.646   6.662
 8646SOL    HW126837   0.731   1.650   6.653
 8646SOL    HW226838   0.605   1.686   6.750
 8647SOL     OW26839   2.881   5.454   0.924
 8647SOL    HW126840   2.841   5.437   1.014
 8647SOL    HW226841   2.846   5.387   0.859
 8648SOL     OW26842   5.747   6.330   1.009
 8648SOL    HW126843   5.816   6.275   0.963
 8648SOL    HW226844   5.791   6.388   1.078
 8649SOL     OW26845   4.810   6.293   6.915
 8649SOL    HW126846   4.872   6.343   6.976
 8649SOL    HW226847   4.731   6.351   6.894
 8650SOL     OW26848   1.724   6.658   4.061
 8650SOL    HW126849   1.771   6.656   3.973
 8650SOL    HW226850   1.790   6.642   4.135
 8651SOL     OW26851   2.918   1.742   0.707
 8651SOL    HW126852   2.951   1.729   0.801
 8651SOL    HW226853   2.922   1.839   0.684
 8652SOL     OW26854   0.910   4.760   3.978
 8652SOL    HW126855   0.988   4.824   3.972
 8652SOL    HW226856   0.928   4.692   4.049
 8653SOL     OW26857   6.441   1.537   5.455
 8653SOL    HW126858   6.427   1.465   5.523
 8653SOL    HW226859   6.527   1.520   5.407
 8654SOL     OW26860   0.841   4.972   1.169
 8654SOL    HW126861   0.887   5.060   1.156
 8654SOL    HW226862   0.743   4.987   1.178
 8655SOL     OW26863   6.517   1.228   5.218
 8655SOL    HW126864   6.540   1.159   5.149
 8655SOL    HW226865   6.547   1.195   5.308
 8656SOL     OW26866   5.571   0.407   2.291
 8656SOL    HW126867   5.515   0.328   2.265
 8656SOL    HW226868   5.660   0.402   2.245
 8657SOL     OW26869   5.829   6.116   0.407
 8657SOL    HW126870   5.815   6.102   0.309
 8657SOL    HW226871   5.927   6.130   0.424
 8658SOL     OW26872   5.671   5.375   0.521
 8658SOL    HW126873   5.681   5.466   0.482
 8658SOL    HW226874   5.696   5.306   0.453
 8659SOL     OW26875   4.497   2.512   2.948
 8659SOL    HW126876   4.556   2.578   2.995
 8659SOL    HW226877   4.452   2.454   3.017
 8660SOL     OW26878   0.428   2.344   2.071
 8660SOL    HW126879   0.504   2.359   2.134
 8660SOL    HW226880   0.353   2.406   2.094
 8661SOL     OW26881   6.051   3.596   2.586
 8661SOL    HW126882   6.134   3.632   2.628
 8661SOL    HW226883   5.989   3.563   2.658
 8662SOL     OW26884   3.499   6.216   2.186
 8662SOL    HW126885   3.555   6.253   2.260
 8662SOL    HW226886   3.530   6.254   2.099
 8663SOL     OW26887   2.654   5.357   3.008
 8663SOL    HW126888   2.611   5.411   3.080
 8663SOL    HW226889   2.594   5.353   2.928
 8664SOL     OW26890   2.703   5.666   2.820
 8664SOL    HW126891   2.769   5.615   2.874
 8664SOL    HW226892   2.739   5.679   2.727
 8665SOL     OW26893   6.618   5.402   5.233
 8665SOL    HW126894   6.565   5.333   5.184
 8665SOL    HW226895   6.620   5.380   5.331
 8666SOL     OW26896   5.523   0.073   4.535
 8666SOL    HW126897   5.435   0.027   4.531
 8666SOL    HW226898   5.593   0.009   4.567
 8667SOL     OW26899   5.510   1.083   4.513
 8667SOL    HW126900   5.456   1.096   4.596
 8667SOL    HW226901   5.480   1.149   4.443
 8668SOL     OW26902   5.088   3.017   4.556
 8668SOL    HW126903   5.165   2.966   4.594
 8668SOL    HW226904   5.050   3.077   4.626
 8669SOL     OW26905   6.620   6.687   6.844
 8669SOL    HW126906   6.647   6.781   6.864
 8669SOL    HW226907   6.681   6.648   6.775
 8670SOL     OW26908   5.501   5.145   6.058
 8670SOL    HW126909   5.536   5.195   6.137
 8670SOL    HW226910   5.476   5.209   5.986
 8671SOL     OW26911   0.752   1.496   2.248
 8671SOL    HW126912   0.746   1.396   2.257
 8671SOL    HW226913   0.701   1.539   2.323
 8672SOL     OW26914   0.458   7.025   3.637
 8672SOL    HW126915   0.439   0.027   3.730
 8672SOL    HW226916   0.553   6.993   3.631
 8673SOL     OW26917   6.957   1.184   0.089
 8673SOL    HW126918   6.915   1.256   0.032
 8673SOL    HW226919   6.972   1.220   0.181
 8674SOL     OW26920   6.806   4.370   3.275
 8674SOL    HW126921   6.753   4.287   3.257
 8674SOL    HW226922   6.887   4.347   3.329
 8675SOL     OW26923   4.077   0.897   6.233
 8675SOL    HW126924   4.161   0.946   6.209
 8675SOL    HW226925   3.998   0.954   6.212
 8676SOL     OW26926   5.284   1.054   1.291
 8676SOL    HW126927   5.292   1.088   1.197
 8676SOL    HW226928   5.190   1.028   1.309
 8677SOL     OW26929   1.427   5.995   5.712
 8677SOL    HW126930   1.478   5.910   5.699
 8677SOL    HW226931   1.392   5.999   5.806
 8678SOL     OW26932   0.540   6.893   0.527
 8678SOL    HW126933   0.465   6.911   0.590
 8678SOL    HW226934   0.597   6.975   0.520
 8679SOL     OW26935   1.830   1.277   4.065
 8679SOL    HW126936   1.734   1.286   4.041
 8679SOL    HW226937   1.887   1.320   3.995
 8680SOL     OW26938   6.460   2.511   6.653
 8680SOL    HW126939   6.546   2.461   6.647
 8680SOL    HW226940   6.451   2.552   6.743
 8681SOL     OW26941   4.589   5.403   1.172
 8681SOL    HW126942   4.641   5.481   1.207
 8681SOL    HW226943   4.651   5.331   1.143
 8682SOL     OW26944   0.080   0.025   1.018
 8682SOL    HW126945   0.097   0.117   0.984
 8682SOL    HW226946   0.144   0.004   1.091
 8683SOL     OW26947   1.573   3.119   4.831
 8683SOL    HW126948   1.490   3.085   4.786
 8683SOL    HW226949   1.639   3.045   4.840
 8684SOL     OW26950   6.927   4.068   4.814
 8684SOL    HW126951   6.998   4.056   4.883
 8684SOL    HW226952   6.910   4.165   4.800
 8685SOL     OW26953   5.568   2.700   6.389
 8685SOL    HW126954   5.500   2.773   6.400
 8685SOL    HW226955   5.621   2.691   6.474
 8686SOL     OW26956   5.936   6.718   2.800
 8686SOL    HW126957   5.876   6.678   2.730
 8686SOL    HW226958   6.029   6.686   2.787
 8687SOL     OW26959   5.877   4.608   2.946
 8687SOL    HW126960   5.866   4.510   2.931
 8687SOL    HW226961   5.872   4.628   3.044
 8688SOL     OW26962   1.757   4.294   6.686
 8688SOL    HW126963   1.841   4.340   6.714
 8688SOL    HW226964   1.778   4.226   6.616
 8689SOL     OW26965   4.888   3.187   0.690
 8689SOL    HW126966   4.897   3.271   0.744
 8689SOL    HW226967   4.798   3.186   0.646
 8690SOL     OW26968   0.589   2.764   3.172
 8690SOL    HW126969   0.540   2.851   3.175
 8690SOL    HW226970   0.639   2.752   3.258
 8691SOL     OW26971   3.466   1.404   5.274
 8691SOL    HW126972   3.472   1.391   5.373
 8691SOL    HW226973   3.372   1.427   5.249
 8692SOL     OW26974   3.537   1.459   5.818
 8692SOL    HW126975   3.529   1.544   5.766
 8692SOL    HW226976   3.612   1.404   5.782
 8693SOL     OW26977   6.711   1.480   6.545
 8693SOL    HW126978   6.760   1.553   6.497
 8693SOL    HW226979   6.727   1.393   6.500
 8694SOL     OW26980   5.656   2.136   4.961
 8694SOL    HW126981   5.676   2.081   4.881
 8694SOL    HW226982   5.557   2.141   4.974
 8695SOL     OW26983   4.406   3.432   6.445
 8695SOL    HW126984   4.421   3.355   6.383
 8695SOL    HW226985   4.481   3.498   6.435
 8696SOL     OW26986   2.453   6.209   4.712
 8696SOL    HW126987   2.493   6.198   4.622
 8696SOL    HW226988   2.524   6.234   4.778
 8697SOL     OW26989   1.227   4.462   5.884
 8697SOL    HW126990   1.298   4.511   5.833
 8697SOL    HW226991   1.244   4.471   5.982
 8698SOL     OW26992   5.261   6.043   5.992
 8698SOL    HW126993   5.274   6.134   6.032
 8698SOL    HW226994   5.348   5.996   5.986
 8699SOL     OW26995   2.101   3.579   6.226
 8699SOL    HW126996   2.102   3.567   6.325
 8699SOL    HW226997   2.147   3.502   6.182
 8700SOL     OW26998   1.245   1.274   5.571
 8700SOL    HW126999   1.292   1.230   5.494
 8700SOL    HW227000   1.311   1.324   5.626
 8701SOL     OW27001   1.852   1.072   6.914
 8701SOL    HW127002   1.880   0.977   6.927
 8701SOL    HW227003   1.817   1.109   7.000
 8702SOL     OW27004   4.802   5.251   2.007
 8702SOL    HW127005   4.789   5.320   1.936
 8702SOL    HW227006   4.830   5.165   1.966
 8703SOL     OW27007   3.151   4.452   6.746
 8703SOL    HW127008   3.081   4.385   6.769
 8703SOL    HW227009   3.242   4.416   6.769
 8704SOL     OW27010   7.005   3.152   4.063
 8704SOL    HW127011   0.001   3.085   3.992
 8704SOL    HW227012   6.966   3.233   4.020
 8705SOL     OW27013   4.499   2.187   6.553
 8705SOL    HW127014   4.509   2.258   6.622
 8705SOL    HW227015   4.469   2.228   6.467
 8706SOL     OW27016   6.005   2.839   0.278
 8706SOL    HW127017   5.989   2.823   0.180
 8706SOL    HW227018   6.089   2.794   0.306
 8707SOL     OW27019   0.746   2.574   3.533
 8707SOL    HW127020   0.774   2.642   3.466
 8707SOL    HW227021   0.821   2.509   3.549
 8708SOL     OW27022   4.563   1.744   4.245
 8708SOL    HW127023   4.517   1.727   4.158
 8708SOL    HW227024   4.600   1.658   4.280
 8709SOL     OW27025   7.015   0.082   6.668
 8709SOL    HW127026   0.080   0.103   6.639
 8709SOL    HW227027   6.999   0.118   6.760
 8710SOL     OW27028   1.951   2.331   3.637
 8710SOL    HW127029   1.986   2.248   3.593
 8710SOL    HW227030   1.990   2.338   3.729
 8711SOL     OW27031   1.422   0.854   1.513
 8711SOL    HW127032   1.513   0.819   1.491
 8711SOL    HW227033   1.353   0.797   1.468
 8712SOL     OW27034   2.831   1.749   4.648
 8712SOL    HW127035   2.891   1.812   4.696
 8712SOL    HW227036   2.737   1.785   4.648
 8713SOL     OW27037   0.277   4.076   1.601
 8713SOL    HW127038   0.330   4.043   1.523
 8713SOL    HW227039   0.198   4.017   1.614
 8714SOL     OW27040   0.757   6.472   0.041
 8714SOL    HW127041   0.798   6.382   0.029
 8714SOL    HW227042   0.818   6.542   0.003
 8715SOL     OW27043   3.198   2.097   0.088
 8715SOL    HW127044   3.261   2.112   0.164
 8715SOL    HW227045   3.232   2.021   0.032
 8716SOL     OW27046   6.752   6.475   0.793
 8716SOL    HW127047   6.740   6.429   0.881
 8716SOL    HW227048   6.806   6.558   0.807
 8717SOL     OW27049   2.380   3.153   6.003
 8717SOL    HW127050   2.369   3.076   6.066
 8717SOL    HW227051   2.476   3.181   6.002
 8718SOL     OW27052   1.339   2.950   6.274
 8718SOL    HW127053   1.424   2.983   6.316
 8718SOL    HW227054   1.285   3.028   6.243
 8719SOL     OW27055   4.357   1.290   0.068
 8719SOL    HW127056   4.306   1.258   0.148
 8719SOL    HW227057   4.433   1.228   0.050
 8720SOL     OW27058   0.323   5.474   5.515
 8720SOL    HW127059   0.331   5.381   5.481
 8720SOL    HW227060   0.239   5.483   5.569
 8721SOL     OW27061   6.603   6.950   6.928
 8721SOL    HW127062   6.555   6.969   6.843
 8721SOL    HW227063   6.543   6.970   7.005
 8722SOL     OW27064   3.276   1.125   0.482
 8722SOL    HW127065   3.314   1.216   0.498
 8722SOL    HW227066   3.196   1.132   0.423
 8723SOL     OW27067   5.639   6.565   2.096
 8723SOL    HW127068   5.577   6.634   2.133
 8723SOL    HW227069   5.633   6.481   2.150
 8724SOL     OW27070   5.126   0.042   4.120
 8724SOL    HW127071   5.100   0.003   4.208
 8724SOL    HW227072   5.113   0.141   4.121
 8725SOL     OW27073   0.464   6.341   4.642
 8725SOL    HW127074   0.539   6.278   4.663
 8725SOL    HW227075   0.411   6.358   4.726
 8726SOL     OW27076   6.961   1.382   0.661
 8726SOL    HW127077   6.910   1.316   0.607
 8726SOL    HW227078   6.933   1.375   0.757
 8727SOL     OW27079   5.760   6.945   6.947
 8727SOL    HW127080   5.773   6.929   0.016
 8727SOL    HW227081   5.787   6.863   6.896
 8728SOL     OW27082   5.273   1.271   2.601
 8728SOL    HW127083   5.279   1.212   2.521
 8728SOL    HW227084   5.270   1.215   2.684
 8729SOL     OW27085   2.933   5.624   5.439
 8729SOL    HW127086   2.936   5.530   5.472
 8729SOL    HW227087   2.895   5.683   5.510
 8730SOL     OW27088   5.169   4.367   3.399
 8730SOL    HW127089   5.144   4.336   3.308
 8730SOL    HW227090   5.190   4.465   3.397
 8731SOL     OW27091   0.322   3.208   2.992
 8731SOL    HW127092   0.407   3.210   3.045
 8731SOL    HW227093   0.309   3.296   2.947
 8732SOL     OW27094   5.277   4.436   1.152
 8732SOL    HW127095   5.214   4.499   1.198
 8732SOL    HW227096   5.343   4.400   1.218
 8733SOL     OW27097   0.469   5.553   1.373
 8733SOL    HW127098   0.546   5.488   1.373
 8733SOL    HW227099   0.472   5.608   1.456
 8734SOL     OW27100   0.050   3.360   2.513
 8734SOL    HW127101   6.994   3.343   2.461
 8734SOL    HW227102   0.026   3.377   2.609
 8735SOL     OW27103   1.090   3.633   5.170
 8735SOL    HW127104   1.038   3.553   5.140
 8735SOL    HW227105   1.120   3.685   5.090
 8736SOL     OW27106   0.666   5.126   2.126
 8736SOL    HW127107   0.644   5.151   2.031
 8736SOL    HW227108   0.592   5.155   2.186
 8737SOL     OW27109   2.583   6.171   6.246
 8737SOL    HW127110   2.628   6.130   6.167
 8737SOL    HW227111   2.640   6.160   6.327
 8738SOL     OW27112   1.757   4.051   3.552
 8738SOL    HW127113   1.733   4.115   3.625
 8738SOL    HW227114   1.730   4.091   3.464
 8739SOL     OW27115   5.300   4.436   4.976
 8739SOL    HW127116   5.270   4.463   4.884
 8739SOL    HW227117   5.241   4.363   5.010
 8740SOL     OW27118   3.896   2.055   2.920
 8740SOL    HW127119   3.979   2.085   2.967
 8740SOL    HW227120   3.916   2.037   2.824
 8741SOL     OW27121   2.874   0.150   2.141
 8741SOL    HW127122   2.874   0.111   2.233
 8741SOL    HW227123   2.837   0.243   2.144
 8742SOL     OW27124   3.887   1.057   2.448
 8742SOL    HW127125   3.815   1.052   2.379
 8742SOL    HW227126   3.924   1.150   2.451
 8743SOL     OW27127   2.039   1.378   1.993
 8743SOL    HW127128   2.063   1.357   1.898
 8743SOL    HW227129   1.996   1.468   1.998
 8744SOL     OW27130   4.902   2.650   0.443
 8744SOL    HW127131   4.998   2.633   0.467
 8744SOL    HW227132   4.871   2.578   0.382
 8745SOL     OW27133   6.934   2.201   6.430
 8745SOL    HW127134   7.002   2.153   6.485
 8745SOL    HW227135   6.980   2.262   6.366
 8746SOL     OW27136   4.793   5.452   4.533
 8746SOL    HW127137   4.856   5.501   4.594
 8746SOL    HW227138   4.811   5.480   4.439
 8747SOL     OW27139   6.798   1.524   2.185
 8747SOL    HW127140   6.896   1.542   2.192
 8747SOL    HW227141   6.757   1.583   2.115
 8748SOL     OW27142   1.235   1.494   4.048
 8748SOL    HW127143   1.288   1.466   3.967
 8748SOL    HW227144   1.256   1.589   4.070
 8749SOL     OW27145   2.164   0.935   5.502
 8749SOL    HW127146   2.078   0.899   5.538
 8749SOL    HW227147   2.192   0.880   5.424
 8750SOL     OW27148   3.990   2.859   5.545
 8750SOL    HW127149   4.052   2.936   5.528
 8750SOL    HW227150   4.015   2.816   5.632
 8751SOL     OW27151   6.512   0.234   0.471
 8751SOL    HW127152   6.580   0.288   0.520
 8751SOL    HW227153   6.426   0.285   0.465
 8752SOL     OW27154   5.449   2.931   6.924
 8752SOL    HW127155   5.546   2.921   6.947
 8752SOL    HW227156   5.419   2.852   6.871
 8753SOL     OW27157   2.266   3.558   6.940
 8753SOL    HW127158   2.355   3.557   6.895
 8753SOL    HW227159   2.266   3.491   7.015
 8754SOL     OW27160   2.763   5.172   6.499
 8754SOL    HW127161   2.855   5.144   6.474
 8754SOL    HW227162   2.725   5.107   6.566
 8755SOL     OW27163   1.240   0.946   1.092
 8755SOL    HW127164   1.236   1.045   1.077
 8755SOL    HW227165   1.161   0.903   1.048
 8756SOL     OW27166   2.141   2.940   3.358
 8756SOL    HW127167   2.132   2.893   3.445
 8756SOL    HW227168   2.116   3.036   3.369
 8757SOL     OW27169   5.022   6.243   5.948
 8757SOL    HW127170   5.025   6.147   5.920
 8757SOL    HW227171   5.090   6.260   6.019
 8758SOL     OW27172   4.324   6.831   3.239
 8758SOL    HW127173   4.245   6.769   3.234
 8758SOL    HW227174   4.406   6.779   3.262
 8759SOL     OW27175   6.274   1.970   6.849
 8759SOL    HW127176   6.181   2.003   6.836
 8759SOL    HW227177   6.276   1.905   6.926
 8760SOL     OW27178   2.401   2.190   4.037
 8760SOL    HW127179   2.408   2.282   4.075
 8760SOL    HW227180   2.338   2.136   4.091
 8761SOL     OW27181   5.514   1.740   1.892
 8761SOL    HW127182   5.606   1.775   1.910
 8761SOL    HW227183   5.475   1.704   1.977
 8762SOL     OW27184   1.644   6.046   3.456
 8762SOL    HW127185   1.569   6.035   3.521
 8762SOL    HW227186   1.686   5.957   3.438
 8763SOL     OW27187   6.720   0.811   4.816
 8763SOL    HW127188   6.620   0.806   4.822
 8763SOL    HW227189   6.748   0.808   4.720
 8764SOL     OW27190   4.314   6.225   6.230
 8764SOL    HW127191   4.377   6.302   6.216
 8764SOL    HW227192   4.303   6.209   6.328
 8765SOL     OW27193   5.526   1.134   4.984
 8765SOL    HW127194   5.563   1.113   5.074
 8765SOL    HW227195   5.563   1.221   4.952
 8766SOL     OW27196   4.180   4.334   5.340
 8766SOL    HW127197   4.203   4.401   5.269
 8766SOL    HW227198   4.256   4.327   5.405
 8767SOL     OW27199   3.376   0.216   3.751
 8767SOL    HW127200   3.343   0.306   3.780
 8767SOL    HW227201   3.472   0.206   3.776
 8768SOL     OW27202   0.871   2.159   0.306
 8768SOL    HW127203   0.943   2.221   0.336
 8768SOL    HW227204   0.903   2.065   0.316
 8769SOL     OW27205   6.852   1.218   1.743
 8769SOL    HW127206   6.896   1.242   1.830
 8769SOL    HW227207   6.922   1.192   1.677
 8770SOL     OW27208   5.631   4.251   2.185
 8770SOL    HW127209   5.675   4.340   2.173
 8770SOL    HW227210   5.554   4.243   2.122
 8771SOL     OW27211   0.738   3.139   6.418
 8771SOL    HW127212   0.769   3.116   6.326
 8771SOL    HW227213   0.813   3.181   6.469
 8772SOL     OW27214   5.248   0.762   5.027
 8772SOL    HW127215   5.307   0.812   4.964
 8772SOL    HW227216   5.159   0.748   4.984
 8773SOL     OW27217   6.046   2.323   3.735
 8773SOL    HW127218   5.953   2.358   3.735
 8773SOL    HW227219   6.066   2.282   3.824
 8774SOL     OW27220   0.762   6.772   6.360
 8774SOL    HW127221   0.855   6.792   6.329
 8774SOL    HW227222   0.696   6.804   6.292
 8775SOL     OW27223   5.401   1.638   5.298
 8775SOL    HW127224   5.447   1.701   5.235
 8775SOL    HW227225   5.400   1.546   5.258
 8776SOL     OW27226   4.926   3.301   1.180
 8776SOL    HW127227   4.842   3.339   1.219
 8776SOL    HW227228   4.970   3.369   1.121
 8777SOL     OW27229   0.583   3.581   3.003
 8777SOL    HW127230   0.671   3.567   3.048
 8777SOL    HW227231   0.548   3.671   3.027
 8778SOL     OW27232   4.527   4.124   6.007
 8778SOL    HW127233   4.508   4.191   6.079
 8778SOL    HW227234   4.622   4.134   5.978
 8779SOL     OW27235   2.723   5.497   2.455
 8779SOL    HW127236   2.688   5.428   2.392
 8779SOL    HW227237   2.812   5.469   2.489
 8780SOL     OW27238   0.153   5.785   2.423
 8780SOL    HW127239   0.106   5.697   2.416
 8780SOL    HW227240   0.252   5.769   2.426
 8781SOL     OW27241   4.161   0.001   3.178
 8781SOL    HW127242   4.233   6.973   3.220
 8781SOL    HW227243   4.108   6.973   3.115
 8782SOL     OW27244   5.794   1.219   1.928
 8782SOL    HW127245   5.721   1.237   1.862
 8782SOL    HW227246   5.866   1.166   1.885
 8783SOL     OW27247   5.708   2.825   4.249
 8783SOL    HW127248   5.790   2.775   4.222
 8783SOL    HW227249   5.661   2.858   4.167
 8784SOL     OW27250   6.395   6.289   0.623
 8784SOL    HW127251   6.420   6.220   0.556
 8784SOL    HW227252   6.353   6.246   0.703
 8785SOL     OW27253   0.645   5.503   6.184
 8785SOL    HW127254   0.556   5.522   6.144
 8785SOL    HW227255   0.717   5.534   6.121
 8786SOL     OW27256   4.126   1.793   2.548
 8786SOL    HW127257   4.042   1.743   2.569
 8786SOL    HW227258   4.103   1.888   2.525
 8787SOL     OW27259   3.883   0.610   1.206
 8787SOL    HW127260   3.822   0.569   1.139
 8787SOL    HW227261   3.921   0.539   1.265
 8788SOL     OW27262   6.863   0.799   5.196
 8788SOL    HW127263   6.763   0.795   5.206
 8788SOL    HW227264   6.887   0.856   5.117
 8789SOL     OW27265   6.844   4.177   5.162
 8789SOL    HW127266   6.768   4.113   5.154
 8789SOL    HW227267   6.931   4.127   5.157
 8790SOL     OW27268   6.511   1.973   0.377
 8790SOL    HW127269   6.503   2.003   0.282
 8790SOL    HW227270   6.433   1.914   0.400
 8791SOL     OW27271   4.645   6.251   5.039
 8791SOL    HW127272   4.680   6.341   5.012
 8791SOL    HW227273   4.693   6.180   4.987
 8792SOL     OW27274   3.455   5.358   2.234
 8792SOL    HW127275   3.528   5.328   2.295
 8792SOL    HW227276   3.431   5.453   2.254
 8793SOL     OW27277   1.006   4.667   4.579
 8793SOL    HW127278   1.059   4.608   4.518
 8793SOL    HW227279   0.909   4.658   4.558
 8794SOL     OW27280   6.185   1.353   3.297
 8794SOL    HW127281   6.259   1.358   3.364
 8794SOL    HW227282   6.129   1.272   3.315
 8795SOL     OW27283   1.445   5.057   5.264
 8795SOL    HW127284   1.415   4.981   5.321
 8795SOL    HW227285   1.417   5.143   5.307
 8796SOL     OW27286   6.149   3.844   3.162
 8796SOL    HW127287   6.145   3.931   3.211
 8796SOL    HW227288   6.219   3.786   3.203
 8797SOL     OW27289   0.281   0.257   4.132
 8797SOL    HW127290   0.287   0.193   4.209
 8797SOL    HW227291   0.290   0.207   4.046
 8798SOL     OW27292   4.611   6.693   5.588
 8798SOL    HW127293   4.680   6.765   5.584
 8798SOL    HW227294   4.650   6.610   5.627
 8799SOL     OW27295   1.770   4.929   2.203
 8799SOL    HW127296   1.859   4.892   2.229
 8799SOL    HW227297   1.701   4.856   2.206
 8800SOL     OW27298   5.909   6.079   5.582
 8800SOL    HW127299   5.882   6.101   5.488
 8800SOL    HW227300   6.005   6.051   5.583
 8801SOL     OW27301   6.054   1.957   5.487
 8801SOL    HW127302   6.067   1.993   5.395
 8801SOL    HW227303   5.960   1.975   5.517
 8802SOL     OW27304   1.340   5.951   5.178
 8802SOL    HW127305   1.397   5.962   5.260
 8802SOL    HW227306   1.243   5.952   5.204
 8803SOL     OW27307   6.810   0.955   0.095
 8803SOL    HW127308   6.863   1.040   0.098
 8803SOL    HW227309   6.727   0.966   0.150
 8804SOL     OW27310   2.290   6.097   1.175
 8804SOL    HW127311   2.204   6.144   1.155
 8804SOL    HW227312   2.364   6.165   1.180
 8805SOL     OW27313   4.231   5.423   3.549
 8805SOL    HW127314   4.281   5.503   3.517
 8805SOL    HW227315   4.274   5.388   3.632
 8806SOL     OW27316   2.357   5.909   0.543
 8806SOL    HW127317   2.396   5.866   0.624
 8806SOL    HW227318   2.257   5.904   0.547
 8807SOL     OW27319   4.737   2.063   0.140
 8807SOL    HW127320   4.718   2.030   0.232
 8807SOL    HW227321   4.797   2.143   0.144
 8808SOL     OW27322   1.252   2.671   0.103
 8808SOL    HW127323   1.296   2.590   0.142
 8808SOL    HW227324   1.221   2.730   0.177
 8809SOL     OW27325   2.225   4.180   3.369
 8809SOL    HW127326   2.133   4.220   3.361
 8809SOL    HW227327   2.276   4.228   3.440
 8810SOL     OW27328   6.106   0.985   5.277
 8810SOL    HW127329   6.135   1.039   5.198
 8810SOL    HW227330   6.151   1.019   5.359
 8811SOL     OW27331   4.741   0.361   2.880
 8811SOL    HW127332   4.649   0.369   2.920
 8811SOL    HW227333   4.742   0.404   2.790
 8812SOL     OW27334   3.272   7.001   6.776
 8812SOL    HW127335   3.369   7.002   6.800
 8812SOL    HW227336   3.217   7.020   6.857
 8813SOL     OW27337   2.516   4.521   2.543
 8813SOL    HW127338   2.615   4.517   2.558
 8813SOL    HW227339   2.480   4.607   2.580
 8814SOL     OW27340   5.466   6.709   0.763
 8814SOL    HW127341   5.465   6.747   0.671
 8814SOL    HW227342   5.544   6.648   0.775
 8815SOL     OW27343   5.485   0.802   1.164
 8815SOL    HW127344   5.574   0.760   1.182
 8815SOL    HW227345   5.414   0.731   1.160
 8816SOL     OW27346   0.270   6.556   6.710
 8816SOL    HW127347   0.325   6.573   6.792
 8816SOL    HW227348   0.322   6.584   6.629
 8817SOL     OW27349   0.660   3.277   4.110
 8817SOL    HW127350   0.742   3.288   4.167
 8817SOL    HW227351   0.614   3.192   4.134
 8818SOL     OW27352   1.544   6.644   3.358
 8818SOL    HW127353   1.608   6.569   3.372
 8818SOL    HW227354   1.516   6.648   3.262
 8819SOL     OW27355   5.538   4.419   5.170
 8819SOL    HW127356   5.619   4.453   5.122
 8819SOL    HW227357   5.462   4.483   5.157
 8820SOL     OW27358   3.323   1.110   4.491
 8820SOL    HW127359   3.305   1.058   4.408
 8820SOL    HW227360   3.236   1.132   4.536
 8821SOL     OW27361   0.839   4.980   0.202
 8821SOL    HW127362   0.887   5.068   0.193
 8821SOL    HW227363   0.825   4.940   0.112
 8822SOL     OW27364   0.142   0.251   3.302
 8822SOL    HW127365   0.220   0.311   3.285
 8822SOL    HW227366   0.061   0.307   3.323
 8823SOL     OW27367   2.391   0.548   2.752
 8823SOL    HW127368   2.477   0.505   2.778
 8823SOL    HW227369   2.392   0.570   2.655
 8824SOL     OW27370   1.669   0.164   1.596
 8824SOL    HW127371   1.734   0.201   1.664
 8824SOL    HW227372   1.597   0.231   1.580
 8825SOL     OW27373   0.308   0.896   1.435
 8825SOL    HW127374   0.340   0.984   1.399
 8825SOL    HW227375   0.386   0.843   1.466
 8826SOL     OW27376   0.808   3.282   0.643
 8826SOL    HW127377   0.904   3.257   0.655
 8826SOL    HW227378   0.789   3.291   0.545
 8827SOL     OW27379   4.033   0.831   2.411
 8827SOL    HW127380   3.990   0.916   2.443
 8827SOL    HW227381   4.125   0.825   2.448
 8828SOL     OW27382   4.008   4.501   6.470
 8828SOL    HW127383   3.911   4.496   6.447
 8828SOL    HW227384   4.054   4.417   6.442
 8829SOL     OW27385   6.161   1.783   1.913
 8829SOL    HW127386   6.216   1.827   1.841
 8829SOL    HW227387   6.201   1.694   1.935
 8830SOL     OW27388   1.687   1.718   1.865
 8830SOL    HW127389   1.680   1.780   1.944
 8830SOL    HW227390   1.688   1.772   1.781
 8831SOL     OW27391   6.502   2.881   2.456
 8831SOL    HW127392   6.536   2.949   2.391
 8831SOL    HW227393   6.485   2.795   2.407
 8832SOL     OW27394   6.867   6.303   4.385
 8832SOL    HW127395   6.926   6.277   4.308
 8832SOL    HW227396   6.920   6.357   4.450
 8833SOL     OW27397   3.503   3.420   1.162
 8833SOL    HW127398   3.527   3.340   1.106
 8833SOL    HW227399   3.541   3.409   1.253
 8834SOL     OW27400   5.803   3.479   5.102
 8834SOL    HW127401   5.751   3.396   5.121
 8834SOL    HW227402   5.793   3.504   5.006
 8835SOL     OW27403   5.889   1.031   5.654
 8835SOL    HW127404   5.954   1.103   5.680
 8835SOL    HW227405   5.885   0.962   5.727
 8836SOL     OW27406   6.295   2.353   0.493
 8836SOL    HW127407   6.218   2.292   0.474
 8836SOL    HW227408   6.327   2.394   0.407
 8837SOL     OW27409   0.262   0.245   1.595
 8837SOL    HW127410   0.165   0.268   1.600
 8837SOL    HW227411   0.277   0.175   1.526
 8838SOL     OW27412   0.877   4.320   2.283
 8838SOL    HW127413   0.905   4.244   2.225
 8838SOL    HW227414   0.957   4.369   2.316
 8839SOL     OW27415   4.758   5.445   2.457
 8839SOL    HW127416   4.702   5.527   2.444
 8839SOL    HW227417   4.845   5.471   2.500
 8840SOL     OW27418   6.300   0.608   2.028
 8840SOL    HW127419   6.394   0.575   2.018
 8840SOL    HW227420   6.264   0.580   2.117
 8841SOL     OW27421   4.167   1.055   2.074
 8841SOL    HW127422   4.109   1.127   2.035
 8841SOL    HW227423   4.200   1.084   2.164
 8842SOL     OW27424   3.087   3.977   4.035
 8842SOL    HW127425   3.077   3.982   4.135
 8842SOL    HW227426   3.050   3.890   4.002
 8843SOL     OW27427   1.755   3.313   4.921
 8843SOL    HW127428   1.676   3.264   4.886
 8843SOL    HW227429   1.838   3.257   4.909
 8844SOL     OW27430   6.928   2.292   5.480
 8844SOL    HW127431   6.833   2.279   5.509
 8844SOL    HW227432   6.943   2.244   5.394
 8845SOL     OW27433   2.181   5.377   1.087
 8845SOL    HW127434   2.224   5.397   0.999
 8845SOL    HW227435   2.229   5.426   1.160
 8846SOL     OW27436   5.244   4.848   4.156
 8846SOL    HW127437   5.247   4.945   4.178
 8846SOL    HW227438   5.324   4.802   4.195
 8847SOL     OW27439   1.524   1.188   2.245
 8847SOL    HW127440   1.469   1.127   2.303
 8847SOL    HW227441   1.465   1.261   2.210
 8848SOL     OW27442   3.236   2.058   1.929
 8848SOL    HW127443   3.159   2.049   1.993
 8848SOL    HW227444   3.222   2.139   1.872
 8849SOL     OW27445   2.567   5.484   3.863
 8849SOL    HW127446   2.554   5.397   3.910
 8849SOL    HW227447   2.485   5.506   3.810
 8850SOL     OW27448   2.659   1.268   0.657
 8850SOL    HW127449   2.663   1.172   0.683
 8850SOL    HW227450   2.709   1.323   0.724
 8851SOL     OW27451   1.034   4.626   2.573
 8851SOL    HW127452   0.989   4.554   2.626
 8851SOL    HW227453   1.014   4.715   2.614
 8852SOL     OW27454   5.168   3.116   6.541
 8852SOL    HW127455   5.195   3.195   6.596
 8852SOL    HW227456   5.098   3.144   6.475
 8853SOL     OW27457   3.497   0.827   4.807
 8853SOL    HW127458   3.549   0.836   4.722
 8853SOL    HW227459   3.484   0.731   4.828
 8854SOL     OW27460   2.136   0.393   6.038
 8854SOL    HW127461   2.066   0.326   6.014
 8854SOL    HW227462   2.096   0.484   6.043
 8855SOL     OW27463   6.180   5.584   6.769
 8855SOL    HW127464   6.269   5.561   6.806
 8855SOL    HW227465   6.120   5.615   6.843
 8856SOL     OW27466   6.869   0.038   4.870
 8856SOL    HW127467   6.798   0.100   4.904
 8856SOL    HW227468   6.959   0.078   4.885
 8857SOL     OW27469   6.080   1.785   3.314
 8857SOL    HW127470   6.036   1.788   3.403
 8857SOL    HW227471   6.148   1.858   3.308
 8858SOL     OW27472   1.665   3.588   5.774
 8858SOL    HW127473   1.667   3.625   5.682
 8858SOL    HW227474   1.715   3.650   5.836
 8859SOL     OW27475   0.907   7.020   5.400
 8859SOL    HW127476   0.892   6.941   5.460
 8859SOL    HW227477   0.819   0.033   5.376
 8860SOL     OW27478   1.875   4.066   2.561
 8860SOL    HW127479   1.833   3.976   2.553
 8860SOL    HW227480   1.971   4.061   2.535
 8861SOL     OW27481   3.656   2.622   6.171
 8861SOL    HW127482   3.567   2.654   6.139
 8861SOL    HW227483   3.726   2.689   6.149
 8862SOL     OW27484   5.935   1.493   3.898
 8862SOL    HW127485   5.855   1.478   3.957
 8862SOL    HW227486   5.933   1.586   3.861
 8863SOL     OW27487   2.062   5.799   4.529
 8863SOL    HW127488   2.032   5.819   4.436
 8863SOL    HW227489   1.988   5.755   4.579
 8864SOL     OW27490   2.549   3.253   6.381
 8864SOL    HW127491   2.562   3.246   6.480
 8864SOL    HW227492   2.455   3.280   6.361
 8865SOL     OW27493   3.256   0.918   4.807
 8865SOL    HW127494   3.327   0.847   4.802
 8865SOL    HW227495   3.166   0.874   4.811
 8866SOL     OW27496   4.087   6.359   3.361
 8866SOL    HW127497   4.173   6.345   3.312
 8866SOL    HW227498   4.076   6.288   3.430
 8867SOL     OW27499   5.476   2.392   3.143
 8867SOL    HW127500   5.564   2.424   3.109
 8867SOL    HW227501   5.445   2.314   3.088
 8868SOL     OW27502   5.315   3.693   0.945
 8868SOL    HW127503   5.403   3.674   0.986
 8868SOL    HW227504   5.247   3.710   1.017
 8869SOL     OW27505   4.048   4.910   3.127
 8869SOL    HW127506   4.111   4.849   3.080
 8869SOL    HW227507   3.955   4.873   3.121
 8870SOL     OW27508   3.079   0.212   0.892
 8870SOL    HW127509   3.045   0.284   0.953
 8870SOL    HW227510   3.064   0.122   0.935
 8871SOL     OW27511   3.326   1.611   3.541
 8871SOL    HW127512   3.398   1.567   3.595
 8871SOL    HW227513   3.263   1.543   3.506
 8872SOL     OW27514   1.620   3.839   4.490
 8872SOL    HW127515   1.632   3.868   4.585
 8872SOL    HW227516   1.623   3.739   4.485
 8873SOL     OW27517   6.337   5.775   2.181
 8873SOL    HW127518   6.360   5.872   2.176
 8873SOL    HW227519   6.325   5.739   2.088
 8874SOL     OW27520   2.390   0.104   1.282
 8874SOL    HW127521   2.374   0.015   1.241
 8874SOL    HW227522   2.307   0.136   1.329
 8875SOL     OW27523   1.147   2.550   4.470
 8875SOL    HW127524   1.133   2.556   4.569
 8875SOL    HW227525   1.231   2.598   4.445
 8876SOL     OW27526   0.252   7.025   4.875
 8876SOL    HW127527   0.210   6.946   4.831
 8876SOL    HW227528   0.182   0.065   4.895
 8877SOL     OW27529   2.687   0.566   4.114
 8877SOL    HW127530   2.753   0.585   4.188
 8877SOL    HW227531   2.606   0.622   4.128
 8878SOL     OW27532   0.559   5.008   1.165
 8878SOL    HW127533   0.501   4.940   1.119
 8878SOL    HW227534   0.502   5.063   1.226
 8879SOL     OW27535   5.568   5.048   0.967
 8879SOL    HW127536   5.506   5.124   0.950
 8879SOL    HW227537   5.519   4.961   0.960
 8880SOL     OW27538   0.531   5.701   4.815
 8880SOL    HW127539   0.530   5.601   4.803
 8880SOL    HW227540   0.585   5.725   4.895
 8881SOL     OW27541   5.960   0.420   3.306
 8881SOL    HW127542   5.950   0.379   3.215
 8881SOL    HW227543   5.954   0.349   3.376
 8882SOL     OW27544   5.023   0.708   0.383
 8882SOL    HW127545   5.062   0.764   0.310
 8882SOL    HW227546   5.072   0.726   0.468
 8883SOL     OW27547   0.542   1.182   6.020
 8883SOL    HW127548   0.531   1.083   6.017
 8883SOL    HW227549   0.452   1.226   6.018
 8884SOL     OW27550   5.719   6.274   6.506
 8884SOL    HW127551   5.622   6.292   6.521
 8884SOL    HW227552   5.745   6.299   6.413
 8885SOL     OW27553   6.204   3.510   1.180
 8885SOL    HW127554   6.253   3.587   1.220
 8885SOL    HW227555   6.155   3.461   1.251
 8886SOL     OW27556   3.060   5.963   5.697
 8886SOL    HW127557   3.029   6.033   5.632
 8886SOL    HW227558   3.093   6.007   5.780
 8887SOL     OW27559   2.919   1.312   1.216
 8887SOL    HW127560   2.937   1.385   1.151
 8887SOL    HW227561   2.943   1.224   1.175
 8888SOL     OW27562   1.245   1.769   1.339
 8888SOL    HW127563   1.264   1.769   1.241
 8888SOL    HW227564   1.213   1.859   1.367
 8889SOL     OW27565   4.916   6.472   5.800
 8889SOL    HW127566   4.965   6.456   5.715
 8889SOL    HW227567   4.935   6.397   5.864
 8890SOL     OW27568   6.506   6.313   5.025
 8890SOL    HW127569   6.429   6.256   5.053
 8890SOL    HW227570   6.532   6.291   4.931
 8891SOL     OW27571   6.077   3.157   5.939
 8891SOL    HW127572   6.043   3.063   5.949
 8891SOL    HW227573   6.103   3.193   6.028
 8892SOL     OW27574   2.991   6.371   3.456
 8892SOL    HW127575   2.953   6.464   3.454
 8892SOL    HW227576   2.937   6.314   3.518
 8893SOL     OW27577   0.612   0.532   2.121
 8893SOL    HW127578   0.670   0.581   2.057
 8893SOL    HW227579   0.580   0.447   2.079
 8894SOL     OW27580   3.963   3.511   6.089
 8894SOL    HW127581   3.923   3.559   6.011
 8894SOL    HW227582   3.900   3.513   6.166
 8895SOL     OW27583   7.022   0.506   1.399
 8895SOL    HW127584   6.925   0.520   1.384
 8895SOL    HW227585   0.034   0.586   1.444
 8896SOL     OW27586   1.079   3.258   4.808
 8896SOL    HW127587   0.983   3.233   4.821
 8896SOL    HW227588   1.125   3.260   4.897
 8897SOL     OW27589   1.316   1.484   2.161
 8897SOL    HW127590   1.355   1.495   2.252
 8897SOL    HW227591   1.232   1.536   2.153
 8898SOL     OW27592   6.217   3.366   4.749
 8898SOL    HW127593   6.299   3.403   4.794
 8898SOL    HW227594   6.194   3.423   4.671
 8899SOL     OW27595   1.703   4.129   6.895
 8899SOL    HW127596   1.726   4.199   6.828
 8899SOL    HW227597   1.606   4.133   6.916
 8900SOL     OW27598   5.328   3.774   2.775
 8900SOL    HW127599   5.244   3.721   2.769
 8900SOL    HW227600   5.351   3.812   2.685
 8901SOL     OW27601   2.688   0.652   3.825
 8901SOL    HW127602   2.690   0.602   3.912
 8901SOL    HW227603   2.692   0.750   3.843
 8902SOL     OW27604   2.899   6.043   6.234
 8902SOL    HW127605   2.910   5.962   6.292
 8902SOL    HW227606   2.966   6.112   6.260
 8903SOL     OW27607   2.488   1.008   4.037
 8903SOL    HW127608   2.525   1.099   4.052
 8903SOL    HW227609   2.388   1.011   4.041
 8904SOL     OW27610   7.024   5.191   3.953
 8904SOL    HW127611   0.093   5.212   3.951
 8904SOL    HW227612   7.006   5.113   3.893
 8905SOL     OW27613   1.809   4.139   4.444
 8905SOL    HW127614   1.714   4.128   4.412
 8905SOL    HW227615   1.810   4.195   4.527
 8906SOL     OW27616   6.783   6.808   6.624
 8906SOL    HW127617   6.782   6.906   6.606
 8906SOL    HW227618   6.767   6.758   6.538
 8907SOL     OW27619   3.190   2.059   5.250
 8907SOL    HW127620   3.272   2.026   5.297
 8907SOL    HW227621   3.209   2.148   5.209
 8908SOL     OW27622   1.509   3.154   6.894
 8908SOL    HW127623   1.477   3.122   6.983
 8908SOL    HW227624   1.511   3.077   6.830
 8909SOL     OW27625   1.937   0.448   5.185
 8909SOL    HW127626   1.899   0.536   5.154
 8909SOL    HW227627   1.868   0.399   5.238
 8910SOL     OW27628   2.120   3.091   6.044
 8910SOL    HW127629   2.062   3.031   6.099
 8910SOL    HW227630   2.216   3.077   6.068
 8911SOL     OW27631   3.374   2.097   5.030
 8911SOL    HW127632   3.279   2.068   5.020
 8911SOL    HW227633   3.378   2.186   5.075
 8912SOL     OW27634   4.211   1.306   6.779
 8912SOL    HW127635   4.301   1.270   6.755
 8912SOL    HW227636   4.221   1.372   6.854
 8913SOL     OW27637   5.059   4.741   1.149
 8913SOL    HW127638   5.083   4.697   1.236
 8913SOL    HW227639   4.977   4.698   1.112
 8914SOL     OW27640   4.601   1.002   5.840
 8914SOL    HW127641   4.565   0.972   5.928
 8914SOL    HW227642   4.609   0.923   5.778
 8915SOL     OW27643   1.329   2.289   3.979
 8915SOL    HW127644   1.333   2.220   3.908
 8915SOL    HW227645   1.312   2.379   3.938
 8916SOL     OW27646   0.675   3.391   2.066
 8916SOL    HW127647   0.728   3.328   2.009
 8916SOL    HW227648   0.590   3.347   2.094
 8917SOL     OW27649   5.953   5.165   5.975
 8917SOL    HW127650   6.033   5.135   6.027
 8917SOL    HW227651   5.887   5.209   6.036
 8918SOL     OW27652   6.790   6.116   0.333
 8918SOL    HW127653   6.764   6.132   0.238
 8918SOL    HW227654   6.884   6.083   0.337
 8919SOL     OW27655   4.482   3.253   0.753
 8919SOL    HW127656   4.518   3.171   0.796
 8919SOL    HW227657   4.422   3.227   0.677
 8920SOL     OW27658   0.001   6.507   6.759
 8920SOL    HW127659   0.100   6.500   6.750
 8920SOL    HW227660   7.004   6.509   6.855
 8921SOL     OW27661   1.882   1.544   3.213
 8921SOL    HW127662   1.882   1.493   3.127
 8921SOL    HW227663   1.912   1.638   3.196
 8922SOL     OW27664   2.521   5.214   1.087
 8922SOL    HW127665   2.599   5.162   1.053
 8922SOL    HW227666   2.458   5.153   1.135
 8923SOL     OW27667   2.078   3.878   6.396
 8923SOL    HW127668   2.071   3.977   6.390
 8923SOL    HW227669   2.172   3.852   6.419
 8924SOL     OW27670   2.803   5.770   5.656
 8924SOL    HW127671   2.715   5.819   5.661
 8924SOL    HW227672   2.877   5.834   5.674
 8925SOL     OW27673   1.022   0.631   2.263
 8925SOL    HW127674   0.927   0.604   2.253
 8925SOL    HW227675   1.082   0.554   2.239
 8926SOL     OW27676   5.733   2.694   0.734
 8926SOL    HW127677   5.777   2.607   0.708
 8926SOL    HW227678   5.649   2.705   0.681
 8927SOL     OW27679   2.255   1.772   5.008
 8927SOL    HW127680   2.260   1.713   4.927
 8927SOL    HW227681   2.191   1.732   5.074
 8928SOL     OW27682   6.917   0.904   4.960
 8928SOL    HW127683   6.969   0.962   4.898
 8928SOL    HW227684   6.854   0.846   4.908
 8929SOL     OW27685   0.315   3.871   3.802
 8929SOL    HW127686   0.342   3.851   3.708
 8929SOL    HW227687   0.225   3.830   3.820
 8930SOL     OW27688   1.697   4.809   5.060
 8930SOL    HW127689   1.638   4.746   5.010
 8930SOL    HW227690   1.786   4.814   5.015
 8931SOL     OW27691   3.605   2.962   0.827
 8931SOL    HW127692   3.669   3.029   0.789
 8931SOL    HW227693   3.538   2.936   0.757
 8932SOL     OW27694   5.177   0.076   6.605
 8932SOL    HW127695   5.131   0.048   6.689
 8932SOL    HW227696   5.270   0.105   6.627
 8933SOL     OW27697   0.988   2.080   5.410
 8933SOL    HW127698   0.976   1.986   5.378
 8933SOL    HW227699   0.898   2.123   5.421
 8934SOL     OW27700   2.628   5.311   3.476
 8934SOL    HW127701   2.595   5.333   3.385
 8934SOL    HW227702   2.561   5.252   3.522
 8935SOL     OW27703   4.925   3.781   1.883
 8935SOL    HW127704   4.891   3.702   1.935
 8935SOL    HW227705   4.993   3.829   1.937
 8936SOL     OW27706   0.250   3.234   0.745
 8936SOL    HW127707   0.244   3.300   0.670
 8936SOL    HW227708   0.188   3.261   0.819
 8937SOL     OW27709   0.495   0.974   4.186
 8937SOL    HW127710   0.577   0.923   4.212
 8937SOL    HW227711   0.484   0.971   4.086
 8938SOL     OW27712   6.358   1.561   0.678
 8938SOL    HW127713   6.386   1.657   0.666
 8938SOL    HW227714   6.410   1.503   0.615
 8939SOL     OW27715   6.554   2.979   4.804
 8939SOL    HW127716   6.483   3.000   4.737
 8939SOL    HW227717   6.624   3.051   4.802
 8940SOL     OW27718   6.412   2.480   0.274
 8940SOL    HW127719   6.504   2.450   0.299
 8940SOL    HW227720   6.379   2.426   0.197
 8941SOL     OW27721   5.031   2.146   1.644
 8941SOL    HW127722   4.982   2.196   1.715
 8941SOL    HW227723   5.125   2.180   1.638
 8942SOL     OW27724   0.439   4.988   4.216
 8942SOL    HW127725   0.422   5.086   4.230
 8942SOL    HW227726   0.360   4.947   4.170
 8943SOL     OW27727   4.289   4.526   0.133
 8943SOL    HW127728   4.211   4.555   0.078
 8943SOL    HW227729   4.257   4.493   0.222
 8944SOL     OW27730   4.667   4.711   4.380
 8944SOL    HW127731   4.680   4.774   4.304
 8944SOL    HW227732   4.751   4.707   4.435
 8945SOL     OW27733   6.733   3.259   4.838
 8945SOL    HW127734   6.792   3.203   4.780
 8945SOL    HW227735   6.784   3.338   4.871
 8946SOL     OW27736   3.432   0.574   4.687
 8946SOL    HW127737   3.342   0.546   4.652
 8946SOL    HW227738   3.502   0.552   4.619
 8947SOL     OW27739   1.723   4.558   6.562
 8947SOL    HW127740   1.712   4.470   6.608
 8947SOL    HW227741   1.818   4.566   6.530
 8948SOL     OW27742   6.627   6.180   4.149
 8948SOL    HW127743   6.623   6.265   4.202
 8948SOL    HW227744   6.629   6.202   4.051
 8949SOL     OW27745   3.759   6.069   0.011
 8949SOL    HW127746   3.833   6.107   0.067
 8949SOL    HW227747   3.699   6.013   0.067
 8950SOL     OW27748   4.921   3.662   1.280
 8950SOL    HW127749   4.825   3.665   1.306
 8950SOL    HW227750   4.977   3.640   1.360
 8951SOL     OW27751   2.212   1.009   4.348
 8951SOL    HW127752   2.211   1.042   4.443
 8951SOL    HW227753   2.212   0.909   4.348
 8952SOL     OW27754   2.036   4.716   3.875
 8952SOL    HW127755   2.091   4.690   3.796
 8952SOL    HW227756   1.943   4.681   3.864
 8953SOL     OW27757   2.540   5.326   1.710
 8953SOL    HW127758   2.607   5.275   1.763
 8953SOL    HW227759   2.573   5.335   1.615
 8954SOL     OW27760   0.804   5.746   3.943
 8954SOL    HW127761   0.901   5.759   3.963
 8954SOL    HW227762   0.789   5.651   3.913
 8955SOL     OW27763   6.967   2.933   2.791
 8955SOL    HW127764   6.915   2.929   2.705
 8955SOL    HW227765   0.016   2.997   2.780
 8956SOL     OW27766   0.818   6.948   6.600
 8956SOL    HW127767   0.894   6.894   6.636
 8956SOL    HW227768   0.777   6.901   6.521
 8957SOL     OW27769   1.983   5.531   1.916
 8957SOL    HW127770   2.061   5.572   1.963
 8957SOL    HW227771   1.940   5.464   1.977
 8958SOL     OW27772   1.729   2.921   4.897
 8958SOL    HW127773   1.756   2.839   4.847
 8958SOL    HW227774   1.810   2.964   4.937
 8959SOL     OW27775   1.123   3.309   2.201
 8959SOL    HW127776   1.026   3.286   2.206
 8959SOL    HW227777   1.167   3.290   2.288
 8960SOL     OW27778   6.361   4.438   4.091
 8960SOL    HW127779   6.401   4.500   4.022
 8960SOL    HW227780   6.332   4.354   4.047
 8961SOL     OW27781   2.983   0.227   4.073
 8961SOL    HW127782   3.045   0.286   4.125
 8961SOL    HW227783   3.036   0.169   4.011
 8962SOL     OW27784   0.738   6.263   1.756
 8962SOL    HW127785   0.817   6.236   1.810
 8962SOL    HW227786   0.702   6.184   1.706
 8963SOL     OW27787   3.468   6.015   4.501
 8963SOL    HW127788   3.453   6.066   4.585
 8963SOL    HW227789   3.486   5.919   4.522
 8964SOL     OW27790   5.714   3.790   2.961
 8964SOL    HW127791   5.675   3.768   3.051
 8964SOL    HW227792   5.641   3.788   2.892
 8965SOL     OW27793   3.004   4.531   0.169
 8965SOL    HW127794   3.100   4.514   0.145
 8965SOL    HW227795   2.995   4.625   0.203
 8966SOL     OW27796   6.678   5.700   6.279
 8966SOL    HW127797   6.752   5.638   6.252
 8966SOL    HW227798   6.668   5.772   6.210
 8967SOL     OW27799   4.091   0.479   3.626
 8967SOL    HW127800   3.995   0.462   3.646
 8967SOL    HW227801   4.147   0.409   3.670
 8968SOL     OW27802   2.610   4.889   1.643
 8968SOL    HW127803   2.546   4.908   1.718
 8968SOL    HW227804   2.701   4.871   1.680
 8969SOL     OW27805   0.396   0.004   3.364
 8969SOL    HW127806   0.300   7.005   3.361
 8969SOL    HW227807   0.422   0.025   3.458
 8970SOL     OW27808   1.685   2.798   6.382
 8970SOL    HW127809   1.700   2.765   6.288
 8970SOL    HW227810   1.635   2.885   6.380
 8971SOL     OW27811   4.702   6.936   1.435
 8971SOL    HW127812   4.743   6.853   1.471
 8971SOL    HW227813   4.746   6.960   1.348
 8972SOL     OW27814   5.546   4.923   0.567
 8972SOL    HW127815   5.579   4.926   0.473
 8972SOL    HW227816   5.446   4.925   0.567
 8973SOL     OW27817   0.262   2.554   2.142
 8973SOL    HW127818   0.312   2.560   2.228
 8973SOL    HW227819   0.249   2.646   2.104
 8974SOL     OW27820   2.113   3.421   4.118
 8974SOL    HW127821   2.092   3.456   4.209
 8974SOL    HW227822   2.169   3.487   4.069
 8975SOL     OW27823   0.388   6.692   6.476
 8975SOL    HW127824   0.404   6.790   6.489
 8975SOL    HW227825   0.343   6.678   6.388
 8976SOL     OW27826   6.317   6.708   1.311
 8976SOL    HW127827   6.299   6.655   1.229
 8976SOL    HW227828   6.413   6.737   1.312
 8977SOL     OW27829   6.989   5.041   6.311
 8977SOL    HW127830   6.897   5.067   6.283
 8977SOL    HW227831   0.027   5.109   6.277
 8978SOL     OW27832   5.345   6.578   4.821
 8978SOL    HW127833   5.309   6.490   4.852
 8978SOL    HW227834   5.268   6.640   4.802
 8979SOL     OW27835   0.762   5.540   5.926
 8979SOL    HW127836   0.836   5.603   5.901
 8979SOL    HW227837   0.785   5.448   5.894
 8980SOL     OW27838   4.332   1.930   5.788
 8980SOL    HW127839   4.245   1.978   5.784
 8980SOL    HW227840   4.383   1.960   5.869
 8981SOL     OW27841   4.633   2.207   5.675
 8981SOL    HW127842   4.720   2.223   5.627
 8981SOL    HW227843   4.595   2.119   5.647
 8982SOL     OW27844   6.332   1.697   1.474
 8982SOL    HW127845   6.377   1.674   1.560
 8982SOL    HW227846   6.233   1.700   1.488
 8983SOL     OW27847   1.268   4.969   1.853
 8983SOL    HW127848   1.168   4.979   1.845
 8983SOL    HW227849   1.291   4.943   1.947
 8984SOL     OW27850   6.172   7.025   4.232
 8984SOL    HW127851   6.239   0.056   4.278
 8984SOL    HW227852   6.081   0.012   4.272
 8985SOL     OW27853   4.767   1.634   1.002
 8985SOL    HW127854   4.811   1.547   1.022
 8985SOL    HW227855   4.816   1.707   1.050
 8986SOL     OW27856   5.308   4.374   2.164
 8986SOL    HW127857   5.342   4.311   2.095
 8986SOL    HW227858   5.384   4.413   2.216
 8987SOL     OW27859   3.016   0.433   1.061
 8987SOL    HW127860   3.075   0.386   1.127
 8987SOL    HW227861   3.046   0.527   1.049
 8988SOL     OW27862   1.746   5.391   1.054
 8988SOL    HW127863   1.758   5.388   1.153
 8988SOL    HW227864   1.777   5.479   1.019
 8989SOL     OW27865   5.060   2.894   2.718
 8989SOL    HW127866   4.995   2.961   2.755
 8989SOL    HW227867   5.023   2.854   2.635
 8990SOL     OW27868   2.739   6.217   0.988
 8990SOL    HW127869   2.826   6.202   1.036
 8990SOL    HW227870   2.756   6.221   0.889
 8991SOL     OW27871   2.367   2.683   1.031
 8991SOL    HW127872   2.444   2.739   1.060
 8991SOL    HW227873   2.366   2.597   1.083
 8992SOL     OW27874   0.299   3.043   0.266
 8992SOL    HW127875   0.332   2.949   0.263
 8992SOL    HW227876   0.272   3.072   0.174
 8993SOL     OW27877   4.825   1.963   3.590
 8993SOL    HW127878   4.901   1.907   3.557
 8993SOL    HW227879   4.856   2.058   3.599
 8994SOL     OW27880   1.655   4.873   4.676
 8994SOL    HW127881   1.713   4.853   4.755
 8994SOL    HW227882   1.565   4.831   4.689
 8995SOL     OW27883   1.064   2.715   5.115
 8995SOL    HW127884   1.056   2.616   5.123
 8995SOL    HW227885   0.976   2.757   5.141
 8996SOL     OW27886   0.507   3.628   0.899
 8996SOL    HW127887   0.447   3.623   0.979
 8996SOL    HW227888   0.546   3.537   0.881
 8997SOL     OW27889   5.155   1.074   5.648
 8997SOL    HW127890   5.068   1.095   5.603
 8997SOL    HW227891   5.137   1.046   5.743
 8998SOL     OW27892   0.195   2.461   4.875
 8998SOL    HW127893   0.223   2.366   4.889
 8998SOL    HW227894   0.097   2.471   4.894
 8999SOL     OW27895   5.242   1.058   6.110
 8999SOL    HW127896   5.291   1.058   6.022
 8999SOL    HW227897   5.298   1.104   6.178
 9000SOL     OW27898   3.032   3.895   6.914
 9000SOL    HW127899   2.933   3.896   6.926
 9000SOL    HW227900   3.077   3.905   7.003
 9001SOL     OW27901   1.213   4.678   3.498
 9001SOL    HW127902   1.269   4.693   3.580
 9001SOL    HW227903   1.258   4.611   3.439
 9002SOL     OW27904   6.952   5.345   5.567
 9002SOL    HW127905   6.889   5.306   5.635
 9002SOL    HW227906   6.942   5.296   5.481
 9003SOL     OW27907   6.716   2.438   0.329
 9003SOL    HW127908   6.727   2.368   0.400
 9003SOL    HW227909   6.802   2.449   0.279
 9004SOL     OW27910   4.992   6.816   1.558
 9004SOL    HW127911   4.986   6.841   1.654
 9004SOL    HW227912   5.031   6.892   1.506
 9005SOL     OW27913   5.243   2.032   3.995
 9005SOL    HW127914   5.207   2.053   4.086
 9005SOL    HW227915   5.209   1.943   3.965
 9006SOL     OW27916   1.334   5.324   0.874
 9006SOL    HW127917   1.295   5.377   0.950
 9006SOL    HW227918   1.430   5.305   0.892
 9007SOL     OW27919   3.124   5.082   3.604
 9007SOL    HW127920   3.039   5.105   3.556
 9007SOL    HW227921   3.106   5.010   3.670
 9008SOL     OW27922   6.558   4.617   2.624
 9008SOL    HW127923   6.657   4.614   2.627
 9008SOL    HW227924   6.521   4.625   2.717
 9009SOL     OW27925   2.897   6.653   0.786
 9009SOL    HW127926   2.986   6.649   0.832
 9009SOL    HW227927   2.824   6.642   0.854
 9010SOL     OW27928   1.001   6.765   4.370
 9010SOL    HW127929   1.022   6.711   4.451
 9010SOL    HW227930   1.025   6.712   4.288
 9011SOL     OW27931   4.124   2.255   1.513
 9011SOL    HW127932   4.047   2.241   1.449
 9011SOL    HW227933   4.089   2.259   1.606
 9012SOL     OW27934   1.582   5.226   0.891
 9012SOL    HW127935   1.640   5.262   0.964
 9012SOL    HW227936   1.607   5.130   0.873
 9013SOL     OW27937   6.323   5.950   4.687
 9013SOL    HW127938   6.355   5.912   4.600
 9013SOL    HW227939   6.237   5.905   4.713
 9014SOL     OW27940   1.603   1.164   0.087
 9014SOL    HW127941   1.586   1.247   0.140
 9014SOL    HW227942   1.535   1.095   0.110
 9015SOL     OW27943   0.140   1.020   6.837
 9015SOL    HW127944   0.111   0.976   6.922
 9015SOL    HW227945   0.178   1.111   6.858
 9016SOL     OW27946   6.710   6.456   5.626
 9016SOL    HW127947   6.685   6.497   5.713
 9016SOL    HW227948   6.786   6.508   5.586
 9017SOL     OW27949   6.228   1.968   3.954
 9017SOL    HW127950   6.318   1.940   3.986
 9017SOL    HW227951   6.158   1.933   4.017
 9018SOL     OW27952   3.736   1.435   5.225
 9018SOL    HW127953   3.757   1.532   5.214
 9018SOL    HW227954   3.639   1.423   5.243
 9019SOL     OW27955   2.490   6.423   6.828
 9019SOL    HW127956   2.475   6.446   6.924
 9019SOL    HW227957   2.545   6.495   6.785
 9020SOL     OW27958   1.724   4.345   2.199
 9020SOL    HW127959   1.639   4.395   2.182
 9020SOL    HW227960   1.716   4.253   2.163
 9021SOL     OW27961   6.662   6.698   3.904
 9021SOL    HW127962   6.587   6.669   3.846
 9021SOL    HW227963   6.646   6.668   3.998
 9022SOL     OW27964   2.396   0.183   0.235
 9022SOL    HW127965   2.490   0.216   0.243
 9022SOL    HW227966   2.384   0.103   0.292
 9023SOL     OW27967   3.372   3.709   3.987
 9023SOL    HW127968   3.348   3.639   4.054
 9023SOL    HW227969   3.464   3.743   4.005
 9024SOL     OW27970   1.540   6.280   6.278
 9024SOL    HW127971   1.504   6.274   6.185
 9024SOL    HW227972   1.618   6.219   6.288
 9025SOL     OW27973   6.260   5.568   1.296
 9025SOL    HW127974   6.320   5.495   1.328
 9025SOL    HW227975   6.307   5.656   1.305
 9026SOL     OW27976   3.745   3.044   4.140
 9026SOL    HW127977   3.743   3.130   4.090
 9026SOL    HW227978   3.754   2.968   4.075
 9027SOL     OW27979   2.818   2.088   3.352
 9027SOL    HW127980   2.761   2.170   3.360
 9027SOL    HW227981   2.889   2.089   3.422
 9028SOL     OW27982   2.084   4.785   6.098
 9028SOL    HW127983   2.183   4.771   6.108
 9028SOL    HW227984   2.067   4.880   6.071
 9029SOL     OW27985   3.621   4.966   4.781
 9029SOL    HW127986   3.612   4.873   4.747
 9029SOL    HW227987   3.544   4.988   4.841
 9030SOL     OW27988   1.809   0.823   2.322
 9030SOL    HW127989   1.790   0.817   2.224
 9030SOL    HW227990   1.789   0.916   2.354
 9031SOL     OW27991   3.127   5.677   5.268
 9031SOL    HW127992   3.054   5.647   5.328
 9031SOL    HW227993   3.109   5.646   5.175
 9032SOL     OW27994   3.314   2.697   1.076
 9032SOL    HW127995   3.238   2.734   1.128
 9032SOL    HW227996   3.295   2.704   0.978
 9033SOL     OW27997   2.200   2.945   4.208
 9033SOL    HW127998   2.165   3.013   4.273
 9033SOL    HW227999   2.267   2.887   4.253
 9034SOL     OW28000   2.685   6.994   5.219
 9034SOL    HW128001   2.720   6.920   5.161
 9034SOL    HW228002   2.613   0.015   5.171
 9035SOL     OW28003   0.680   6.727   5.275
 9035SOL    HW128004   0.750   6.710   5.206
 9035SOL    HW228005   0.606   6.780   5.235
 9036SOL     OW28006   2.171   2.701   5.413
 9036SOL    HW128007   2.077   2.682   5.442
 9036SOL    HW228008   2.225   2.730   5.492
 9037SOL     OW28009   2.548   3.923   6.449
 9037SOL    HW128010   2.605   3.983   6.505
 9037SOL    HW228011   2.592   3.910   6.359
 9038SOL     OW28012   5.517   0.944   6.177
 9038SOL    HW128013   5.544   0.849   6.194
 9038SOL    HW228014   5.437   0.946   6.117
 9039SOL     OW28015   1.759   4.561   5.456
 9039SOL    HW128016   1.776   4.473   5.500
 9039SOL    HW228017   1.663   4.587   5.468
 9040SOL     OW28018   2.729   0.777   3.052
 9040SOL    HW128019   2.755   0.794   2.956
 9040SOL    HW228020   2.675   0.853   3.086
 9041SOL     OW28021   0.668   1.833   2.163
 9041SOL    HW128022   0.570   1.829   2.148
 9041SOL    HW228023   0.700   1.744   2.197
 9042SOL     OW28024   3.017   6.856   3.496
 9042SOL    HW128025   2.973   6.775   3.533
 9042SOL    HW228026   2.960   6.936   3.514
 9043SOL     OW28027   2.248   2.213   6.083
 9043SOL    HW128028   2.230   2.265   6.000
 9043SOL    HW228029   2.239   2.272   6.163
 9044SOL     OW28030   6.189   1.042   0.411
 9044SOL    HW128031   6.188   1.104   0.333
 9044SOL    HW228032   6.150   1.089   0.491
 9045SOL     OW28033   4.205   0.753   3.191
 9045SOL    HW128034   4.193   0.740   3.290
 9045SOL    HW228035   4.115   0.769   3.149
 9046SOL     OW28036   3.575   4.305   5.668
 9046SOL    HW128037   3.657   4.262   5.631
 9046SOL    HW228038   3.591   4.404   5.677
 9047SOL     OW28039   2.052   4.165   5.296
 9047SOL    HW128040   2.145   4.198   5.312
 9047SOL    HW228041   2.046   4.070   5.326
 9048SOL     OW28042   1.880   3.741   5.913
 9048SOL    HW128043   1.960   3.769   5.966
 9048SOL    HW228044   1.906   3.723   5.819
 9049SOL     OW28045   5.077   6.024   6.367
 9049SOL    HW128046   5.013   6.038   6.291
 9049SOL    HW228047   5.107   5.929   6.369
 9050SOL     OW28048   1.010   5.194   0.191
 9050SOL    HW128049   0.989   5.241   0.106
 9050SOL    HW228050   1.024   5.261   0.264
 9051SOL     OW28051   4.194   6.336   0.791
 9051SOL    HW128052   4.294   6.344   0.789
 9051SOL    HW228053   4.156   6.372   0.706
 9052SOL     OW28054   2.480   4.645   4.523
 9052SOL    HW128055   2.450   4.741   4.530
 9052SOL    HW228056   2.573   4.637   4.559
 9053SOL     OW28057   2.571   2.470   3.890
 9053SOL    HW128058   2.659   2.428   3.871
 9053SOL    HW228059   2.504   2.440   3.822
 9054SOL     OW28060   1.878   0.504   2.274
 9054SOL    HW128061   1.962   0.474   2.319
 9054SOL    HW228062   1.858   0.598   2.301
 9055SOL     OW28063   0.485   3.767   3.615
 9055SOL    HW128064   0.494   3.682   3.562
 9055SOL    HW228065   0.571   3.817   3.611
 9056SOL     OW28066   4.886   0.642   1.489
 9056SOL    HW128067   4.807   0.679   1.536
 9056SOL    HW228068   4.859   0.608   1.398
 9057SOL     OW28069   6.114   4.631   6.430
 9057SOL    HW128070   6.158   4.704   6.377
 9057SOL    HW228071   6.128   4.648   6.527
 9058SOL     OW28072   1.766   1.882   4.816
 9058SOL    HW128073   1.707   1.962   4.818
 9058SOL    HW228074   1.829   1.888   4.738
 9059SOL     OW28075   6.241   0.666   3.070
 9059SOL    HW128076   6.263   0.757   3.037
 9059SOL    HW228077   6.322   0.624   3.111
 9060SOL     OW28078   6.877   3.613   2.252
 9060SOL    HW128079   6.961   3.613   2.198
 9060SOL    HW228080   6.868   3.526   2.300
 9061SOL     OW28081   4.764   5.443   3.060
 9061SOL    HW128082   4.794   5.533   3.029
 9061SOL    HW228083   4.692   5.453   3.128
 9062SOL     OW28084   1.310   4.650   1.943
 9062SOL    HW128085   1.299   4.744   1.973
 9062SOL    HW228086   1.269   4.588   2.010
 9063SOL     OW28087   3.159   1.444   2.481
 9063SOL    HW128088   3.202   1.354   2.489
 9063SOL    HW228089   3.225   1.514   2.507
 9064SOL     OW28090   6.469   4.261   4.300
 9064SOL    HW128091   6.516   4.183   4.259
 9064SOL    HW228092   6.440   4.323   4.228
 9065SOL     OW28093   2.576   6.071   5.520
 9065SOL    HW128094   2.537   6.007   5.455
 9065SOL    HW228095   2.596   6.024   5.606
 9066SOL     OW28096   6.501   6.917   6.012
 9066SOL    HW128097   6.459   6.942   6.100
 9066SOL    HW228098   6.441   6.946   5.938
 9067SOL     OW28099   6.664   6.182   4.798
 9067SOL    HW128100   6.746   6.185   4.855
 9067SOL    HW228101   6.690   6.190   4.702
 9068SOL     OW28102   3.845   6.902   5.014
 9068SOL    HW128103   3.913   6.931   5.082
 9068SOL    HW228104   3.787   6.980   4.990
 9069SOL     OW28105   5.276   2.352   2.852
 9069SOL    HW128106   5.243   2.309   2.936
 9069SOL    HW228107   5.202   2.405   2.811
 9070SOL     OW28108   1.693   2.056   6.420
 9070SOL    HW128109   1.762   2.046   6.348
 9070SOL    HW228110   1.735   2.096   6.501
 9071SOL     OW28111   5.301   0.761   6.150
 9071SOL    HW128112   5.252   0.847   6.141
 9071SOL    HW228113   5.321   0.743   6.246
 9072SOL     OW28114   5.031   6.861   1.839
 9072SOL    HW128115   5.130   6.848   1.845
 9072SOL    HW228116   5.007   6.948   1.880
 9073SOL     OW28117   4.200   6.662   0.699
 9073SOL    HW128118   4.100   6.658   0.696
 9073SOL    HW228119   4.232   6.621   0.784
 9074SOL     OW28120   1.735   0.900   1.173
 9074SOL    HW128121   1.657   0.845   1.141
 9074SOL    HW228122   1.700   0.978   1.225
 9075SOL     OW28123   0.110   0.599   2.252
 9075SOL    HW128124   0.067   0.573   2.165
 9075SOL    HW228125   0.077   0.689   2.280
 9076SOL     OW28126   4.553   1.334   4.015
 9076SOL    HW128127   4.536   1.261   3.948
 9076SOL    HW228128   4.483   1.404   4.006
 9077SOL     OW28129   4.817   1.305   6.244
 9077SOL    HW128130   4.750   1.363   6.200
 9077SOL    HW228131   4.785   1.279   6.335
 9078SOL     OW28132   5.627   5.077   6.585
 9078SOL    HW128133   5.689   5.151   6.610
 9078SOL    HW228134   5.541   5.115   6.553
 9079SOL     OW28135   1.460   0.308   5.134
 9079SOL    HW128136   1.527   0.267   5.073
 9079SOL    HW228137   1.413   0.236   5.185
 9080SOL     OW28138   6.477   2.879   6.798
 9080SOL    HW128139   6.510   2.885   6.703
 9080SOL    HW228140   6.435   2.965   6.824
 9081SOL     OW28141   3.433   1.818   1.420
 9081SOL    HW128142   3.406   1.797   1.326
 9081SOL    HW228143   3.362   1.873   1.463
 9082SOL     OW28144   2.726   6.731   4.800
 9082SOL    HW128145   2.649   6.680   4.762
 9082SOL    HW228146   2.799   6.738   4.732
 9083SOL     OW28147   4.481   4.337   6.182
 9083SOL    HW128148   4.555   4.365   6.244
 9083SOL    HW228149   4.397   4.323   6.235
 9084SOL     OW28150   0.791   2.114   6.350
 9084SOL    HW128151   0.754   2.159   6.269
 9084SOL    HW228152   0.880   2.153   6.372
 9085SOL     OW28153   2.497   6.042   1.528
 9085SOL    HW128154   2.565   6.018   1.597
 9085SOL    HW228155   2.420   6.088   1.571
 9086SOL     OW28156   6.252   4.326   0.932
 9086SOL    HW128157   6.349   4.334   0.954
 9086SOL    HW228158   6.198   4.322   1.016
 9087SOL     OW28159   5.455   2.859   2.619
 9087SOL    HW128160   5.505   2.926   2.673
 9087SOL    HW228161   5.407   2.796   2.681
 9088SOL     OW28162   5.655   0.008   1.747
 9088SOL    HW128163   5.662   0.051   1.837
 9088SOL    HW228164   5.632   0.078   1.679
 9089SOL     OW28165   4.096   5.636   5.064
 9089SOL    HW128166   4.013   5.619   5.117
 9089SOL    HW228167   4.123   5.552   5.017
 9090SOL     OW28168   4.921   6.551   4.710
 9090SOL    HW128169   4.962   6.484   4.647
 9090SOL    HW228170   4.824   6.561   4.689
 9091SOL     OW28171   2.912   2.813   0.832
 9091SOL    HW128172   3.012   2.801   0.833
 9091SOL    HW228173   2.888   2.894   0.885
 9092SOL     OW28174   1.348   0.985   6.589
 9092SOL    HW128175   1.318   1.050   6.518
 9092SOL    HW228176   1.446   0.997   6.605
 9093SOL     OW28177   1.714   6.361   0.161
 9093SOL    HW128178   1.752   6.304   0.234
 9093SOL    HW228179   1.654   6.305   0.103
 9094SOL     OW28180   0.926   5.393   3.059
 9094SOL    HW128181   0.880   5.345   3.134
 9094SOL    HW228182   0.975   5.472   3.096
 9095SOL     OW28183   5.426   3.781   6.488
 9095SOL    HW128184   5.461   3.707   6.431
 9095SOL    HW228185   5.397   3.857   6.430
 9096SOL     OW28186   5.103   3.355   2.890
 9096SOL    HW128187   5.115   3.412   2.809
 9096SOL    HW228188   5.155   3.271   2.880
 9097SOL     OW28189   0.212   3.178   0.054
 9097SOL    HW128190   0.244   3.271   0.039
 9097SOL    HW228191   0.123   3.166   0.010
 9098SOL     OW28192   3.552   3.222   0.961
 9098SOL    HW128193   3.614   3.192   0.888
 9098SOL    HW228194   3.461   3.237   0.922
 9099SOL     OW28195   3.203   3.850   0.727
 9099SOL    HW128196   3.266   3.793   0.674
 9099SOL    HW228197   3.198   3.815   0.821
 9100SOL     OW28198   1.065   2.824   2.832
 9100SOL    HW128199   1.036   2.911   2.872
 9100SOL    HW228200   0.988   2.783   2.783
 9101SOL     OW28201   2.135   2.892   2.786
 9101SOL    HW128202   2.081   2.878   2.869
 9101SOL    HW228203   2.127   2.987   2.758
 9102SOL     OW28204   3.573   6.534   1.406
 9102SOL    HW128205   3.524   6.589   1.338
 9102SOL    HW228206   3.659   6.501   1.367
 9103SOL     OW28207   6.688   3.779   0.149
 9103SOL    HW128208   6.607   3.769   0.207
 9103SOL    HW228209   6.678   3.860   0.092
 9104SOL     OW28210   4.234   6.139   2.036
 9104SOL    HW128211   4.147   6.141   2.085
 9104SOL    HW228212   4.297   6.206   2.077
 9105SOL     OW28213   1.288   0.670   0.450
 9105SOL    HW128214   1.352   0.606   0.407
 9105SOL    HW228215   1.285   0.754   0.397
 9106SOL     OW28216   5.665   4.045   6.698
 9106SOL    HW128217   5.631   4.126   6.650
 9106SOL    HW228218   5.719   3.988   6.636
 9107SOL     OW28219   4.114   0.490   6.308
 9107SOL    HW128220   4.085   0.493   6.212
 9107SOL    HW228221   4.169   0.408   6.323
 9108SOL     OW28222   4.768   4.419   5.872
 9108SOL    HW128223   4.849   4.477   5.880
 9108SOL    HW228224   4.786   4.332   5.918
 9109SOL     OW28225   1.470   2.736   2.787
 9109SOL    HW128226   1.507   2.738   2.880
 9109SOL    HW228227   1.405   2.661   2.778
 9110SOL     OW28228   1.844   4.342   4.015
 9110SOL    HW128229   1.819   4.437   3.998
 9110SOL    HW228230   1.859   4.328   4.113
 9111SOL     OW28231   4.376   3.734   0.493
 9111SOL    HW128232   4.377   3.634   0.490
 9111SOL    HW228233   4.331   3.765   0.577
 9112SOL     OW28234   0.513   4.544   4.684
 9112SOL    HW128235   0.466   4.631   4.666
 9112SOL    HW228236   0.446   4.470   4.682
 9113SOL     OW28237   4.479   6.395   0.785
 9113SOL    HW128238   4.417   6.466   0.817
 9113SOL    HW228239   4.549   6.378   0.855
 9114SOL     OW28240   1.724   4.920   1.481
 9114SOL    HW128241   1.823   4.929   1.491
 9114SOL    HW228242   1.693   4.836   1.525
 9115SOL     OW28243   1.150   5.844   5.736
 9115SOL    HW128244   1.133   5.824   5.639
 9115SOL    HW228245   1.248   5.856   5.751
 9116SOL     OW28246   6.552   2.194   0.844
 9116SOL    HW128247   6.614   2.270   0.863
 9116SOL    HW228248   6.543   2.182   0.745
 9117SOL     OW28249   6.262   2.897   0.006
 9117SOL    HW128250   6.296   2.989   7.013
 9117SOL    HW228251   6.333   2.847   0.057
 9118SOL     OW28252   6.642   5.853   0.682
 9118SOL    HW128253   6.691   5.794   0.746
 9118SOL    HW228254   6.681   5.945   0.685
 9119SOL     OW28255   5.571   1.577   2.294
 9119SOL    HW128256   5.649   1.528   2.257
 9119SOL    HW228257   5.494   1.572   2.230
 9120SOL     OW28258   6.061   3.320   5.715
 9120SOL    HW128259   6.052   3.269   5.629
 9120SOL    HW228260   6.050   3.258   5.792
 9121SOL     OW28261   1.811   2.689   6.598
 9121SOL    HW128262   1.762   2.737   6.526
 9121SOL    HW228263   1.746   2.640   6.656
 9122SOL     OW28264   1.842   3.388   2.035
 9122SOL    HW128265   1.882   3.444   1.962
 9122SOL    HW228266   1.783   3.318   1.995
 9123SOL     OW28267   3.547   0.323   4.800
 9123SOL    HW128268   3.483   0.396   4.775
 9123SOL    HW228269   3.592   0.348   4.886
 9124SOL     OW28270   5.748   7.001   5.619
 9124SOL    HW128271   5.733   0.017   5.530
 9124SOL    HW228272   5.679   0.004   5.684
 9125SOL     OW28273   5.096   3.919   2.031
 9125SOL    HW128274   5.045   3.999   2.065
 9125SOL    HW228275   5.191   3.926   2.061
 9126SOL     OW28276   5.516   2.271   2.287
 9126SOL    HW128277   5.610   2.246   2.311
 9126SOL    HW228278   5.485   2.346   2.345
 9127SOL     OW28279   6.562   1.657   6.265
 9127SOL    HW128280   6.627   1.683   6.192
 9127SOL    HW228281   6.543   1.737   6.322
 9128SOL     OW28282   4.162   1.324   5.011
 9128SOL    HW128283   4.098   1.324   4.935
 9128SOL    HW228284   4.125   1.380   5.086
 9129SOL     OW28285   0.497   3.067   1.414
 9129SOL    HW128286   0.420   3.039   1.472
 9129SOL    HW228287   0.540   2.987   1.374
 9130SOL     OW28288   6.613   3.224   0.745
 9130SOL    HW128289   6.595   3.243   0.842
 9130SOL    HW228290   6.710   3.204   0.732
 9131SOL     OW28291   0.051   3.158   5.814
 9131SOL    HW128292   0.065   3.158   5.715
 9131SOL    HW228293   0.119   3.217   5.858
 9132SOL     OW28294   0.038   4.665   4.406
 9132SOL    HW128295   7.017   4.580   4.424
 9132SOL    HW228296   0.135   4.646   4.395
 9133SOL     OW28297   3.832   6.463   1.290
 9133SOL    HW128298   3.894   6.529   1.247
 9133SOL    HW228299   3.808   6.392   1.223
 9134SOL     OW28300   4.190   5.680   0.489
 9134SOL    HW128301   4.197   5.616   0.565
 9134SOL    HW228302   4.177   5.773   0.524
 9135SOL     OW28303   6.521   5.918   1.831
 9135SOL    HW128304   6.595   5.971   1.792
 9135SOL    HW228305   6.510   5.833   1.779
 9136SOL     OW28306   5.437   5.288   5.835
 9136SOL    HW128307   5.490   5.358   5.787
 9136SOL    HW228308   5.343   5.291   5.804
 9137SOL     OW28309   5.427   1.964   1.192
 9137SOL    HW128310   5.483   2.005   1.264
 9137SOL    HW228311   5.334   2.000   1.196
 9138SOL     OW28312   6.464   5.750   5.825
 9138SOL    HW128313   6.536   5.745   5.756
 9138SOL    HW228314   6.490   5.696   5.906
 9139SOL     OW28315   2.382   1.612   4.809
 9139SOL    HW128316   2.451   1.629   4.880
 9139SOL    HW228317   2.426   1.603   4.720
 9140SOL     OW28318   6.035   3.140   2.807
 9140SOL    HW128319   6.098   3.068   2.836
 9140SOL    HW228320   5.991   3.113   2.721
 9141SOL     OW28321   5.806   0.446   6.986
 9141SOL    HW128322   5.825   0.422   6.891
 9141SOL    HW228323   5.887   0.429   0.013
 9142SOL     OW28324   1.162   1.862   1.086
 9142SOL    HW128325   1.182   1.781   1.032
 9142SOL    HW228326   1.092   1.917   1.039
 9143SOL     OW28327   5.665   2.582   1.165
 9143SOL    HW128328   5.586   2.614   1.113
 9143SOL    HW228329   5.634   2.519   1.237
 9144SOL     OW28330   2.480   5.523   5.783
 9144SOL    HW128331   2.430   5.547   5.866
 9144SOL    HW228332   2.574   5.557   5.789
 9145SOL     OW28333   6.720   5.380   0.420
 9145SOL    HW128334   6.644   5.438   0.447
 9145SOL    HW228335   6.694   5.322   0.343
 9146SOL     OW28336   5.250   2.827   3.033
 9146SOL    HW128337   5.251   2.742   3.086
 9146SOL    HW228338   5.157   2.864   3.031
 9147SOL     OW28339   5.900   0.308   4.116
 9147SOL    HW128340   5.932   0.290   4.023
 9147SOL    HW228341   5.978   0.310   4.178
 9148SOL     OW28342   5.045   6.277   0.464
 9148SOL    HW128343   5.066   6.300   0.559
 9148SOL    HW228344   4.953   6.310   0.441
 9149SOL     OW28345   5.744   3.389   3.707
 9149SOL    HW128346   5.719   3.484   3.689
 9149SOL    HW228347   5.796   3.353   3.630
 9150SOL     OW28348   3.006   5.473   2.493
 9150SOL    HW128349   3.047   5.466   2.584
 9150SOL    HW228350   3.039   5.399   2.435
 9151SOL     OW28351   1.795   4.577   3.883
 9151SOL    HW128352   1.708   4.625   3.873
 9151SOL    HW228353   1.822   4.539   3.795
 9152SOL     OW28354   2.323   4.749   4.770
 9152SOL    HW128355   2.267   4.754   4.852
 9152SOL    HW228356   2.349   4.841   4.741
 9153SOL     OW28357   1.040   3.166   0.673
 9153SOL    HW128358   1.116   3.194   0.732
 9153SOL    HW228359   1.071   3.161   0.578
 9154SOL     OW28360   4.295   5.075   6.303
 9154SOL    HW128361   4.255   5.034   6.384
 9154SOL    HW228362   4.241   5.154   6.275
 9155SOL     OW28363   1.464   3.218   1.706
 9155SOL    HW128364   1.411   3.297   1.677
 9155SOL    HW228365   1.404   3.139   1.716
 9156SOL     OW28366   1.229   2.883   0.747
 9156SOL    HW128367   1.280   2.956   0.701
 9156SOL    HW228368   1.258   2.795   0.711
 9157SOL     OW28369   6.600   4.805   5.897
 9157SOL    HW128370   6.628   4.819   5.993
 9157SOL    HW228371   6.549   4.719   5.889
 9158SOL     OW28372   5.852   3.423   4.673
 9158SOL    HW128373   5.933   3.458   4.627
 9158SOL    HW228374   5.839   3.327   4.648
 9159SOL     OW28375   2.115   0.181   2.351
 9159SOL    HW128376   2.084   0.267   2.391
 9159SOL    HW228377   2.205   0.194   2.310
 9160SOL     OW28378   6.409   0.403   5.304
 9160SOL    HW128379   6.502   0.437   5.294
 9160SOL    HW228380   6.397   0.365   5.396
 9161SOL     OW28381   4.675   4.398   4.877
 9161SOL    HW128382   4.688   4.485   4.830
 9161SOL    HW228383   4.581   4.391   4.908
 9162SOL     OW28384   4.371   0.742   4.710
 9162SOL    HW128385   4.325   0.788   4.634
 9162SOL    HW228386   4.453   0.696   4.677
 9163SOL     OW28387   1.500   2.875   4.510
 9163SOL    HW128388   1.561   2.945   4.473
 9163SOL    HW228389   1.550   2.790   4.522
 9164SOL     OW28390   2.940   1.006   6.236
 9164SOL    HW128391   2.906   1.009   6.142
 9164SOL    HW228392   3.039   0.997   6.235
 9165SOL     OW28393   6.048   2.333   5.622
 9165SOL    HW128394   6.012   2.249   5.582
 9165SOL    HW228395   5.979   2.373   5.683
 9166SOL     OW28396   4.157   5.979   0.552
 9166SOL    HW128397   4.236   6.013   0.500
 9166SOL    HW228398   4.088   6.050   0.558
 9167SOL     OW28399   2.019   2.770   6.967
 9167SOL    HW128400   2.004   2.854   6.914
 9167SOL    HW228401   2.006   2.691   6.908
 9168SOL     OW28402   6.947   0.021   6.376
 9168SOL    HW128403   7.025   0.025   6.313
 9168SOL    HW228404   6.981   0.027   6.470
 9169SOL     OW28405   5.998   1.158   4.690
 9169SOL    HW128406   6.036   1.070   4.718
 9169SOL    HW228407   5.908   1.145   4.650
 9170SOL     OW28408   1.519   5.832   0.165
 9170SOL    HW128409   1.533   5.811   0.069
 9170SOL    HW228410   1.533   5.750   0.220
 9171SOL     OW28411   4.355   5.044   0.815
 9171SOL    HW128412   4.308   5.104   0.879
 9171SOL    HW228413   4.330   5.069   0.721
 9172SOL     OW28414   3.741   1.274   3.621
 9172SOL    HW128415   3.710   1.307   3.710
 9172SOL    HW228416   3.682   1.200   3.590
 9173SOL     OW28417   6.171   3.780   5.171
 9173SOL    HW128418   6.084   3.804   5.214
 9173SOL    HW228419   6.244   3.835   5.211
 9174SOL     OW28420   5.423   3.878   1.820
 9174SOL    HW128421   5.348   3.846   1.763
 9174SOL    HW228422   5.474   3.949   1.770
 9175SOL     OW28423   1.054   0.490   5.055
 9175SOL    HW128424   1.147   0.487   5.018
 9175SOL    HW228425   1.023   0.584   5.059
 9176SOL     OW28426   3.239   0.978   5.488
 9176SOL    HW128427   3.189   1.058   5.456
 9176SOL    HW228428   3.194   0.895   5.454
 9177SOL     OW28429   0.778   4.949   5.233
 9177SOL    HW128430   0.717   5.023   5.263
 9177SOL    HW228431   0.815   4.971   5.143
 9178SOL     OW28432   1.547   5.598   0.379
 9178SOL    HW128433   1.559   5.594   0.479
 9178SOL    HW228434   1.583   5.514   0.339
 9179SOL     OW28435   2.386   4.946   4.440
 9179SOL    HW128436   2.346   5.028   4.398
 9179SOL    HW228437   2.416   4.968   4.533
 9180SOL     OW28438   6.427   2.682   3.102
 9180SOL    HW128439   6.488   2.681   3.023
 9180SOL    HW228440   6.332   2.670   3.072
 9181SOL     OW28441   4.399   1.953   5.300
 9181SOL    HW128442   4.449   2.024   5.250
 9181SOL    HW228443   4.428   1.952   5.395
 9182SOL     OW28444   2.807   6.781   2.071
 9182SOL    HW128445   2.817   6.876   2.042
 9182SOL    HW228446   2.880   6.726   2.030
 9183SOL     OW28447   4.875   5.716   0.520
 9183SOL    HW128448   4.837   5.648   0.583
 9183SOL    HW228449   4.817   5.797   0.521
 9184SOL     OW28450   4.814   1.355   0.541
 9184SOL    HW128451   4.825   1.344   0.640
 9184SOL    HW228452   4.800   1.452   0.519
 9185SOL     OW28453   4.286   6.646   4.328
 9185SOL    HW128454   4.280   6.576   4.257
 9185SOL    HW228455   4.301   6.602   4.417
 9186SOL     OW28456   5.518   5.912   4.593
 9186SOL    HW128457   5.562   5.954   4.514
 9186SOL    HW228458   5.521   5.975   4.670
 9187SOL     OW28459   2.449   2.053   0.818
 9187SOL    HW128460   2.518   2.066   0.746
 9187SOL    HW228461   2.452   1.959   0.850
 9188SOL     OW28462   1.305   6.372   1.189
 9188SOL    HW128463   1.341   6.283   1.161
 9188SOL    HW228464   1.318   6.384   1.287
 9189SOL     OW28465   4.154   5.803   1.588
 9189SOL    HW128466   4.238   5.776   1.637
 9189SOL    HW228467   4.179   5.857   1.508
 9190SOL     OW28468   3.021   4.295   6.087
 9190SOL    HW128469   3.109   4.272   6.045
 9190SOL    HW228470   3.026   4.387   6.127
 9191SOL     OW28471   6.121   2.383   6.356
 9191SOL    HW128472   6.189   2.313   6.334
 9191SOL    HW228473   6.153   2.436   6.434
 9192SOL     OW28474   0.926   3.220   5.882
 9192SOL    HW128475   0.901   3.127   5.909
 9192SOL    HW228476   0.843   3.275   5.870
 9193SOL     OW28477   4.732   4.669   6.954
 9193SOL    HW128478   4.689   4.632   0.008
 9193SOL    HW228479   4.815   4.718   6.980
 9194SOL     OW28480   3.165   0.631   3.303
 9194SOL    HW128481   3.235   0.589   3.244
 9194SOL    HW228482   3.075   0.593   3.280
 9195SOL     OW28483   1.944   1.825   3.463
 9195SOL    HW128484   1.990   1.828   3.374
 9195SOL    HW228485   1.845   1.825   3.450
 9196SOL     OW28486   5.237   0.494   2.795
 9196SOL    HW128487   5.248   0.537   2.706
 9196SOL    HW228488   5.140   0.476   2.812
 9197SOL     OW28489   2.099   5.833   1.547
 9197SOL    HW128490   2.017   5.889   1.556
 9197SOL    HW228491   2.143   5.853   1.459
 9198SOL     OW28492   6.077   5.171   6.808
 9198SOL    HW128493   6.109   5.258   6.772
 9198SOL    HW228494   5.994   5.186   6.861
 9199SOL     OW28495   1.048   3.960   5.952
 9199SOL    HW128496   1.000   3.937   6.037
 9199SOL    HW228497   1.081   4.054   5.956
 9200SOL     OW28498   2.727   6.367   7.003
 9200SOL    HW128499   2.750   6.453   0.021
 9200SOL    HW228500   2.810   6.327   6.963
 9201SOL     OW28501   6.963   2.648   0.260
 9201SOL    HW128502   6.984   2.580   0.330
 9201SOL    HW228503   6.951   2.738   0.303
 9202SOL     OW28504   1.343   6.349   2.438
 9202SOL    HW128505   1.348   6.447   2.420
 9202SOL    HW228506   1.253   6.315   2.412
 9203SOL     OW28507   0.679   4.037   6.245
 9203SOL    HW128508   0.714   4.036   6.339
 9203SOL    HW228509   0.626   4.120   6.231
 9204SOL     OW28510   4.957   2.997   6.170
 9204SOL    HW128511   4.986   2.980   6.076
 9204SOL    HW228512   4.858   3.014   6.172
 9205SOL     OW28513   5.808   5.068   3.375
 9205SOL    HW128514   5.807   4.968   3.380
 9205SOL    HW228515   5.726   5.099   3.328
 9206SOL     OW28516   3.935   5.862   2.655
 9206SOL    HW128517   3.962   5.945   2.703
 9206SOL    HW228518   3.926   5.882   2.557
 9207SOL     OW28519   5.312   3.712   5.962
 9207SOL    HW128520   5.301   3.629   5.907
 9207SOL    HW228521   5.364   3.780   5.909
 9208SOL     OW28522   5.670   4.612   3.583
 9208SOL    HW128523   5.590   4.556   3.559
 9208SOL    HW228524   5.680   4.614   3.682
 9209SOL     OW28525   4.000   0.549   6.772
 9209SOL    HW128526   3.986   0.506   6.683
 9209SOL    HW228527   3.992   0.649   6.763
 9210SOL     OW28528   0.185   0.771   2.589
 9210SOL    HW128529   0.197   0.709   2.667
 9210SOL    HW228530   0.157   0.718   2.509
 9211SOL     OW28531   0.912   2.322   6.103
 9211SOL    HW128532   0.978   2.378   6.053
 9211SOL    HW228533   0.940   2.226   6.100
 9212SOL     OW28534   4.625   5.903   4.156
 9212SOL    HW128535   4.526   5.894   4.145
 9212SOL    HW228536   4.668   5.912   4.066
 9213SOL     OW28537   5.483   3.279   4.966
 9213SOL    HW128538   5.471   3.378   4.959
 9213SOL    HW228539   5.555   3.258   5.031
 9214SOL     OW28540   6.507   3.480   6.630
 9214SOL    HW128541   6.475   3.554   6.690
 9214SOL    HW228542   6.598   3.501   6.596
 9215SOL     OW28543   0.729   2.432   1.196
 9215SOL    HW128544   0.656   2.387   1.145
 9215SOL    HW228545   0.717   2.414   1.294
 9216SOL     OW28546   3.477   0.304   2.482
 9216SOL    HW128547   3.575   0.316   2.472
 9216SOL    HW228548   3.444   0.236   2.417
 9217SOL     OW28549   0.228   2.470   0.252
 9217SOL    HW128550   0.191   2.553   0.209
 9217SOL    HW228551   0.168   2.441   0.327
 9218SOL     OW28552   1.781   6.957   7.021
 9218SOL    HW128553   1.719   6.882   6.996
 9218SOL    HW228554   1.776   6.972   0.092
 9219SOL     OW28555   6.366   3.093   1.382
 9219SOL    HW128556   6.437   3.140   1.434
 9219SOL    HW228557   6.404   3.011   1.340
 9220SOL     OW28558   1.295   6.620   1.309
 9220SOL    HW128559   1.269   6.612   1.405
 9220SOL    HW228560   1.270   6.536   1.260
 9221SOL     OW28561   3.542   0.571   3.354
 9221SOL    HW128562   3.631   0.592   3.393
 9221SOL    HW228563   3.487   0.521   3.421
 9222SOL     OW28564   2.505   6.898   6.051
 9222SOL    HW128565   2.532   6.831   6.120
 9222SOL    HW228566   2.493   6.853   5.963
 9223SOL     OW28567   1.196   1.194   4.111
 9223SOL    HW128568   1.126   1.185   4.040
 9223SOL    HW228569   1.165   1.261   4.179
 9224SOL     OW28570   1.315   5.004   4.817
 9224SOL    HW128571   1.377   5.017   4.894
 9224SOL    HW228572   1.228   4.968   4.850
 9225SOL     OW28573   3.218   6.730   6.006
 9225SOL    HW128574   3.206   6.822   5.970
 9225SOL    HW228575   3.186   6.727   6.101
 9226SOL     OW28576   6.125   6.393   0.668
 9226SOL    HW128577   6.110   6.444   0.752
 9226SOL    HW228578   6.212   6.420   0.627
 9227SOL     OW28579   1.176   5.667   0.630
 9227SOL    HW128580   1.227   5.638   0.549
 9227SOL    HW228581   1.222   5.745   0.673
 9228SOL     OW28582   1.266   2.100   5.290
 9228SOL    HW128583   1.169   2.089   5.310
 9228SOL    HW228584   1.308   2.010   5.275
 9229SOL     OW28585   0.863   6.025   4.843
 9229SOL    HW128586   0.928   6.086   4.889
 9229SOL    HW228587   0.906   5.935   4.830
 9230SOL     OW28588   4.699   1.650   3.741
 9230SOL    HW128589   4.677   1.584   3.813
 9230SOL    HW228590   4.729   1.601   3.659
 9231SOL     OW28591   0.279   4.386   4.646
 9231SOL    HW128592   0.228   4.369   4.562
 9231SOL    HW228593   0.261   4.311   4.711
 9232SOL     OW28594   3.864   5.228   0.480
 9232SOL    HW128595   3.888   5.131   0.469
 9232SOL    HW228596   3.841   5.245   0.576
 9233SOL     OW28597   5.523   5.475   2.062
 9233SOL    HW128598   5.602   5.476   2.122
 9233SOL    HW228599   5.440   5.457   2.115
 9234SOL     OW28600   3.444   5.972   5.867
 9234SOL    HW128601   3.513   5.915   5.909
 9234SOL    HW228602   3.364   5.978   5.927
 9235SOL     OW28603   1.415   2.977   3.501
 9235SOL    HW128604   1.511   2.956   3.518
 9235SOL    HW228605   1.362   2.958   3.583
 9236SOL     OW28606   2.642   4.686   5.785
 9236SOL    HW128607   2.737   4.654   5.775
 9236SOL    HW228608   2.628   4.766   5.727
 9237SOL     OW28609   1.847   5.257   4.297
 9237SOL    HW128610   1.946   5.256   4.289
 9237SOL    HW228611   1.816   5.173   4.340
 9238SOL     OW28612   3.605   1.681   0.006
 9238SOL    HW128613   3.595   1.708   6.938
 9238SOL    HW228614   3.590   1.760   0.065
 9239SOL     OW28615   7.006   4.333   0.395
 9239SOL    HW128616   0.076   4.348   0.406
 9239SOL    HW228617   6.990   4.275   0.316
 9240SOL     OW28618   5.687   1.217   1.320
 9240SOL    HW128619   5.654   1.142   1.262
 9240SOL    HW228620   5.768   1.258   1.278
 9241SOL     OW28621   0.713   5.618   5.315
 9241SOL    HW128622   0.674   5.541   5.264
 9241SOL    HW228623   0.639   5.667   5.362
 9242SOL     OW28624   0.418   5.410   0.292
 9242SOL    HW128625   0.393   5.498   0.252
 9242SOL    HW228626   0.518   5.402   0.295
 9243SOL     OW28627   5.397   6.775   1.404
 9243SOL    HW128628   5.366   6.711   1.474
 9243SOL    HW228629   5.497   6.773   1.399
 9244SOL     OW28630   4.345   5.699   6.257
 9244SOL    HW128631   4.264   5.693   6.315
 9244SOL    HW228632   4.355   5.793   6.224
 9245SOL     OW28633   1.209   4.969   3.373
 9245SOL    HW128634   1.131   5.001   3.319
 9245SOL    HW228635   1.185   4.884   3.420
 9246SOL     OW28636   0.203   5.440   2.199
 9246SOL    HW128637   0.137   5.434   2.274
 9246SOL    HW228638   0.197   5.358   2.143
 9247SOL     OW28639   1.348   6.686   2.723
 9247SOL    HW128640   1.263   6.724   2.761
 9247SOL    HW228641   1.422   6.751   2.735
 9248SOL     OW28642   1.657   2.283   5.080
 9248SOL    HW128643   1.663   2.369   5.131
 9248SOL    HW228644   1.604   2.217   5.132
 9249SOL     OW28645   4.465   4.347   0.380
 9249SOL    HW128646   4.438   4.352   0.284
 9249SOL    HW228647   4.513   4.431   0.406
 9250SOL     OW28648   5.692   3.219   4.305
 9250SOL    HW128649   5.780   3.171   4.300
 9250SOL    HW228650   5.644   3.191   4.388
 9251SOL     OW28651   4.134   2.139   3.054
 9251SOL    HW128652   4.196   2.066   3.080
 9251SOL    HW228653   4.129   2.208   3.127
 9252SOL     OW28654   5.945   0.411   4.496
 9252SOL    HW128655   5.853   0.434   4.462
 9252SOL    HW228656   6.008   0.407   4.419
 9253SOL     OW28657   5.818   6.608   5.385
 9253SOL    HW128658   5.738   6.662   5.360
 9253SOL    HW228659   5.874   6.659   5.451
 9254SOL     OW28660   6.350   4.461   3.032
 9254SOL    HW128661   6.282   4.496   2.968
 9254SOL    HW228662   6.314   4.466   3.125
 9255SOL     OW28663   5.163   3.515   6.934
 9255SOL    HW128664   5.107   3.433   6.946
 9255SOL    HW228665   5.170   3.564   7.021
 9256SOL     OW28666   4.478   6.818   2.917
 9256SOL    HW128667   4.434   6.744   2.967
 9256SOL    HW228668   4.529   6.876   2.981
 9257SOL     OW28669   1.039   3.893   2.701
 9257SOL    HW128670   0.983   3.951   2.760
 9257SOL    HW228671   1.033   3.926   2.606
 9258SOL     OW28672   3.483   3.455   4.148
 9258SOL    HW128673   3.389   3.478   4.173
 9258SOL    HW228674   3.497   3.357   4.156
 9259SOL     OW28675   1.216   2.810   6.655
 9259SOL    HW128676   1.282   2.883   6.674
 9259SOL    HW228677   1.126   2.849   6.640
 9260SOL     OW28678   5.151   2.028   4.648
 9260SOL    HW128679   5.124   1.936   4.619
 9260SOL    HW228680   5.169   2.085   4.567
 9261SOL     OW28681   4.847   0.717   6.675
 9261SOL    HW128682   4.748   0.708   6.690
 9261SOL    HW228683   4.887   0.627   6.660
 9262SOL     OW28684   6.900   3.696   5.787
 9262SOL    HW128685   6.940   3.771   5.840
 9262SOL    HW228686   6.907   3.611   5.839
 9263SOL     OW28687   5.427   5.708   1.965
 9263SOL    HW128688   5.336   5.728   2.001
 9263SOL    HW228689   5.461   5.624   2.007
 9264SOL     OW28690   5.792   4.176   0.451
 9264SOL    HW128691   5.825   4.163   0.544
 9264SOL    HW228692   5.766   4.088   0.412
 9265SOL     OW28693   3.934   1.987   0.231
 9265SOL    HW128694   3.985   2.008   0.315
 9265SOL    HW228695   3.969   2.043   0.156
 9266SOL     OW28696   2.515   6.614   1.793
 9266SOL    HW128697   2.533   6.616   1.892
 9266SOL    HW228698   2.577   6.677   1.747
 9267SOL     OW28699   0.850   3.807   5.831
 9267SOL    HW128700   0.865   3.709   5.825
 9267SOL    HW228701   0.938   3.853   5.845
 9268SOL     OW28702   1.302   5.597   1.520
 9268SOL    HW128703   1.275   5.643   1.435
 9268SOL    HW228704   1.397   5.566   1.512
 9269SOL     OW28705   3.005   1.916   6.068
 9269SOL    HW128706   2.955   1.903   5.983
 9269SOL    HW228707   3.101   1.934   6.049
 9270SOL     OW28708   4.508   6.851   5.970
 9270SOL    HW128709   4.518   6.911   5.891
 9270SOL    HW228710   4.414   6.858   6.005
 9271SOL     OW28711   1.085   6.927   0.285
 9271SOL    HW128712   1.069   6.977   0.370
 9271SOL    HW228713   1.174   6.954   0.247
 9272SOL     OW28714   1.802   5.067   4.952
 9272SOL    HW128715   1.828   5.081   5.048
 9272SOL    HW228716   1.880   5.029   4.902
 9273SOL     OW28717   5.570   6.056   3.449
 9273SOL    HW128718   5.494   6.104   3.406
 9273SOL    HW228719   5.595   6.102   3.535
 9274SOL     OW28720   6.599   2.668   0.434
 9274SOL    HW128721   6.504   2.681   0.405
 9274SOL    HW228722   6.629   2.577   0.406
 9275SOL     OW28723   6.629   2.332   6.960
 9275SOL    HW128724   6.704   2.269   6.938
 9275SOL    HW228725   6.542   2.287   6.940
 9276SOL     OW28726   1.987   4.480   2.410
 9276SOL    HW128727   2.044   4.411   2.366
 9276SOL    HW228728   1.892   4.470   2.379
 9277SOL     OW28729   5.318   3.144   0.441
 9277SOL    HW128730   5.226   3.184   0.446
 9277SOL    HW228731   5.326   3.071   0.509
 9278SOL     OW28732   1.014   0.273   5.831
 9278SOL    HW128733   1.019   0.199   5.764
 9278SOL    HW228734   0.928   0.323   5.820
 9279SOL     OW28735   5.184   0.658   1.882
 9279SOL    HW128736   5.277   0.621   1.886
 9279SOL    HW228737   5.186   0.755   1.909
 9280SOL     OW28738   1.563   1.461   3.206
 9280SOL    HW128739   1.588   1.546   3.253
 9280SOL    HW228740   1.496   1.411   3.259
 9281SOL     OW28741   2.629   4.335   0.917
 9281SOL    HW128742   2.580   4.422   0.921
 9281SOL    HW228743   2.565   4.260   0.928
 9282SOL     OW28744   4.597   0.611   4.641
 9282SOL    HW128745   4.603   0.513   4.660
 9282SOL    HW228746   4.686   0.654   4.658
 9283SOL     OW28747   5.984   0.686   4.130
 9283SOL    HW128748   5.910   0.638   4.083
 9283SOL    HW228749   5.963   0.783   4.135
 9284SOL     OW28750   3.168   4.456   6.461
 9284SOL    HW128751   3.077   4.464   6.420
 9284SOL    HW228752   3.161   4.467   6.560
 9285SOL     OW28753   5.239   2.489   1.028
 9285SOL    HW128754   5.327   2.466   1.069
 9285SOL    HW228755   5.253   2.556   0.955
 9286SOL     OW28756   5.235   6.334   6.704
 9286SOL    HW128757   5.228   6.326   6.803
 9286SOL    HW228758   5.144   6.355   6.666
 9287SOL     OW28759   3.203   4.988   6.672
 9287SOL    HW128760   3.290   4.997   6.624
 9287SOL    HW228761   3.181   4.891   6.683
 9288SOL     OW28762   3.941   1.429   4.412
 9288SOL    HW128763   4.000   1.349   4.402
 9288SOL    HW228764   3.946   1.463   4.506
 9289SOL     OW28765   4.138   1.438   2.632
 9289SOL    HW128766   4.209   1.416   2.565
 9289SOL    HW228767   4.160   1.525   2.676
 9290SOL     OW28768   5.027   1.593   3.223
 9290SOL    HW128769   5.039   1.577   3.125
 9290SOL    HW228770   4.935   1.565   3.251
 9291SOL     OW28771   2.114   0.030   3.968
 9291SOL    HW128772   2.015   0.019   3.961
 9291SOL    HW228773   2.158   6.969   3.957
 9292SOL     OW28774   0.975   3.602   6.948
 9292SOL    HW128775   1.027   3.686   6.965
 9292SOL    HW228776   0.891   3.603   7.003
 9293SOL     OW28777   5.541   3.989   6.937
 9293SOL    HW128778   5.616   3.982   7.003
 9293SOL    HW228779   5.575   4.031   6.853
 9294SOL     OW28780   3.177   0.276   4.707
 9294SOL    HW128781   3.216   0.197   4.755
 9294SOL    HW228782   3.134   0.245   4.622
 9295SOL     OW28783   5.435   2.002   4.281
 9295SOL    HW128784   5.518   2.012   4.226
 9295SOL    HW228785   5.417   2.087   4.331
 9296SOL     OW28786   0.441   6.419   6.494
 9296SOL    HW128787   0.360   6.391   6.442
 9296SOL    HW228788   0.451   6.518   6.489
 9297SOL     OW28789   6.718   1.227   0.574
 9297SOL    HW128790   6.649   1.265   0.636
 9297SOL    HW228791   6.674   1.198   0.490
 9298SOL     OW28792   1.474   0.661   4.816
 9298SOL    HW128793   1.444   0.673   4.911
 9298SOL    HW228794   1.573   0.648   4.814
 9299SOL     OW28795   0.942   2.270   3.952
 9299SOL    HW128796   0.860   2.285   3.896
 9299SOL    HW228797   0.961   2.352   4.005
 9300SOL     OW28798   0.783   4.573   5.696
 9300SOL    HW128799   0.730   4.594   5.614
 9300SOL    HW228800   0.880   4.589   5.677
 9301SOL     OW28801   4.702   4.329   3.957
 9301SOL    HW128802   4.771   4.401   3.961
 9301SOL    HW228803   4.612   4.368   3.976
 9302SOL     OW28804   2.372   2.745   4.290
 9302SOL    HW128805   2.442   2.813   4.313
 9302SOL    HW228806   2.407   2.684   4.219
 9303SOL     OW28807   3.112   5.264   0.607
 9303SOL    HW128808   3.117   5.206   0.526
 9303SOL    HW228809   3.155   5.352   0.589
 9304SOL     OW28810   4.874   4.515   2.280
 9304SOL    HW128811   4.829   4.434   2.244
 9304SOL    HW228812   4.959   4.489   2.327
 9305SOL     OW28813   3.507   0.924   1.415
 9305SOL    HW128814   3.508   1.012   1.367
 9305SOL    HW228815   3.591   0.874   1.394
 9306SOL     OW28816   0.053   4.516   4.761
 9306SOL    HW128817   0.129   4.474   4.710
 9306SOL    HW228818   0.090   4.583   4.825
 9307SOL     OW28819   1.150   3.586   1.316
 9307SOL    HW128820   1.070   3.569   1.259
 9307SOL    HW228821   1.180   3.501   1.358
 9308SOL     OW28822   1.736   4.570   0.520
 9308SOL    HW128823   1.709   4.507   0.593
 9308SOL    HW228824   1.829   4.602   0.537
 9309SOL     OW28825   3.200   4.943   5.455
 9309SOL    HW128826   3.200   4.857   5.403
 9309SOL    HW228827   3.294   4.967   5.479
 9310SOL     OW28828   4.381   5.416   6.269
 9310SOL    HW128829   4.363   5.513   6.254
 9310SOL    HW228830   4.298   5.372   6.302
 9311SOL     OW28831   4.198   4.715   2.165
 9311SOL    HW128832   4.264   4.642   2.178
 9311SOL    HW228833   4.137   4.692   2.089
 9312SOL     OW28834   1.018   3.253   1.106
 9312SOL    HW128835   0.986   3.209   1.022
 9312SOL    HW228836   0.951   3.320   1.137
 9313SOL     OW28837   0.144   0.273   0.935
 9313SOL    HW128838   0.214   0.294   1.003
 9313SOL    HW228839   0.174   0.307   0.846
 9314SOL     OW28840   4.899   6.070   6.173
 9314SOL    HW128841   4.843   6.152   6.185
 9314SOL    HW228842   4.912   6.052   6.076
 9315SOL     OW28843   6.612   0.802   5.187
 9315SOL    HW128844   6.545   0.734   5.157
 9315SOL    HW228845   6.617   0.875   5.118
 9316SOL     OW28846   3.944   5.365   5.635
 9316SOL    HW128847   3.916   5.297   5.702
 9316SOL    HW228848   3.982   5.445   5.682
 9317SOL     OW28849   6.678   5.371   3.184
 9317SOL    HW128850   6.756   5.308   3.187
 9317SOL    HW228851   6.611   5.338   3.118
 9318SOL     OW28852   6.582   0.516   5.918
 9318SOL    HW128853   6.608   0.440   5.858
 9318SOL    HW228854   6.486   0.506   5.944
 9319SOL     OW28855   1.448   3.110   0.127
 9319SOL    HW128856   1.438   3.156   0.215
 9319SOL    HW228857   1.360   3.072   0.098
 9320SOL     OW28858   3.907   0.455   5.557
 9320SOL    HW128859   3.907   0.407   5.469
 9320SOL    HW228860   3.929   0.552   5.543
 9321SOL     OW28861   6.197   0.401   3.641
 9321SOL    HW128862   6.204   0.303   3.622
 9321SOL    HW228863   6.228   0.453   3.562
 9322SOL     OW28864   1.285   4.583   6.431
 9322SOL    HW128865   1.241   4.510   6.378
 9322SOL    HW228866   1.383   4.565   6.437
 9323SOL     OW28867   1.380   0.867   5.573
 9323SOL    HW128868   1.285   0.836   5.568
 9323SOL    HW228869   1.415   0.856   5.666
 9324SOL     OW28870   1.389   4.526   0.391
 9324SOL    HW128871   1.475   4.562   0.354
 9324SOL    HW228872   1.314   4.588   0.368
 9325SOL     OW28873   4.914   0.943   6.802
 9325SOL    HW128874   4.880   0.860   6.757
 9325SOL    HW228875   4.871   1.023   6.761
 9326SOL     OW28876   2.096   5.880   0.584
 9326SOL    HW128877   2.068   5.905   0.677
 9326SOL    HW228878   2.039   5.805   0.551
 9327SOL     OW28879   5.274   0.059   3.297
 9327SOL    HW128880   5.292   0.044   3.394
 9327SOL    HW228881   5.245   7.001   3.254
 9328SOL     OW28882   3.024   0.716   5.806
 9328SOL    HW128883   3.051   0.726   5.902
 9328SOL    HW228884   2.998   0.621   5.789
 9329SOL     OW28885   6.023   3.965   1.636
 9329SOL    HW128886   5.936   4.008   1.609
 9329SOL    HW228887   6.081   4.032   1.681
 9330SOL     OW28888   6.114   6.591   6.900
 9330SOL    HW128889   6.089   6.626   6.989
 9330SOL    HW228890   6.211   6.565   6.900
 9331SOL     OW28891   1.857   0.793   6.854
 9331SOL    HW128892   1.787   0.754   6.795
 9331SOL    HW228893   1.820   0.808   6.946
 9332SOL     OW28894   3.821   4.029   1.904
 9332SOL    HW128895   3.902   4.066   1.859
 9332SOL    HW228896   3.764   3.982   1.837
 9333SOL     OW28897   4.004   3.361   1.246
 9333SOL    HW128898   4.009   3.452   1.205
 9333SOL    HW228899   3.961   3.298   1.181
 9334SOL     OW28900   5.390   5.722   3.913
 9334SOL    HW128901   5.411   5.718   4.010
 9334SOL    HW228902   5.392   5.817   3.881
 9335SOL     OW28903   0.950   1.247   6.333
 9335SOL    HW128904   1.019   1.207   6.272
 9335SOL    HW228905   0.977   1.340   6.356
 9336SOL     OW28906   2.942   5.383   5.559
 9336SOL    HW128907   3.029   5.358   5.517
 9336SOL    HW228908   2.868   5.331   5.515
 9337SOL     OW28909   4.902   1.952   4.269
 9337SOL    HW128910   4.804   1.969   4.255
 9337SOL    HW228911   4.912   1.876   4.335
 9338SOL     OW28912   4.725   0.687   2.225
 9338SOL    HW128913   4.739   0.589   2.238
 9338SOL    HW228914   4.808   0.727   2.185
 9339SOL     OW28915   5.924   0.101   1.117
 9339SOL    HW128916   5.910   0.075   1.022
 9339SOL    HW228917   6.010   0.150   1.126
 9340SOL     OW28918   5.934   3.655   4.413
 9340SOL    HW128919   5.950   3.754   4.418
 9340SOL    HW228920   5.838   3.637   4.394
 9341SOL     OW28921   6.895   5.769   0.370
 9341SOL    HW128922   6.800   5.745   0.353
 9341SOL    HW228923   6.900   5.834   0.446
 9342SOL     OW28924   1.897   6.680   3.842
 9342SOL    HW128925   1.986   6.663   3.800
 9342SOL    HW228926   1.897   6.769   3.887
 9343SOL     OW28927   6.090   3.965   2.677
 9343SOL    HW128928   6.125   3.925   2.593
 9343SOL    HW228929   6.146   3.936   2.754
 9344SOL     OW28930   4.458   6.216   2.594
 9344SOL    HW128931   4.544   6.268   2.596
 9344SOL    HW228932   4.474   6.124   2.631
 9345SOL     OW28933   6.185   4.920   2.268
 9345SOL    HW128934   6.228   4.920   2.359
 9345SOL    HW228935   6.214   4.840   2.217
 9346SOL     OW28936   6.588   0.709   0.873
 9346SOL    HW128937   6.648   0.632   0.855
 9346SOL    HW228938   6.615   0.753   0.959
 9347SOL     OW28939   1.718   3.582   0.873
 9347SOL    HW128940   1.668   3.513   0.926
 9347SOL    HW228941   1.679   3.589   0.782
 9348SOL     OW28942   3.809   5.977   2.095
 9348SOL    HW128943   3.817   6.073   2.067
 9348SOL    HW228944   3.712   5.953   2.103
 9349SOL     OW28945   0.196   5.974   3.468
 9349SOL    HW128946   0.224   5.940   3.558
 9349SOL    HW228947   0.150   5.901   3.418
 9350SOL     OW28948   0.741   3.601   5.249
 9350SOL    HW128949   0.644   3.622   5.266
 9350SOL    HW228950   0.795   3.684   5.257
 9351SOL     OW28951   2.679   0.207   6.682
 9351SOL    HW128952   2.736   0.226   6.603
 9351SOL    HW228953   2.647   0.293   6.722
 9352SOL     OW28954   3.753   2.027   6.970
 9352SOL    HW128955   3.811   2.050   0.020
 9352SOL    HW228956   3.805   1.972   6.905
 9353SOL     OW28957   0.405   4.140   0.636
 9353SOL    HW128958   0.487   4.195   0.623
 9353SOL    HW228959   0.403   4.067   0.567
 9354SOL     OW28960   0.012   1.858   6.469
 9354SOL    HW128961   0.026   1.944   6.519
 9354SOL    HW228962   0.101   1.813   6.456
 9355SOL     OW28963   0.388   2.399   4.473
 9355SOL    HW128964   0.313   2.417   4.409
 9355SOL    HW228965   0.406   2.481   4.527
 9356SOL     OW28966   4.748   0.492   1.926
 9356SOL    HW128967   4.666   0.544   1.949
 9356SOL    HW228968   4.723   0.397   1.907
 9357SOL     OW28969   1.533   3.007   5.590
 9357SOL    HW128970   1.586   3.089   5.569
 9357SOL    HW228971   1.536   2.990   5.688
 9358SOL     OW28972   6.511   3.843   2.205
 9358SOL    HW128973   6.510   3.856   2.106
 9358SOL    HW228974   6.456   3.915   2.249
 9359SOL     OW28975   1.240   4.881   6.393
 9359SOL    HW128976   1.278   4.931   6.315
 9359SOL    HW228977   1.282   4.791   6.399
 9360SOL     OW28978   1.290   5.252   6.050
 9360SOL    HW128979   1.233   5.333   6.067
 9360SOL    HW228980   1.269   5.215   5.960
 9361SOL     OW28981   1.594   4.752   3.918
 9361SOL    HW128982   1.648   4.835   3.917
 9361SOL    HW228983   1.514   4.764   3.978
 9362SOL     OW28984   1.008   1.045   2.354
 9362SOL    HW128985   1.069   1.118   2.384
 9362SOL    HW228986   1.017   1.033   2.255
 9363SOL     OW28987   3.022   5.323   1.923
 9363SOL    HW128988   3.040   5.247   1.985
 9363SOL    HW228989   3.086   5.397   1.943
 9364SOL     OW28990   2.651   2.063   0.211
 9364SOL    HW128991   2.555   2.055   0.184
 9364SOL    HW228992   2.708   2.013   0.145
 9365SOL     OW28993   3.166   1.830   3.197
 9365SOL    HW128994   3.117   1.917   3.190
 9365SOL    HW228995   3.228   1.833   3.276
 9366SOL     OW28996   2.961   5.698   6.915
 9366SOL    HW128997   3.001   5.653   6.995
 9366SOL    HW228998   2.864   5.675   6.908
 9367SOL     OW28999   6.354   6.731   2.168
 9367SOL    HW129000   6.340   6.666   2.243
 9367SOL    HW229001   6.391   6.817   2.203
 9368SOL     OW29002   3.362   0.128   2.291
 9368SOL    HW129003   3.446   0.082   2.263
 9368SOL    HW229004   3.283   0.078   2.256
 9369SOL     OW29005   6.507   6.858   3.657
 9369SOL    HW129006   6.424   6.881   3.606
 9369SOL    HW229007   6.483   6.803   3.737
 9370SOL     OW29008   5.327   6.883   4.633
 9370SOL    HW129009   5.411   6.859   4.681
 9370SOL    HW229010   5.288   6.802   4.590
 9371SOL     OW29011   2.835   5.692   0.560
 9371SOL    HW129012   2.863   5.713   0.654
 9371SOL    HW229013   2.807   5.776   0.514
 9372SOL     OW29014   5.065   0.205   1.522
 9372SOL    HW129015   5.124   0.258   1.461
 9372SOL    HW229016   5.115   0.184   1.607
 9373SOL     OW29017   4.733   2.240   0.880
 9373SOL    HW129018   4.676   2.305   0.931
 9373SOL    HW229019   4.828   2.249   0.909
 9374SOL     OW29020   0.593   3.353   6.234
 9374SOL    HW129021   0.604   3.425   6.166
 9374SOL    HW229022   0.660   3.281   6.217
 9375SOL     OW29023   0.445   1.907   0.675
 9375SOL    HW129024   0.479   1.862   0.592
 9375SOL    HW229025   0.376   1.975   0.650
 9376SOL     OW29026   2.247   3.812   1.830
 9376SOL    HW129027   2.147   3.815   1.831
 9376SOL    HW229028   2.282   3.863   1.909
 9377SOL     OW29029   1.380   5.173   3.361
 9377SOL    HW129030   1.407   5.183   3.265
 9377SOL    HW229031   1.315   5.097   3.369
 9378SOL     OW29032   3.884   1.479   3.519
 9378SOL    HW129033   3.820   1.555   3.509
 9378SOL    HW229034   3.838   1.402   3.565
 9379SOL     OW29035   4.817   0.279   4.225
 9379SOL    HW129036   4.745   0.348   4.220
 9379SOL    HW229037   4.780   0.190   4.199
 9380SOL     OW29038   3.844   5.833   5.304
 9380SOL    HW129039   3.776   5.864   5.238
 9380SOL    HW229040   3.935   5.857   5.272
 9381SOL     OW29041   5.410   2.803   5.627
 9381SOL    HW129042   5.436   2.826   5.533
 9381SOL    HW229043   5.315   2.773   5.629
 9382SOL     OW29044   4.058   1.351   4.051
 9382SOL    HW129045   4.050   1.370   3.954
 9382SOL    HW229046   4.146   1.307   4.070
 9383SOL     OW29047   5.408   4.792   4.404
 9383SOL    HW129048   5.500   4.812   4.438
 9383SOL    HW229049   5.343   4.801   4.479
 9384SOL     OW29050   3.576   0.042   2.186
 9384SOL    HW129051   3.659   0.000   2.150
 9384SOL    HW229052   3.537   0.103   2.116
 9385SOL     OW29053   4.637   1.180   4.246
 9385SOL    HW129054   4.630   1.080   4.249
 9385SOL    HW229055   4.632   1.211   4.151
 9386SOL     OW29056   2.863   5.793   4.924
 9386SOL    HW129057   2.848   5.755   4.833
 9386SOL    HW229058   2.915   5.729   4.979
 9387SOL     OW29059   3.395   2.422   0.902
 9387SOL    HW129060   3.315   2.458   0.854
 9387SOL    HW229061   3.468   2.489   0.900
 9388SOL     OW29062   1.826   6.543   3.367
 9388SOL    HW129063   1.863   6.471   3.309
 9388SOL    HW229064   1.844   6.632   3.325
 9389SOL     OW29065   2.979   6.445   2.581
 9389SOL    HW129066   2.928   6.367   2.545
 9389SOL    HW229067   3.077   6.426   2.577
 9390SOL     OW29068   5.926   5.556   5.914
 9390SOL    HW129069   5.958   5.651   5.909
 9390SOL    HW229070   5.911   5.521   5.821
 9391SOL     OW29071   0.088   0.821   5.765
 9391SOL    HW129072   0.113   0.754   5.695
 9391SOL    HW229073   7.020   0.846   5.753
 9392SOL     OW29074   5.231   4.468   4.712
 9392SOL    HW129075   5.239   4.555   4.664
 9392SOL    HW229076   5.251   4.393   4.649
 9393SOL     OW29077   2.807   6.731   5.592
 9393SOL    HW129078   2.853   6.706   5.678
 9393SOL    HW229079   2.717   6.686   5.588
 9394SOL     OW29080   6.356   0.571   1.255
 9394SOL    HW129081   6.430   0.512   1.222
 9394SOL    HW229082   6.289   0.584   1.182
 9395SOL     OW29083   2.321   0.867   0.615
 9395SOL    HW129084   2.311   0.917   0.701
 9395SOL    HW229085   2.340   0.932   0.541
 9396SOL     OW29086   1.388   4.371   5.033
 9396SOL    HW129087   1.357   4.410   5.120
 9396SOL    HW229088   1.432   4.283   5.049
 9397SOL     OW29089   2.618   6.529   5.668
 9397SOL    HW129090   2.658   6.438   5.672
 9397SOL    HW229091   2.529   6.525   5.624
 9398SOL     OW29092   6.087   1.542   5.675
 9398SOL    HW129093   5.991   1.518   5.659
 9398SOL    HW229094   6.104   1.636   5.645
 9399SOL     OW29095   0.743   3.041   3.913
 9399SOL    HW129096   0.779   3.084   3.996
 9399SOL    HW229097   0.662   2.987   3.937
 9400SOL     OW29098   4.468   0.290   0.572
 9400SOL    HW129099   4.522   0.207   0.566
 9400SOL    HW229100   4.468   0.324   0.666
 9401SOL     OW29101   0.179   2.152   2.292
 9401SOL    HW129102   0.244   2.227   2.305
 9401SOL    HW229103   0.104   2.162   2.358
 9402SOL     OW29104   1.416   4.386   3.077
 9402SOL    HW129105   1.402   4.297   3.120
 9402SOL    HW229106   1.327   4.427   3.054
 9403SOL     OW29107   6.668   1.645   1.995
 9403SOL    HW129108   6.610   1.567   1.970
 9403SOL    HW229109   6.611   1.726   2.005
 9404SOL     OW29110   6.998   2.042   1.006
 9404SOL    HW129111   0.037   2.071   1.074
 9404SOL    HW229112   0.013   2.037   0.916
 9405SOL     OW29113   1.312   3.920   4.473
 9405SOL    HW129114   1.313   3.872   4.385
 9405SOL    HW229115   1.352   3.861   4.543
 9406SOL     OW29116   1.299   3.364   0.371
 9406SOL    HW129117   1.388   3.371   0.415
 9406SOL    HW229118   1.291   3.435   0.301
 9407SOL     OW29119   2.765   5.123   4.285
 9407SOL    HW129120   2.852   5.168   4.304
 9407SOL    HW229121   2.780   5.045   4.224
 9408SOL     OW29122   0.681   1.847   6.400
 9408SOL    HW129123   0.669   1.877   6.494
 9408SOL    HW229124   0.677   1.927   6.339
 9409SOL     OW29125   6.506   5.687   1.649
 9409SOL    HW129126   6.565   5.624   1.699
 9409SOL    HW229127   6.498   5.657   1.554
 9410SOL     OW29128   4.968   1.047   1.830
 9410SOL    HW129129   4.996   1.136   1.793
 9410SOL    HW229130   4.970   0.978   1.758
 9411SOL     OW29131   3.627   3.765   3.143
 9411SOL    HW129132   3.663   3.858   3.138
 9411SOL    HW229133   3.541   3.766   3.195
 9412SOL     OW29134   1.264   0.075   2.147
 9412SOL    HW129135   1.296   0.142   2.214
 9412SOL    HW229136   1.326   7.024   2.146
 9413SOL     OW29137   4.884   5.214   4.851
 9413SOL    HW129138   4.837   5.274   4.917
 9413SOL    HW229139   4.861   5.243   4.758
 9414SOL     OW29140   3.270   1.913   4.414
 9414SOL    HW129141   3.230   1.999   4.382
 9414SOL    HW229142   3.367   1.909   4.387
 9415SOL     OW29143   2.586   0.246   1.353
 9415SOL    HW129144   2.504   0.207   1.313
 9415SOL    HW229145   2.636   0.297   1.283
 9416SOL     OW29146   0.426   0.827   5.547
 9416SOL    HW129147   0.342   0.881   5.549
 9416SOL    HW229148   0.501   0.880   5.584
 9417SOL     OW29149   3.925   6.632   1.633
 9417SOL    HW129150   3.977   6.633   1.718
 9417SOL    HW229151   3.830   6.608   1.652
 9418SOL     OW29152   2.280   1.241   2.728
 9418SOL    HW129153   2.188   1.201   2.725
 9418SOL    HW229154   2.338   1.195   2.661
 9419SOL     OW29155   2.314   3.150   6.715
 9419SOL    HW129156   2.380   3.178   6.645
 9419SOL    HW229157   2.290   3.229   6.771
 9420SOL     OW29158   5.210   4.465   0.354
 9420SOL    HW129159   5.232   4.489   0.448
 9420SOL    HW229160   5.226   4.544   0.295
 9421SOL     OW29161   3.040   5.231   4.068
 9421SOL    HW129162   2.967   5.179   4.023
 9421SOL    HW229163   3.022   5.235   4.166
 9422SOL     OW29164   2.919   6.007   3.932
 9422SOL    HW129165   3.001   6.059   3.953
 9422SOL    HW229166   2.841   6.046   3.981
 9423SOL     OW29167   4.108   6.037   3.190
 9423SOL    HW129168   4.095   6.124   3.142
 9423SOL    HW229169   4.192   6.041   3.244
 9424SOL     OW29170   5.415   1.618   4.464
 9424SOL    HW129171   5.402   1.519   4.451
 9424SOL    HW229172   5.509   1.636   4.491
 9425SOL     OW29173   5.461   5.315   0.938
 9425SOL    HW129174   5.369   5.353   0.948
 9425SOL    HW229175   5.518   5.348   1.013
 9426SOL     OW29176   2.075   1.716   5.870
 9426SOL    HW129177   2.034   1.780   5.935
 9426SOL    HW229178   2.003   1.663   5.826
 9427SOL     OW29179   2.425   6.002   3.182
 9427SOL    HW129180   2.376   6.077   3.137
 9427SOL    HW229181   2.522   6.008   3.161
 9428SOL     OW29182   6.626   0.136   0.225
 9428SOL    HW129183   6.577   0.050   0.224
 9428SOL    HW229184   6.599   0.190   0.305
 9429SOL     OW29185   1.628   2.326   4.065
 9429SOL    HW129186   1.569   2.354   4.140
 9429SOL    HW229187   1.617   2.228   4.048
 9430SOL     OW29188   0.546   2.541   4.227
 9430SOL    HW129189   0.573   2.509   4.136
 9430SOL    HW229190   0.446   2.540   4.234
 9431SOL     OW29191   6.342   4.312   1.276
 9431SOL    HW129192   6.413   4.305   1.205
 9431SOL    HW229193   6.375   4.372   1.350
 9432SOL     OW29194   6.178   1.661   4.519
 9432SOL    HW129195   6.178   1.674   4.619
 9432SOL    HW229196   6.112   1.590   4.495
 9433SOL     OW29197   4.066   5.725   3.505
 9433SOL    HW129198   4.067   5.804   3.566
 9433SOL    HW229199   3.971   5.698   3.488
 9434SOL     OW29200   5.675   5.369   3.505
 9434SOL    HW129201   5.707   5.417   3.423
 9434SOL    HW229202   5.630   5.434   3.566
 9435SOL     OW29203   0.212   1.776   2.679
 9435SOL    HW129204   0.249   1.789   2.771
 9435SOL    HW229205   0.155   1.854   2.655
 9436SOL     OW29206   1.364   1.369   2.839
 9436SOL    HW129207   1.429   1.403   2.907
 9436SOL    HW229208   1.295   1.312   2.883
 9437SOL     OW29209   0.901   5.009   3.607
 9437SOL    HW129210   0.996   5.031   3.632
 9437SOL    HW229211   0.855   5.092   3.575
 9438SOL     OW29212   0.830   0.027   1.990
 9438SOL    HW129213   0.929   0.028   1.979
 9438SOL    HW229214   0.789   0.093   1.927
 9439SOL     OW29215   0.719   3.037   0.917
 9439SOL    HW129216   0.637   3.046   0.861
 9439SOL    HW229217   0.693   3.031   1.013
 9440SOL     OW29218   2.891   4.847   3.320
 9440SOL    HW129219   2.871   4.925   3.379
 9440SOL    HW229220   2.839   4.768   3.351
 9441SOL     OW29221   6.310   5.976   5.813
 9441SOL    HW129222   6.367   5.895   5.826
 9441SOL    HW229223   6.241   5.980   5.885
 9442SOL     OW29224   5.118   3.381   1.723
 9442SOL    HW129225   5.025   3.380   1.686
 9442SOL    HW229226   5.183   3.361   1.650
 9443SOL     OW29227   2.806   6.054   1.624
 9443SOL    HW129228   2.895   6.065   1.669
 9443SOL    HW229229   2.750   5.990   1.676
 9444SOL     OW29230   1.671   4.292   0.637
 9444SOL    HW129231   1.702   4.292   0.542
 9444SOL    HW229232   1.748   4.270   0.698
 9445SOL     OW29233   6.648   2.389   3.342
 9445SOL    HW129234   6.666   2.341   3.257
 9445SOL    HW229235   6.564   2.443   3.333
 9446SOL     OW29236   0.256   4.948   4.427
 9446SOL    HW129237   0.185   4.998   4.378
 9446SOL    HW229238   0.345   4.966   4.385
 9447SOL     OW29239   5.073   4.862   2.952
 9447SOL    HW129240   5.147   4.885   3.015
 9447SOL    HW229241   5.053   4.764   2.958
 9448SOL     OW29242   6.281   7.000   5.764
 9448SOL    HW129243   6.243   0.012   5.847
 9448SOL    HW229244   6.224   6.923   5.735
 9449SOL     OW29245   5.200   6.648   0.519
 9449SOL    HW129246   5.187   6.564   0.467
 9449SOL    HW229247   5.114   6.675   0.562
 9450SOL     OW29248   1.396   5.039   3.685
 9450SOL    HW129249   1.488   5.024   3.649
 9450SOL    HW229250   1.401   5.062   3.782
 9451SOL     OW29251   4.282   5.951   6.169
 9451SOL    HW129252   4.360   5.986   6.117
 9451SOL    HW229253   4.267   6.010   6.248
 9452SOL     OW29254   0.424   3.940   0.182
 9452SOL    HW129255   0.373   3.987   0.255
 9452SOL    HW229256   0.489   3.876   0.222
 9453SOL     OW29257   2.755   4.852   2.625
 9453SOL    HW129258   2.793   4.936   2.587
 9453SOL    HW229259   2.657   4.847   2.603
 9454SOL     OW29260   4.219   3.616   6.935
 9454SOL    HW129261   4.238   3.710   6.964
 9454SOL    HW229262   4.120   3.602   6.931
 9455SOL     OW29263   2.323   2.000   2.567
 9455SOL    HW129264   2.252   2.069   2.575
 9455SOL    HW229265   2.290   1.912   2.603
 9456SOL     OW29266   6.416   4.269   2.067
 9456SOL    HW129267   6.365   4.192   2.027
 9456SOL    HW229268   6.406   4.349   2.007
 9457SOL     OW29269   0.168   4.408   4.390
 9457SOL    HW129270   0.226   4.489   4.397
 9457SOL    HW229271   0.127   4.404   4.299
 9458SOL     OW29272   0.141   3.834   0.438
 9458SOL    HW129273   0.043   3.843   0.456
 9458SOL    HW229274   0.155   3.783   0.353
 9459SOL     OW29275   5.196   4.174   3.978
 9459SOL    HW129276   5.163   4.174   4.072
 9459SOL    HW229277   5.157   4.251   3.929
 9460SOL     OW29278   2.195   2.637   4.461
 9460SOL    HW129279   2.101   2.655   4.435
 9460SOL    HW229280   2.256   2.671   4.389
 9461SOL     OW29281   0.725   1.295   1.469
 9461SOL    HW129282   0.634   1.317   1.502
 9461SOL    HW229283   0.722   1.212   1.414
 9462SOL     OW29284   1.664   2.889   3.527
 9462SOL    HW129285   1.638   2.826   3.600
 9462SOL    HW229286   1.751   2.933   3.550
 9463SOL     OW29287   5.331   0.143   1.123
 9463SOL    HW129288   5.396   0.098   1.062
 9463SOL    HW229289   5.317   0.087   1.204
 9464SOL     OW29290   6.009   0.349   0.920
 9464SOL    HW129291   5.928   0.407   0.914
 9464SOL    HW229292   5.996   0.269   0.861
 9465SOL     OW29293   6.999   3.806   1.920
 9465SOL    HW129294   6.934   3.731   1.938
 9465SOL    HW229295   6.977   3.883   1.980
 9466SOL     OW29296   4.004   4.868   6.195
 9466SOL    HW129297   4.032   4.775   6.172
 9466SOL    HW229298   4.030   4.930   6.121
 9467SOL     OW29299   1.510   2.683   0.918
 9467SOL    HW129300   1.476   2.636   0.999
 9467SOL    HW229301   1.457   2.656   0.838
 9468SOL     OW29302   6.801   3.496   6.560
 9468SOL    HW129303   6.827   3.557   6.635
 9468SOL    HW229304   6.878   3.435   6.539
 9469SOL     OW29305   0.096   5.912   1.021
 9469SOL    HW129306   0.043   5.871   0.947
 9469SOL    HW229307   0.185   5.942   0.986
 9470SOL     OW29308   4.906   3.917   6.732
 9470SOL    HW129309   4.986   3.962   6.772
 9470SOL    HW229310   4.913   3.919   6.632
 9471SOL     OW29311   5.608   2.293   5.589
 9471SOL    HW129312   5.535   2.226   5.603
 9471SOL    HW229313   5.568   2.383   5.573
 9472SOL     OW29314   1.081   4.225   5.895
 9472SOL    HW129315   1.150   4.297   5.898
 9472SOL    HW229316   1.048   4.213   5.802
 9473SOL     OW29317   3.007   3.681   6.745
 9473SOL    HW129318   3.001   3.603   6.807
 9473SOL    HW229319   3.034   3.762   6.796
 9474SOL     OW29320   6.021   3.398   1.964
 9474SOL    HW129321   6.079   3.332   1.917
 9474SOL    HW229322   6.014   3.373   2.060
 9475SOL     OW29323   4.586   3.300   0.107
 9475SOL    HW129324   4.644   3.327   0.184
 9475SOL    HW229325   4.523   3.374   0.085
 9476SOL     OW29326   3.684   3.943   5.677
 9476SOL    HW129327   3.784   3.939   5.675
 9476SOL    HW229328   3.653   3.975   5.766
 9477SOL     OW29329   1.824   3.125   0.867
 9477SOL    HW129330   1.747   3.061   0.871
 9477SOL    HW229331   1.795   3.209   0.822
 9478SOL     OW29332   4.627   3.019   0.830
 9478SOL    HW129333   4.562   2.964   0.777
 9478SOL    HW229334   4.719   2.981   0.821
 9479SOL     OW29335   4.146   0.206   1.114
 9479SOL    HW129336   4.215   0.212   1.042
 9479SOL    HW229337   4.183   0.159   1.193
 9480SOL     OW29338   6.169   4.945   0.186
 9480SOL    HW129339   6.084   4.935   0.238
 9480SOL    HW229340   6.245   4.906   0.239
 9481SOL     OW29341   5.198   2.212   3.071
 9481SOL    HW129342   5.117   2.203   3.129
 9481SOL    HW229343   5.211   2.128   3.018
 9482SOL     OW29344   5.978   0.036   2.577
 9482SOL    HW129345   6.030   0.078   2.502
 9482SOL    HW229346   6.040   0.014   2.652
 9483SOL     OW29347   1.454   1.014   0.264
 9483SOL    HW129348   1.372   0.958   0.276
 9483SOL    HW229349   1.535   0.955   0.268
 9484SOL     OW29350   2.623   0.375   4.467
 9484SOL    HW129351   2.609   0.287   4.512
 9484SOL    HW229352   2.547   0.393   4.403
 9485SOL     OW29353   6.450   1.549   0.919
 9485SOL    HW129354   6.548   1.568   0.916
 9485SOL    HW229355   6.409   1.567   0.830
 9486SOL     OW29356   4.879   5.973   1.358
 9486SOL    HW129357   4.823   6.056   1.354
 9486SOL    HW229358   4.862   5.926   1.445
 9487SOL     OW29359   3.376   3.754   4.431
 9487SOL    HW129360   3.310   3.681   4.417
 9487SOL    HW229361   3.336   3.826   4.488
 9488SOL     OW29362   2.342   0.036   0.906
 9488SOL    HW129363   2.276   6.995   0.876
 9488SOL    HW229364   2.312   0.127   0.877
 9489SOL     OW29365   5.083   4.144   1.248
 9489SOL    HW129366   5.071   4.243   1.253
 9489SOL    HW229367   5.036   4.101   1.325
 9490SOL     OW29368   6.785   6.431   3.488
 9490SOL    HW129369   6.754   6.519   3.523
 9490SOL    HW229370   6.880   6.438   3.457
 9491SOL     OW29371   6.108   5.584   4.683
 9491SOL    HW129372   6.046   5.526   4.737
 9491SOL    HW229373   6.078   5.679   4.687
 9492SOL     OW29374   4.111   3.172   5.780
 9492SOL    HW129375   4.038   3.161   5.848
 9492SOL    HW229376   4.153   3.263   5.791
 9493SOL     OW29377   3.428   5.597   4.003
 9493SOL    HW129378   3.458   5.639   3.918
 9493SOL    HW229379   3.350   5.537   3.986
 9494SOL     OW29380   5.687   2.783   2.149
 9494SOL    HW129381   5.737   2.859   2.191
 9494SOL    HW229382   5.726   2.763   2.059
 9495SOL     OW29383   6.835   1.236   2.318
 9495SOL    HW129384   6.779   1.314   2.346
 9495SOL    HW229385   6.784   1.151   2.335
 9496SOL     OW29386   4.867   2.232   2.165
 9496SOL    HW129387   4.920   2.307   2.124
 9496SOL    HW229388   4.927   2.154   2.181
 9497SOL     OW29389   5.280   6.421   5.720
 9497SOL    HW129390   5.198   6.455   5.673
 9497SOL    HW229391   5.275   6.321   5.726
 9498SOL     OW29392   6.508   4.569   5.271
 9498SOL    HW129393   6.503   4.475   5.304
 9498SOL    HW229394   6.426   4.619   5.300
 9499SOL     OW29395   0.225   6.203   5.078
 9499SOL    HW129396   0.299   6.150   5.036
 9499SOL    HW229397   0.166   6.142   5.130
 9500SOL     OW29398   3.804   6.230   0.809
 9500SOL    HW129399   3.875   6.179   0.759
 9500SOL    HW229400   3.835   6.324   0.824
 9501SOL     OW29401   1.643   1.539   4.248
 9501SOL    HW129402   1.644   1.504   4.154
 9501SOL    HW229403   1.553   1.523   4.288
 9502SOL     OW29404   5.990   4.113   4.069
 9502SOL    HW129405   5.987   4.212   4.069
 9502SOL    HW229406   6.081   4.082   4.100
 9503SOL     OW29407   7.024   2.473   0.763
 9503SOL    HW129408   0.077   2.415   0.758
 9503SOL    HW229409   0.005   2.538   0.838
 9504SOL     OW29410   6.542   3.775   1.572
 9504SOL    HW129411   6.610   3.718   1.619
 9504SOL    HW229412   6.588   3.827   1.499
 9505SOL     OW29413   5.235   4.234   5.436
 9505SOL    HW129414   5.324   4.204   5.402
 9505SOL    HW229415   5.168   4.230   5.363
 9506SOL     OW29416   2.306   2.420   0.625
 9506SOL    HW129417   2.357   2.392   0.543
 9506SOL    HW229418   2.317   2.518   0.639
 9507SOL     OW29419   6.679   0.729   1.132
 9507SOL    HW129420   6.736   0.657   1.171
 9507SOL    HW229421   6.609   0.755   1.198
 9508SOL     OW29422   5.966   1.904   3.044
 9508SOL    HW129423   6.002   1.905   3.138
 9508SOL    HW229424   5.973   1.996   3.005
 9509SOL     OW29425   6.943   0.078   3.592
 9509SOL    HW129426   6.948   0.178   3.588
 9509SOL    HW229427   6.847   0.049   3.592
 9510SOL     OW29428   1.078   3.484   2.989
 9510SOL    HW129429   1.119   3.550   3.053
 9510SOL    HW229430   1.024   3.534   2.921
 9511SOL     OW29431   1.425   0.990   1.758
 9511SOL    HW129432   1.431   0.931   1.677
 9511SOL    HW229433   1.516   1.021   1.784
 9512SOL     OW29434   6.647   2.035   1.539
 9512SOL    HW129435   6.571   2.046   1.476
 9512SOL    HW229436   6.618   2.058   1.632
 9513SOL     OW29437   2.937   4.771   6.001
 9513SOL    HW129438   2.857   4.765   6.060
 9513SOL    HW229439   2.922   4.714   5.919
 9514SOL     OW29440   2.869   4.204   6.993
 9514SOL    HW129441   2.803   4.134   6.967
 9514SOL    HW229442   2.835   4.252   0.046
 9515SOL     OW29443   1.995   5.883   2.801
 9515SOL    HW129444   2.056   5.915   2.728
 9515SOL    HW229445   1.943   5.804   2.768
 9516SOL     OW29446   5.748   4.450   0.424
 9516SOL    HW129447   5.771   4.475   0.330
 9516SOL    HW229448   5.774   4.355   0.441
 9517SOL     OW29449   1.266   3.647   1.049
 9517SOL    HW129450   1.239   3.615   1.140
 9517SOL    HW229451   1.341   3.712   1.058
 9518SOL     OW29452   2.232   1.576   1.019
 9518SOL    HW129453   2.228   1.673   1.044
 9518SOL    HW229454   2.320   1.537   1.048
 9519SOL     OW29455   2.766   2.767   5.483
 9519SOL    HW129456   2.734   2.680   5.447
 9519SOL    HW229457   2.853   2.754   5.532
 9520SOL     OW29458   2.892   0.468   2.844
 9520SOL    HW129459   2.885   0.561   2.806
 9520SOL    HW229460   2.983   0.454   2.882
 9521SOL     OW29461   5.834   5.256   2.835
 9521SOL    HW129462   5.754   5.265   2.775
 9521SOL    HW229463   5.915   5.236   2.780
 9522SOL     OW29464   3.305   5.144   0.771
 9522SOL    HW129465   3.228   5.182   0.720
 9522SOL    HW229466   3.359   5.219   0.810
 9523SOL     OW29467   3.245   5.150   4.445
 9523SOL    HW129468   3.183   5.109   4.512
 9523SOL    HW229469   3.302   5.219   4.490
 9524SOL     OW29470   4.094   2.827   1.617
 9524SOL    HW129471   4.019   2.769   1.586
 9524SOL    HW229472   4.170   2.819   1.552
 9525SOL     OW29473   2.338   2.668   6.215
 9525SOL    HW129474   2.429   2.681   6.255
 9525SOL    HW229475   2.319   2.570   6.209
 9526SOL     OW29476   5.612   5.528   2.561
 9526SOL    HW129477   5.623   5.502   2.657
 9526SOL    HW229478   5.675   5.603   2.539
 9527SOL     OW29479   1.128   1.104   1.589
 9527SOL    HW129480   1.224   1.082   1.605
 9527SOL    HW229481   1.107   1.193   1.630
 9528SOL     OW29482   0.267   0.737   6.814
 9528SOL    HW129483   0.272   0.836   6.807
 9528SOL    HW229484   0.197   0.711   6.881
 9529SOL     OW29485   0.171   3.389   5.348
 9529SOL    HW129486   0.084   3.435   5.365
 9529SOL    HW229487   0.225   3.386   5.432
 9530SOL     OW29488   1.929   2.700   3.308
 9530SOL    HW129489   1.912   2.615   3.259
 9530SOL    HW229490   2.018   2.738   3.281
 9531SOL     OW29491   4.087   5.393   3.264
 9531SOL    HW129492   4.123   5.410   3.356
 9531SOL    HW229493   3.999   5.439   3.254
 9532SOL     OW29494   1.186   5.658   1.752
 9532SOL    HW129495   1.227   5.646   1.661
 9532SOL    HW229496   1.196   5.573   1.804
 9533SOL     OW29497   0.303   0.846   5.288
 9533SOL    HW129498   0.320   0.941   5.260
 9533SOL    HW229499   0.367   0.820   5.360
 9534SOL     OW29500   5.703   3.097   5.419
 9534SOL    HW129501   5.664   3.010   5.388
 9534SOL    HW229502   5.630   3.164   5.430
 9535SOL     OW29503   2.630   1.185   5.997
 9535SOL    HW129504   2.576   1.238   5.931
 9535SOL    HW229505   2.569   1.143   6.064
 9536SOL     OW29506   2.117   5.397   5.166
 9536SOL    HW129507   2.171   5.470   5.124
 9536SOL    HW229508   2.177   5.339   5.222
 9537SOL     OW29509   2.997   0.776   2.382
 9537SOL    HW129510   3.054   0.747   2.304
 9537SOL    HW229511   3.031   0.862   2.418
 9538SOL     OW29512   6.798   1.324   4.380
 9538SOL    HW129513   6.778   1.279   4.467
 9538SOL    HW229514   6.719   1.379   4.352
 9539SOL     OW29515   2.079   4.746   6.520
 9539SOL    HW129516   2.051   4.684   6.447
 9539SOL    HW229517   2.057   4.840   6.496
 9540SOL     OW29518   4.495   4.300   5.213
 9540SOL    HW129519   4.572   4.338   5.264
 9540SOL    HW229520   4.443   4.238   5.272
 9541SOL     OW29521   1.907   1.966   5.722
 9541SOL    HW129522   2.001   1.998   5.737
 9541SOL    HW229523   1.856   2.036   5.673
 9542SOL     OW29524   4.879   3.473   5.348
 9542SOL    HW129525   4.805   3.478   5.281
 9542SOL    HW229526   4.917   3.380   5.349
 9543SOL     OW29527   4.502   0.365   4.834
 9543SOL    HW129528   4.468   0.358   4.740
 9543SOL    HW229529   4.430   0.401   4.893
 9544SOL     OW29530   5.490   0.637   1.654
 9544SOL    HW129531   5.461   0.697   1.579
 9544SOL    HW229532   5.561   0.575   1.622
 9545SOL     OW29533   6.657   6.003   3.075
 9545SOL    HW129534   6.603   6.053   3.007
 9545SOL    HW229535   6.744   6.050   3.088
 9546SOL     OW29536   2.615   4.087   6.902
 9546SOL    HW129537   2.638   3.990   6.906
 9546SOL    HW229538   2.521   4.101   6.933
 9547SOL     OW29539   2.325   6.204   4.043
 9547SOL    HW129540   2.344   6.199   3.944
 9547SOL    HW229541   2.227   6.199   4.058
 9548SOL     OW29542   6.674   5.215   4.937
 9548SOL    HW129543   6.592   5.200   4.992
 9548SOL    HW229544   6.667   5.163   4.852
 9549SOL     OW29545   3.150   5.005   0.926
 9549SOL    HW129546   3.148   5.082   0.990
 9549SOL    HW229547   3.214   5.025   0.852
 9550SOL     OW29548   6.700   1.013   6.601
 9550SOL    HW129549   6.767   0.963   6.655
 9550SOL    HW229550   6.674   0.959   6.521
 9551SOL     OW29551   0.452   6.971   4.394
 9551SOL    HW129552   0.513   6.969   4.473
 9551SOL    HW229553   0.436   6.878   4.362
 9552SOL     OW29554   2.010   6.342   2.929
 9552SOL    HW129555   1.955   6.270   2.887
 9552SOL    HW229556   2.064   6.389   2.859
 9553SOL     OW29557   5.930   4.997   6.545
 9553SOL    HW129558   5.910   4.982   6.642
 9553SOL    HW229559   6.021   4.962   6.525
 9554SOL     OW29560   3.068   1.114   1.577
 9554SOL    HW129561   3.054   1.142   1.672
 9554SOL    HW229562   3.161   1.138   1.549
 9555SOL     OW29563   6.429   2.819   1.650
 9555SOL    HW129564   6.395   2.769   1.571
 9555SOL    HW229565   6.520   2.785   1.674
 9556SOL     OW29566   2.512   1.575   1.979
 9556SOL    HW129567   2.550   1.666   1.965
 9556SOL    HW229568   2.586   1.510   1.995
 9557SOL     OW29569   5.984   0.300   2.638
 9557SOL    HW129570   6.006   0.347   2.552
 9557SOL    HW229571   6.001   0.202   2.627
 9558SOL     OW29572   6.962   5.339   2.986
 9558SOL    HW129573   6.918   5.253   3.010
 9558SOL    HW229574   6.995   5.335   2.892
 9559SOL     OW29575   0.332   3.983   2.350
 9559SOL    HW129576   0.380   4.041   2.284
 9559SOL    HW229577   0.398   3.935   2.407
 9560SOL     OW29578   2.082   1.146   2.362
 9560SOL    HW129579   2.059   1.232   2.407
 9560SOL    HW229580   2.147   1.094   2.418
 9561SOL     OW29581   2.663   6.633   0.612
 9561SOL    HW129582   2.629   6.680   0.694
 9561SOL    HW229583   2.725   6.559   0.640
 9562SOL     OW29584   3.465   5.350   4.401
 9562SOL    HW129585   3.423   5.405   4.473
 9562SOL    HW229586   3.561   5.375   4.391
 9563SOL     OW29587   6.373   6.305   0.075
 9563SOL    HW129588   6.379   6.373   0.002
 9563SOL    HW229589   6.451   6.316   0.137
 9564SOL     OW29590   2.804   7.009   6.615
 9564SOL    HW129591   2.742   0.056   6.640
 9564SOL    HW229592   2.881   0.018   6.563
 9565SOL     OW29593   4.429   5.841   5.045
 9565SOL    HW129594   4.376   5.914   5.002
 9565SOL    HW229595   4.382   5.807   5.126
 9566SOL     OW29596   3.735   4.210   6.649
 9566SOL    HW129597   3.683   4.179   6.728
 9566SOL    HW229598   3.768   4.131   6.597
 9567SOL     OW29599   6.376   5.667   6.328
 9567SOL    HW129600   6.396   5.634   6.421
 9567SOL    HW229601   6.455   5.651   6.269
 9568SOL     OW29602   5.143   3.719   6.536
 9568SOL    HW129603   5.182   3.629   6.556
 9568SOL    HW229604   5.216   3.787   6.534
 9569SOL     OW29605   6.465   1.104   0.035
 9569SOL    HW129606   6.514   1.106   6.975
 9569SOL    HW229607   6.475   1.013   0.076
 9570SOL     OW29608   0.670   1.487   0.887
 9570SOL    HW129609   0.580   1.447   0.875
 9570SOL    HW229610   0.711   1.452   0.972
 9571SOL     OW29611   2.798   3.855   7.013
 9571SOL    HW129612   2.803   3.899   0.074
 9571SOL    HW229613   2.778   3.758   7.025
 9572SOL     OW29614   1.155   4.464   1.179
 9572SOL    HW129615   1.232   4.434   1.123
 9572SOL    HW229616   1.157   4.564   1.187
 9573SOL     OW29617   0.855   0.639   6.573
 9573SOL    HW129618   0.757   0.620   6.580
 9573SOL    HW229619   0.883   0.698   6.648
 9574SOL     OW29620   3.257   3.806   6.062
 9574SOL    HW129621   3.336   3.839   6.115
 9574SOL    HW229622   3.243   3.709   6.079
 9575SOL     OW29623   6.050   0.708   1.276
 9575SOL    HW129624   6.034   0.640   1.205
 9575SOL    HW229625   6.107   0.668   1.348
 9576SOL     OW29626   3.671   1.533   4.010
 9576SOL    HW129627   3.716   1.444   4.001
 9576SOL    HW229628   3.722   1.602   3.957
 9577SOL     OW29629   0.978   0.066   2.514
 9577SOL    HW129630   0.914   0.106   2.580
 9577SOL    HW229631   0.931   0.054   2.426
 9578SOL     OW29632   6.280   2.722   2.148
 9578SOL    HW129633   6.181   2.728   2.143
 9578SOL    HW229634   6.320   2.762   2.066
 9579SOL     OW29635   1.135   0.066   1.927
 9579SOL    HW129636   1.147   0.151   1.876
 9579SOL    HW229637   1.176   0.074   2.017
 9580SOL     OW29638   5.218   3.608   0.151
 9580SOL    HW129639   5.282   3.677   0.118
 9580SOL    HW229640   5.265   3.548   0.215
 9581SOL     OW29641   1.516   5.532   6.065
 9581SOL    HW129642   1.509   5.497   5.972
 9581SOL    HW229643   1.613   5.541   6.089
 9582SOL     OW29644   4.350   4.715   4.166
 9582SOL    HW129645   4.285   4.749   4.233
 9582SOL    HW229646   4.426   4.780   4.157
 9583SOL     OW29647   2.071   3.427   1.783
 9583SOL    HW129648   2.128   3.427   1.865
 9583SOL    HW229649   2.128   3.451   1.704
 9584SOL     OW29650   6.569   5.071   6.968
 9584SOL    HW129651   6.471   5.056   6.959
 9584SOL    HW229652   6.618   4.991   6.935
 9585SOL     OW29653   5.503   6.788   2.690
 9585SOL    HW129654   5.575   6.854   2.668
 9585SOL    HW229655   5.422   6.838   2.722
 9586SOL     OW29656   5.473   3.356   3.783
 9586SOL    HW129657   5.572   3.350   3.768
 9586SOL    HW229658   5.433   3.265   3.773
 9587SOL     OW29659   5.981   0.377   1.396
 9587SOL    HW129660   5.995   0.370   1.495
 9587SOL    HW229661   6.054   0.328   1.349
 9588SOL     OW29662   0.172   0.663   1.020
 9588SOL    HW129663   0.236   0.694   0.950
 9588SOL    HW229664   0.222   0.638   1.102
 9589SOL     OW29665   2.053   6.761   5.751
 9589SOL    HW129666   1.965   6.736   5.710
 9589SOL    HW229667   2.078   6.853   5.723
 9590SOL     OW29668   0.727   3.638   2.610
 9590SOL    HW129669   0.827   3.635   2.609
 9590SOL    HW229670   0.693   3.586   2.688
 9591SOL     OW29671   2.402   6.383   0.604
 9591SOL    HW129672   2.391   6.429   0.516
 9591SOL    HW229673   2.481   6.322   0.601
 9592SOL     OW29674   4.178   5.239   2.731
 9592SOL    HW129675   4.234   5.257   2.811
 9592SOL    HW229676   4.140   5.147   2.736
 9593SOL     OW29677   5.523   2.158   4.551
 9593SOL    HW129678   5.618   2.186   4.562
 9593SOL    HW229679   5.497   2.099   4.628
 9594SOL     OW29680   6.554   6.163   2.838
 9594SOL    HW129681   6.594   6.253   2.853
 9594SOL    HW229682   6.455   6.167   2.849
 9595SOL     OW29683   1.754   5.700   4.298
 9595SOL    HW129684   1.696   5.729   4.374
 9595SOL    HW229685   1.697   5.671   4.221
 9596SOL     OW29686   6.880   5.853   5.237
 9596SOL    HW129687   6.854   5.763   5.202
 9596SOL    HW229688   6.800   5.899   5.276
 9597SOL     OW29689   0.352   4.057   1.889
 9597SOL    HW129690   0.393   3.967   1.905
 9597SOL    HW229691   0.356   4.079   1.792
 9598SOL     OW29692   0.352   4.382   5.768
 9598SOL    HW129693   0.300   4.398   5.685
 9598SOL    HW229694   0.387   4.288   5.768
 9599SOL     OW29695   3.530   0.264   5.420
 9599SOL    HW129696   3.474   0.184   5.439
 9599SOL    HW229697   3.626   0.243   5.439
 9600SOL     OW29698   1.294   0.635   5.910
 9600SOL    HW129699   1.314   0.548   5.864
 9600SOL    HW229700   1.374   0.694   5.906
 9601SOL     OW29701   0.216   4.662   6.297
 9601SOL    HW129702   0.166   4.624   6.220
 9601SOL    HW229703   0.296   4.712   6.264
 9602SOL     OW29704   6.932   4.678   6.132
 9602SOL    HW129705   6.902   4.646   6.222
 9602SOL    HW229706   7.016   4.631   6.105
 9603SOL     OW29707   2.542   6.154   4.433
 9603SOL    HW129708   2.508   6.233   4.382
 9603SOL    HW229709   2.619   6.114   4.384
 9604SOL     OW29710   5.150   0.927   6.937
 9604SOL    HW129711   5.059   0.931   6.896
 9604SOL    HW229712   5.177   1.019   6.965
 9605SOL     OW29713   1.758   5.554   5.458
 9605SOL    HW129714   1.793   5.564   5.365
 9605SOL    HW229715   1.819   5.600   5.522
 9606SOL     OW29716   0.401   6.517   3.162
 9606SOL    HW129717   0.389   6.417   3.160
 9606SOL    HW229718   0.499   6.538   3.161
 9607SOL     OW29719   0.802   0.634   1.958
 9607SOL    HW129720   0.878   0.569   1.955
 9607SOL    HW229721   0.820   0.709   1.894
 9608SOL     OW29722   6.663   0.101   2.137
 9608SOL    HW129723   6.711   0.135   2.056
 9608SOL    HW229724   6.644   0.177   2.199
 9609SOL     OW29725   2.039   4.324   4.831
 9609SOL    HW129726   2.039   4.398   4.763
 9609SOL    HW229727   2.125   4.325   4.881
 9610SOL     OW29728   1.596   2.058   6.009
 9610SOL    HW129729   1.691   2.087   6.010
 9610SOL    HW229730   1.539   2.130   6.049
 9611SOL     OW29731   6.741   0.251   0.948
 9611SOL    HW129732   6.702   0.342   0.938
 9611SOL    HW229733   6.798   0.230   0.869
 9612SOL     OW29734   6.196   3.099   0.590
 9612SOL    HW129735   6.186   3.004   0.561
 9612SOL    HW229736   6.197   3.103   0.690
 9613SOL     OW29737   5.640   6.642   4.573
 9613SOL    HW129738   5.658   6.693   4.657
 9613SOL    HW229739   5.550   6.599   4.579
 9614SOL     OW29740   3.577   4.119   2.374
 9614SOL    HW129741   3.564   4.197   2.313
 9614SOL    HW229742   3.517   4.130   2.454
 9615SOL     OW29743   1.570   5.772   2.615
 9615SOL    HW129744   1.586   5.870   2.619
 9615SOL    HW229745   1.531   5.748   2.527
 9616SOL     OW29746   3.830   2.654   1.013
 9616SOL    HW129747   3.804   2.738   1.061
 9616SOL    HW229748   3.817   2.576   1.073
 9617SOL     OW29749   0.974   3.040   3.538
 9617SOL    HW129750   1.016   2.950   3.523
 9617SOL    HW229751   0.993   3.071   3.632
 9618SOL     OW29752   3.924   6.681   6.706
 9618SOL    HW129753   3.967   6.771   6.703
 9618SOL    HW229754   3.945   6.631   6.622
 9619SOL     OW29755   2.038   6.032   0.227
 9619SOL    HW129756   2.029   6.089   0.309
 9619SOL    HW229757   2.092   6.080   0.158
 9620SOL     OW29758   3.351   0.317   6.596
 9620SOL    HW129759   3.373   0.221   6.575
 9620SOL    HW229760   3.271   0.344   6.543
 9621SOL     OW29761   0.349   0.219   2.550
 9621SOL    HW129762   0.280   0.272   2.501
 9621SOL    HW229763   0.311   0.184   2.636
 9622SOL     OW29764   6.604   0.591   0.052
 9622SOL    HW129765   6.545   0.671   0.061
 9622SOL    HW229766   6.556   0.510   0.083
 9623SOL     OW29767   4.991   5.529   6.677
 9623SOL    HW129768   4.911   5.588   6.673
 9623SOL    HW229769   4.969   5.439   6.638
 9624SOL     OW29770   4.851   5.276   5.419
 9624SOL    HW129771   4.849   5.181   5.389
 9624SOL    HW229772   4.832   5.281   5.517
 9625SOL     OW29773   5.586   4.830   6.682
 9625SOL    HW129774   5.593   4.925   6.650
 9625SOL    HW229775   5.526   4.779   6.621
 9626SOL     OW29776   1.858   4.797   5.295
 9626SOL    HW129777   1.784   4.786   5.229
 9626SOL    HW229778   1.858   4.720   5.358
 9627SOL     OW29779   1.711   4.991   5.796
 9627SOL    HW129780   1.809   4.974   5.787
 9627SOL    HW229781   1.661   4.934   5.731
 9628SOL     OW29782   5.959   4.106   6.772
 9628SOL    HW129783   5.878   4.084   6.717
 9628SOL    HW229784   5.962   4.204   6.789
 9629SOL     OW29785   6.676   5.867   2.852
 9629SOL    HW129786   6.677   5.886   2.951
 9629SOL    HW229787   6.770   5.853   2.820
 9630SOL     OW29788   6.145   6.511   5.770
 9630SOL    HW129789   6.066   6.475   5.719
 9630SOL    HW229790   6.209   6.553   5.707
 9631SOL     OW29791   4.327   1.184   1.111
 9631SOL    HW129792   4.349   1.160   1.017
 9631SOL    HW229793   4.401   1.238   1.150
 9632SOL     OW29794   2.369   5.548   1.792
 9632SOL    HW129795   2.397   5.454   1.770
 9632SOL    HW229796   2.280   5.567   1.750
 9633SOL     OW29797   3.763   3.140   2.272
 9633SOL    HW129798   3.766   3.145   2.172
 9633SOL    HW229799   3.841   3.087   2.305
 9634SOL     OW29800   4.856   4.796   2.508
 9634SOL    HW129801   4.932   4.769   2.449
 9634SOL    HW229802   4.824   4.887   2.482
 9635SOL     OW29803   0.885   3.753   4.258
 9635SOL    HW129804   0.805   3.695   4.243
 9635SOL    HW229805   0.870   3.841   4.212
 9636SOL     OW29806   4.474   1.667   5.646
 9636SOL    HW129807   4.440   1.678   5.740
 9636SOL    HW229808   4.569   1.697   5.641
 9637SOL     OW29809   2.274   3.202   1.387
 9637SOL    HW129810   2.360   3.184   1.339
 9637SOL    HW229811   2.219   3.119   1.389
 9638SOL     OW29812   0.165   4.139   6.079
 9638SOL    HW129813   0.073   4.172   6.056
 9638SOL    HW229814   0.159   4.071   6.152
 9639SOL     OW29815   4.589   2.370   1.821
 9639SOL    HW129816   4.669   2.316   1.844
 9639SOL    HW229817   4.530   2.318   1.759
 9640SOL     OW29818   4.026   1.277   2.817
 9640SOL    HW129819   4.070   1.320   2.739
 9640SOL    HW229820   3.928   1.297   2.815
 9641SOL     OW29821   5.638   4.710   2.485
 9641SOL    HW129822   5.633   4.678   2.579
 9641SOL    HW229823   5.708   4.658   2.436
 9642SOL     OW29824   1.567   7.019   3.853
 9642SOL    HW129825   1.508   6.988   3.928
 9642SOL    HW229826   1.510   0.023   3.778
 9643SOL     OW29827   4.945   3.942   4.155
 9643SOL    HW129828   4.924   4.021   4.097
 9643SOL    HW229829   5.043   3.923   4.153
 9644SOL     OW29830   2.323   6.502   5.046
 9644SOL    HW129831   2.399   6.567   5.040
 9644SOL    HW229832   2.237   6.552   5.060
 9645SOL     OW29833   0.888   4.933   5.509
 9645SOL    HW129834   0.850   4.842   5.528
 9645SOL    HW229835   0.870   4.958   5.414
 9646SOL     OW29836   3.092   7.007   4.737
 9646SOL    HW129837   3.003   0.025   4.739
 9646SOL    HW229838   3.123   6.991   4.830
 9647SOL     OW29839   6.294   6.190   2.819
 9647SOL    HW129840   6.227   6.249   2.866
 9647SOL    HW229841   6.273   6.094   2.839
 9648SOL     OW29842   5.227   2.448   1.526
 9648SOL    HW129843   5.221   2.470   1.429
 9648SOL    HW229844   5.148   2.487   1.574
 9649SOL     OW29845   2.220   3.554   6.535
 9649SOL    HW129846   2.230   3.552   6.634
 9649SOL    HW229847   2.269   3.633   6.498
 9650SOL     OW29848   6.226   4.764   3.904
 9650SOL    HW129849   6.257   4.827   3.832
 9650SOL    HW229850   6.155   4.704   3.868
 9651SOL     OW29851   2.761   1.459   0.052
 9651SOL    HW129852   2.672   1.445   0.010
 9651SOL    HW229853   2.763   1.418   0.143
 9652SOL     OW29854   0.665   4.033   1.195
 9652SOL    HW129855   0.662   4.097   1.118
 9652SOL    HW229856   0.747   3.976   1.187
 9653SOL     OW29857   4.619   4.260   5.669
 9653SOL    HW129858   4.697   4.216   5.713
 9653SOL    HW229859   4.573   4.320   5.735
 9654SOL     OW29860   3.641   3.300   3.368
 9654SOL    HW129861   3.627   3.294   3.269
 9654SOL    HW229862   3.653   3.396   3.394
 9655SOL     OW29863   6.591   1.097   0.998
 9655SOL    HW129864   6.583   1.106   1.097
 9655SOL    HW229865   6.670   1.040   0.975
 9656SOL     OW29866   5.198   3.278   0.783
 9656SOL    HW129867   5.165   3.356   0.731
 9656SOL    HW229868   5.284   3.301   0.829
 9657SOL     OW29869   5.136   3.916   3.904
 9657SOL    HW129870   5.158   3.930   3.808
 9657SOL    HW229871   5.147   4.001   3.954
 9658SOL     OW29872   4.952   1.772   2.652
 9658SOL    HW129873   4.907   1.809   2.733
 9658SOL    HW229874   5.050   1.790   2.658
 9659SOL     OW29875   3.076   1.904   0.397
 9659SOL    HW129876   3.152   1.873   0.454
 9659SOL    HW229877   3.015   1.962   0.451
 9660SOL     OW29878   0.732   6.163   0.840
 9660SOL    HW129879   0.662   6.229   0.812
 9660SOL    HW229880   0.749   6.171   0.938
 9661SOL     OW29881   4.354   5.729   1.197
 9661SOL    HW129882   4.295   5.809   1.196
 9661SOL    HW229883   4.417   5.733   1.119
 9662SOL     OW29884   5.788   4.490   6.822
 9662SOL    HW129885   5.719   4.528   6.883
 9662SOL    HW229886   5.856   4.439   6.875
 9663SOL     OW29887   0.844   4.820   3.009
 9663SOL    HW129888   0.794   4.906   3.008
 9663SOL    HW229889   0.795   4.752   2.954
 9664SOL     OW29890   5.228   3.961   3.651
 9664SOL    HW129891   5.227   3.915   3.562
 9664SOL    HW229892   5.259   4.055   3.640
 9665SOL     OW29893   6.488   6.372   5.450
 9665SOL    HW129894   6.556   6.424   5.501
 9665SOL    HW229895   6.414   6.344   5.512
 9666SOL     OW29896   6.288   4.437   1.812
 9666SOL    HW129897   6.386   4.422   1.828
 9666SOL    HW229898   6.274   4.532   1.783
 9667SOL     OW29899   4.517   4.785   1.120
 9667SOL    HW129900   4.606   4.804   1.080
 9667SOL    HW229901   4.447   4.789   1.049
 9668SOL     OW29902   1.271   0.347   5.791
 9668SOL    HW129903   1.174   0.352   5.816
 9668SOL    HW229904   1.322   0.301   5.864
 9669SOL     OW29905   2.580   6.808   0.816
 9669SOL    HW129906   2.531   6.825   0.901
 9669SOL    HW229907   2.656   6.873   0.807
 9670SOL     OW29908   0.556   6.842   5.530
 9670SOL    HW129909   0.526   6.866   5.437
 9670SOL    HW229910   0.588   6.747   5.531
 9671SOL     OW29911   0.605   4.527   0.540
 9671SOL    HW129912   0.587   4.538   0.443
 9671SOL    HW229913   0.660   4.444   0.555
 9672SOL     OW29914   1.169   4.684   2.882
 9672SOL    HW129915   1.215   4.690   2.793
 9672SOL    HW229916   1.184   4.769   2.932
 9673SOL     OW29917   3.252   4.298   1.696
 9673SOL    HW129918   3.312   4.221   1.717
 9673SOL    HW229919   3.158   4.276   1.723
 9674SOL     OW29920   4.084   6.832   3.014
 9674SOL    HW129921   4.014   6.863   2.950
 9674SOL    HW229922   4.064   6.738   3.042
 9675SOL     OW29923   5.033   3.778   0.836
 9675SOL    HW129924   4.961   3.842   0.809
 9675SOL    HW229925   5.122   3.822   0.827
 9676SOL     OW29926   1.643   3.242   6.597
 9676SOL    HW129927   1.706   3.265   6.670
 9676SOL    HW229928   1.549   3.248   6.630
 9677SOL     OW29929   6.198   4.926   6.387
 9677SOL    HW129930   6.254   4.955   6.465
 9677SOL    HW229931   6.245   4.853   6.337
 9678SOL     OW29932   3.196   3.846   5.202
 9678SOL    HW129933   3.230   3.940   5.199
 9678SOL    HW229934   3.107   3.842   5.157
 9679SOL     OW29935   2.573   1.894   4.683
 9679SOL    HW129936   2.645   1.964   4.690
 9679SOL    HW229937   2.513   1.900   4.762
 9680SOL     OW29938   4.489   6.345   4.701
 9680SOL    HW129939   4.440   6.287   4.767
 9680SOL    HW229940   4.553   6.289   4.649
 9681SOL     OW29941   3.029   1.137   1.863
 9681SOL    HW129942   2.974   1.106   1.940
 9681SOL    HW229943   3.041   1.236   1.868
 9682SOL     OW29944   5.262   4.957   3.642
 9682SOL    HW129945   5.180   5.009   3.619
 9682SOL    HW229946   5.341   4.995   3.593
 9683SOL     OW29947   1.905   6.402   0.518
 9683SOL    HW129948   1.934   6.306   0.511
 9683SOL    HW229949   1.806   6.408   0.506
 9684SOL     OW29950   0.956   3.233   5.173
 9684SOL    HW129951   0.925   3.318   5.130
 9684SOL    HW229952   1.027   3.191   5.116
 9685SOL     OW29953   4.661   3.639   0.677
 9685SOL    HW129954   4.562   3.640   0.689
 9685SOL    HW229955   4.683   3.616   0.582
 9686SOL     OW29956   0.426   2.654   6.278
 9686SOL    HW129957   0.500   2.673   6.342
 9686SOL    HW229958   0.396   2.739   6.235
 9687SOL     OW29959   6.361   6.836   1.915
 9687SOL    HW129960   6.455   6.860   1.892
 9687SOL    HW229961   6.358   6.796   2.007
 9688SOL     OW29962   1.211   4.028   0.946
 9688SOL    HW129963   1.214   4.019   0.846
 9688SOL    HW229964   1.301   4.051   0.981
 9689SOL     OW29965   0.779   5.266   5.860
 9689SOL    HW129966   0.773   5.248   5.762
 9689SOL    HW229967   0.783   5.179   5.909
 9690SOL     OW29968   4.958   5.195   5.776
 9690SOL    HW129969   4.893   5.170   5.704
 9690SOL    HW229970   4.908   5.229   5.856
 9691SOL     OW29971   3.269   4.090   2.845
 9691SOL    HW129972   3.273   4.009   2.905
 9691SOL    HW229973   3.335   4.158   2.877
 9692SOL     OW29974   4.913   5.168   0.219
 9692SOL    HW129975   4.918   5.172   0.319
 9692SOL    HW229976   4.972   5.094   0.186
 9693SOL     OW29977   5.801   4.197   4.418
 9693SOL    HW129978   5.839   4.290   4.418
 9693SOL    HW229979   5.785   4.168   4.513
 9694SOL     OW29980   3.375   0.512   1.162
 9694SOL    HW129981   3.462   0.499   1.210
 9694SOL    HW229982   3.317   0.432   1.176
 9695SOL     OW29983   0.108   4.121   2.793
 9695SOL    HW129984   0.012   4.104   2.819
 9695SOL    HW229985   0.118   4.110   2.695
 9696SOL     OW29986   5.979   1.730   2.654
 9696SOL    HW129987   5.921   1.751   2.733
 9696SOL    HW229988   5.968   1.634   2.630
 9697SOL     OW29989   0.193   6.198   0.194
 9697SOL    HW129990   0.116   6.145   0.229
 9697SOL    HW229991   0.269   6.137   0.173
 9698SOL     OW29992   5.675   3.173   6.265
 9698SOL    HW129993   5.697   3.195   6.170
 9698SOL    HW229994   5.579   3.194   6.283
 9699SOL     OW29995   0.784   5.921   0.070
 9699SOL    HW129996   0.724   6.000   0.061
 9699SOL    HW229997   0.832   5.904   7.012
 9700SOL     OW29998   6.834   6.435   3.894
 9700SOL    HW129999   6.821   6.535   3.894
 9700SOL    HW230000   6.745   6.390   3.904
 9701SOL     OW30001   5.080   3.331   6.698
 9701SOL    HW130002   5.014   3.404   6.678
 9701SOL    HW230003   5.054   3.285   6.783
 9702SOL     OW30004   4.167   2.836   0.631
 9702SOL    HW130005   4.163   2.833   0.731
 9702SOL    HW230006   4.075   2.846   0.594
 9703SOL     OW30007   5.819   3.875   4.036
 9703SOL    HW130008   5.881   3.828   4.098
 9703SOL    HW230009   5.808   3.970   4.064
 9704SOL     OW30010   3.107   4.907   2.858
 9704SOL    HW130011   3.203   4.910   2.887
 9704SOL    HW230012   3.049   4.889   2.938
 9705SOL     OW30013   6.078   4.037   5.837
 9705SOL    HW130014   6.105   4.126   5.873
 9705SOL    HW230015   6.157   3.975   5.839
 9706SOL     OW30016   1.982   1.428   1.045
 9706SOL    HW130017   1.965   1.356   1.112
 9706SOL    HW230018   2.079   1.454   1.048
 9707SOL     OW30019   5.613   5.104   1.866
 9707SOL    HW130020   5.579   5.081   1.774
 9707SOL    HW230021   5.536   5.107   1.929
 9708SOL     OW30022   1.305   1.526   1.881
 9708SOL    HW130023   1.353   1.523   1.968
 9708SOL    HW230024   1.227   1.462   1.884
 9709SOL     OW30025   5.308   4.276   1.722
 9709SOL    HW130026   5.212   4.251   1.708
 9709SOL    HW230027   5.327   4.363   1.677
 9710SOL     OW30028   6.104   0.446   6.832
 9710SOL    HW130029   6.184   0.404   6.790
 9710SOL    HW230030   6.021   0.402   6.797
 9711SOL     OW30031   3.952   6.285   6.062
 9711SOL    HW130032   4.014   6.234   6.002
 9711SOL    HW230033   3.932   6.231   6.143
 9712SOL     OW30034   6.272   3.342   0.470
 9712SOL    HW130035   6.228   3.254   0.485
 9712SOL    HW230036   6.293   3.385   0.557
 9713SOL     OW30037   2.559   6.626   3.093
 9713SOL    HW130038   2.495   6.591   3.162
 9713SOL    HW230039   2.520   6.614   3.002
 9714SOL     OW30040   4.094   5.870   5.228
 9714SOL    HW130041   4.116   5.790   5.172
 9714SOL    HW230042   4.132   5.859   5.320
 9715SOL     OW30043   6.420   4.809   0.285
 9715SOL    HW130044   6.414   4.777   0.191
 9715SOL    HW230045   6.496   4.764   0.331
 9716SOL     OW30046   4.271   3.903   7.021
 9716SOL    HW130047   4.365   3.928   0.016
 9716SOL    HW230048   4.209   3.975   0.025
 9717SOL     OW30049   4.428   6.155   6.810
 9717SOL    HW130050   4.407   6.224   6.878
 9717SOL    HW230051   4.416   6.193   6.718
 9718SOL     OW30052   4.635   2.321   0.417
 9718SOL    HW130053   4.608   2.226   0.435
 9718SOL    HW230054   4.566   2.383   0.452
 9719SOL     OW30055   5.296   0.002   5.714
 9719SOL    HW130056   5.203   0.030   5.694
 9719SOL    HW230057   5.302   6.930   5.711
 9720SOL     OW30058   1.521   3.655   2.783
 9720SOL    HW130059   1.539   3.556   2.783
 9720SOL    HW230060   1.434   3.674   2.738
 9721SOL     OW30061   0.383   1.636   0.009
 9721SOL    HW130062   0.392   1.563   0.077
 9721SOL    HW230063   0.291   1.675   0.015
 9722SOL     OW30064   3.550   1.891   5.034
 9722SOL    HW130065   3.501   1.806   5.013
 9722SOL    HW230066   3.486   1.959   5.068
 9723SOL     OW30067   5.889   5.031   4.594
 9723SOL    HW130068   5.952   4.963   4.555
 9723SOL    HW230069   5.932   5.121   4.591
 9724SOL     OW30070   2.213   5.052   6.638
 9724SOL    HW130071   2.310   5.039   6.620
 9724SOL    HW230072   2.163   5.054   6.551
 9725SOL     OW30073   4.155   6.136   5.488
 9725SOL    HW130074   4.175   6.195   5.410
 9725SOL    HW230075   4.213   6.055   5.484
 9726SOL     OW30076   5.370   0.976   4.168
 9726SOL    HW130077   5.289   0.923   4.145
 9726SOL    HW230078   5.342   1.065   4.205
 9727SOL     OW30079   0.466   2.566   0.330
 9727SOL    HW130080   0.384   2.510   0.319
 9727SOL    HW230081   0.540   2.530   0.273
 9728SOL     OW30082   6.779   1.703   6.078
 9728SOL    HW130083   6.824   1.620   6.044
 9728SOL    HW230084   6.848   1.771   6.103
 9729SOL     OW30085   1.473   3.463   4.173
 9729SOL    HW130086   1.486   3.515   4.089
 9729SOL    HW230087   1.539   3.389   4.178
 9730SOL     OW30088   0.952   4.623   3.486
 9730SOL    HW130089   1.052   4.627   3.490
 9730SOL    HW230090   0.916   4.605   3.577
 9731SOL     OW30091   4.922   5.027   1.812
 9731SOL    HW130092   4.863   4.957   1.773
 9731SOL    HW230093   4.975   4.989   1.888
 9732SOL     OW30094   6.972   2.802   1.974
 9732SOL    HW130095   0.034   2.800   1.930
 9732SOL    HW230096   6.962   2.721   2.032
 9733SOL     OW30097   5.634   5.558   1.295
 9733SOL    HW130098   5.720   5.598   1.324
 9733SOL    HW230099   5.651   5.485   1.228
 9734SOL     OW30100   6.397   6.721   0.624
 9734SOL    HW130101   6.346   6.804   0.600
 9734SOL    HW230102   6.492   6.731   0.595
 9735SOL     OW30103   1.456   2.575   3.237
 9735SOL    HW130104   1.527   2.645   3.243
 9735SOL    HW230105   1.372   2.609   3.281
 9736SOL     OW30106   4.817   2.120   6.011
 9736SOL    HW130107   4.769   2.195   6.056
 9736SOL    HW230108   4.901   2.154   5.969
 9737SOL     OW30109   5.783   2.142   3.247
 9737SOL    HW130110   5.834   2.111   3.168
 9737SOL    HW230111   5.795   2.076   3.322
 9738SOL     OW30112   2.069   6.617   0.440
 9738SOL    HW130113   2.023   6.539   0.481
 9738SOL    HW230114   2.162   6.591   0.412
 9739SOL     OW30115   4.856   6.000   6.964
 9739SOL    HW130116   4.927   5.965   6.903
 9739SOL    HW230117   4.822   6.088   6.929
 9740SOL     OW30118   5.906   0.799   2.693
 9740SOL    HW130119   5.907   0.895   2.721
 9740SOL    HW230120   5.952   0.743   2.761
 9741SOL     OW30121   2.435   0.894   3.762
 9741SOL    HW130122   2.361   0.836   3.795
 9741SOL    HW230123   2.474   0.945   3.839
 9742SOL     OW30124   4.499   1.145   0.364
 9742SOL    HW130125   4.488   1.240   0.393
 9742SOL    HW230126   4.591   1.132   0.327
 9743SOL     OW30127   0.297   3.885   3.266
 9743SOL    HW130128   0.245   3.956   3.312
 9743SOL    HW230129   0.236   3.830   3.209
 9744SOL     OW30130   2.428   0.012   3.116
 9744SOL    HW130131   2.337   0.031   3.153
 9744SOL    HW230132   2.488   7.007   3.189
 9745SOL     OW30133   5.339   2.736   6.175
 9745SOL    HW130134   5.264   2.787   6.219
 9745SOL    HW230135   5.390   2.686   6.245
 9746SOL     OW30136   5.450   6.271   6.558
 9746SOL    HW130137   5.438   6.178   6.524
 9746SOL    HW230138   5.381   6.291   6.627
 9747SOL     OW30139   2.680   2.176   1.615
 9747SOL    HW130140   2.605   2.111   1.605
 9747SOL    HW230141   2.752   2.155   1.549
 9748SOL     OW30142   0.294   6.932   2.685
 9748SOL    HW130143   0.333   6.840   2.678
 9748SOL    HW230144   0.328   6.977   2.768
 9749SOL     OW30145   0.813   1.229   2.399
 9749SOL    HW130146   0.884   1.160   2.386
 9749SOL    HW230147   0.738   1.191   2.452
 9750SOL     OW30148   6.476   5.134   3.778
 9750SOL    HW130149   6.519   5.194   3.711
 9750SOL    HW230150   6.471   5.181   3.866
 9751SOL     OW30151   2.002   0.093   0.604
 9751SOL    HW130152   2.083   0.035   0.596
 9751SOL    HW230153   1.961   0.081   0.694
 9752SOL     OW30154   3.793   2.197   6.199
 9752SOL    HW130155   3.746   2.110   6.216
 9752SOL    HW230156   3.734   2.256   6.144
 9753SOL     OW30157   1.055   5.629   6.075
 9753SOL    HW130158   1.039   5.727   6.063
 9753SOL    HW230159   1.124   5.598   6.009
 9754SOL     OW30160   3.924   6.851   0.527
 9754SOL    HW130161   3.934   6.839   0.626
 9754SOL    HW230162   3.847   6.913   0.509
 9755SOL     OW30163   3.467   4.164   5.442
 9755SOL    HW130164   3.459   4.072   5.478
 9755SOL    HW230165   3.495   4.227   5.515
 9756SOL     OW30166   6.054   1.735   6.060
 9756SOL    HW130167   6.152   1.730   6.081
 9756SOL    HW230168   6.005   1.662   6.108
 9757SOL     OW30169   5.661   4.552   4.691
 9757SOL    HW130170   5.594   4.622   4.715
 9757SOL    HW230171   5.614   4.464   4.676
 9758SOL     OW30172   1.409   1.294   6.887
 9758SOL    HW130173   1.459   1.268   6.970
 9758SOL    HW230174   1.399   1.393   6.885
 9759SOL     OW30175   0.993   1.912   0.295
 9759SOL    HW130176   1.015   1.882   0.388
 9759SOL    HW230177   1.073   1.955   0.254
 9760SOL     OW30178   5.242   2.867   0.097
 9760SOL    HW130179   5.152   2.872   0.054
 9760SOL    HW230180   5.306   2.925   0.046
 9761SOL     OW30181   1.313   2.059   2.452
 9761SOL    HW130182   1.386   2.016   2.506
 9761SOL    HW230183   1.300   2.153   2.481
 9762SOL     OW30184   3.215   1.749   4.885
 9762SOL    HW130185   3.272   1.778   4.809
 9762SOL    HW230186   3.154   1.824   4.912
 9763SOL     OW30187   5.797   1.208   3.118
 9763SOL    HW130188   5.864   1.248   3.056
 9763SOL    HW230189   5.705   1.232   3.088
 9764SOL     OW30190   6.548   2.025   2.926
 9764SOL    HW130191   6.497   1.981   2.852
 9764SOL    HW230192   6.487   2.037   3.005
 9765SOL     OW30193   6.660   0.821   3.052
 9765SOL    HW130194   6.658   0.821   3.152
 9765SOL    HW230195   6.591   0.885   3.017
 9766SOL     OW30196   2.254   0.072   2.559
 9766SOL    HW130197   2.206   0.087   2.472
 9766SOL    HW230198   2.189   0.039   2.627
 9767SOL     OW30199   2.115   2.707   4.924
 9767SOL    HW130200   2.211   2.688   4.945
 9767SOL    HW230201   2.104   2.805   4.907
 9768SOL     OW30202   4.830   1.886   1.112
 9768SOL    HW130203   4.879   1.886   1.025
 9768SOL    HW230204   4.867   1.958   1.171
 9769SOL     OW30205   3.437   0.872   5.138
 9769SOL    HW130206   3.478   0.958   5.168
 9769SOL    HW230207   3.367   0.891   5.069
 9770SOL     OW30208   4.267   1.732   5.197
 9770SOL    HW130209   4.311   1.803   5.252
 9770SOL    HW230210   4.323   1.712   5.117
 9771SOL     OW30211   2.519   6.237   1.179
 9771SOL    HW130212   2.538   6.248   1.082
 9771SOL    HW230213   2.590   6.282   1.233
 9772SOL     OW30214   2.033   6.311   1.495
 9772SOL    HW130215   2.002   6.406   1.487
 9772SOL    HW230216   2.130   6.307   1.472
 9773SOL     OW30217   5.492   5.027   3.447
 9773SOL    HW130218   5.550   4.990   3.520
 9773SOL    HW230219   5.547   5.084   3.386
 9774SOL     OW30220   0.726   4.323   3.429
 9774SOL    HW130221   0.665   4.380   3.373
 9774SOL    HW230222   0.818   4.324   3.390
 9775SOL     OW30223   2.583   0.357   3.155
 9775SOL    HW130224   2.656   0.290   3.170
 9775SOL    HW230225   2.616   0.448   3.181
 9776SOL     OW30226   1.194   4.857   6.032
 9776SOL    HW130227   1.248   4.898   6.106
 9776SOL    HW230228   1.150   4.773   6.064
 9777SOL     OW30229   5.375   5.871   0.342
 9777SOL    HW130230   5.303   5.816   0.384
 9777SOL    HW230231   5.411   5.936   0.410
 9778SOL     OW30232   0.169   1.972   4.879
 9778SOL    HW130233   0.117   2.018   4.807
 9778SOL    HW230234   0.221   2.039   4.931
 9779SOL     OW30235   0.125   2.279   3.573
 9779SOL    HW130236   0.107   2.243   3.664
 9779SOL    HW230237   0.076   2.224   3.505
 9780SOL     OW30238   2.145   1.437   0.749
 9780SOL    HW130239   2.155   1.509   0.819
 9780SOL    HW230240   2.235   1.401   0.726
 9781SOL     OW30241   2.073   3.110   4.673
 9781SOL    HW130242   2.135   3.047   4.720
 9781SOL    HW230243   2.085   3.202   4.710
 9782SOL     OW30244   0.440   1.934   0.146
 9782SOL    HW130245   0.526   1.930   0.095
 9782SOL    HW230246   0.387   1.851   0.128
 9783SOL     OW30247   4.563   2.047   3.565
 9783SOL    HW130248   4.638   1.983   3.579
 9783SOL    HW230249   4.555   2.107   3.645
 9784SOL     OW30250   3.918   0.745   5.814
 9784SOL    HW130251   3.926   0.786   5.723
 9784SOL    HW230252   3.841   0.787   5.862
 9785SOL     OW30253   5.952   2.753   5.384
 9785SOL    HW130254   6.025   2.691   5.413
 9785SOL    HW230255   5.910   2.796   5.465
 9786SOL     OW30256   2.113   3.954   0.388
 9786SOL    HW130257   2.184   4.024   0.378
 9786SOL    HW230258   2.028   3.985   0.345
 9787SOL     OW30259   3.121   3.033   3.733
 9787SOL    HW130260   3.046   3.068   3.678
 9787SOL    HW230261   3.148   3.102   3.801
 9788SOL     OW30262   0.585   6.707   2.018
 9788SOL    HW130263   0.507   6.762   2.049
 9788SOL    HW230264   0.552   6.632   1.961
 9789SOL     OW30265   2.590   6.732   6.785
 9789SOL    HW130266   2.636   6.783   6.858
 9789SOL    HW230267   2.617   6.768   6.696
 9790SOL     OW30268   6.030   4.733   6.099
 9790SOL    HW130269   6.043   4.688   6.011
 9790SOL    HW230270   5.954   4.798   6.093
 9791SOL     OW30271   0.608   0.238   0.360
 9791SOL    HW130272   0.517   0.209   0.331
 9791SOL    HW230273   0.642   0.309   0.298
 9792SOL     OW30274   3.483   4.976   0.594
 9792SOL    HW130275   3.399   5.019   0.627
 9792SOL    HW230276   3.548   4.968   0.670
 9793SOL     OW30277   4.192   0.150   2.692
 9793SOL    HW130278   4.125   0.159   2.765
 9793SOL    HW230279   4.272   0.099   2.726
 9794SOL     OW30280   5.810   4.306   5.325
 9794SOL    HW130281   5.802   4.333   5.421
 9794SOL    HW230282   5.743   4.357   5.271
 9795SOL     OW30283   0.926   2.927   4.426
 9795SOL    HW130284   0.994   2.922   4.499
 9795SOL    HW230285   0.896   2.835   4.402
 9796SOL     OW30286   3.709   3.781   3.645
 9796SOL    HW130287   3.685   3.765   3.740
 9796SOL    HW230288   3.731   3.694   3.601
 9797SOL     OW30289   2.269   5.617   6.885
 9797SOL    HW130290   2.216   5.564   6.819
 9797SOL    HW230291   2.283   5.563   6.968
 9798SOL     OW30292   2.105   1.274   1.433
 9798SOL    HW130293   2.046   1.273   1.352
 9798SOL    HW230294   2.058   1.230   1.509
 9799SOL     OW30295   3.286   3.847   6.446
 9799SOL    HW130296   3.287   3.749   6.424
 9799SOL    HW230297   3.220   3.865   6.519
 9800SOL     OW30298   5.609   4.554   4.171
 9800SOL    HW130299   5.513   4.542   4.197
 9800SOL    HW230300   5.627   4.651   4.154
 9801SOL     OW30301   5.252   4.954   0.312
 9801SOL    HW130302   5.297   5.043   0.317
 9801SOL    HW230303   5.240   4.917   0.405
 9802SOL     OW30304   4.865   4.874   0.543
 9802SOL    HW130305   4.875   4.781   0.507
 9802SOL    HW230306   4.774   4.884   0.583
 9803SOL     OW30307   2.429   3.562   6.274
 9803SOL    HW130308   2.420   3.652   6.230
 9803SOL    HW230309   2.377   3.494   6.221
 9804SOL     OW30310   0.127   6.016   3.126
 9804SOL    HW130311   0.117   5.973   3.036
 9804SOL    HW230312   0.091   5.955   3.196
 9805SOL     OW30313   0.215   6.629   3.010
 9805SOL    HW130314   0.292   6.576   3.047
 9805SOL    HW230315   0.221   6.723   3.043
 9806SOL     OW30316   1.904   1.497   6.763
 9806SOL    HW130317   1.945   1.545   6.686
 9806SOL    HW230318   1.974   1.446   6.812
 9807SOL     OW30319   3.324   3.232   2.278
 9807SOL    HW130320   3.374   3.235   2.192
 9807SOL    HW230321   3.226   3.231   2.259
 9808SOL     OW30322   3.518   5.775   4.206
 9808SOL    HW130323   3.501   5.697   4.146
 9808SOL    HW230324   3.613   5.805   4.195
 9809SOL     OW30325   0.425   3.269   0.340
 9809SOL    HW130326   0.396   3.182   0.300
 9809SOL    HW230327   0.352   3.304   0.398
 9810SOL     OW30328   2.885   2.276   4.836
 9810SOL    HW130329   2.813   2.224   4.881
 9810SOL    HW230330   2.952   2.307   4.903
 9811SOL     OW30331   5.906   4.474   3.427
 9811SOL    HW130332   5.997   4.475   3.468
 9811SOL    HW230333   5.857   4.558   3.451
 9812SOL     OW30334   2.608   1.037   4.540
 9812SOL    HW130335   2.552   0.970   4.492
 9812SOL    HW230336   2.684   1.064   4.481
 9813SOL     OW30337   5.330   1.973   0.930
 9813SOL    HW130338   5.305   1.882   0.896
 9813SOL    HW230339   5.365   1.966   1.023
 9814SOL     OW30340   5.935   1.283   0.171
 9814SOL    HW130341   5.897   1.280   0.263
 9814SOL    HW230342   5.875   1.337   0.112
 9815SOL     OW30343   4.561   2.655   4.545
 9815SOL    HW130344   4.593   2.656   4.640
 9815SOL    HW230345   4.637   2.676   4.484
 9816SOL     OW30346   0.890   0.866   6.218
 9816SOL    HW130347   0.922   0.926   6.143
 9816SOL    HW230348   0.962   0.860   6.287
 9817SOL     OW30349   1.179   6.981   3.517
 9817SOL    HW130350   1.140   6.918   3.584
 9817SOL    HW230351   1.224   6.929   3.444
 9818SOL     OW30352   6.418   2.072   4.756
 9818SOL    HW130353   6.440   2.041   4.849
 9818SOL    HW230354   6.496   2.122   4.718
 9819SOL     OW30355   4.812   3.041   3.481
 9819SOL    HW130356   4.763   3.109   3.536
 9819SOL    HW230357   4.812   2.954   3.529
 9820SOL     OW30358   3.560   3.132   6.549
 9820SOL    HW130359   3.612   3.050   6.571
 9820SOL    HW230360   3.471   3.128   6.593
 9821SOL     OW30361   5.708   0.925   6.756
 9821SOL    HW130362   5.632   0.905   6.693
 9821SOL    HW230363   5.715   0.852   6.824
 9822SOL     OW30364   1.298   6.845   3.313
 9822SOL    HW130365   1.381   6.795   3.338
 9822SOL    HW230366   1.314   6.897   3.230
 9823SOL     OW30367   3.736   0.085   1.216
 9823SOL    HW130368   3.787   0.101   1.132
 9823SOL    HW230369   3.752   7.020   1.248
 9824SOL     OW30370   1.657   4.516   5.797
 9824SOL    HW130371   1.652   4.417   5.811
 9824SOL    HW230372   1.746   4.550   5.828
 9825SOL     OW30373   3.181   5.353   5.427
 9825SOL    HW130374   3.274   5.338   5.396
 9825SOL    HW230375   3.120   5.362   5.347
 9826SOL     OW30376   5.410   5.185   6.426
 9826SOL    HW130377   5.380   5.218   6.337
 9826SOL    HW230378   5.333   5.185   6.490
 9827SOL     OW30379   2.084   3.221   3.910
 9827SOL    HW130380   2.043   3.245   3.823
 9827SOL    HW230381   2.093   3.303   3.967
 9828SOL     OW30382   2.627   2.859   6.485
 9828SOL    HW130383   2.547   2.911   6.514
 9828SOL    HW230384   2.662   2.806   6.562
 9829SOL     OW30385   3.187   6.235   0.273
 9829SOL    HW130386   3.100   6.186   0.272
 9829SOL    HW230387   3.263   6.169   0.267
 9830SOL     OW30388   5.146   2.534   1.263
 9830SOL    HW130389   5.155   2.633   1.261
 9830SOL    HW230390   5.190   2.494   1.183
 9831SOL     OW30391   1.618   6.305   1.302
 9831SOL    HW130392   1.661   6.214   1.299
 9831SOL    HW230393   1.525   6.297   1.337
 9832SOL     OW30394   4.985   5.131   2.478
 9832SOL    HW130395   5.004   5.111   2.382
 9832SOL    HW230396   4.888   5.153   2.489
 9833SOL     OW30397   3.599   2.990   4.874
 9833SOL    HW130398   3.686   2.958   4.910
 9833SOL    HW230399   3.524   2.942   4.920
 9834SOL     OW30400   3.651   4.576   5.658
 9834SOL    HW130401   3.691   4.568   5.567
 9834SOL    HW230402   3.584   4.650   5.658
 9835SOL     OW30403   3.303   2.708   5.672
 9835SOL    HW130404   3.306   2.790   5.728
 9835SOL    HW230405   3.290   2.628   5.730
 9836SOL     OW30406   6.061   4.774   3.549
 9836SOL    HW130407   6.117   4.836   3.494
 9836SOL    HW230408   6.000   4.827   3.607
 9837SOL     OW30409   3.534   0.124   2.844
 9837SOL    HW130410   3.622   0.150   2.804
 9837SOL    HW230411   3.478   0.206   2.856
 9838SOL     OW30412   0.658   6.974   5.867
 9838SOL    HW130413   0.587   6.912   5.835
 9838SOL    HW230414   0.649   0.034   5.820
 9839SOL     OW30415   5.665   1.478   3.249
 9839SOL    HW130416   5.619   1.439   3.169
 9839SOL    HW230417   5.726   1.551   3.220
 9840SOL     OW30418   0.683   1.021   1.342
 9840SOL    HW130419   0.782   1.024   1.351
 9840SOL    HW230420   0.642   0.979   1.423
 9841SOL     OW30421   1.471   3.712   4.820
 9841SOL    HW130422   1.394   3.710   4.756
 9841SOL    HW230423   1.512   3.803   4.820
 9842SOL     OW30424   3.990   3.899   3.214
 9842SOL    HW130425   3.913   3.947   3.173
 9842SOL    HW230426   3.990   3.915   3.313
 9843SOL     OW30427   6.077   1.596   1.543
 9843SOL    HW130428   6.051   1.529   1.473
 9843SOL    HW230429   6.081   1.550   1.632
 9844SOL     OW30430   5.558   0.520   2.559
 9844SOL    HW130431   5.617   0.469   2.621
 9844SOL    HW230432   5.553   0.474   2.471
 9845SOL     OW30433   2.873   1.281   3.810
 9845SOL    HW130434   2.889   1.343   3.733
 9845SOL    HW230435   2.955   1.279   3.867
 9846SOL     OW30436   3.825   3.585   1.879
 9846SOL    HW130437   3.908   3.572   1.825
 9846SOL    HW230438   3.844   3.564   1.975
 9847SOL     OW30439   3.359   2.857   4.957
 9847SOL    HW130440   3.387   2.770   4.916
 9847SOL    HW230441   3.327   2.840   5.051
 9848SOL     OW30442   3.668   3.143   6.105
 9848SOL    HW130443   3.763   3.154   6.075
 9848SOL    HW230444   3.630   3.061   6.063
 9849SOL     OW30445   6.294   0.405   0.461
 9849SOL    HW130446   6.289   0.415   0.560
 9849SOL    HW230447   6.321   0.492   0.420
 9850SOL     OW30448   6.305   6.026   3.227
 9850SOL    HW130449   6.384   5.967   3.245
 9850SOL    HW230450   6.277   6.015   3.132
 9851SOL     OW30451   4.495   2.299   5.923
 9851SOL    HW130452   4.579   2.264   5.881
 9851SOL    HW230453   4.440   2.222   5.956
 9852SOL     OW30454   4.428   2.095   2.527
 9852SOL    HW130455   4.342   2.091   2.579
 9852SOL    HW230456   4.441   2.188   2.493
 9853SOL     OW30457   4.892   4.064   3.696
 9853SOL    HW130458   4.928   4.146   3.652
 9853SOL    HW230459   4.911   3.984   3.638
 9854SOL     OW30460   0.367   5.180   4.800
 9854SOL    HW130461   0.304   5.129   4.741
 9854SOL    HW230462   0.388   5.125   4.881
 9855SOL     OW30463   2.557   4.086   1.374
 9855SOL    HW130464   2.474   4.140   1.387
 9855SOL    HW230465   2.556   4.007   1.435
 9856SOL     OW30466   5.143   3.976   6.863
 9856SOL    HW130467   5.179   3.900   6.810
 9856SOL    HW230468   5.197   3.989   6.946
 9857SOL     OW30469   4.124   1.740   4.619
 9857SOL    HW130470   4.171   1.800   4.684
 9857SOL    HW230471   4.027   1.763   4.617
 9858SOL     OW30472   0.353   0.347   1.122
 9858SOL    HW130473   0.418   0.293   1.176
 9858SOL    HW230474   0.307   0.413   1.181
 9859SOL     OW30475   6.068   6.817   1.950
 9859SOL    HW130476   6.164   6.846   1.940
 9859SOL    HW230477   6.016   6.852   1.872
 9860SOL     OW30478   0.145   1.424   3.115
 9860SOL    HW130479   0.079   1.461   3.180
 9860SOL    HW230480   0.104   1.347   3.067
 9861SOL     OW30481   3.770   0.141   2.695
 9861SOL    HW130482   3.744   0.142   2.599
 9861SOL    HW230483   3.828   0.220   2.715
 9862SOL     OW30484   2.833   4.904   0.663
 9862SOL    HW130485   2.915   4.947   0.701
 9862SOL    HW230486   2.756   4.968   0.668
 9863SOL     OW30487   3.394   0.523   3.753
 9863SOL    HW130488   3.473   0.575   3.720
 9863SOL    HW230489   3.315   0.541   3.694
 9864SOL     OW30490   3.480   6.250   3.751
 9864SOL    HW130491   3.407   6.211   3.808
 9864SOL    HW230492   3.524   6.325   3.801
 9865SOL     OW30493   1.939   0.839   4.083
 9865SOL    HW130494   1.946   0.920   4.141
 9865SOL    HW230495   1.978   0.859   3.993
 9866SOL     OW30496   5.635   4.775   5.472
 9866SOL    HW130497   5.655   4.867   5.504
 9866SOL    HW230498   5.590   4.779   5.383
 9867SOL     OW30499   5.971   0.424   0.626
 9867SOL    HW130500   5.898   0.435   0.693
 9867SOL    HW230501   6.059   0.434   0.671
 9868SOL     OW30502   0.676   3.801   5.580
 9868SOL    HW130503   0.675   3.887   5.531
 9868SOL    HW230504   0.748   3.802   5.649
 9869SOL     OW30505   1.547   3.286   2.327
 9869SOL    HW130506   1.569   3.275   2.230
 9869SOL    HW230507   1.452   3.260   2.343
 9870SOL     OW30508   4.355   5.824   2.722
 9870SOL    HW130509   4.312   5.876   2.648
 9870SOL    HW230510   4.361   5.881   2.804
 9871SOL     OW30511   0.833   6.336   6.277
 9871SOL    HW130512   0.744   6.297   6.301
 9871SOL    HW230513   0.895   6.328   6.355
 9872SOL     OW30514   2.508   4.607   4.212
 9872SOL    HW130515   2.461   4.541   4.153
 9872SOL    HW230516   2.472   4.601   4.305
 9873SOL     OW30517   2.990   2.508   1.251
 9873SOL    HW130518   2.941   2.549   1.328
 9873SOL    HW230519   3.048   2.433   1.285
 9874SOL     OW30520   1.223   3.273   4.171
 9874SOL    HW130521   1.297   3.336   4.192
 9874SOL    HW230522   1.254   3.204   4.106
 9875SOL     OW30523   6.800   6.725   1.972
 9875SOL    HW130524   6.778   6.662   1.897
 9875SOL    HW230525   6.859   6.678   2.038
 9876SOL     OW30526   6.370   0.875   2.751
 9876SOL    HW130527   6.457   0.923   2.765
 9876SOL    HW230528   6.344   0.880   2.654
 9877SOL     OW30529   0.123   6.352   3.665
 9877SOL    HW130530   0.137   6.276   3.602
 9877SOL    HW230531   0.058   6.417   3.625
 9878SOL     OW30532   2.788   5.100   5.017
 9878SOL    HW130533   2.711   5.083   4.955
 9878SOL    HW230534   2.865   5.042   4.992
 9879SOL     OW30535   5.517   5.470   4.165
 9879SOL    HW130536   5.581   5.440   4.236
 9879SOL    HW230537   5.567   5.486   4.080
 9880SOL     OW30538   3.256   1.424   5.825
 9880SOL    HW130539   3.197   1.496   5.791
 9880SOL    HW230540   3.349   1.458   5.835
 9881SOL     OW30541   1.038   1.330   5.103
 9881SOL    HW130542   1.047   1.307   5.200
 9881SOL    HW230543   0.942   1.347   5.081
 9882SOL     OW30544   0.572   2.608   3.747
 9882SOL    HW130545   0.646   2.600   3.681
 9882SOL    HW230546   0.486   2.579   3.704
 9883SOL     OW30547   1.274   5.665   0.370
 9883SOL    HW130548   1.254   5.762   0.385
 9883SOL    HW230549   1.372   5.654   0.353
 9884SOL     OW30550   4.565   1.760   2.550
 9884SOL    HW130551   4.577   1.745   2.452
 9884SOL    HW230552   4.554   1.857   2.568
 9885SOL     OW30553   6.761   2.571   5.404
 9885SOL    HW130554   6.673   2.537   5.440
 9885SOL    HW230555   6.835   2.512   5.437
 9886SOL     OW30556   1.230   3.869   2.120
 9886SOL    HW130557   1.168   3.818   2.060
 9886SOL    HW230558   1.269   3.807   2.188
 9887SOL     OW30559   4.010   0.504   6.067
 9887SOL    HW130560   3.975   0.421   6.025
 9887SOL    HW230561   3.990   0.582   6.008
 9888SOL     OW30562   5.424   4.569   2.362
 9888SOL    HW130563   5.487   4.638   2.398
 9888SOL    HW230564   5.400   4.505   2.435
 9889SOL     OW30565   0.103   5.415   1.412
 9889SOL    HW130566   0.042   5.339   1.432
 9889SOL    HW230567   0.193   5.397   1.451
 9890SOL     OW30568   1.729   1.882   0.450
 9890SOL    HW130569   1.809   1.887   0.389
 9890SOL    HW230570   1.760   1.890   0.545
 9891SOL     OW30571   5.610   3.150   2.224
 9891SOL    HW130572   5.530   3.095   2.249
 9891SOL    HW230573   5.640   3.202   2.304
 9892SOL     OW30574   6.916   4.781   0.789
 9892SOL    HW130575   6.914   4.683   0.769
 9892SOL    HW230576   6.870   4.798   0.877
 9893SOL     OW30577   0.814   0.588   0.989
 9893SOL    HW130578   0.783   0.515   0.927
 9893SOL    HW230579   0.911   0.575   1.009
 9894SOL     OW30580   2.473   2.518   1.535
 9894SOL    HW130581   2.510   2.425   1.530
 9894SOL    HW230582   2.375   2.515   1.555
 9895SOL     OW30583   6.018   4.608   4.675
 9895SOL    HW130584   5.924   4.590   4.645
 9895SOL    HW230585   6.081   4.558   4.615
 9896SOL     OW30586   6.654   0.861   6.370
 9896SOL    HW130587   6.690   0.803   6.443
 9896SOL    HW230588   6.555   0.848   6.364
 9897SOL     OW30589   6.057   5.843   2.794
 9897SOL    HW130590   6.045   5.746   2.812
 9897SOL    HW230591   6.063   5.858   2.695
 9898SOL     OW30592   1.387   6.274   4.011
 9898SOL    HW130593   1.400   6.338   4.086
 9898SOL    HW230594   1.464   6.280   3.947
 9899SOL     OW30595   0.956   6.230   0.703
 9899SOL    HW130596   0.873   6.196   0.747
 9899SOL    HW230597   0.975   6.323   0.733
 9900SOL     OW30598   2.078   3.526   3.148
 9900SOL    HW130599   2.040   3.615   3.124
 9900SOL    HW230600   2.128   3.489   3.069
 9901SOL     OW30601   2.935   0.403   7.026
 9901SOL    HW130602   3.032   0.407   0.020
 9901SOL    HW230603   2.907   0.488   6.982
 9902SOL     OW30604   3.150   4.818   0.560
 9902SOL    HW130605   3.109   4.758   0.629
 9902SOL    HW230606   3.206   4.764   0.498
 9903SOL     OW30607   4.900   1.982   2.443
 9903SOL    HW130608   4.955   2.065   2.455
 9903SOL    HW230609   4.902   1.928   2.528
 9904SOL     OW30610   1.080   3.897   6.942
 9904SOL    HW130611   0.980   3.896   6.941
 9904SOL    HW230612   1.112   3.943   7.024
 9905SOL     OW30613   1.922   0.013   6.203
 9905SOL    HW130614   2.000   7.019   6.261
 9905SOL    HW230615   1.844   0.040   6.260
 9906SOL     OW30616   2.267   3.562   1.657
 9906SOL    HW130617   2.327   3.525   1.728
 9906SOL    HW230618   2.219   3.642   1.691
 9907SOL     OW30619   6.753   0.504   1.283
 9907SOL    HW130620   6.697   0.439   1.335
 9907SOL    HW230621   6.812   0.454   1.220
 9908SOL     OW30622   5.929   1.784   5.226
 9908SOL    HW130623   5.870   1.724   5.281
 9908SOL    HW230624   5.955   1.736   5.142
 9909SOL     OW30625   4.667   0.920   3.350
 9909SOL    HW130626   4.674   0.874   3.262
 9909SOL    HW230627   4.759   0.940   3.384
 9910SOL     OW30628   1.443   4.542   2.289
 9910SOL    HW130629   1.395   4.621   2.327
 9910SOL    HW230630   1.441   4.466   2.354
 9911SOL     OW30631   2.774   5.596   2.188
 9911SOL    HW130632   2.787   5.568   2.093
 9911SOL    HW230633   2.731   5.522   2.239
 9912SOL     OW30634   3.576   0.422   1.600
 9912SOL    HW130635   3.657   0.417   1.658
 9912SOL    HW230636   3.505   0.476   1.647
 9913SOL     OW30637   6.006   3.472   1.015
 9913SOL    HW130638   6.038   3.416   0.939
 9913SOL    HW230639   6.072   3.466   1.090
 9914SOL     OW30640   5.835   1.369   5.018
 9914SOL    HW130641   5.841   1.327   5.108
 9914SOL    HW230642   5.814   1.466   5.027
 9915SOL     OW30643   5.376   0.302   3.447
 9915SOL    HW130644   5.451   0.367   3.438
 9915SOL    HW230645   5.289   0.352   3.451
 9916SOL     OW30646   1.900   2.233   2.699
 9916SOL    HW130647   1.811   2.265   2.731
 9916SOL    HW230648   1.972   2.275   2.753
 9917SOL     OW30649   5.189   4.470   6.709
 9917SOL    HW130650   5.149   4.385   6.741
 9917SOL    HW230651   5.133   4.508   6.636
 9918SOL     OW30652   3.495   1.207   2.816
 9918SOL    HW130653   3.552   1.262   2.877
 9918SOL    HW230654   3.544   1.192   2.730
 9919SOL     OW30655   0.681   5.291   1.076
 9919SOL    HW130656   0.746   5.344   1.022
 9919SOL    HW230657   0.676   5.198   1.040
 9920SOL     OW30658   4.996   1.411   2.362
 9920SOL    HW130659   5.046   1.496   2.376
 9920SOL    HW230660   4.898   1.431   2.356
 9921SOL     OW30661   3.682   0.076   4.968
 9921SOL    HW130662   3.668   0.096   4.871
 9921SOL    HW230663   3.698   0.161   5.018
 9922SOL     OW30664   2.452   4.143   0.945
 9922SOL    HW130665   2.435   4.079   0.871
 9922SOL    HW230666   2.376   4.140   1.009
 9923SOL     OW30667   5.148   4.733   6.834
 9923SOL    HW130668   5.177   4.642   6.805
 9923SOL    HW230669   5.222   4.776   6.887
 9924SOL     OW30670   6.588   1.505   4.343
 9924SOL    HW130671   6.568   1.457   4.258
 9924SOL    HW230672   6.532   1.588   4.349
 9925SOL     OW30673   0.600   3.892   4.166
 9925SOL    HW130674   0.554   3.853   4.246
 9925SOL    HW230675   0.570   3.844   4.084
 9926SOL     OW30676   4.421   2.918   1.364
 9926SOL    HW130677   4.508   2.878   1.334
 9926SOL    HW230678   4.360   2.845   1.393
 9927SOL     OW30679   6.763   7.020   0.663
 9927SOL    HW130680   6.817   0.067   0.627
 9927SOL    HW230681   6.732   6.962   0.588
 9928SOL     OW30682   4.741   4.060   2.647
 9928SOL    HW130683   4.762   4.082   2.741
 9928SOL    HW230684   4.775   3.968   2.626
 9929SOL     OW30685   3.865   4.455   5.828
 9929SOL    HW130686   3.797   4.502   5.772
 9929SOL    HW230687   3.827   4.437   5.919
 9930SOL     OW30688   6.439   6.574   4.978
 9930SOL    HW130689   6.343   6.602   4.985
 9930SOL    HW230690   6.444   6.474   4.981
 9931SOL     OW30691   0.902   5.663   4.282
 9931SOL    HW130692   0.997   5.632   4.281
 9931SOL    HW230693   0.900   5.762   4.298
 9932SOL     OW30694   3.809   2.976   7.001
 9932SOL    HW130695   3.851   2.937   6.918
 9932SOL    HW230696   3.710   2.967   6.995
 9933SOL     OW30697   0.032   5.806   3.314
 9933SOL    HW130698   7.006   5.765   3.387
 9933SOL    HW230699   0.076   5.734   3.261
 9934SOL     OW30700   6.520   2.498   5.536
 9934SOL    HW130701   6.511   2.455   5.625
 9934SOL    HW230702   6.469   2.445   5.468
 9935SOL     OW30703   2.626   6.176   6.802
 9935SOL    HW130704   2.614   6.275   6.802
 9935SOL    HW230705   2.536   6.132   6.800
 9936SOL     OW30706   6.828   5.187   6.901
 9936SOL    HW130707   6.816   5.276   6.945
 9936SOL    HW230708   6.765   5.121   6.941
 9937SOL     OW30709   6.714   1.623   1.028
 9937SOL    HW130710   6.767   1.555   0.978
 9937SOL    HW230711   6.766   1.709   1.033
 9938SOL     OW30712   6.625   5.078   3.078
 9938SOL    HW130713   6.662   5.043   2.992
 9938SOL    HW230714   6.691   5.061   3.152
 9939SOL     OW30715   4.526   2.143   1.362
 9939SOL    HW130716   4.525   2.095   1.274
 9939SOL    HW230717   4.498   2.238   1.349
 9940SOL     OW30718   1.149   0.232   1.166
 9940SOL    HW130719   1.173   0.318   1.120
 9940SOL    HW230720   1.233   0.187   1.198
 9941SOL     OW30721   3.473   3.462   5.418
 9941SOL    HW130722   3.521   3.376   5.398
 9941SOL    HW230723   3.536   3.538   5.411
 9942SOL     OW30724   2.122   5.479   2.783
 9942SOL    HW130725   2.151   5.557   2.727
 9942SOL    HW230726   2.059   5.512   2.855
 9943SOL     OW30727   0.168   4.842   5.512
 9943SOL    HW130728   0.265   4.850   5.488
 9943SOL    HW230729   0.155   4.868   5.607
 9944SOL     OW30730   0.840   4.466   6.540
 9944SOL    HW130731   0.853   4.421   6.451
 9944SOL    HW230732   0.863   4.563   6.532
 9945SOL     OW30733   5.048   5.185   6.879
 9945SOL    HW130734   5.027   5.102   6.931
 9945SOL    HW230735   4.964   5.220   6.838
 9946SOL     OW30736   5.830   0.536   3.736
 9946SOL    HW130737   5.812   0.537   3.638
 9946SOL    HW230738   5.876   0.621   3.761
 9947SOL     OW30739   2.137   2.077   5.026
 9947SOL    HW130740   2.064   2.145   5.034
 9947SOL    HW230741   2.222   2.116   5.060
 9948SOL     OW30742   5.843   4.022   5.125
 9948SOL    HW130743   5.925   4.069   5.157
 9948SOL    HW230744   5.863   3.925   5.112
 9949SOL     OW30745   6.085   5.239   4.537
 9949SOL    HW130746   6.066   5.329   4.497
 9949SOL    HW230747   6.156   5.193   4.483
 9950SOL     OW30748   5.437   6.086   5.309
 9950SOL    HW130749   5.353   6.080   5.255
 9950SOL    HW230750   5.441   6.174   5.356
 9951SOL     OW30751   7.011   1.276   3.944
 9951SOL    HW130752   6.994   1.339   4.020
 9951SOL    HW230753   0.082   1.268   3.929
 9952SOL     OW30754   1.399   4.383   0.643
 9952SOL    HW130755   1.376   4.396   0.546
 9952SOL    HW230756   1.485   4.332   0.650
 9953SOL     OW30757   5.278   2.652   4.772
 9953SOL    HW130758   5.192   2.667   4.821
 9953SOL    HW230759   5.299   2.732   4.716
 9954SOL     OW30760   6.838   0.865   6.170
 9954SOL    HW130761   6.770   0.852   6.242
 9954SOL    HW230762   6.848   0.781   6.117
 9955SOL     OW30763   6.159   3.519   5.891
 9955SOL    HW130764   6.249   3.490   5.924
 9955SOL    HW230765   6.117   3.444   5.839
 9956SOL     OW30766   1.516   6.908   1.779
 9956SOL    HW130767   1.543   6.993   1.824
 9956SOL    HW230768   1.547   6.830   1.833
 9957SOL     OW30769   4.933   6.005   2.606
 9957SOL    HW130770   4.896   5.996   2.514
 9957SOL    HW230771   5.008   5.939   2.619
 9958SOL     OW30772   3.296   5.342   6.970
 9958SOL    HW130773   3.395   5.352   6.981
 9958SOL    HW230774   3.250   5.393   0.015
 9959SOL     OW30775   4.187   3.660   5.009
 9959SOL    HW130776   4.229   3.750   5.018
 9959SOL    HW230777   4.213   3.603   5.087
 9960SOL     OW30778   0.007   0.563   1.982
 9960SOL    HW130779   0.039   0.478   1.940
 9960SOL    HW230780   0.071   0.637   1.959
 9961SOL     OW30781   1.417   4.726   4.759
 9961SOL    HW130782   1.382   4.817   4.782
 9961SOL    HW230783   1.450   4.681   4.842
 9962SOL     OW30784   6.057   5.755   1.800
 9962SOL    HW130785   5.980   5.770   1.738
 9962SOL    HW230786   6.023   5.723   1.889
 9963SOL     OW30787   3.026   3.319   6.747
 9963SOL    HW130788   3.092   3.320   6.672
 9963SOL    HW230789   2.986   3.228   6.755
 9964SOL     OW30790   5.772   4.412   5.569
 9964SOL    HW130791   5.683   4.458   5.561
 9964SOL    HW230792   5.801   4.412   5.665
 9965SOL     OW30793   3.641   6.746   6.176
 9965SOL    HW130794   3.651   6.647   6.181
 9965SOL    HW230795   3.557   6.773   6.224
 9966SOL     OW30796   1.770   6.094   2.216
 9966SOL    HW130797   1.682   6.140   2.233
 9966SOL    HW230798   1.753   6.002   2.180
 9967SOL     OW30799   6.930   0.145   2.335
 9967SOL    HW130800   6.885   0.062   2.368
 9967SOL    HW230801   6.873   0.224   2.355
 9968SOL     OW30802   3.312   3.800   0.385
 9968SOL    HW130803   3.365   3.834   0.307
 9968SOL    HW230804   3.252   3.873   0.419
 9969SOL     OW30805   1.807   2.834   2.802
 9969SOL    HW130806   1.864   2.862   2.880
 9969SOL    HW230807   1.719   2.800   2.836
 9970SOL     OW30808   5.120   3.531   2.673
 9970SOL    HW130809   5.059   3.496   2.601
 9970SOL    HW230810   5.083   3.617   2.709
 9971SOL     OW30811   1.958   5.676   1.229
 9971SOL    HW130812   1.998   5.755   1.182
 9971SOL    HW230813   2.029   5.609   1.248
 9972SOL     OW30814   4.131   4.791   1.340
 9972SOL    HW130815   4.145   4.790   1.439
 9972SOL    HW230816   4.161   4.704   1.301
 9973SOL     OW30817   4.619   2.076   4.239
 9973SOL    HW130818   4.645   2.160   4.191
 9973SOL    HW230819   4.520   2.062   4.230
 9974SOL     OW30820   0.025   2.948   3.347
 9974SOL    HW130821   7.013   2.969   3.258
 9974SOL    HW230822   7.006   2.999   3.418
 9975SOL     OW30823   5.962   4.343   6.966
 9975SOL    HW130824   5.969   4.288   0.021
 9975SOL    HW230825   6.052   4.376   6.940
 9976SOL     OW30826   0.331   6.380   5.466
 9976SOL    HW130827   0.334   6.404   5.563
 9976SOL    HW230828   0.242   6.340   5.444
 9977SOL     OW30829   6.864   5.493   5.175
 9977SOL    HW130830   6.795   5.435   5.218
 9977SOL    HW230831   6.955   5.456   5.195
 9978SOL     OW30832   6.589   2.744   3.582
 9978SOL    HW130833   6.608   2.752   3.484
 9978SOL    HW230834   6.675   2.743   3.633
 9979SOL     OW30835   6.288   5.403   5.327
 9979SOL    HW130836   6.203   5.353   5.339
 9979SOL    HW230837   6.363   5.339   5.310
 9980SOL     OW30838   1.859   1.530   5.709
 9980SOL    HW130839   1.850   1.505   5.613
 9980SOL    HW230840   1.867   1.447   5.764
 9981SOL     OW30841   2.142   1.828   1.806
 9981SOL    HW130842   2.054   1.873   1.824
 9981SOL    HW230843   2.216   1.882   1.847
 9982SOL     OW30844   6.840   0.079   3.874
 9982SOL    HW130845   6.886   7.018   3.883
 9982SOL    HW230846   6.786   0.080   3.790
 9983SOL     OW30847   0.062   2.566   3.040
 9983SOL    HW130848   0.081   2.534   3.134
 9983SOL    HW230849   0.128   2.524   2.978
 9984SOL     OW30850   2.068   0.718   0.068
 9984SOL    HW130851   2.062   0.685   7.002
 9984SOL    HW230852   2.086   0.816   0.068
 9985SOL     OW30853   1.509   1.328   1.378
 9985SOL    HW130854   1.472   1.294   1.465
 9985SOL    HW230855   1.451   1.402   1.344
 9986SOL     OW30856   5.850   4.330   5.831
 9986SOL    HW130857   5.846   4.376   5.920
 9986SOL    HW230858   5.831   4.232   5.843
 9987SOL     OW30859   6.639   3.143   4.103
 9987SOL    HW130860   6.705   3.076   4.070
 9987SOL    HW230861   6.687   3.228   4.127
 9988SOL     OW30862   6.776   5.914   4.535
 9988SOL    HW130863   6.826   5.831   4.511
 9988SOL    HW230864   6.812   5.952   4.619
 9989SOL     OW30865   6.239   3.794   3.572
 9989SOL    HW130866   6.206   3.887   3.555
 9989SOL    HW230867   6.226   3.738   3.491
 9990SOL     OW30868   2.777   5.569   1.710
 9990SOL    HW130869   2.753   5.495   1.773
 9990SOL    HW230870   2.695   5.624   1.690
 9991SOL     OW30871   1.899   2.706   3.589
 9991SOL    HW130872   1.909   2.741   3.496
 9991SOL    HW230873   1.802   2.697   3.611
 9992SOL     OW30874   5.621   4.932   0.312
 9992SOL    HW130875   5.572   4.853   0.275
 9992SOL    HW230876   5.614   5.009   0.249
 9993SOL     OW30877   3.055   0.296   0.613
 9993SOL    HW130878   3.057   0.266   0.709
 9993SOL    HW230879   2.972   0.262   0.569
 9994SOL     OW30880   6.792   4.507   3.526
 9994SOL    HW130881   6.807   4.441   3.452
 9994SOL    HW230882   6.857   4.583   3.515
 9995SOL     OW30883   4.579   1.161   3.255
 9995SOL    HW130884   4.601   1.083   3.314
 9995SOL    HW230885   4.482   1.157   3.230
 9996SOL     OW30886   2.719   2.939   1.386
 9996SOL    HW130887   2.673   2.858   1.349
 9996SOL    HW230888   2.744   2.922   1.482
 9997SOL     OW30889   3.515   1.504   0.413
 9997SOL    HW130890   3.565   1.446   0.350
 9997SOL    HW230891   3.466   1.574   0.362
 9998SOL     OW30892   5.127   4.364   6.316
 9998SOL    HW130893   5.100   4.268   6.330
 9998SOL    HW230894   5.093   4.419   6.392
 9999SOL     OW30895   6.760   3.169   5.223
 9999SOL    HW130896   6.793   3.150   5.130
 9999SOL    HW230897   6.775   3.266   5.243
10000SOL     OW30898   0.328   4.376   6.769
10000SOL    HW130899   0.329   4.457   6.711
10000SOL    HW230900   0.311   4.403   6.864
10001SOL     OW30901   4.451   0.092   2.365
10001SOL    HW130902   4.415   0.181   2.393
10001SOL    HW230903   4.505   0.053   2.440
10002SOL     OW30904   1.939   6.834   2.893
10002SOL    HW130905   1.963   6.921   2.937
10002SOL    HW230906   1.844   6.812   2.913
10003SOL     OW30907   3.722   1.326   3.256
10003SOL    HW130908   3.646   1.318   3.320
10003SOL    HW230909   3.804   1.354   3.306
10004SOL     OW30910   6.395   2.377   4.719
10004SOL    HW130911   6.465   2.353   4.652
10004SOL    HW230912   6.330   2.441   4.679
10005SOL     OW30913   4.445   0.351   4.563
10005SOL    HW130914   4.486   0.308   4.482
10005SOL    HW230915   4.346   0.340   4.560
10006SOL     OW30916   5.022   6.108   3.930
10006SOL    HW130917   5.020   6.034   3.862
10006SOL    HW230918   5.088   6.177   3.902
10007SOL     OW30919   6.734   5.280   5.716
10007SOL    HW130920   6.658   5.269   5.780
10007SOL    HW230921   6.754   5.192   5.672
10008SOL     OW30922   4.236   1.185   4.482
10008SOL    HW130923   4.241   1.249   4.559
10008SOL    HW230924   4.329   1.166   4.449
10009SOL     OW30925   1.835   3.730   1.767
10009SOL    HW130926   1.890   3.714   1.686
10009SOL    HW230927   1.887   3.704   1.849
10010SOL     OW30928   2.546   0.685   5.946
10010SOL    HW130929   2.521   0.722   5.856
10010SOL    HW230930   2.505   0.594   5.957
10011SOL     OW30931   5.386   1.060   5.499
10011SOL    HW130932   5.430   1.127   5.559
10011SOL    HW230933   5.297   1.034   5.537
10012SOL     OW30934   5.945   1.488   3.444
10012SOL    HW130935   5.879   1.413   3.441
10012SOL    HW230936   6.015   1.474   3.374
10013SOL     OW30937   0.290   1.079   3.196
10013SOL    HW130938   0.356   1.004   3.195
10013SOL    HW230939   0.282   1.115   3.289
10014SOL     OW30940   6.929   4.188   0.823
10014SOL    HW130941   6.913   4.096   0.857
10014SOL    HW230942   6.911   4.191   0.725
10015SOL     OW30943   1.991   4.683   0.549
10015SOL    HW130944   2.084   4.714   0.567
10015SOL    HW230945   1.992   4.588   0.519
10016SOL     OW30946   1.135   0.803   6.653
10016SOL    HW130947   1.163   0.718   6.699
10016SOL    HW230948   1.209   0.870   6.659
10017SOL     OW30949   2.708   1.549   2.964
10017SOL    HW130950   2.662   1.580   2.881
10017SOL    HW230951   2.755   1.463   2.945
10018SOL     OW30952   4.428   0.435   6.226
10018SOL    HW130953   4.400   0.508   6.164
10018SOL    HW230954   4.485   0.472   6.299
10019SOL     OW30955   0.425   1.412   3.065
10019SOL    HW130956   0.492   1.376   3.130
10019SOL    HW230957   0.334   1.409   3.106
10020SOL     OW30958   1.557   2.318   0.827
10020SOL    HW130959   1.595   2.228   0.846
10020SOL    HW230960   1.464   2.323   0.863
10021SOL     OW30961   0.158   2.087   1.201
10021SOL    HW130962   0.256   2.071   1.195
10021SOL    HW230963   0.128   2.075   1.296
10022SOL     OW30964   2.833   1.014   5.933
10022SOL    HW130965   2.765   1.087   5.936
10022SOL    HW230966   2.860   0.996   5.839
10023SOL     OW30967   0.702   5.086   0.895
10023SOL    HW130968   0.709   5.150   0.818
10023SOL    HW230969   0.792   5.047   0.914
10024SOL     OW30970   2.482   5.860   2.518
10024SOL    HW130971   2.574   5.830   2.545
10024SOL    HW230972   2.486   5.955   2.487
10025SOL     OW30973   1.309   1.724   0.477
10025SOL    HW130974   1.333   1.815   0.513
10025SOL    HW230975   1.324   1.655   0.548
10026SOL     OW30976   5.331   6.265   3.575
10026SOL    HW130977   5.385   6.260   3.491
10026SOL    HW230978   5.264   6.191   3.575
10027SOL     OW30979   6.644   4.444   4.625
10027SOL    HW130980   6.556   4.401   4.605
10027SOL    HW230981   6.672   4.499   4.546
10028SOL     OW30982   1.355   0.879   2.354
10028SOL    HW130983   1.290   0.878   2.279
10028SOL    HW230984   1.306   0.873   2.441
10029SOL     OW30985   4.904   1.476   4.549
10029SOL    HW130986   4.934   1.564   4.511
10029SOL    HW230987   4.841   1.491   4.625
10030SOL     OW30988   2.058   0.620   3.686
10030SOL    HW130989   2.051   0.549   3.756
10030SOL    HW230990   1.971   0.669   3.679
10031SOL     OW30991   5.179   4.869   4.864
10031SOL    HW130992   5.217   4.930   4.933
10031SOL    HW230993   5.092   4.831   4.897
10032SOL     OW30994   2.799   1.376   5.090
10032SOL    HW130995   2.798   1.369   5.190
10032SOL    HW230996   2.885   1.338   5.056
10033SOL     OW30997   6.656   3.142   4.518
10033SOL    HW130998   6.720   3.133   4.595
10033SOL    HW230999   6.619   3.235   4.517
10034SOL     OW31000   3.659   0.448   4.193
10034SOL    HW131001   3.741   0.499   4.169
10034SOL    HW231002   3.584   0.476   4.133
10035SOL     OW31003   0.027   5.071   1.409
10035SOL    HW131004   6.968   5.099   1.367
10035SOL    HW231005   0.070   5.002   1.351
10036SOL     OW31006   6.330   2.109   1.004
10036SOL    HW131007   6.334   2.009   1.004
10036SOL    HW231008   6.389   2.145   0.931
10037SOL     OW31009   0.242   1.395   0.167
10037SOL    HW131010   0.203   1.334   0.097
10037SOL    HW231011   0.176   1.467   0.188
10038SOL     OW31012   5.448   0.514   6.906
10038SOL    HW131013   5.495   0.596   6.938
10038SOL    HW231014   5.456   0.442   6.976
10039SOL     OW31015   3.446   0.579   4.025
10039SOL    HW131016   3.464   0.585   3.927
10039SOL    HW231017   3.415   0.668   4.059
10040SOL     OW31018   5.783   5.278   6.681
10040SOL    HW131019   5.874   5.278   6.639
10040SOL    HW231020   5.777   5.351   6.748
10041SOL     OW31021   4.239   5.692   6.811
10041SOL    HW131022   4.150   5.706   6.769
10041SOL    HW231023   4.230   5.628   6.887
10042SOL     OW31024   0.631   1.789   3.476
10042SOL    HW131025   0.584   1.825   3.557
10042SOL    HW231026   0.728   1.777   3.497
10043SOL     OW31027   5.734   1.594   5.344
10043SOL    HW131028   5.672   1.653   5.293
10043SOL    HW231029   5.733   1.502   5.306
10044SOL     OW31030   2.442   2.526   5.243
10044SOL    HW131031   2.357   2.486   5.276
10044SOL    HW231032   2.429   2.624   5.227
10045SOL     OW31033   3.878   0.700   1.548
10045SOL    HW131034   3.907   0.772   1.611
10045SOL    HW231035   3.835   0.741   1.467
10046SOL     OW31036   2.112   3.418   1.119
10046SOL    HW131037   2.177   3.412   1.194
10046SOL    HW231038   2.069   3.328   1.105
10047SOL     OW31039   0.922   3.202   5.577
10047SOL    HW131040   0.881   3.288   5.548
10047SOL    HW231041   0.887   3.177   5.667
10048SOL     OW31042   6.756   6.830   2.643
10048SOL    HW131043   6.751   6.844   2.741
10048SOL    HW231044   6.822   6.757   2.623
10049SOL     OW31045   1.450   1.382   5.693
10049SOL    HW131046   1.483   1.473   5.716
10049SOL    HW231047   1.524   1.328   5.652
10050SOL     OW31048   5.577   3.165   4.555
10050SOL    HW131049   5.531   3.250   4.529
10050SOL    HW231050   5.667   3.186   4.593
10051SOL     OW31051   1.243   4.054   4.936
10051SOL    HW131052   1.191   4.084   5.016
10051SOL    HW231053   1.183   4.006   4.873
10052SOL     OW31054   1.908   0.760   3.390
10052SOL    HW131055   1.952   0.841   3.351
10052SOL    HW231056   1.956   0.678   3.358
10053SOL     OW31057   4.177   5.676   3.950
10053SOL    HW131058   4.163   5.577   3.945
10053SOL    HW231059   4.099   5.719   3.997
10054SOL     OW31060   5.472   4.160   5.285
10054SOL    HW131061   5.530   4.079   5.292
10054SOL    HW231062   5.526   4.236   5.247
10055SOL     OW31063   6.868   2.788   6.325
10055SOL    HW131064   6.936   2.750   6.263
10055SOL    HW231065   6.785   2.811   6.275
10056SOL     OW31066   5.216   4.084   2.967
10056SOL    HW131067   5.185   4.009   3.026
10056SOL    HW231068   5.166   4.082   2.881
10057SOL     OW31069   5.782   3.725   5.502
10057SOL    HW131070   5.840   3.724   5.421
10057SOL    HW231071   5.829   3.679   5.578
10058SOL     OW31072   6.839   3.868   3.966
10058SOL    HW131073   6.748   3.837   3.937
10058SOL    HW231074   6.841   3.968   3.966
10059SOL     OW31075   6.532   1.817   0.749
10059SOL    HW131076   6.581   1.740   0.708
10059SOL    HW231077   6.590   1.861   0.817
10060SOL     OW31078   2.559   1.779   2.483
10060SOL    HW131079   2.511   1.741   2.403
10060SOL    HW231080   2.583   1.874   2.465
10061SOL     OW31081   4.578   1.510   3.490
10061SOL    HW131082   4.484   1.511   3.454
10061SOL    HW231083   4.640   1.546   3.421
10062SOL     OW31084   6.652   6.661   4.170
10062SOL    HW131085   6.609   6.738   4.218
10062SOL    HW231086   6.727   6.625   4.225
10063SOL     OW31087   2.265   1.943   4.580
10063SOL    HW131088   2.302   1.852   4.559
10063SOL    HW231089   2.322   2.013   4.537
10064SOL     OW31090   4.308   5.884   6.519
10064SOL    HW131091   4.383   5.847   6.574
10064SOL    HW231092   4.253   5.808   6.483
10065SOL     OW31093   1.691   1.059   1.803
10065SOL    HW131094   1.693   1.106   1.892
10065SOL    HW231095   1.783   1.033   1.776
10066SOL     OW31096   0.449   3.594   5.266
10066SOL    HW131097   0.353   3.576   5.247
10066SOL    HW231098   0.498   3.507   5.278
10067SOL     OW31099   0.965   3.188   6.569
10067SOL    HW131100   0.925   3.210   6.657
10067SOL    HW231101   1.017   3.103   6.577
10068SOL     OW31102   1.815   3.722   2.714
10068SOL    HW131103   1.715   3.717   2.705
10068SOL    HW231104   1.856   3.743   2.625
10069SOL     OW31105   3.495   5.084   1.779
10069SOL    HW131106   3.578   5.137   1.759
10069SOL    HW231107   3.432   5.141   1.831
10070SOL     OW31108   1.846   5.733   4.649
10070SOL    HW131109   1.761   5.773   4.614
10070SOL    HW231110   1.823   5.654   4.707
10071SOL     OW31111   0.557   6.680   3.942
10071SOL    HW131112   0.583   6.776   3.938
10071SOL    HW231113   0.603   6.635   4.019
10072SOL     OW31114   0.298   1.293   2.423
10072SOL    HW131115   0.287   1.378   2.475
10072SOL    HW231116   0.380   1.246   2.454
10073SOL     OW31117   6.150   2.838   3.918
10073SOL    HW131118   6.159   2.757   3.976
10073SOL    HW231119   6.215   2.908   3.947
10074SOL     OW31120   1.134   5.393   0.372
10074SOL    HW131121   1.129   5.492   0.358
10074SOL    HW231122   1.200   5.354   0.309
10075SOL     OW31123   2.541   0.852   2.372
10075SOL    HW131124   2.562   0.945   2.342
10075SOL    HW231125   2.608   0.788   2.332
10076SOL     OW31126   5.162   5.421   3.375
10076SOL    HW131127   5.098   5.359   3.330
10076SOL    HW231128   5.162   5.509   3.328
10077SOL     OW31129   6.059   3.311   0.243
10077SOL    HW131130   6.140   3.259   0.269
10077SOL    HW231131   5.991   3.307   0.317
10078SOL     OW31132   6.815   6.288   4.988
10078SOL    HW131133   6.902   6.336   4.975
10078SOL    HW231134   6.755   6.343   5.046
10079SOL     OW31135   5.805   2.495   3.951
10079SOL    HW131136   5.748   2.452   3.881
10079SOL    HW231137   5.771   2.471   4.042
10080SOL     OW31138   5.631   1.080   5.818
10080SOL    HW131139   5.673   1.078   5.727
10080SOL    HW231140   5.661   1.162   5.867
10081SOL     OW31141   1.185   1.607   6.654
10081SOL    HW131142   1.255   1.581   6.721
10081SOL    HW231143   1.227   1.616   6.563
10082SOL     OW31144   1.265   5.333   2.982
10082SOL    HW131145   1.268   5.327   2.883
10082SOL    HW231146   1.205   5.409   3.009
10083SOL     OW31147   3.559   5.642   3.379
10083SOL    HW131148   3.594   5.612   3.290
10083SOL    HW231149   3.533   5.562   3.433
10084SOL     OW31150   0.733   0.047   5.602
10084SOL    HW131151   0.670   6.998   5.591
10084SOL    HW231152   0.698   0.127   5.553
10085SOL     OW31153   3.968   6.607   0.085
10085SOL    HW131154   3.921   6.540   0.142
10085SOL    HW231155   3.945   6.699   0.115
10086SOL     OW31156   5.889   6.263   2.003
10086SOL    HW131157   5.902   6.352   2.046
10086SOL    HW231158   5.977   6.228   1.969
10087SOL     OW31159   0.742   6.736   4.550
10087SOL    HW131160   0.717   6.741   4.647
10087SOL    HW231161   0.829   6.688   4.540
10088SOL     OW31162   6.889   2.089   6.871
10088SOL    HW131163   6.913   2.011   6.929
10088SOL    HW231164   6.962   2.157   6.874
10089SOL     OW31165   3.908   1.484   2.245
10089SOL    HW131166   3.977   1.556   2.237
10089SOL    HW231167   3.823   1.514   2.201
10090SOL     OW31168   0.910   5.369   1.638
10090SOL    HW131169   0.889   5.281   1.595
10090SOL    HW231170   1.009   5.383   1.636
10091SOL     OW31171   6.672   5.683   6.545
10091SOL    HW131172   6.595   5.625   6.573
10091SOL    HW231173   6.661   5.710   6.450
10092SOL     OW31174   1.129   3.341   5.369
10092SOL    HW131175   1.076   3.287   5.303
10092SOL    HW231176   1.208   3.287   5.399
10093SOL     OW31177   5.124   3.704   5.601
10093SOL    HW131178   5.066   3.721   5.522
10093SOL    HW231179   5.211   3.753   5.589
10094SOL     OW31180   3.038   6.256   0.557
10094SOL    HW131181   3.137   6.243   0.549
10094SOL    HW231182   3.005   6.308   0.478
10095SOL     OW31183   5.119   2.457   5.025
10095SOL    HW131184   5.215   2.429   5.024
10095SOL    HW231185   5.062   2.379   4.999
10096SOL     OW31186   4.738   0.683   2.540
10096SOL    HW131187   4.782   0.683   2.630
10096SOL    HW231188   4.788   0.744   2.478
10097SOL     OW31189   2.085   2.233   6.368
10097SOL    HW131190   2.031   2.157   6.331
10097SOL    HW231191   2.023   2.306   6.398
10098SOL     OW31192   3.288   5.538   4.501
10098SOL    HW131193   3.245   5.612   4.450
10098SOL    HW231194   3.224   5.461   4.508
10099SOL     OW31195   6.367   3.956   1.693
10099SOL    HW131196   6.343   4.012   1.614
10099SOL    HW231197   6.430   3.883   1.664
10100SOL     OW31198   5.354   5.576   5.452
10100SOL    HW131199   5.349   5.628   5.537
10100SOL    HW231200   5.270   5.523   5.440
10101SOL     OW31201   6.374   2.888   1.934
10101SOL    HW131202   6.439   2.963   1.929
10101SOL    HW231203   6.365   2.846   1.843
10102SOL     OW31204   5.556   6.980   0.513
10102SOL    HW131205   5.510   6.912   0.456
10102SOL    HW231206   5.654   6.961   0.515
10103SOL     OW31207   0.658   0.286   5.978
10103SOL    HW131208   0.700   0.332   5.901
10103SOL    HW231209   0.717   0.292   6.058
10104SOL     OW31210   2.027   0.642   6.065
10104SOL    HW131211   2.048   0.702   6.142
10104SOL    HW231212   2.046   0.691   5.979
10105SOL     OW31213   2.986   1.524   6.012
10105SOL    HW131214   2.992   1.457   5.938
10105SOL    HW231215   2.977   1.476   6.099
10106SOL     OW31216   4.904   6.229   2.009
10106SOL    HW131217   4.824   6.198   2.060
10106SOL    HW231218   4.899   6.327   1.994
10107SOL     OW31219   4.962   4.503   6.511
10107SOL    HW131220   4.888   4.447   6.550
10107SOL    HW231221   4.927   4.594   6.490
10108SOL     OW31222   1.787   3.119   0.471
10108SOL    HW131223   1.854   3.148   0.539
10108SOL    HW231224   1.776   3.019   0.475
10109SOL     OW31225   0.460   0.857   7.022
10109SOL    HW131226   0.466   0.918   6.943
10109SOL    HW231227   0.365   0.847   0.022
10110SOL     OW31228   5.004   5.102   2.209
10110SOL    HW131229   4.937   5.029   2.197
10110SOL    HW231230   4.960   5.190   2.191
10111SOL     OW31231   0.953   2.474   1.986
10111SOL    HW131232   1.017   2.550   1.974
10111SOL    HW231233   0.999   2.400   2.037
10112SOL     OW31234   6.544   3.066   3.423
10112SOL    HW131235   6.544   3.166   3.431
10112SOL    HW231236   6.523   3.040   3.329
10113SOL     OW31237   5.286   1.156   6.671
10113SOL    HW131238   5.279   1.147   6.771
10113SOL    HW231239   5.196   1.180   6.634
10114SOL     OW31240   4.112   2.287   3.270
10114SOL    HW131241   4.016   2.265   3.251
10114SOL    HW231242   4.122   2.310   3.367
10115SOL     OW31243   3.153   1.347   4.500
10115SOL    HW131244   3.208   1.363   4.582
10115SOL    HW231245   3.205   1.371   4.419
10116SOL     OW31246   6.062   0.554   5.495
10116SOL    HW131247   5.985   0.611   5.524
10116SOL    HW231248   6.123   0.607   5.436
10117SOL     OW31249   6.471   5.183   5.211
10117SOL    HW131250   6.382   5.167   5.168
10117SOL    HW231251   6.489   5.112   5.279
10118SOL     OW31252   2.470   5.187   4.325
10118SOL    HW131253   2.555   5.181   4.272
10118SOL    HW231254   2.479   5.258   4.394
10119SOL     OW31255   0.395   5.279   4.287
10119SOL    HW131256   0.305   5.320   4.297
10119SOL    HW231257   0.427   5.247   4.376
10120SOL     OW31258   1.214   3.035   2.581
10120SOL    HW131259   1.199   2.956   2.521
10120SOL    HW231260   1.264   3.005   2.662
10121SOL     OW31261   6.515   4.660   0.723
10121SOL    HW131262   6.554   4.612   0.802
10121SOL    HW231263   6.425   4.623   0.702
10122SOL     OW31264   7.015   1.803   3.935
10122SOL    HW131265   6.987   1.896   3.912
10122SOL    HW231266   6.936   1.751   3.966
10123SOL     OW31267   5.696   6.249   1.403
10123SOL    HW131268   5.649   6.184   1.462
10123SOL    HW231269   5.780   6.279   1.448
10124SOL     OW31270   1.151   5.260   2.333
10124SOL    HW131271   1.058   5.241   2.302
10124SOL    HW231272   1.179   5.351   2.299
10125SOL     OW31273   1.609   1.415   0.722
10125SOL    HW131274   1.647   1.389   0.811
10125SOL    HW231275   1.681   1.453   0.665
10126SOL     OW31276   5.967   0.884   6.631
10126SOL    HW131277   5.871   0.909   6.644
10126SOL    HW231278   6.000   0.921   6.544
10127SOL     OW31279   1.557   4.856   6.014
10127SOL    HW131280   1.633   4.912   5.982
10127SOL    HW231281   1.475   4.876   5.960
10128SOL     OW31282   3.394   0.885   0.438
10128SOL    HW131283   3.352   0.971   0.464
10128SOL    HW231284   3.458   0.856   0.509
10129SOL     OW31285   5.916   1.746   3.519
10129SOL    HW131286   5.906   1.650   3.493
10129SOL    HW231287   5.843   1.799   3.477
10130SOL     OW31288   0.766   2.170   2.312
10130SOL    HW131289   0.798   2.101   2.247
10130SOL    HW231290   0.766   2.132   2.404
10131SOL     OW31291   1.988   0.676   4.529
10131SOL    HW131292   1.994   0.771   4.558
10131SOL    HW231293   1.892   0.649   4.523
10132SOL     OW31294   6.585   0.236   2.361
10132SOL    HW131295   6.665   0.272   2.409
10132SOL    HW231296   6.523   0.195   2.428
10133SOL     OW31297   4.693   5.589   0.808
10133SOL    HW131298   4.653   5.552   0.725
10133SOL    HW231299   4.789   5.560   0.814
10134SOL     OW31300   5.446   0.622   1.919
10134SOL    HW131301   5.468   0.624   1.821
10134SOL    HW231302   5.528   0.602   1.972
10135SOL     OW31303   5.635   0.173   4.124
10135SOL    HW131304   5.706   0.244   4.131
10135SOL    HW231305   5.548   0.210   4.158
10136SOL     OW31306   5.022   2.045   2.802
10136SOL    HW131307   4.938   2.045   2.857
10136SOL    HW231308   5.029   2.132   2.754
10137SOL     OW31309   0.060   5.828   5.522
10137SOL    HW131310   0.027   5.907   5.574
10137SOL    HW231311   7.014   5.791   5.466
10138SOL     OW31312   5.763   1.401   7.001
10138SOL    HW131313   5.835   1.380   6.936
10138SOL    HW231314   5.676   1.361   6.970
10139SOL     OW31315   3.223   3.561   6.162
10139SOL    HW131316   3.226   3.483   6.100
10139SOL    HW231317   3.268   3.537   6.248
10140SOL     OW31318   6.727   5.903   6.114
10140SOL    HW131319   6.737   5.933   6.019
10140SOL    HW231320   6.678   5.973   6.165
10141SOL     OW31321   3.162   1.481   3.805
10141SOL    HW131322   3.229   1.535   3.857
10141SOL    HW231323   3.206   1.401   3.765
10142SOL     OW31324   5.808   6.316   4.238
10142SOL    HW131325   5.834   6.404   4.280
10142SOL    HW231326   5.884   6.283   4.182
10143SOL     OW31327   5.753   3.464   0.581
10143SOL    HW131328   5.833   3.511   0.620
10143SOL    HW231329   5.782   3.377   0.541
10144SOL     OW31330   3.650   6.149   5.306
10144SOL    HW131331   3.717   6.131   5.377
10144SOL    HW231332   3.558   6.149   5.346
10145SOL     OW31333   4.997   6.134   1.676
10145SOL    HW131334   4.994   6.176   1.767
10145SOL    HW231335   5.082   6.160   1.629
10146SOL     OW31336   0.685   3.582   4.195
10146SOL    HW131337   0.670   3.483   4.203
10146SOL    HW231338   0.627   3.619   4.123
10147SOL     OW31339   4.618   5.640   6.354
10147SOL    HW131340   4.519   5.652   6.356
10147SOL    HW231341   4.662   5.729   6.366
10148SOL     OW31342   0.853   4.891   6.972
10148SOL    HW131343   0.905   4.812   7.005
10148SOL    HW231344   0.909   4.942   6.906
10149SOL     OW31345   4.770   4.637   1.265
10149SOL    HW131346   4.755   4.557   1.323
10149SOL    HW231347   4.821   4.611   1.183
10150SOL     OW31348   4.789   3.907   0.789
10150SOL    HW131349   4.795   3.846   0.868
10150SOL    HW231350   4.758   3.856   0.709
10151SOL     OW31351   6.892   0.375   5.635
10151SOL    HW131352   6.940   0.332   5.711
10151SOL    HW231353   6.937   0.351   5.549
10152SOL     OW31354   5.837   6.180   2.545
10152SOL    HW131355   5.742   6.210   2.548
10152SOL    HW231356   5.876   6.182   2.637
10153SOL     OW31357   4.942   5.031   3.853
10153SOL    HW131358   5.035   5.062   3.867
10153SOL    HW231359   4.922   5.025   3.755
10154SOL     OW31360   4.025   4.836   5.523
10154SOL    HW131361   4.043   4.930   5.495
10154SOL    HW231362   3.975   4.788   5.451
10155SOL     OW31363   4.518   1.970   5.583
10155SOL    HW131364   4.595   1.910   5.605
10155SOL    HW231365   4.445   1.956   5.650
10156SOL     OW31366   4.807   0.594   1.219
10156SOL    HW131367   4.728   0.560   1.269
10156SOL    HW231368   4.823   0.538   1.138
10157SOL     OW31369   0.144   2.841   1.606
10157SOL    HW131370   0.204   2.858   1.528
10157SOL    HW231371   0.169   2.754   1.648
10158SOL     OW31372   5.627   6.551   1.813
10158SOL    HW131373   5.568   6.619   1.771
10158SOL    HW231374   5.662   6.585   1.900
10159SOL     OW31375   3.734   3.600   3.387
10159SOL    HW131376   3.705   3.599   3.292
10159SOL    HW231377   3.831   3.624   3.392
10160SOL     OW31378   1.944   4.316   3.086
10160SOL    HW131379   2.008   4.353   3.018
10160SOL    HW231380   1.851   4.334   3.056
10161SOL     OW31381   3.432   5.021   6.518
10161SOL    HW131382   3.502   4.959   6.552
10161SOL    HW231383   3.468   5.074   6.442
10162SOL     OW31384   2.283   4.661   1.825
10162SOL    HW131385   2.203   4.722   1.820
10162SOL    HW231386   2.255   4.567   1.804
10163SOL     OW31387   1.410   6.616   5.252
10163SOL    HW131388   1.333   6.641   5.310
10163SOL    HW231389   1.447   6.528   5.281
10164SOL     OW31390   6.610   3.061   3.692
10164SOL    HW131391   6.676   3.009   3.747
10164SOL    HW231392   6.605   3.022   3.600
10165SOL     OW31393   6.380   2.882   4.284
10165SOL    HW131394   6.312   2.946   4.321
10165SOL    HW231395   6.405   2.909   4.191
10166SOL     OW31396   0.835   2.460   0.777
10166SOL    HW131397   0.805   2.548   0.814
10166SOL    HW231398   0.756   2.402   0.759
10167SOL     OW31399   0.611   6.048   6.036
10167SOL    HW131400   0.658   5.974   6.084
10167SOL    HW231401   0.675   6.090   5.971
10168SOL     OW31402   5.951   1.325   6.836
10168SOL    HW131403   6.017   1.258   6.869
10168SOL    HW231404   5.889   1.282   6.770
10169SOL     OW31405   6.738   3.727   3.293
10169SOL    HW131406   6.792   3.662   3.347
10169SOL    HW231407   6.765   3.720   3.197
10170SOL     OW31408   6.636   5.723   0.283
10170SOL    HW131409   6.640   5.700   0.186
10170SOL    HW231410   6.559   5.784   0.300
10171SOL     OW31411   1.924   2.967   5.096
10171SOL    HW131412   2.013   2.939   5.132
10171SOL    HW231413   1.932   3.058   5.055
10172SOL     OW31414   6.608   0.329   3.099
10172SOL    HW131415   6.590   0.278   3.183
10172SOL    HW231416   6.592   0.269   3.020
10173SOL     OW31417   3.645   4.905   6.962
10173SOL    HW131418   3.576   4.970   6.929
10173SOL    HW231419   3.734   4.926   6.921
10174SOL     OW31420   4.915   6.917   2.867
10174SOL    HW131421   4.959   6.853   2.930
10174SOL    HW231422   4.931   6.887   2.773
10175SOL     OW31423   6.898   2.043   3.874
10175SOL    HW131424   6.850   2.000   3.797
10175SOL    HW231425   6.839   2.111   3.916
10176SOL     OW31426   6.367   3.139   5.732
10176SOL    HW131427   6.292   3.150   5.796
10176SOL    HW231428   6.394   3.043   5.727
10177SOL     OW31429   2.426   0.452   1.492
10177SOL    HW131430   2.480   0.507   1.555
10177SOL    HW231431   2.486   0.406   1.427
10178SOL     OW31432   1.889   1.606   0.293
10178SOL    HW131433   1.841   1.600   0.380
10178SOL    HW231434   1.822   1.604   0.218
10179SOL     OW31435   6.886   4.464   0.808
10179SOL    HW131436   6.892   4.367   0.829
10179SOL    HW231437   6.977   4.505   0.816
10180SOL     OW31438   4.330   0.026   6.191
10180SOL    HW131439   4.426   0.001   6.177
10180SOL    HW231440   4.280   0.018   6.105
10181SOL     OW31441   6.634   3.859   1.314
10181SOL    HW131442   6.698   3.867   1.238
10181SOL    HW231443   6.541   3.878   1.283
10182SOL     OW31444   5.403   1.488   6.903
10182SOL    HW131445   5.308   1.471   6.931
10182SOL    HW231446   5.443   1.403   6.868
10183SOL     OW31447   6.623   2.113   6.117
10183SOL    HW131448   6.690   2.185   6.100
10183SOL    HW231449   6.605   2.105   6.215
10184SOL     OW31450   5.974   3.666   6.294
10184SOL    HW131451   5.899   3.691   6.233
10184SOL    HW231452   5.936   3.641   6.384
10185SOL     OW31453   4.126   5.834   2.387
10185SOL    HW131454   4.174   5.754   2.424
10185SOL    HW231455   4.144   5.913   2.445
10186SOL     OW31456   4.919   3.999   5.284
10186SOL    HW131457   4.941   3.903   5.267
10186SOL    HW231458   4.851   4.005   5.358
10187SOL     OW31459   2.319   4.392   5.913
10187SOL    HW131460   2.327   4.404   5.814
10187SOL    HW231461   2.225   4.410   5.941
10188SOL     OW31462   2.639   6.831   0.051
10188SOL    HW131463   2.541   6.828   0.034
10188SOL    HW231464   2.671   6.926   0.045
10189SOL     OW31465   1.278   1.524   6.151
10189SOL    HW131466   1.269   1.462   6.073
10189SOL    HW231467   1.278   1.619   6.118
10190SOL     OW31468   2.785   4.287   1.288
10190SOL    HW131469   2.843   4.345   1.232
10190SOL    HW231470   2.693   4.327   1.294
10191SOL     OW31471   6.076   5.657   6.987
10191SOL    HW131472   6.046   5.567   7.019
10191SOL    HW231473   6.087   5.718   0.037
10192SOL     OW31474   2.194   2.091   5.783
10192SOL    HW131475   2.221   2.187   5.776
10192SOL    HW231476   2.272   2.037   5.817
10193SOL     OW31477   4.140   3.275   2.728
10193SOL    HW131478   4.111   3.318   2.813
10193SOL    HW231479   4.240   3.264   2.729
10194SOL     OW31480   3.597   0.478   4.474
10194SOL    HW131481   3.625   0.486   4.379
10194SOL    HW231482   3.605   0.382   4.503
10195SOL     OW31483   5.411   6.971   2.043
10195SOL    HW131484   5.506   6.998   2.026
10195SOL    HW231485   5.401   6.938   2.137
10196SOL     OW31486   5.841   1.659   2.896
10196SOL    HW131487   5.870   1.634   2.988
10196SOL    HW231488   5.790   1.746   2.900
10197SOL     OW31489   5.818   6.926   2.955
10197SOL    HW131490   5.725   6.937   2.921
10197SOL    HW231491   5.875   6.886   2.884
10198SOL     OW31492   3.225   6.277   1.736
10198SOL    HW131493   3.229   6.372   1.706
10198SOL    HW231494   3.290   6.223   1.683
10199SOL     OW31495   1.109   1.929   6.781
10199SOL    HW131496   1.123   1.843   6.829
10199SOL    HW231497   1.118   1.914   6.683
10200SOL     OW31498   5.885   3.997   5.632
10200SOL    HW131499   5.811   4.038   5.685
10200SOL    HW231500   5.966   3.987   5.689
10201SOL     OW31501   0.899   5.191   2.290
10201SOL    HW131502   0.873   5.287   2.294
10201SOL    HW231503   0.824   5.138   2.250
10202SOL     OW31504   0.074   3.894   1.673
10202SOL    HW131505   0.143   3.837   1.630
10202SOL    HW231506   0.039   3.847   1.755
10203SOL     OW31507   2.080   2.968   2.376
10203SOL    HW131508   2.082   3.036   2.449
10203SOL    HW231509   2.170   2.926   2.367
10204SOL     OW31510   3.092   4.667   5.598
10204SOL    HW131511   3.160   4.594   5.585
10204SOL    HW231512   3.138   4.754   5.614
10205SOL     OW31513   5.514   1.438   3.799
10205SOL    HW131514   5.458   1.366   3.757
10205SOL    HW231515   5.579   1.473   3.731
10206SOL     OW31516   5.887   6.796   6.060
10206SOL    HW131517   5.917   6.745   6.141
10206SOL    HW231518   5.826   6.738   6.005
10207SOL     OW31519   2.173   0.951   2.640
10207SOL    HW131520   2.244   0.952   2.711
10207SOL    HW231521   2.208   0.907   2.558
10208SOL     OW31522   5.737   5.507   5.287
10208SOL    HW131523   5.642   5.489   5.259
10208SOL    HW231524   5.742   5.597   5.331
10209SOL     OW31525   0.075   1.243   6.167
10209SOL    HW131526   7.024   1.291   6.205
10209SOL    HW231527   0.044   1.159   6.123
10210SOL     OW31528   5.667   0.125   2.000
10210SOL    HW131529   5.648   0.206   2.054
10210SOL    HW231530   5.744   0.075   2.041
10211SOL     OW31531   4.148   6.631   5.407
10211SOL    HW131532   4.147   6.730   5.399
10211SOL    HW231533   4.172   6.590   5.319
10212SOL     OW31534   0.841   1.213   4.098
10212SOL    HW131535   0.847   1.124   4.143
10212SOL    HW231536   0.841   1.286   4.166
10213SOL     OW31537   5.958   1.564   3.162
10213SOL    HW131538   5.974   1.650   3.210
10213SOL    HW231539   6.045   1.525   3.133
10214SOL     OW31540   6.238   0.543   2.276
10214SOL    HW131541   6.215   0.609   2.348
10214SOL    HW231542   6.330   0.507   2.291
10215SOL     OW31543   3.349   3.580   6.417
10215SOL    HW131544   3.357   3.612   6.511
10215SOL    HW231545   3.439   3.558   6.381
10216SOL     OW31546   6.552   6.942   0.933
10216SOL    HW131547   6.517   6.976   0.846
10216SOL    HW231548   6.650   6.925   0.925
10217SOL     OW31549   2.588   2.004   4.198
10217SOL    HW131550   2.490   2.018   4.184
10217SOL    HW231551   2.603   1.932   4.266
10218SOL     OW31552   1.115   1.438   1.479
10218SOL    HW131553   1.204   1.483   1.468
10218SOL    HW231554   1.115   1.352   1.428
10219SOL     OW31555   0.861   2.019   2.086
10219SOL    HW131556   0.790   1.953   2.112
10219SOL    HW231557   0.935   1.972   2.038
10220SOL     OW31558   4.327   1.859   1.184
10220SOL    HW131559   4.290   1.896   1.269
10220SOL    HW231560   4.417   1.899   1.168
10221SOL     OW31561   2.661   1.066   5.212
10221SOL    HW131562   2.618   0.991   5.262
10221SOL    HW231563   2.602   1.147   5.216
10222SOL     OW31564   1.121   4.057   5.546
10222SOL    HW131565   1.130   3.980   5.483
10222SOL    HW231566   1.161   4.139   5.504
10223SOL     OW31567   1.261   5.010   7.026
10223SOL    HW131568   1.166   5.040   7.017
10223SOL    HW231569   1.320   5.070   6.973
10224SOL     OW31570   1.366   0.664   4.562
10224SOL    HW131571   1.434   0.715   4.510
10224SOL    HW231572   1.389   0.666   4.660
10225SOL     OW31573   0.642   6.087   4.483
10225SOL    HW131574   0.544   6.077   4.467
10225SOL    HW231575   0.681   5.998   4.508
10226SOL     OW31576   2.960   1.001   6.514
10226SOL    HW131577   3.039   1.049   6.552
10226SOL    HW231578   2.939   1.039   6.424
10227SOL     OW31579   4.594   4.605   0.442
10227SOL    HW131580   4.596   4.694   0.397
10227SOL    HW231581   4.681   4.589   0.488
10228SOL     OW31582   0.397   5.431   2.377
10228SOL    HW131583   0.426   5.521   2.411
10228SOL    HW231584   0.349   5.442   2.290
10229SOL     OW31585   0.650   0.808   3.406
10229SOL    HW131586   0.678   0.771   3.495
10229SOL    HW231587   0.649   0.735   3.338
10230SOL     OW31588   6.675   0.052   3.656
10230SOL    HW131589   6.624   6.994   3.654
10230SOL    HW231590   6.617   0.126   3.624
10231SOL     OW31591   6.480   6.836   5.033
10231SOL    HW131592   6.491   6.738   5.017
10231SOL    HW231593   6.423   6.876   4.961
10232SOL     OW31594   3.667   1.056   4.043
10232SOL    HW131595   3.729   1.132   4.065
10232SOL    HW231596   3.707   0.970   4.076
10233SOL     OW31597   4.183   3.353   6.167
10233SOL    HW131598   4.130   3.283   6.214
10233SOL    HW231599   4.122   3.423   6.131
10234SOL     OW31600   4.807   0.559   0.891
10234SOL    HW131601   4.842   0.466   0.888
10234SOL    HW231602   4.746   0.575   0.813
10235SOL     OW31603   4.462   0.844   0.270
10235SOL    HW131604   4.538   0.853   0.205
10235SOL    HW231605   4.470   0.915   0.340
10236SOL     OW31606   2.087   6.317   1.756
10236SOL    HW131607   2.098   6.413   1.781
10236SOL    HW231608   2.011   6.307   1.691
10237SOL     OW31609   6.564   4.432   1.896
10237SOL    HW131610   6.643   4.425   1.836
10237SOL    HW231611   6.593   4.464   1.986
10238SOL     OW31612   3.797   4.224   5.557
10238SOL    HW131613   3.803   4.142   5.499
10238SOL    HW231614   3.876   4.282   5.541
10239SOL     OW31615   0.639   4.178   5.517
10239SOL    HW131616   0.666   4.205   5.610
10239SOL    HW231617   0.683   4.240   5.451
10240SOL     OW31618   1.141   4.411   2.376
10240SOL    HW131619   1.083   4.471   2.432
10240SOL    HW231620   1.227   4.394   2.424
10241SOL     OW31621   7.024   1.047   1.605
10241SOL    HW131622   0.090   1.059   1.572
10241SOL    HW231623   7.011   0.951   1.632
10242SOL     OW31624   0.388   1.647   5.816
10242SOL    HW131625   0.337   1.568   5.851
10242SOL    HW231626   0.485   1.635   5.836
10243SOL     OW31627   0.081   5.608   1.216
10243SOL    HW131628   0.102   5.553   1.297
10243SOL    HW231629   0.166   5.644   1.177
10244SOL     OW31630   2.079   5.110   0.199
10244SOL    HW131631   2.138   5.030   0.192
10244SOL    HW231632   2.104   5.163   0.280
10245SOL     OW31633   2.075   3.248   6.955
10245SOL    HW131634   2.162   3.204   6.976
10245SOL    HW231635   2.066   3.331   7.011
10246SOL     OW31636   3.106   3.978   4.822
10246SOL    HW131637   3.028   4.002   4.879
10246SOL    HW231638   3.186   3.964   4.881
10247SOL     OW31639   0.596   5.382   5.206
10247SOL    HW131640   0.498   5.368   5.193
10247SOL    HW231641   0.644   5.358   5.121
10248SOL     OW31642   3.322   0.524   2.427
10248SOL    HW131643   3.233   0.480   2.412
10248SOL    HW231644   3.390   0.454   2.449
10249SOL     OW31645   3.546   0.685   5.310
10249SOL    HW131646   3.493   0.763   5.278
10249SOL    HW231647   3.628   0.676   5.253
10250SOL     OW31648   6.524   1.472   1.310
10250SOL    HW131649   6.431   1.498   1.286
10250SOL    HW231650   6.578   1.554   1.329
10251SOL     OW31651   2.483   2.867   5.783
10251SOL    HW131652   2.547   2.849   5.858
10251SOL    HW231653   2.492   2.962   5.753
10252SOL     OW31654   5.893   6.852   0.834
10252SOL    HW131655   5.972   6.818   0.885
10252SOL    HW231656   5.816   6.790   0.848
10253SOL     OW31657   4.663   5.288   0.239
10253SOL    HW131658   4.686   5.380   0.270
10253SOL    HW231659   4.747   5.238   0.218
10254SOL     OW31660   3.135   2.179   4.626
10254SOL    HW131661   3.124   2.079   4.631
10254SOL    HW231662   3.051   2.223   4.658
10255SOL     OW31663   2.008   6.467   2.267
10255SOL    HW131664   1.927   6.438   2.319
10255SOL    HW231665   1.982   6.482   2.171
10256SOL     OW31666   5.101   0.209   0.930
10256SOL    HW131667   5.176   0.261   0.889
10256SOL    HW231668   5.135   0.163   1.013
10257SOL     OW31669   1.088   4.739   5.426
10257SOL    HW131670   1.117   4.835   5.429
10257SOL    HW231671   1.131   4.688   5.501
10258SOL     OW31672   5.128   6.515   3.456
10258SOL    HW131673   5.222   6.488   3.476
10258SOL    HW231674   5.093   6.461   3.379
10259SOL     OW31675   0.626   5.470   3.880
10259SOL    HW131676   0.620   5.434   3.973
10259SOL    HW231677   0.554   5.537   3.865
10260SOL     OW31678   0.033   6.422   3.056
10260SOL    HW131679   0.129   6.451   3.061
10260SOL    HW231680   0.016   6.381   2.966
10261SOL     OW31681   6.946   6.333   2.051
10261SOL    HW131682   6.908   6.318   2.142
10261SOL    HW231683   6.894   6.281   1.984
10262SOL     OW31684   3.291   4.908   4.571
10262SOL    HW131685   3.248   4.849   4.503
10262SOL    HW231686   3.386   4.924   4.544
10263SOL     OW31687   4.809   1.946   6.708
10263SOL    HW131688   4.899   1.908   6.690
10263SOL    HW231689   4.760   1.887   6.772
10264SOL     OW31690   5.999   1.639   6.433
10264SOL    HW131691   5.939   1.633   6.513
10264SOL    HW231692   5.977   1.566   6.368
10265SOL     OW31693   3.113   1.632   2.843
10265SOL    HW131694   3.178   1.631   2.768
10265SOL    HW231695   3.094   1.727   2.869
10266SOL     OW31696   3.733   4.054   6.252
10266SOL    HW131697   3.793   4.127   6.218
10266SOL    HW231698   3.701   3.999   6.175
10267SOL     OW31699   6.565   2.060   0.107
10267SOL    HW131700   6.629   1.986   0.084
10267SOL    HW231701   6.532   2.103   0.023
10268SOL     OW31702   5.536   6.479   1.401
10268SOL    HW131703   5.589   6.563   1.415
10268SOL    HW231704   5.596   6.400   1.412
10269SOL     OW31705   2.321   1.701   5.422
10269SOL    HW131706   2.345   1.787   5.377
10269SOL    HW231707   2.316   1.716   5.521
10270SOL     OW31708   2.241   5.851   1.299
10270SOL    HW131709   2.317   5.791   1.273
10270SOL    HW231710   2.266   5.946   1.280
10271SOL     OW31711   3.025   3.711   0.239
10271SOL    HW131712   3.030   3.683   0.335
10271SOL    HW231713   3.088   3.786   0.223
10272SOL     OW31714   1.276   0.923   4.272
10272SOL    HW131715   1.209   0.855   4.301
10272SOL    HW231716   1.229   1.007   4.244
10273SOL     OW31717   3.873   5.557   4.185
10273SOL    HW131718   3.943   5.486   4.191
10273SOL    HW231719   3.795   5.522   4.132
10274SOL     OW31720   1.188   5.013   5.466
10274SOL    HW131721   1.098   5.058   5.467
10274SOL    HW231722   1.259   5.082   5.455
10275SOL     OW31723   0.679   6.989   2.817
10275SOL    HW131724   0.736   6.936   2.755
10275SOL    HW231725   0.717   6.986   2.909
10276SOL     OW31726   0.030   5.624   6.004
10276SOL    HW131727   0.080   5.587   6.082
10276SOL    HW231728   0.013   5.721   6.018
10277SOL     OW31729   3.020   6.501   4.119
10277SOL    HW131730   2.954   6.549   4.176
10277SOL    HW231731   3.111   6.540   4.133
10278SOL     OW31732   6.853   1.397   6.130
10278SOL    HW131733   6.858   1.358   6.038
10278SOL    HW231734   6.758   1.408   6.156
10279SOL     OW31735   3.231   0.371   4.169
10279SOL    HW131736   3.305   0.309   4.143
10279SOL    HW231737   3.245   0.460   4.128
10280SOL     OW31738   2.360   5.020   1.233
10280SOL    HW131739   2.447   5.039   1.279
10280SOL    HW231740   2.285   5.055   1.289
10281SOL     OW31741   5.201   1.882   2.678
10281SOL    HW131742   5.135   1.955   2.701
10281SOL    HW231743   5.267   1.917   2.612
10282SOL     OW31744   6.928   3.127   3.507
10282SOL    HW131745   6.853   3.174   3.461
10282SOL    HW231746   7.005   3.190   3.517
10283SOL     OW31747   1.288   3.262   0.802
10283SOL    HW131748   1.261   3.357   0.783
10283SOL    HW231749   1.305   3.251   0.900
10284SOL     OW31750   5.825   4.229   4.915
10284SOL    HW131751   5.788   4.312   4.958
10284SOL    HW231752   5.815   4.152   4.978
10285SOL     OW31753   4.640   0.417   1.358
10285SOL    HW131754   4.560   0.430   1.417
10285SOL    HW231755   4.723   0.413   1.415
10286SOL     OW31756   3.902   1.645   2.640
10286SOL    HW131757   3.886   1.547   2.655
10286SOL    HW231758   3.839   1.679   2.570
10287SOL     OW31759   2.028   6.948   1.941
10287SOL    HW131760   1.932   6.973   1.934
10287SOL    HW231761   2.037   6.868   2.001
10288SOL     OW31762   5.224   5.950   2.635
10288SOL    HW131763   5.267   5.860   2.622
10288SOL    HW231764   5.294   6.021   2.628
10289SOL     OW31765   3.307   1.279   1.552
10289SOL    HW131766   3.342   1.369   1.526
10289SOL    HW231767   3.321   1.264   1.650
10290SOL     OW31768   3.526   4.134   2.955
10290SOL    HW131769   3.512   4.037   2.973
10290SOL    HW231770   3.599   4.146   2.887
10291SOL     OW31771   4.084   0.526   3.936
10291SOL    HW131772   4.062   0.436   3.900
10291SOL    HW231773   4.052   0.596   3.872
10292SOL     OW31774   0.364   2.127   4.527
10292SOL    HW131775   0.390   2.119   4.624
10292SOL    HW231776   0.394   2.215   4.491
10293SOL     OW31777   1.506   6.683   3.109
10293SOL    HW131778   1.449   6.643   3.037
10293SOL    HW231779   1.553   6.764   3.073
10294SOL     OW31780   4.863   3.024   2.870
10294SOL    HW131781   4.892   2.965   2.946
10294SOL    HW231782   4.820   3.106   2.907
10295SOL     OW31783   5.933   4.688   5.346
10295SOL    HW131784   5.932   4.781   5.311
10295SOL    HW231785   5.844   4.666   5.387
10296SOL     OW31786   5.701   4.121   6.129
10296SOL    HW131787   5.658   4.191   6.072
10296SOL    HW231788   5.767   4.069   6.075
10297SOL     OW31789   2.907   0.048   4.252
10297SOL    HW131790   2.985   7.020   4.277
10297SOL    HW231791   2.936   0.120   4.190
10298SOL     OW31792   4.887   4.238   3.124
10298SOL    HW131793   4.839   4.322   3.100
10298SOL    HW231794   4.850   4.201   3.209
10299SOL     OW31795   4.478   4.479   3.500
10299SOL    HW131796   4.531   4.398   3.523
10299SOL    HW231797   4.424   4.507   3.580
10300SOL     OW31798   1.693   3.770   2.083
10300SOL    HW131799   1.772   3.712   2.063
10300SOL    HW231800   1.687   3.787   2.181
10301SOL     OW31801   5.709   1.541   3.641
10301SOL    HW131802   5.666   1.624   3.606
10301SOL    HW231803   5.783   1.513   3.581
10302SOL     OW31804   1.108   6.195   2.425
10302SOL    HW131805   1.092   6.185   2.327
10302SOL    HW231806   1.070   6.117   2.474
10303SOL     OW31807   3.873   3.452   1.486
10303SOL    HW131808   3.920   3.421   1.404
10303SOL    HW231809   3.940   3.495   1.548
10304SOL     OW31810   6.156   0.105   3.977
10304SOL    HW131811   6.208   0.187   4.001
10304SOL    HW231812   6.132   0.055   4.061
10305SOL     OW31813   1.636   6.027   0.314
10305SOL    HW131814   1.716   5.982   0.353
10305SOL    HW231815   1.593   5.966   0.247
10306SOL     OW31816   4.309   5.490   7.017
10306SOL    HW131817   4.373   5.413   7.016
10306SOL    HW231818   4.261   5.492   0.076
10307SOL     OW31819   1.897   0.787   5.460
10307SOL    HW131820   1.814   0.730   5.457
10307SOL    HW231821   1.872   0.881   5.484
10308SOL     OW31822   3.282   5.273   3.702
10308SOL    HW131823   3.208   5.212   3.673
10308SOL    HW231824   3.370   5.229   3.685
10309SOL     OW31825   6.076   6.416   3.533
10309SOL    HW131826   6.024   6.409   3.449
10309SOL    HW231827   6.129   6.501   3.533
10310SOL     OW31828   3.008   3.549   1.716
10310SOL    HW131829   3.026   3.559   1.814
10310SOL    HW231830   3.002   3.453   1.692
10311SOL     OW31831   0.769   5.845   0.824
10311SOL    HW131832   0.674   5.870   0.806
10311SOL    HW231833   0.806   5.901   0.898
10312SOL     OW31834   3.294   4.706   0.372
10312SOL    HW131835   3.356   4.783   0.358
10312SOL    HW231836   3.278   4.660   0.285
10313SOL     OW31837   3.992   7.009   2.522
10313SOL    HW131838   4.056   0.039   2.572
10313SOL    HW231839   3.943   0.036   2.454
10314SOL     OW31840   6.250   6.927   0.508
10314SOL    HW131841   6.271   7.002   0.445
10314SOL    HW231842   6.166   6.881   0.479
10315SOL     OW31843   5.842   6.125   5.322
10315SOL    HW131844   5.788   6.208   5.312
10315SOL    HW231845   5.780   6.046   5.327
10316SOL     OW31846   0.293   3.514   4.617
10316SOL    HW131847   0.250   3.585   4.673
10316SOL    HW231848   0.370   3.475   4.666
10317SOL     OW31849   3.827   5.221   6.415
10317SOL    HW131850   3.923   5.200   6.433
10317SOL    HW231851   3.809   5.210   6.317
10318SOL     OW31852   6.277   5.138   1.280
10318SOL    HW131853   6.180   5.116   1.272
10318SOL    HW231854   6.328   5.058   1.310
10319SOL     OW31855   0.195   4.934   4.022
10319SOL    HW131856   0.184   4.836   4.007
10319SOL    HW231857   0.221   4.978   3.936
10320SOL     OW31858   0.660   0.181   1.037
10320SOL    HW131859   0.600   0.155   1.112
10320SOL    HW231860   0.756   0.172   1.065
10321SOL     OW31861   4.203   6.436   4.785
10321SOL    HW131862   4.106   6.426   4.764
10321SOL    HW231863   4.234   6.356   4.838
10322SOL     OW31864   6.354   5.846   0.696
10322SOL    HW131865   6.446   5.863   0.663
10322SOL    HW231866   6.358   5.808   0.789
10323SOL     OW31867   6.799   3.153   6.517
10323SOL    HW131868   6.797   3.054   6.504
10323SOL    HW231869   6.717   3.181   6.566
10324SOL     OW31870   3.261   3.215   3.386
10324SOL    HW131871   3.171   3.173   3.385
10324SOL    HW231872   3.325   3.157   3.335
10325SOL     OW31873   6.631   4.040   3.592
10325SOL    HW131874   6.612   4.049   3.494
10325SOL    HW231875   6.689   3.961   3.608
10326SOL     OW31876   5.363   2.447   0.511
10326SOL    HW131877   5.385   2.350   0.505
10326SOL    HW231878   5.298   2.471   0.438
10327SOL     OW31879   1.566   1.094   3.205
10327SOL    HW131880   1.561   1.002   3.245
10327SOL    HW231881   1.615   1.090   3.118
10328SOL     OW31882   5.734   3.404   2.655
10328SOL    HW131883   5.647   3.364   2.684
10328SOL    HW231884   5.794   3.416   2.734
10329SOL     OW31885   3.154   0.224   2.892
10329SOL    HW131886   3.220   0.220   2.817
10329SOL    HW231887   3.089   0.148   2.885
10330SOL     OW31888   3.536   5.192   2.869
10330SOL    HW131889   3.515   5.098   2.842
10330SOL    HW231890   3.581   5.192   2.958
10331SOL     OW31891   5.337   0.883   3.448
10331SOL    HW131892   5.363   0.853   3.539
10331SOL    HW231893   5.379   0.823   3.380
10332SOL     OW31894   6.842   1.862   0.559
10332SOL    HW131895   6.780   1.790   0.592
10332SOL    HW231896   6.880   1.912   0.637
10333SOL     OW31897   5.702   5.104   4.153
10333SOL    HW131898   5.688   5.153   4.067
10333SOL    HW231899   5.800   5.091   4.168
10334SOL     OW31900   2.087   5.096   4.115
10334SOL    HW131901   2.023   5.026   4.149
10334SOL    HW231902   2.129   5.143   4.192
10335SOL     OW31903   2.086   5.457   6.691
10335SOL    HW131904   2.082   5.386   6.761
10335SOL    HW231905   2.044   5.424   6.607
10336SOL     OW31906   4.116   6.904   2.269
10336SOL    HW131907   4.106   6.895   2.368
10336SOL    HW231908   4.210   6.885   2.242
10337SOL     OW31909   0.113   5.011   4.675
10337SOL    HW131910   0.053   4.932   4.685
10337SOL    HW231911   0.151   5.013   4.582
10338SOL     OW31912   3.333   6.971   1.536
10338SOL    HW131913   3.425   6.937   1.517
10338SOL    HW231914   3.331   0.042   1.525
10339SOL     OW31915   3.435   5.725   0.669
10339SOL    HW131916   3.336   5.712   0.675
10339SOL    HW231917   3.463   5.798   0.732
10340SOL     OW31918   2.239   5.599   6.518
10340SOL    HW131919   2.199   5.535   6.584
10340SOL    HW231920   2.174   5.616   6.444
10341SOL     OW31921   2.462   2.075   2.339
10341SOL    HW131922   2.519   2.154   2.318
10341SOL    HW231923   2.440   2.074   2.436
10342SOL     OW31924   2.567   6.901   5.591
10342SOL    HW131925   2.510   6.976   5.558
10342SOL    HW231926   2.580   6.834   5.518
10343SOL     OW31927   2.496   4.186   5.984
10343SOL    HW131928   2.552   4.167   5.903
10343SOL    HW231929   2.432   4.261   5.963
10344SOL     OW31930   4.047   3.635   4.729
10344SOL    HW131931   4.009   3.707   4.671
10344SOL    HW231932   4.081   3.676   4.814
10345SOL     OW31933   2.587   1.198   0.200
10345SOL    HW131934   2.551   1.261   0.132
10345SOL    HW231935   2.648   1.132   0.156
10346SOL     OW31936   5.256   6.740   6.817
10346SOL    HW131937   5.340   6.793   6.829
10346SOL    HW231938   5.219   6.757   6.725
10347SOL     OW31939   5.429   1.696   1.208
10347SOL    HW131940   5.437   1.795   1.218
10347SOL    HW231941   5.458   1.669   1.116
10348SOL     OW31942   6.256   1.252   6.219
10348SOL    HW131943   6.352   1.250   6.192
10348SOL    HW231944   6.199   1.216   6.145
10349SOL     OW31945   6.340   1.203   1.047
10349SOL    HW131946   6.318   1.155   1.132
10349SOL    HW231947   6.429   1.173   1.013
10350SOL     OW31948   3.786   6.106   4.175
10350SOL    HW131949   3.786   6.127   4.077
10350SOL    HW231950   3.812   6.011   4.190
10351SOL     OW31951   6.146   5.495   5.086
10351SOL    HW131952   6.212   5.518   5.156
10351SOL    HW231953   6.186   5.511   4.995
10352SOL     OW31954   5.534   1.624   6.715
10352SOL    HW131955   5.573   1.552   6.659
10352SOL    HW231956   5.477   1.584   6.787
10353SOL     OW31957   0.145   3.232   3.542
10353SOL    HW131958   0.194   3.149   3.571
10353SOL    HW231959   0.150   3.301   3.614
10354SOL     OW31960   0.404   3.869   0.508
10354SOL    HW131961   0.308   3.856   0.483
10354SOL    HW231962   0.462   3.806   0.455
10355SOL     OW31963   1.061   1.390   0.736
10355SOL    HW131964   0.967   1.405   0.707
10355SOL    HW231965   1.118   1.372   0.656
10356SOL     OW31966   0.245   3.188   6.569
10356SOL    HW131967   0.304   3.242   6.630
10356SOL    HW231968   0.286   3.184   6.478
10357SOL     OW31969   1.270   2.131   6.603
10357SOL    HW131970   1.335   2.163   6.534
10357SOL    HW231971   1.301   2.043   6.639
10358SOL     OW31972   1.574   2.720   2.521
10358SOL    HW131973   1.547   2.808   2.483
10358SOL    HW231974   1.545   2.714   2.617
10359SOL     OW31975   5.525   2.438   2.847
10359SOL    HW131976   5.524   2.538   2.837
10359SOL    HW231977   5.431   2.405   2.856
10360SOL     OW31978   5.239   4.974   3.128
10360SOL    HW131979   5.321   4.919   3.145
10360SOL    HW231980   5.265   5.067   3.104
10361SOL     OW31981   1.882   1.206   1.228
10361SOL    HW131982   1.864   1.132   1.163
10361SOL    HW231983   1.863   1.175   1.321
10362SOL     OW31984   0.438   5.485   1.735
10362SOL    HW131985   0.393   5.541   1.804
10362SOL    HW231986   0.535   5.510   1.730
10363SOL     OW31987   4.393   3.577   0.819
10363SOL    HW131988   4.424   3.492   0.777
10363SOL    HW231989   4.403   3.570   0.919
10364SOL     OW31990   5.124   5.120   0.886
10364SOL    HW131991   5.180   5.123   0.969
10364SOL    HW231992   5.033   5.154   0.906
10365SOL     OW31993   5.905   4.811   0.156
10365SOL    HW131994   5.900   4.849   0.248
10365SOL    HW231995   5.874   4.716   0.156
10366SOL     OW31996   4.287   6.587   3.010
10366SOL    HW131997   4.190   6.604   3.031
10366SOL    HW231998   4.294   6.515   2.942
10367SOL     OW31999   6.505   1.716   1.702
10367SOL    HW132000   6.512   1.627   1.748
10367SOL    HW232001   6.595   1.761   1.703
10368SOL     OW32002   2.742   0.439   2.491
10368SOL    HW132003   2.716   0.529   2.526
10368SOL    HW232004   2.745   0.374   2.567
10369SOL     OW32005   3.053   6.163   5.510
10369SOL    HW132006   3.026   6.146   5.415
10369SOL    HW232007   3.126   6.231   5.512
10370SOL     OW32008   6.498   1.556   4.630
10370SOL    HW132009   6.474   1.653   4.631
10370SOL    HW232010   6.562   1.538   4.555
10371SOL     OW32011   3.630   6.354   3.357
10371SOL    HW132012   3.552   6.363   3.418
10371SOL    HW232013   3.684   6.438   3.358
10372SOL     OW32014   3.161   0.623   1.411
10372SOL    HW132015   3.173   0.646   1.507
10372SOL    HW232016   3.130   0.528   1.402
10373SOL     OW32017   0.318   0.492   5.267
10373SOL    HW132018   0.293   0.589   5.270
10373SOL    HW232019   0.318   0.461   5.172
10374SOL     OW32020   3.251   6.893   4.529
10374SOL    HW132021   3.195   6.947   4.592
10374SOL    HW232022   3.243   6.931   4.437
10375SOL     OW32023   3.106   2.631   6.407
10375SOL    HW132024   3.195   2.677   6.399
10375SOL    HW232025   3.099   2.560   6.337
10376SOL     OW32026   1.087   6.482   3.563
10376SOL    HW132027   1.183   6.509   3.564
10376SOL    HW232028   1.079   6.388   3.528
10377SOL     OW32029   0.187   1.684   1.808
10377SOL    HW132030   0.091   1.712   1.818
10377SOL    HW232031   0.246   1.751   1.851
10378SOL     OW32032   0.232   5.637   4.813
10378SOL    HW132033   0.220   5.697   4.892
10378SOL    HW232034   0.312   5.666   4.761
10379SOL     OW32035   2.636   6.637   3.897
10379SOL    HW132036   2.632   6.715   3.959
10379SOL    HW232037   2.723   6.639   3.847
10380SOL     OW32038   1.348   2.392   4.639
10380SOL    HW132039   1.261   2.427   4.673
10380SOL    HW232040   1.414   2.391   4.714
10381SOL     OW32041   3.980   4.187   1.653
10381SOL    HW132042   3.904   4.133   1.616
10381SOL    HW232043   4.002   4.261   1.591
10382SOL     OW32044   2.615   5.336   2.262
10382SOL    HW132045   2.549   5.274   2.306
10382SOL    HW232046   2.612   5.322   2.163
10383SOL     OW32047   1.784   4.687   0.080
10383SOL    HW132048   1.856   4.709   0.146
10383SOL    HW232049   1.821   4.692   7.015
10384SOL     OW32050   6.369   6.336   1.502
10384SOL    HW132051   6.445   6.279   1.532
10384SOL    HW232052   6.368   6.342   1.403
10385SOL     OW32053   3.317   5.178   5.983
10385SOL    HW132054   3.265   5.247   6.033
10385SOL    HW232055   3.271   5.090   5.992
10386SOL     OW32056   6.960   1.514   6.332
10386SOL    HW132057   6.910   1.479   6.253
10386SOL    HW232058   6.902   1.580   6.381
10387SOL     OW32059   5.499   2.658   3.611
10387SOL    HW132060   5.539   2.630   3.523
10387SOL    HW232061   5.404   2.688   3.596
10388SOL     OW32062   2.840   0.324   6.445
10388SOL    HW132063   2.937   0.349   6.448
10388SOL    HW232064   2.803   0.346   6.355
10389SOL     OW32065   6.428   4.133   0.101
10389SOL    HW132066   6.434   4.223   0.057
10389SOL    HW232067   6.510   4.117   0.155
10390SOL     OW32068   2.066   2.340   0.716
10390SOL    HW132069   2.147   2.380   0.674
10390SOL    HW232070   2.020   2.409   0.773
10391SOL     OW32071   1.075   6.196   3.465
10391SOL    HW132072   1.033   6.106   3.478
10391SOL    HW232073   1.174   6.185   3.452
10392SOL     OW32074   6.025   5.266   5.315
10392SOL    HW132075   6.015   5.281   5.217
10392SOL    HW232076   5.938   5.284   5.361
10393SOL     OW32077   2.028   3.274   3.664
10393SOL    HW132078   1.956   3.207   3.643
10393SOL    HW232079   2.059   3.318   3.580
10394SOL     OW32080   2.750   5.671   3.887
10394SOL    HW132081   2.835   5.627   3.916
10394SOL    HW232082   2.682   5.601   3.865
10395SOL     OW32083   0.432   6.467   1.455
10395SOL    HW132084   0.528   6.451   1.434
10395SOL    HW232085   0.418   6.565   1.472
10396SOL     OW32086   4.083   1.596   4.189
10396SOL    HW132087   4.040   1.568   4.274
10396SOL    HW232088   4.098   1.516   4.131
10397SOL     OW32089   3.528   1.826   2.754
10397SOL    HW132090   3.476   1.757   2.804
10397SOL    HW232091   3.612   1.846   2.805
10398SOL     OW32092   6.233   2.682   1.175
10398SOL    HW132093   6.172   2.744   1.126
10398SOL    HW232094   6.212   2.588   1.149
10399SOL     OW32095   5.220   2.352   3.643
10399SOL    HW132096   5.286   2.367   3.569
10399SOL    HW232097   5.266   2.313   3.722
10400SOL     OW32098   4.407   6.706   0.534
10400SOL    HW132099   4.329   6.700   0.596
10400SOL    HW232100   4.388   6.773   0.462
10401SOL     OW32101   6.657   0.393   3.528
10401SOL    HW132102   6.581   0.430   3.474
10401SOL    HW232103   6.625   0.369   3.619
10402SOL     OW32104   6.495   3.530   5.599
10402SOL    HW132105   6.460   3.443   5.562
10402SOL    HW232106   6.423   3.599   5.593
10403SOL     OW32107   4.690   1.050   3.923
10403SOL    HW132108   4.760   1.075   3.857
10403SOL    HW232109   4.729   0.989   3.992
10404SOL     OW32110   6.180   6.757   5.347
10404SOL    HW132111   6.208   6.663   5.325
10404SOL    HW232112   6.092   6.754   5.395
10405SOL     OW32113   0.403   1.534   5.235
10405SOL    HW132114   0.362   1.587   5.160
10405SOL    HW232115   0.469   1.591   5.283
10406SOL     OW32116   2.744   5.060   3.261
10406SOL    HW132117   2.773   5.104   3.176
10406SOL    HW232118   2.736   4.962   3.247
10407SOL     OW32119   3.160   6.750   6.274
10407SOL    HW132120   3.119   6.693   6.345
10407SOL    HW232121   3.149   6.846   6.300
10408SOL     OW32122   4.531   0.005   1.048
10408SOL    HW132123   4.624   0.008   1.011
10408SOL    HW232124   4.483   0.088   1.023
10409SOL     OW32125   0.269   4.594   1.210
10409SOL    HW132126   0.292   4.530   1.137
10409SOL    HW232127   0.307   4.560   1.297
10410SOL     OW32128   5.763   1.889   0.587
10410SOL    HW132129   5.665   1.883   0.570
10410SOL    HW232130   5.797   1.977   0.553
10411SOL     OW32131   3.737   6.604   3.364
10411SOL    HW132132   3.792   6.679   3.326
10411SOL    HW232133   3.779   6.573   3.450
10412SOL     OW32134   0.179   0.875   0.036
10412SOL    HW132135   0.115   0.798   0.034
10412SOL    HW232136   0.166   0.926   0.122
10413SOL     OW32137   6.565   2.905   0.787
10413SOL    HW132138   6.553   2.966   0.708
10413SOL    HW232139   6.500   2.930   0.859
10414SOL     OW32140   4.049   4.269   5.800
10414SOL    HW132141   3.969   4.328   5.809
10414SOL    HW232142   4.125   4.320   5.760
10415SOL     OW32143   1.204   3.766   4.709
10415SOL    HW132144   1.136   3.828   4.669
10415SOL    HW232145   1.163   3.676   4.722
10416SOL     OW32146   6.257   0.046   4.660
10416SOL    HW132147   6.166   0.054   4.621
10416SOL    HW232148   6.270   6.982   4.697
10417SOL     OW32149   3.052   5.407   4.569
10417SOL    HW132150   2.987   5.483   4.575
10417SOL    HW232151   3.023   5.333   4.631
10418SOL     OW32152   7.020   4.784   6.744
10418SOL    HW132153   0.035   4.777   6.655
10418SOL    HW232154   7.024   4.879   6.776
10419SOL     OW32155   1.697   0.002   6.398
10419SOL    HW132156   1.617   0.058   6.421
10419SOL    HW232157   1.740   6.998   6.482
10420SOL     OW32158   6.897   4.016   2.863
10420SOL    HW132159   6.850   3.944   2.813
10420SOL    HW232160   6.851   4.104   2.848
10421SOL     OW32161   0.517   1.534   3.413
10421SOL    HW132162   0.591   1.580   3.463
10421SOL    HW232163   0.557   1.465   3.353
10422SOL     OW32164   6.418   3.267   5.496
10422SOL    HW132165   6.337   3.275   5.437
10422SOL    HW232166   6.400   3.198   5.567
10423SOL     OW32167   5.966   5.435   4.840
10423SOL    HW132168   6.011   5.448   4.928
10423SOL    HW232169   5.883   5.380   4.852
10424SOL     OW32170   5.855   2.587   0.397
10424SOL    HW132171   5.797   2.668   0.402
10424SOL    HW232172   5.887   2.563   0.489
10425SOL     OW32173   0.843   6.816   1.747
10425SOL    HW132174   0.871   6.851   1.657
10425SOL    HW232175   0.919   6.827   1.811
10426SOL     OW32176   6.959   4.823   0.433
10426SOL    HW132177   6.944   4.764   0.513
10426SOL    HW232178   6.895   4.900   0.436
10427SOL     OW32179   3.406   0.818   6.985
10427SOL    HW132180   3.486   0.758   6.993
10427SOL    HW232181   3.386   0.859   0.046
10428SOL     OW32182   2.906   1.316   4.380
10428SOL    HW132183   2.903   1.352   4.287
10428SOL    HW232184   2.996   1.333   4.420
10429SOL     OW32185   7.023   5.024   0.799
10429SOL    HW132186   6.982   4.933   0.813
10429SOL    HW232187   7.017   5.077   0.883
10430SOL     OW32188   4.808   6.339   3.805
10430SOL    HW132189   4.894   6.377   3.770
10430SOL    HW232190   4.812   6.334   3.905
10431SOL     OW32191   3.317   5.929   3.961
10431SOL    HW132192   3.340   6.024   3.983
10431SOL    HW232193   3.398   5.872   3.973
10432SOL     OW32194   6.206   6.746   4.311
10432SOL    HW132195   6.211   6.838   4.350
10432SOL    HW232196   6.150   6.688   4.370
10433SOL     OW32197   1.949   6.558   1.484
10433SOL    HW132198   1.857   6.598   1.478
10433SOL    HW232199   2.016   6.632   1.491
10434SOL     OW32200   4.176   0.105   3.569
10434SOL    HW132201   4.262   0.098   3.519
10434SOL    HW232202   4.190   0.162   3.651
10435SOL     OW32203   0.087   0.200   4.875
10435SOL    HW132204   0.104   0.237   4.783
10435SOL    HW232205   0.073   0.275   4.939
10436SOL     OW32206   0.843   5.339   6.305
10436SOL    HW132207   0.845   5.253   6.255
10436SOL    HW232208   0.800   5.409   6.249
10437SOL     OW32209   6.506   5.062   6.084
10437SOL    HW132210   6.528   4.965   6.098
10437SOL    HW232211   6.423   5.085   6.135
10438SOL     OW32212   5.839   6.392   0.614
10438SOL    HW132213   5.805   6.300   0.596
10438SOL    HW232214   5.937   6.388   0.635
10439SOL     OW32215   3.844   1.309   6.441
10439SOL    HW132216   3.757   1.262   6.434
10439SOL    HW232217   3.884   1.293   6.531
10440SOL     OW32218   1.384   6.165   0.393
10440SOL    HW132219   1.403   6.243   0.334
10440SOL    HW232220   1.470   6.125   0.425
10441SOL     OW32221   4.136   0.894   0.081
10441SOL    HW132222   4.140   0.801   0.044
10441SOL    HW232223   4.040   0.924   0.085
10442SOL     OW32224   3.809   6.413   5.863
10442SOL    HW132225   3.889   6.416   5.802
10442SOL    HW232226   3.824   6.346   5.935
10443SOL     OW32227   4.817   3.956   4.867
10443SOL    HW132228   4.771   4.011   4.937
10443SOL    HW232229   4.825   4.009   4.783
10444SOL     OW32230   3.665   6.738   4.501
10444SOL    HW132231   3.683   6.654   4.450
10444SOL    HW232232   3.674   6.720   4.599
10445SOL     OW32233   1.342   5.583   4.444
10445SOL    HW132234   1.339   5.683   4.452
10445SOL    HW232235   1.435   5.551   4.457
10446SOL     OW32236   0.817   2.962   5.823
10446SOL    HW132237   0.757   2.893   5.864
10446SOL    HW232238   0.862   2.923   5.742
10447SOL     OW32239   0.383   0.979   2.069
10447SOL    HW132240   0.288   1.001   2.043
10447SOL    HW232241   0.404   1.021   2.157
10448SOL     OW32242   3.832   2.213   1.665
10448SOL    HW132243   3.804   2.275   1.738
10448SOL    HW232244   3.792   2.122   1.681
10449SOL     OW32245   2.438   5.451   4.549
10449SOL    HW132246   2.389   5.536   4.567
10449SOL    HW232247   2.508   5.437   4.620
10450SOL     OW32248   1.077   2.602   0.387
10450SOL    HW132249   1.065   2.612   0.485
10450SOL    HW232250   1.122   2.515   0.367
10451SOL     OW32251   2.090   5.121   3.158
10451SOL    HW132252   2.109   5.087   3.250
10451SOL    HW232253   1.991   5.129   3.146
10452SOL     OW32254   5.908   3.642   3.337
10452SOL    HW132255   5.922   3.740   3.350
10452SOL    HW232256   5.924   3.619   3.241
10453SOL     OW32257   4.942   5.851   1.671
10453SOL    HW132258   4.965   5.948   1.677
10453SOL    HW232259   4.852   5.835   1.711
10454SOL     OW32260   4.381   2.966   1.072
10454SOL    HW132261   4.433   2.926   0.997
10454SOL    HW232262   4.433   2.957   1.157
10455SOL     OW32263   6.708   5.595   2.520
10455SOL    HW132264   6.662   5.683   2.508
10455SOL    HW232265   6.803   5.611   2.546
10456SOL     OW32266   3.246   6.316   1.227
10456SOL    HW132267   3.164   6.373   1.226
10456SOL    HW232268   3.239   6.249   1.301
10457SOL     OW32269   3.414   3.020   3.096
10457SOL    HW132270   3.458   2.932   3.075
10457SOL    HW232271   3.479   3.094   3.079
10458SOL     OW32272   6.999   0.720   6.474
10458SOL    HW132273   6.981   0.792   6.408
10458SOL    HW232274   6.992   0.757   6.567
10459SOL     OW32275   5.662   4.998   2.623
10459SOL    HW132276   5.655   4.917   2.565
10459SOL    HW232277   5.572   5.043   2.628
10460SOL     OW32278   1.690   5.669   1.242
10460SOL    HW132279   1.647   5.658   1.153
10460SOL    HW232280   1.789   5.677   1.231
10461SOL     OW32281   1.459   6.162   5.053
10461SOL    HW132282   1.446   6.075   5.102
10461SOL    HW232283   1.387   6.226   5.081
10462SOL     OW32284   5.508   2.074   2.586
10462SOL    HW132285   5.569   2.140   2.630
10462SOL    HW232286   5.546   1.982   2.596
10463SOL     OW32287   3.891   2.588   5.597
10463SOL    HW132288   3.795   2.562   5.607
10463SOL    HW232289   3.899   2.665   5.534
10464SOL     OW32290   5.314   6.904   0.901
10464SOL    HW132291   5.282   6.895   0.995
10464SOL    HW232292   5.361   6.820   0.874
10465SOL     OW32293   6.104   6.787   1.009
10465SOL    HW132294   6.174   6.858   1.005
10465SOL    HW232295   6.070   6.780   1.103
10466SOL     OW32296   4.385   5.211   5.166
10466SOL    HW132297   4.385   5.119   5.206
10466SOL    HW232298   4.390   5.203   5.066
10467SOL     OW32299   0.660   1.991   5.044
10467SOL    HW132300   0.668   2.072   5.101
10467SOL    HW232301   0.713   1.916   5.084
10468SOL     OW32302   3.472   4.993   3.162
10468SOL    HW132303   3.511   4.938   3.236
10468SOL    HW232304   3.475   5.089   3.186
10469SOL     OW32305   3.465   2.785   6.800
10469SOL    HW132306   3.478   2.847   6.878
10469SOL    HW232307   3.367   2.768   6.787
10470SOL     OW32308   2.528   1.714   3.217
10470SOL    HW132309   2.445   1.694   3.166
10470SOL    HW232310   2.599   1.746   3.154
10471SOL     OW32311   2.146   3.433   1.432
10471SOL    HW132312   2.207   3.355   1.421
10471SOL    HW232313   2.188   3.501   1.493
10472SOL     OW32314   3.380   6.248   0.918
10472SOL    HW132315   3.456   6.270   0.858
10472SOL    HW232316   3.389   6.299   1.003
10473SOL     OW32317   5.575   0.030   1.007
10473SOL    HW132318   5.576   6.959   1.021
10473SOL    HW232319   5.562   0.049   0.910
10474SOL     OW32320   5.018   0.688   4.870
10474SOL    HW132321   4.945   0.736   4.918
10474SOL    HW232322   5.009   0.702   4.771
10475SOL     OW32323   4.597   6.196   1.854
10475SOL    HW132324   4.533   6.121   1.837
10475SOL    HW232325   4.593   6.261   1.778
10476SOL     OW32326   0.094   5.517   6.265
10476SOL    HW132327   0.066   5.597   6.318
10476SOL    HW232328   0.129   5.446   6.327
10477SOL     OW32329   5.820   2.470   4.867
10477SOL    HW132330   5.919   2.482   4.874
10477SOL    HW232331   5.782   2.457   4.958
10478SOL     OW32332   0.539   0.595   0.319
10478SOL    HW132333   0.462   0.531   0.313
10478SOL    HW232334   0.625   0.543   0.321
10479SOL     OW32335   0.737   2.576   1.879
10479SOL    HW132336   0.819   2.527   1.909
10479SOL    HW232337   0.750   2.610   1.786
10480SOL     OW32338   6.144   0.564   1.060
10480SOL    HW132339   6.079   0.498   1.022
10480SOL    HW232340   6.202   0.600   0.986
10481SOL     OW32341   2.426   1.061   5.490
10481SOL    HW132342   2.347   1.004   5.513
10481SOL    HW232343   2.510   1.014   5.514
10482SOL     OW32344   0.600   6.113   4.809
10482SOL    HW132345   0.693   6.078   4.814
10482SOL    HW232346   0.547   6.057   4.744
10483SOL     OW32347   6.976   5.266   0.333
10483SOL    HW132348   6.927   5.347   0.365
10483SOL    HW232349   0.010   5.293   0.259
10484SOL     OW32350   6.885   0.576   0.447
10484SOL    HW132351   6.808   0.639   0.435
10484SOL    HW232352   6.961   0.625   0.490
10485SOL     OW32353   3.775   3.332   2.957
10485SOL    HW132354   3.799   3.326   2.860
10485SOL    HW232355   3.787   3.426   2.988
10486SOL     OW32356   6.245   0.893   5.824
10486SOL    HW132357   6.297   0.976   5.801
10486SOL    HW232358   6.274   0.859   5.913
10487SOL     OW32359   4.613   2.048   1.603
10487SOL    HW132360   4.702   2.004   1.591
10487SOL    HW232361   4.579   2.078   1.514
10488SOL     OW32362   1.641   2.325   5.981
10488SOL    HW132363   1.679   2.413   6.007
10488SOL    HW232364   1.595   2.333   5.892
10489SOL     OW32365   5.502   6.174   4.002
10489SOL    HW132366   5.430   6.188   3.934
10489SOL    HW232367   5.587   6.215   3.968
10490SOL     OW32368   5.759   0.833   0.297
10490SOL    HW132369   5.761   0.923   0.340
10490SOL    HW232370   5.814   0.834   0.214
10491SOL     OW32371   2.333   2.941   6.158
10491SOL    HW132372   2.299   2.847   6.149
10491SOL    HW232373   2.333   2.967   6.255
10492SOL     OW32374   3.652   5.963   0.598
10492SOL    HW132375   3.686   6.051   0.564
10492SOL    HW232376   3.726   5.896   0.598
10493SOL     OW32377   3.047   5.706   1.436
10493SOL    HW132378   3.097   5.714   1.522
10493SOL    HW232379   2.949   5.699   1.455
10494SOL     OW32380   7.011   4.402   5.795
10494SOL    HW132381   6.940   4.453   5.745
10494SOL    HW232382   0.040   4.352   5.729
10495SOL     OW32383   6.419   5.890   0.309
10495SOL    HW132384   6.390   5.935   0.225
10495SOL    HW232385   6.339   5.874   0.368
10496SOL     OW32386   6.147   4.215   5.230
10496SOL    HW132387   6.106   4.305   5.245
10496SOL    HW232388   6.110   4.150   5.296
10497SOL     OW32389   1.085   0.075   1.569
10497SOL    HW132390   1.002   0.039   1.527
10497SOL    HW232391   1.156   0.005   1.568
10498SOL     OW32392   5.139   5.888   1.299
10498SOL    HW132393   5.057   5.943   1.318
10498SOL    HW232394   5.128   5.841   1.212
10499SOL     OW32395   4.982   6.321   1.158
10499SOL    HW132396   5.054   6.291   1.221
10499SOL    HW232397   4.992   6.418   1.139
10500SOL     OW32398   5.473   2.908   5.369
10500SOL    HW132399   5.451   2.992   5.320
10500SOL    HW232400   5.505   2.839   5.305
10501SOL     OW32401   2.284   5.977   2.686
10501SOL    HW132402   2.354   5.964   2.616
10501SOL    HW232403   2.201   6.013   2.643
10502SOL     OW32404   2.915   3.306   1.096
10502SOL    HW132405   2.916   3.389   1.152
10502SOL    HW232406   2.920   3.225   1.155
10503SOL     OW32407   6.491   4.012   6.700
10503SOL    HW132408   6.430   3.986   6.775
10503SOL    HW232409   6.446   3.998   6.612
10504SOL     OW32410   0.741   2.794   6.040
10504SOL    HW132411   0.793   2.716   6.074
10504SOL    HW232412   0.661   2.761   5.989
10505SOL     OW32413   5.569   5.905   1.824
10505SOL    HW132414   5.645   5.959   1.861
10505SOL    HW232415   5.552   5.827   1.884
10506SOL     OW32416   0.506   3.426   0.034
10506SOL    HW132417   0.548   3.342   7.026
10506SOL    HW232418   0.576   3.496   0.046
10507SOL     OW32419   1.921   5.451   0.016
10507SOL    HW132420   1.994   5.501   0.064
10507SOL    HW232421   1.907   5.363   0.060
10508SOL     OW32422   1.114   5.710   3.781
10508SOL    HW132423   1.132   5.737   3.687
10508SOL    HW232424   1.161   5.624   3.801
10509SOL     OW32425   5.652   3.959   4.413
10509SOL    HW132426   5.580   4.020   4.381
10509SOL    HW232427   5.729   4.013   4.448
10510SOL     OW32428   4.535   6.842   6.464
10510SOL    HW132429   4.442   6.832   6.500
10510SOL    HW232430   4.600   6.808   6.531
10511SOL     OW32431   2.871   1.620   2.312
10511SOL    HW132432   2.843   1.646   2.219
10511SOL    HW232433   2.947   1.678   2.341
10512SOL     OW32434   4.202   6.951   5.700
10512SOL    HW132435   4.239   0.011   5.730
10512SOL    HW232436   4.270   6.904   5.644
10513SOL     OW32437   6.593   2.654   2.871
10513SOL    HW132438   6.571   2.706   2.788
10513SOL    HW232439   6.684   2.681   2.903
10514SOL     OW32440   1.732   1.977   1.391
10514SOL    HW132441   1.646   1.983   1.340
10514SOL    HW232442   1.800   1.928   1.336
10515SOL     OW32443   2.597   2.136   3.845
10515SOL    HW132444   2.581   2.050   3.796
10515SOL    HW232445   2.519   2.156   3.904
10516SOL     OW32446   2.738   1.898   0.001
10516SOL    HW132447   2.738   1.837   6.950
10516SOL    HW232448   2.807   1.868   0.067
10517SOL     OW32449   1.964   4.478   1.790
10517SOL    HW132450   2.014   4.523   1.716
10517SOL    HW232451   1.870   4.510   1.791
10518SOL     OW32452   0.013   5.226   1.955
10518SOL    HW132453   0.099   5.213   2.005
10518SOL    HW232454   0.021   5.183   1.865
10519SOL     OW32455   2.895   4.768   1.218
10519SOL    HW132456   2.935   4.710   1.289
10519SOL    HW232457   2.826   4.717   1.168
10520SOL     OW32458   6.981   1.881   6.137
10520SOL    HW132459   6.979   1.908   6.233
10520SOL    HW232460   0.006   1.947   6.084
10521SOL     OW32461   6.300   4.666   1.668
10521SOL    HW132462   6.233   4.715   1.612
10521SOL    HW232463   6.345   4.730   1.731
10522SOL     OW32464   0.237   2.100   3.213
10522SOL    HW132465   0.295   2.020   3.199
10522SOL    HW232466   0.293   2.183   3.209
10523SOL     OW32467   0.064   4.545   3.554
10523SOL    HW132468   0.133   4.478   3.581
10523SOL    HW232469   0.078   4.630   3.605
10524SOL     OW32470   0.200   5.880   4.090
10524SOL    HW132471   0.163   5.869   3.998
10524SOL    HW232472   0.130   5.917   4.150
10525SOL     OW32473   4.066   0.123   5.126
10525SOL    HW132474   4.051   0.074   5.040
10525SOL    HW232475   4.137   0.192   5.112
10526SOL     OW32476   0.484   6.254   1.009
10526SOL    HW132477   0.540   6.244   1.091
10526SOL    HW232478   0.509   6.339   0.962
10527SOL     OW32479   0.458   0.450   6.055
10527SOL    HW132480   0.410   0.503   5.984
10527SOL    HW232481   0.508   0.376   6.012
10528SOL     OW32482   0.854   4.122   6.730
10528SOL    HW132483   0.906   4.205   6.753
10528SOL    HW232484   0.876   4.050   6.795
10529SOL     OW32485   1.628   6.031   4.880
10529SOL    HW132486   1.565   5.990   4.814
10529SOL    HW232487   1.577   6.088   4.945
10530SOL     OW32488   1.036   6.450   5.912
10530SOL    HW132489   0.946   6.411   5.895
10530SOL    HW232490   1.106   6.379   5.901
10531SOL     OW32491   2.673   2.382   4.396
10531SOL    HW132492   2.649   2.346   4.306
10531SOL    HW232493   2.594   2.426   4.437
10532SOL     OW32494   5.848   6.728   6.835
10532SOL    HW132495   5.799   6.660   6.779
10532SOL    HW232496   5.939   6.693   6.857
10533SOL     OW32497   3.320   5.933   4.282
10533SOL    HW132498   3.359   5.996   4.350
10533SOL    HW232499   3.394   5.890   4.231
10534SOL     OW32500   6.841   6.037   2.272
10534SOL    HW132501   6.866   5.968   2.204
10534SOL    HW232502   6.903   6.031   2.350
10535SOL     OW32503   2.285   1.512   1.358
10535SOL    HW132504   2.247   1.419   1.369
10535SOL    HW232505   2.216   1.579   1.387
10536SOL     OW32506   4.334   6.960   3.774
10536SOL    HW132507   4.334   7.026   3.699
10536SOL    HW232508   4.418   6.905   3.769
10537SOL     OW32509   5.040   6.594   3.695
10537SOL    HW132510   5.113   6.640   3.746
10537SOL    HW232511   5.070   6.577   3.602
10538SOL     OW32512   5.676   3.905   2.560
10538SOL    HW132513   5.723   3.958   2.631
10538SOL    HW232514   5.710   3.811   2.560
10539SOL     OW32515   6.026   5.241   1.472
10539SOL    HW132516   6.026   5.318   1.409
10539SOL    HW232517   6.110   5.243   1.527
10540SOL     OW32518   2.440   4.287   6.333
10540SOL    HW132519   2.514   4.301   6.400
10540SOL    HW232520   2.479   4.271   6.243
10541SOL     OW32521   3.381   3.071   4.105
10541SOL    HW132522   3.353   2.979   4.131
10541SOL    HW232523   3.367   3.083   4.007
10542SOL     OW32524   6.731   0.170   4.432
10542SOL    HW132525   6.718   0.080   4.475
10542SOL    HW232526   6.802   0.164   4.363
10543SOL     OW32527   0.404   2.407   5.357
10543SOL    HW132528   0.387   2.455   5.271
10543SOL    HW232529   0.319   2.369   5.392
10544SOL     OW32530   2.004   0.052   3.484
10544SOL    HW132531   2.050   0.086   3.566
10544SOL    HW232532   1.923   0.000   3.511
10545SOL     OW32533   1.086   2.933   2.103
10545SOL    HW132534   1.153   3.003   2.077
10545SOL    HW232535   1.027   2.968   2.175
10546SOL     OW32536   3.489   6.191   1.201
10546SOL    HW132537   3.442   6.118   1.152
10546SOL    HW232538   3.426   6.268   1.217
10547SOL     OW32539   4.913   0.854   4.331
10547SOL    HW132540   4.961   0.928   4.378
10547SOL    HW232541   4.889   0.883   4.239
10548SOL     OW32542   0.700   4.448   4.850
10548SOL    HW132543   0.719   4.367   4.796
10548SOL    HW232544   0.640   4.509   4.799
10549SOL     OW32545   0.354   1.624   0.624
10549SOL    HW132546   0.429   1.653   0.564
10549SOL    HW232547   0.339   1.693   0.695
10550SOL     OW32548   3.990   6.583   3.115
10550SOL    HW132549   4.008   6.606   3.211
10550SOL    HW232550   3.977   6.484   3.107
10551SOL     OW32551   2.461   1.584   6.186
10551SOL    HW132552   2.544   1.534   6.211
10551SOL    HW232553   2.486   1.663   6.129
10552SOL     OW32554   2.262   0.593   5.085
10552SOL    HW132555   2.338   0.600   5.020
10552SOL    HW232556   2.189   0.538   5.045
10553SOL     OW32557   6.649   4.535   0.920
10553SOL    HW132558   6.721   4.491   0.866
10553SOL    HW232559   6.690   4.609   0.975
10554SOL     OW32560   5.874   5.196   2.277
10554SOL    HW132561   5.851   5.128   2.208
10554SOL    HW232562   5.794   5.252   2.298
10555SOL     OW32563   3.018   2.290   0.880
10555SOL    HW132564   2.971   2.376   0.899
10555SOL    HW232565   2.960   2.231   0.823
10556SOL     OW32566   2.490   1.494   3.642
10556SOL    HW132567   2.543   1.497   3.727
10556SOL    HW232568   2.549   1.468   3.566
10557SOL     OW32569   1.732   3.188   4.521
10557SOL    HW132570   1.651   3.228   4.564
10557SOL    HW232571   1.745   3.094   4.552
10558SOL     OW32572   2.877   5.211   5.826
10558SOL    HW132573   2.823   5.127   5.829
10558SOL    HW232574   2.821   5.288   5.858
10559SOL     OW32575   3.512   1.302   0.647
10559SOL    HW132576   3.567   1.234   0.598
10559SOL    HW232577   3.521   1.288   0.746
10560SOL     OW32578   4.203   6.350   1.846
10560SOL    HW132579   4.274   6.359   1.917
10560SOL    HW232580   4.150   6.267   1.862
10561SOL     OW32581   3.734   4.802   1.663
10561SOL    HW132582   3.759   4.706   1.675
10561SOL    HW232583   3.739   4.826   1.566
10562SOL     OW32584   3.277   6.031   0.564
10562SOL    HW132585   3.196   5.980   0.534
10562SOL    HW232586   3.277   6.037   0.664
10563SOL     OW32587   1.050   0.599   1.187
10563SOL    HW132588   1.123   0.665   1.206
10563SOL    HW232589   1.078   0.541   1.110
10564SOL     OW32590   6.353   5.911   4.017
10564SOL    HW132591   6.355   5.984   4.085
10564SOL    HW232592   6.430   5.923   3.954
10565SOL     OW32593   6.542   6.794   5.634
10565SOL    HW132594   6.625   6.817   5.684
10565SOL    HW232595   6.530   6.857   5.557
10566SOL     OW32596   2.975   2.642   0.517
10566SOL    HW132597   2.901   2.709   0.518
10566SOL    HW232598   2.972   2.587   0.601
10567SOL     OW32599   2.008   2.570   5.738
10567SOL    HW132600   1.910   2.549   5.745
10567SOL    HW232601   2.061   2.492   5.773
10568SOL     OW32602   6.068   2.606   6.822
10568SOL    HW132603   6.042   2.509   6.829
10568SOL    HW232604   5.992   2.658   6.782
10569SOL     OW32605   5.191   0.918   1.918
10569SOL    HW132606   5.252   0.981   1.870
10569SOL    HW232607   5.099   0.958   1.922
10570SOL     OW32608   1.757   4.973   3.907
10570SOL    HW132609   1.748   4.978   3.808
10570SOL    HW232610   1.848   5.005   3.934
10571SOL     OW32611   0.489   4.216   6.160
10571SOL    HW132612   0.423   4.188   6.091
10571SOL    HW232613   0.523   4.308   6.139
10572SOL     OW32614   6.920   4.831   1.852
10572SOL    HW132615   6.999   4.881   1.817
10572SOL    HW232616   6.929   4.822   1.952
10573SOL     OW32617   4.846   0.506   5.140
10573SOL    HW132618   4.797   0.445   5.202
10573SOL    HW232619   4.891   0.452   5.069
10574SOL     OW32620   6.827   1.140   3.814
10574SOL    HW132621   6.737   1.184   3.819
10574SOL    HW232622   6.895   1.198   3.859
10575SOL     OW32623   6.005   0.317   3.850
10575SOL    HW132624   5.997   0.399   3.793
10575SOL    HW232625   6.100   0.304   3.877
10576SOL     OW32626   1.138   5.359   2.707
10576SOL    HW132627   1.192   5.420   2.649
10576SOL    HW232628   1.151   5.265   2.678
10577SOL     OW32629   2.590   5.496   0.360
10577SOL    HW132630   2.527   5.573   0.370
10577SOL    HW232631   2.557   5.435   0.288
10578SOL     OW32632   5.489   1.675   3.454
10578SOL    HW132633   5.541   1.607   3.402
10578SOL    HW232634   5.407   1.700   3.402
10579SOL     OW32635   2.926   3.773   1.413
10579SOL    HW132636   2.868   3.815   1.484
10579SOL    HW232637   3.022   3.783   1.439
10580SOL     OW32638   6.346   6.588   6.186
10580SOL    HW132639   6.399   6.654   6.239
10580SOL    HW232640   6.383   6.496   6.202
10581SOL     OW32641   4.726   0.096   2.790
10581SOL    HW132642   4.733   0.189   2.827
10581SOL    HW232643   4.808   0.045   2.814
10582SOL     OW32644   5.530   4.825   6.963
10582SOL    HW132645   5.561   4.914   6.995
10582SOL    HW232646   5.574   4.803   6.876
10583SOL     OW32647   3.800   0.198   4.068
10583SOL    HW132648   3.799   0.098   4.060
10583SOL    HW232649   3.761   0.224   4.156
10584SOL     OW32650   6.244   0.392   6.564
10584SOL    HW132651   6.257   0.349   6.474
10584SOL    HW232652   6.174   0.463   6.557
10585SOL     OW32653   1.566   1.783   5.986
10585SOL    HW132654   1.551   1.879   6.009
10585SOL    HW232655   1.633   1.776   5.912
10586SOL     OW32656   4.808   4.537   5.557
10586SOL    HW132657   4.880   4.568   5.619
10586SOL    HW232658   4.750   4.471   5.604
10587SOL     OW32659   0.368   5.804   6.199
10587SOL    HW132660   0.319   5.793   6.286
10587SOL    HW232661   0.394   5.900   6.188
10588SOL     OW32662   1.967   2.298   5.354
10588SOL    HW132663   1.964   2.198   5.353
10588SOL    HW232664   1.880   2.334   5.387
10589SOL     OW32665   5.078   6.198   4.176
10589SOL    HW132666   5.060   6.159   4.086
10589SOL    HW232667   5.125   6.286   4.166
10590SOL     OW32668   0.290   5.816   1.676
10590SOL    HW132669   0.210   5.795   1.620
10590SOL    HW232670   0.373   5.787   1.629
10591SOL     OW32671   2.094   1.668   1.459
10591SOL    HW132672   2.028   1.642   1.529
10591SOL    HW232673   2.058   1.744   1.405
10592SOL     OW32674   5.725   2.413   4.226
10592SOL    HW132675   5.625   2.415   4.218
10592SOL    HW232676   5.752   2.443   4.317
10593SOL     OW32677   1.278   6.482   0.775
10593SOL    HW132678   1.254   6.407   0.713
10593SOL    HW232679   1.338   6.546   0.728
10594SOL     OW32680   4.066   1.512   3.295
10594SOL    HW132681   4.015   1.516   3.381
10594SOL    HW232682   4.050   1.595   3.242
10595SOL     OW32683   6.213   0.653   0.212
10595SOL    HW132684   6.233   0.576   0.152
10595SOL    HW232685   6.118   0.647   0.242
10596SOL     OW32686   4.965   1.623   6.825
10596SOL    HW132687   4.914   1.636   6.910
10596SOL    HW232688   4.978   1.711   6.779
10597SOL     OW32689   2.757   0.782   6.090
10597SOL    HW132690   2.798   0.843   6.021
10597SOL    HW232691   2.677   0.737   6.050
10598SOL     OW32692   3.017   2.374   7.020
10598SOL    HW132693   3.027   2.356   0.090
10598SOL    HW232694   2.948   2.312   6.982
10599SOL     OW32695   6.578   4.307   6.245
10599SOL    HW132696   6.513   4.283   6.317
10599SOL    HW232697   6.668   4.270   6.267
10600SOL     OW32698   3.847   1.260   1.448
10600SOL    HW132699   3.762   1.241   1.498
10600SOL    HW232700   3.896   1.335   1.493
10601SOL     OW32701   0.591   5.933   5.190
10601SOL    HW132702   0.550   5.889   5.269
10601SOL    HW232703   0.596   5.868   5.114
10602SOL     OW32704   0.864   1.073   0.883
10602SOL    HW132705   0.781   1.067   0.940
10602SOL    HW232706   0.916   1.155   0.908
10603SOL     OW32707   4.676   6.639   2.832
10603SOL    HW132708   4.726   6.647   2.746
10603SOL    HW232709   4.596   6.698   2.830
10604SOL     OW32710   0.371   6.374   4.888
10604SOL    HW132711   0.342   6.297   4.945
10604SOL    HW232712   0.320   6.456   4.915
10605SOL     OW32713   1.817   0.037   6.656
10605SOL    HW132714   1.787   0.119   6.704
10605SOL    HW232715   1.873   7.010   6.718
10606SOL     OW32716   6.757   0.630   1.719
10606SOL    HW132717   6.743   0.601   1.814
10606SOL    HW232718   6.671   0.663   1.681
10607SOL     OW32719   4.148   4.511   0.622
10607SOL    HW132720   4.146   4.419   0.660
10607SOL    HW232721   4.097   4.573   0.681
10608SOL     OW32722   6.592   3.392   3.457
10608SOL    HW132723   6.620   3.479   3.418
10608SOL    HW232724   6.497   3.398   3.489
10609SOL     OW32725   2.761   6.438   0.358
10609SOL    HW132726   2.761   6.517   0.297
10609SOL    HW232727   2.819   6.457   0.437
10610SOL     OW32728   6.786   2.466   4.747
10610SOL    HW132729   6.732   2.540   4.707
10610SOL    HW232730   6.852   2.503   4.811
10611SOL     OW32731   2.810   5.505   5.754
10611SOL    HW132732   2.828   5.599   5.725
10611SOL    HW232733   2.850   5.442   5.689
10612SOL     OW32734   5.233   1.436   4.302
10612SOL    HW132735   5.285   1.379   4.238
10612SOL    HW232736   5.163   1.487   4.251
10613SOL     OW32737   5.691   6.065   4.433
10613SOL    HW132738   5.721   6.020   4.349
10613SOL    HW232739   5.623   6.135   4.410
10614SOL     OW32740   5.381   1.084   4.770
10614SOL    HW132741   5.427   1.093   4.858
10614SOL    HW232742   5.283   1.095   4.782
10615SOL     OW32743   3.875   1.123   5.554
10615SOL    HW132744   3.817   1.053   5.513
10615SOL    HW232745   3.971   1.100   5.539
10616SOL     OW32746   2.675   6.120   6.504
10616SOL    HW132747   2.670   6.025   6.473
10616SOL    HW232748   2.647   6.126   6.600
10617SOL     OW32749   2.498   4.674   1.487
10617SOL    HW132750   2.410   4.704   1.448
10617SOL    HW232751   2.535   4.746   1.545
10618SOL     OW32752   0.783   5.218   5.060
10618SOL    HW132753   0.847   5.263   5.123
10618SOL    HW232754   0.834   5.180   4.983
10619SOL     OW32755   0.398   2.369   3.229
10619SOL    HW132756   0.481   2.376   3.285
10619SOL    HW232757   0.318   2.385   3.287
10620SOL     OW32758   1.608   0.023   5.177
10620SOL    HW132759   1.619   0.051   5.081
10620SOL    HW232760   1.515   0.042   5.206
10621SOL     OW32761   0.730   4.491   2.024
10621SOL    HW132762   0.763   4.471   1.932
10621SOL    HW232763   0.807   4.495   2.087
10622SOL     OW32764   4.507   2.417   1.300
10622SOL    HW132765   4.583   2.480   1.319
10622SOL    HW232766   4.423   2.453   1.343
10623SOL     OW32767   5.970   6.218   5.029
10623SOL    HW132768   5.918   6.233   5.112
10623SOL    HW232769   6.001   6.305   4.992
10624SOL     OW32770   0.193   3.097   4.453
10624SOL    HW132771   0.178   3.136   4.362
10624SOL    HW232772   0.214   3.170   4.517
10625SOL     OW32773   0.590   3.764   1.661
10625SOL    HW132774   0.613   3.667   1.671
10625SOL    HW232775   0.669   3.813   1.624
10626SOL     OW32776   3.315   2.956   1.581
10626SOL    HW132777   3.229   2.995   1.549
10626SOL    HW232778   3.300   2.863   1.614
10627SOL     OW32779   6.110   1.018   6.434
10627SOL    HW132780   6.119   1.102   6.487
10627SOL    HW232781   6.032   1.025   6.372
10628SOL     OW32782   4.675   0.094   0.585
10628SOL    HW132783   4.710   0.018   0.531
10628SOL    HW232784   4.747   0.164   0.595
10629SOL     OW32785   3.425   5.086   4.928
10629SOL    HW132786   3.475   5.171   4.936
10629SOL    HW232787   3.337   5.094   4.975
10630SOL     OW32788   5.623   0.963   2.367
10630SOL    HW132789   5.588   0.925   2.452
10630SOL    HW232790   5.560   1.033   2.334
10631SOL     OW32791   4.275   4.404   5.672
10631SOL    HW132792   4.364   4.359   5.666
10631SOL    HW232793   4.277   4.487   5.616
10632SOL     OW32794   4.908   6.005   3.035
10632SOL    HW132795   4.932   6.057   3.117
10632SOL    HW232796   4.991   5.984   2.984
10633SOL     OW32797   2.651   2.425   2.086
10633SOL    HW132798   2.736   2.390   2.047
10633SOL    HW232799   2.633   2.516   2.050
10634SOL     OW32800   1.671   5.343   0.617
10634SOL    HW132801   1.630   5.303   0.535
10634SOL    HW232802   1.622   5.311   0.698
10635SOL     OW32803   2.088   3.102   0.328
10635SOL    HW132804   2.048   3.081   0.239
10635SOL    HW232805   2.023   3.154   0.384
10636SOL     OW32806   6.947   1.797   0.837
10636SOL    HW132807   6.874   1.865   0.846
10636SOL    HW232808   0.006   1.843   0.823
10637SOL     OW32809   1.530   5.826   6.047
10637SOL    HW132810   1.501   5.842   6.141
10637SOL    HW232811   1.505   5.733   6.019
10638SOL     OW32812   5.700   6.262   2.197
10638SOL    HW132813   5.770   6.259   2.125
10638SOL    HW232814   5.617   6.218   2.164
10639SOL     OW32815   1.869   3.482   2.330
10639SOL    HW132816   1.854   3.466   2.233
10639SOL    HW232817   1.948   3.430   2.361
10640SOL     OW32818   4.924   0.821   3.218
10640SOL    HW132819   4.889   0.734   3.183
10640SOL    HW232820   4.980   0.804   3.299
10641SOL     OW32821   2.023   1.478   3.889
10641SOL    HW132822   2.003   1.547   3.958
10641SOL    HW232823   2.121   1.457   3.890
10642SOL     OW32824   6.033   1.998   0.104
10642SOL    HW132825   5.951   1.995   0.161
10642SOL    HW232826   6.109   1.958   0.153
10643SOL     OW32827   2.212   6.236   4.424
10643SOL    HW132828   2.283   6.279   4.368
10643SOL    HW232829   2.232   6.251   4.521
10644SOL     OW32830   5.774   3.380   1.122
10644SOL    HW132831   5.870   3.390   1.096
10644SOL    HW232832   5.766   3.384   1.221
10645SOL     OW32833   2.345   2.707   3.616
10645SOL    HW132834   2.359   2.709   3.715
10645SOL    HW232835   2.303   2.793   3.586
10646SOL     OW32836   5.866   0.698   5.569
10646SOL    HW132837   5.794   0.631   5.585
10646SOL    HW232838   5.860   0.771   5.638
10647SOL     OW32839   3.135   5.346   4.930
10647SOL    HW132840   3.093   5.282   4.865
10647SOL    HW232841   3.202   5.403   4.883
10648SOL     OW32842   5.967   5.492   6.628
10648SOL    HW132843   6.031   5.538   6.690
10648SOL    HW232844   5.874   5.524   6.647
10649SOL     OW32845   0.912   3.794   3.175
10649SOL    HW132846   1.001   3.830   3.205
10649SOL    HW232847   0.841   3.832   3.234
10650SOL     OW32848   0.739   0.111   4.261
10650SOL    HW132849   0.675   0.153   4.324
10650SOL    HW232850   0.815   0.069   4.312
10651SOL     OW32851   6.206   5.883   6.457
10651SOL    HW132852   6.152   5.961   6.425
10651SOL    HW232853   6.227   5.824   6.379
10652SOL     OW32854   1.888   6.999   5.583
10652SOL    HW132855   1.922   6.941   5.509
10652SOL    HW232856   1.882   6.946   5.667
10653SOL     OW32857   4.012   6.103   5.110
10653SOL    HW132858   3.913   6.114   5.105
10653SOL    HW232859   4.034   6.014   5.150
10654SOL     OW32860   4.888   1.112   5.546
10654SOL    HW132861   4.892   1.012   5.535
10654SOL    HW232862   4.820   1.135   5.614
10655SOL     OW32863   1.655   4.518   0.272
10655SOL    HW132864   1.684   4.536   0.366
10655SOL    HW232865   1.673   4.599   0.216
10656SOL     OW32866   6.587   1.133   2.493
10656SOL    HW132867   6.582   1.096   2.400
10656SOL    HW232868   6.495   1.156   2.525
10657SOL     OW32869   6.371   0.544   4.717
10657SOL    HW132870   6.284   0.562   4.672
10657SOL    HW232871   6.369   0.454   4.761
10658SOL     OW32872   6.193   4.347   4.797
10658SOL    HW132873   6.138   4.430   4.788
10658SOL    HW232874   6.234   4.325   4.709
10659SOL     OW32875   0.912   4.599   0.587
10659SOL    HW132876   0.914   4.676   0.524
10659SOL    HW232877   0.968   4.524   0.550
10660SOL     OW32878   5.963   4.085   5.390
10660SOL    HW132879   5.946   4.043   5.479
10660SOL    HW232880   5.900   4.161   5.376
10661SOL     OW32881   1.761   5.872   0.689
10661SOL    HW132882   1.851   5.902   0.720
10661SOL    HW232883   1.759   5.872   0.589
10662SOL     OW32884   4.271   0.818   2.532
10662SOL    HW132885   4.341   0.755   2.501
10662SOL    HW232886   4.309   0.881   2.599
10663SOL     OW32887   0.745   1.062   2.768
10663SOL    HW132888   0.728   0.972   2.728
10663SOL    HW232889   0.666   1.121   2.753
10664SOL     OW32890   6.723   4.758   5.253
10664SOL    HW132891   6.649   4.692   5.264
10664SOL    HW232892   6.685   4.844   5.217
10665SOL     OW32893   1.952   2.388   7.015
10665SOL    HW132894   1.962   2.418   0.082
10665SOL    HW232895   1.868   2.335   7.006
10666SOL     OW32896   3.081   3.910   2.726
10666SOL    HW132897   3.109   3.996   2.768
10666SOL    HW232898   3.018   3.930   2.651
10667SOL     OW32899   4.857   1.782   4.043
10667SOL    HW132900   4.854   1.853   4.114
10667SOL    HW232901   4.818   1.697   4.080
10668SOL     OW32902   3.145   1.129   4.909
10668SOL    HW132903   3.199   1.058   4.865
10668SOL    HW232904   3.082   1.087   4.974
10669SOL     OW32905   6.753   0.499   0.832
10669SOL    HW132906   6.852   0.513   0.835
10669SOL    HW232907   6.729   0.450   0.748
10670SOL     OW32908   5.764   4.981   4.856
10670SOL    HW132909   5.823   4.960   4.934
10670SOL    HW232910   5.817   4.975   4.772
10671SOL     OW32911   1.674   1.934   4.307
10671SOL    HW132912   1.725   1.869   4.364
10671SOL    HW232913   1.578   1.935   4.335
10672SOL     OW32914   6.634   4.256   2.385
10672SOL    HW132915   6.669   4.197   2.313
10672SOL    HW232916   6.619   4.348   2.348
10673SOL     OW32917   0.879   0.477   0.593
10673SOL    HW132918   0.782   0.463   0.573
10673SOL    HW232919   0.928   0.499   0.509
10674SOL     OW32920   3.927   3.854   4.574
10674SOL    HW132921   3.831   3.851   4.601
10674SOL    HW232922   3.956   3.950   4.565
10675SOL     OW32923   2.361   0.361   6.548
10675SOL    HW132924   2.434   0.396   6.489
10675SOL    HW232925   2.319   0.281   6.506
10676SOL     OW32926   0.564   6.669   4.828
10676SOL    HW132927   0.509   6.587   4.836
10676SOL    HW232928   0.513   6.739   4.778
10677SOL     OW32929   1.938   0.732   1.266
10677SOL    HW132930   1.857   0.787   1.246
10677SOL    HW232931   2.020   0.789   1.258
10678SOL     OW32932   4.116   5.142   4.093
10678SOL    HW132933   4.201   5.139   4.146
10678SOL    HW232934   4.094   5.050   4.060
10679SOL     OW32935   3.604   5.623   6.148
10679SOL    HW132936   3.509   5.648   6.166
10679SOL    HW232937   3.663   5.667   6.216
10680SOL     OW32938   3.731   2.143   3.803
10680SOL    HW132939   3.731   2.078   3.879
10680SOL    HW232940   3.657   2.120   3.740
10681SOL     OW32941   6.609   3.931   0.448
10681SOL    HW132942   6.522   3.894   0.416
10681SOL    HW232943   6.592   4.001   0.517
10682SOL     OW32944   0.088   2.623   5.291
10682SOL    HW132945   0.057   2.686   5.220
10682SOL    HW232946   0.017   2.611   5.360
10683SOL     OW32947   4.625   0.625   3.950
10683SOL    HW132948   4.558   0.673   4.007
10683SOL    HW232949   4.614   0.653   3.855
10684SOL     OW32950   4.234   5.037   2.425
10684SOL    HW132951   4.286   5.005   2.505
10684SOL    HW232952   4.273   5.123   2.392
10685SOL     OW32953   0.363   5.745   1.180
10685SOL    HW132954   0.415   5.750   1.095
10685SOL    HW232955   0.417   5.698   1.250
10686SOL     OW32956   1.385   4.066   5.857
10686SOL    HW132957   1.354   4.134   5.790
10686SOL    HW232958   1.367   3.974   5.823
10687SOL     OW32959   6.217   5.137   3.957
10687SOL    HW132960   6.254   5.194   4.031
10687SOL    HW232961   6.287   5.072   3.927
10688SOL     OW32962   5.854   3.184   3.013
10688SOL    HW132963   5.926   3.158   2.948
10688SOL    HW232964   5.847   3.283   3.017
10689SOL     OW32965   6.287   0.076   2.378
10689SOL    HW132966   6.291   0.048   2.474
10689SOL    HW232967   6.341   0.012   2.323
10690SOL     OW32968   0.375   5.415   3.531
10690SOL    HW132969   0.291   5.430   3.479
10690SOL    HW232970   0.454   5.429   3.471
10691SOL     OW32971   1.585   1.887   2.063
10691SOL    HW132972   1.581   1.793   2.096
10691SOL    HW232973   1.580   1.950   2.140
10692SOL     OW32974   2.543   0.523   3.594
10692SOL    HW132975   2.507   0.435   3.562
10692SOL    HW232976   2.576   0.513   3.688
10693SOL     OW32977   1.567   6.178   1.608
10693SOL    HW132978   1.577   6.264   1.657
10693SOL    HW232979   1.576   6.102   1.673
10694SOL     OW32980   5.307   5.959   6.824
10694SOL    HW132981   5.324   5.913   6.911
10694SOL    HW232982   5.374   5.928   6.757
10695SOL     OW32983   1.296   2.316   2.527
10695SOL    HW132984   1.271   2.350   2.436
10695SOL    HW232985   1.227   2.344   2.594
10696SOL     OW32986   6.261   4.239   3.937
10696SOL    HW132987   6.296   4.209   3.848
10696SOL    HW232988   6.251   4.159   3.996
10697SOL     OW32989   0.633   0.181   5.357
10697SOL    HW132990   0.648   0.133   5.271
10697SOL    HW232991   0.544   0.157   5.395
10698SOL     OW32992   4.936   4.848   6.968
10698SOL    HW132993   5.016   4.815   6.918
10698SOL    HW232994   4.963   4.872   0.033
10699SOL     OW32995   3.846   4.556   1.636
10699SOL    HW132996   3.941   4.527   1.637
10699SOL    HW232997   3.815   4.570   1.542
10700SOL     OW32998   5.453   5.962   0.589
10700SOL    HW132999   5.544   5.965   0.629
10700SOL    HW233000   5.388   6.007   0.650
10701SOL     OW33001   2.288   6.736   5.546
10701SOL    HW133002   2.194   6.724   5.579
10701SOL    HW233003   2.343   6.657   5.573
10702SOL     OW33004   5.891   3.041   2.156
10702SOL    HW133005   5.807   3.078   2.196
10702SOL    HW233006   5.961   3.034   2.227
10703SOL     OW33007   2.643   3.047   5.446
10703SOL    HW133008   2.580   3.053   5.368
10703SOL    HW233009   2.690   2.959   5.445
10704SOL     OW33010   6.150   5.051   1.996
10704SOL    HW133011   6.086   4.980   2.026
10704SOL    HW233012   6.241   5.031   2.034
10705SOL     OW33013   6.389   4.985   1.588
10705SOL    HW133014   6.423   4.924   1.659
10705SOL    HW233015   6.458   4.996   1.517
10706SOL     OW33016   4.756   0.585   3.135
10706SOL    HW133017   4.694   0.542   3.070
10706SOL    HW233018   4.784   0.519   3.204
10707SOL     OW33019   0.261   6.640   4.443
10707SOL    HW133020   0.334   6.632   4.376
10707SOL    HW233021   0.250   6.553   4.492
10708SOL     OW33022   3.580   1.336   1.168
10708SOL    HW133023   3.574   1.427   1.209
10708SOL    HW233024   3.675   1.317   1.144
10709SOL     OW33025   5.772   5.725   5.426
10709SOL    HW133026   5.737   5.796   5.366
10709SOL    HW233027   5.770   5.757   5.521
10710SOL     OW33028   6.534   0.956   4.249
10710SOL    HW133029   6.436   0.974   4.258
10710SOL    HW233030   6.577   0.953   4.339
10711SOL     OW33031   2.037   6.347   3.773
10711SOL    HW133032   2.035   6.313   3.867
10711SOL    HW233033   1.955   6.317   3.724
10712SOL     OW33034   2.978   0.736   1.927
10712SOL    HW133035   2.971   0.803   1.853
10712SOL    HW233036   2.887   0.709   1.957
10713SOL     OW33037   0.728   3.547   1.086
10713SOL    HW133038   0.710   3.456   1.047
10713SOL    HW233039   0.678   3.616   1.034
10714SOL     OW33040   5.442   3.737   5.186
10714SOL    HW133041   5.420   3.677   5.263
10714SOL    HW233042   5.518   3.796   5.211
10715SOL     OW33043   4.422   0.471   2.265
10715SOL    HW133044   4.375   0.429   2.343
10715SOL    HW233045   4.354   0.513   2.205
10716SOL     OW33046   5.758   1.857   3.899
10716SOL    HW133047   5.690   1.817   3.960
10716SOL    HW233048   5.751   1.957   3.901
10717SOL     OW33049   1.017   2.499   1.220
10717SOL    HW133050   0.918   2.489   1.220
10717SOL    HW233051   1.046   2.551   1.140
10718SOL     OW33052   0.798   3.707   0.123
10718SOL    HW133053   0.885   3.706   0.172
10718SOL    HW233054   0.727   3.745   0.183
10719SOL     OW33055   6.964   5.616   2.590
10719SOL    HW133056   7.021   5.540   2.621
10719SOL    HW233057   6.961   5.686   2.662
10720SOL     OW33058   0.377   4.686   5.342
10720SOL    HW133059   0.319   4.607   5.362
10720SOL    HW233060   0.373   4.706   5.244
10721SOL     OW33061   5.327   4.136   4.803
10721SOL    HW133062   5.331   4.147   4.903
10721SOL    HW233063   5.391   4.064   4.775
10722SOL     OW33064   1.253   4.960   6.657
10722SOL    HW133065   1.256   4.934   6.561
10722SOL    HW233066   1.201   5.044   6.668
10723SOL     OW33067   0.733   3.121   6.134
10723SOL    HW133068   0.808   3.055   6.139
10723SOL    HW233069   0.682   3.107   6.049
10724SOL     OW33070   6.538   1.522   6.997
10724SOL    HW133071   6.612   1.455   7.006
10724SOL    HW233072   6.505   1.548   0.059
10725SOL     OW33073   1.602   5.516   4.456
10725SOL    HW133074   1.611   5.421   4.487
10725SOL    HW233075   1.592   5.518   4.357
10726SOL     OW33076   5.417   0.330   4.810
10726SOL    HW133077   5.347   0.394   4.841
10726SOL    HW233078   5.507   0.374   4.812
10727SOL     OW33079   0.468   5.083   5.551
10727SOL    HW133080   0.372   5.112   5.555
10727SOL    HW233081   0.480   4.999   5.604
10728SOL     OW33082   0.473   5.857   6.531
10728SOL    HW133083   0.540   5.827   6.463
10728SOL    HW233084   0.518   5.870   6.619
10729SOL     OW33085   5.367   1.739   2.117
10729SOL    HW133086   5.279   1.739   2.070
10729SOL    HW233087   5.383   1.830   2.157
10730SOL     OW33088   1.955   0.979   1.039
10730SOL    HW133089   1.884   0.919   1.078
10730SOL    HW233090   2.027   0.993   1.106
10731SOL     OW33091   3.324   6.640   0.727
10731SOL    HW133092   3.268   6.567   0.766
10731SOL    HW233093   3.265   6.715   0.698
10732SOL     OW33094   6.106   4.849   4.717
10732SOL    HW133095   6.082   4.753   4.709
10732SOL    HW233096   6.198   4.864   4.680
10733SOL     OW33097   6.345   1.844   1.013
10733SOL    HW133098   6.248   1.820   1.010
10733SOL    HW233099   6.400   1.767   0.980
10734SOL     OW33100   0.450   0.377   0.006
10734SOL    HW133101   0.456   0.296   6.976
10734SOL    HW233102   0.494   0.454   6.988
10735SOL     OW33103   0.593   2.910   3.538
10735SOL    HW133104   0.514   2.850   3.531
10735SOL    HW233105   0.574   2.984   3.602
10736SOL     OW33106   0.989   0.505   3.485
10736SOL    HW133107   0.917   0.437   3.472
10736SOL    HW233108   0.983   0.574   3.413
10737SOL     OW33109   1.771   1.901   1.011
10737SOL    HW133110   1.819   1.977   1.055
10737SOL    HW233111   1.830   1.821   1.008
10738SOL     OW33112   2.612   0.619   3.243
10738SOL    HW133113   2.637   0.663   3.157
10738SOL    HW233114   2.608   0.688   3.315
10739SOL     OW33115   1.445   1.667   0.927
10739SOL    HW133116   1.504   1.711   0.995
10739SOL    HW233117   1.440   1.569   0.944
10740SOL     OW33118   6.852   4.898   4.942
10740SOL    HW133119   6.869   4.884   4.844
10740SOL    HW233120   6.871   4.815   4.993
10741SOL     OW33121   5.848   0.490   1.153
10741SOL    HW133122   5.873   0.455   1.243
10741SOL    HW233123   5.765   0.444   1.120
10742SOL     OW33124   5.519   0.428   0.787
10742SOL    HW133125   5.470   0.419   0.874
10742SOL    HW233126   5.454   0.452   0.715
10743SOL     OW33127   2.706   1.303   5.592
10743SOL    HW133128   2.786   1.249   5.617
10743SOL    HW233129   2.634   1.291   5.660
10744SOL     OW33130   3.605   1.568   1.339
10744SOL    HW133131   3.663   1.602   1.413
10744SOL    HW233132   3.627   1.615   1.254
10745SOL     OW33133   0.205   5.854   6.624
10745SOL    HW133134   0.134   5.872   6.556
10745SOL    HW233135   0.295   5.874   6.584
10746SOL     OW33136   2.191   4.774   1.310
10746SOL    HW133137   2.193   4.838   1.387
10746SOL    HW233138   2.153   4.819   1.230
10747SOL     OW33139   3.567   1.293   4.415
10747SOL    HW133140   3.601   1.231   4.486
10747SOL    HW233141   3.467   1.290   4.412
10748SOL     OW33142   5.057   0.648   1.035
10748SOL    HW133143   5.013   0.711   1.099
10748SOL    HW233144   4.989   0.614   0.970
10749SOL     OW33145   0.797   5.180   2.803
10749SOL    HW133146   0.800   5.169   2.704
10749SOL    HW233147   0.781   5.276   2.826
10750SOL     OW33148   4.226   6.003   4.936
10750SOL    HW133149   4.143   6.032   4.984
10750SOL    HW233150   4.211   6.012   4.837
10751SOL     OW33151   1.720   3.994   4.986
10751SOL    HW133152   1.792   4.059   5.010
10751SOL    HW233153   1.631   4.034   5.007
10752SOL     OW33154   6.324   3.890   6.487
10752SOL    HW133155   6.247   3.852   6.538
10752SOL    HW233156   6.387   3.816   6.462
10753SOL     OW33157   4.767   5.746   4.355
10753SOL    HW133158   4.725   5.817   4.298
10753SOL    HW233159   4.782   5.664   4.299
10754SOL     OW33160   0.829   1.208   2.999
10754SOL    HW133161   0.871   1.296   2.975
10754SOL    HW233162   0.785   1.169   2.919
10755SOL     OW33163   6.341   0.957   6.550
10755SOL    HW133164   6.409   1.003   6.493
10755SOL    HW233165   6.250   0.985   6.523
10756SOL     OW33166   6.927   4.969   0.094
10756SOL    HW133167   6.864   5.013   0.158
10756SOL    HW233168   6.888   4.882   0.063
10757SOL     OW33169   2.336   2.916   0.636
10757SOL    HW133170   2.333   3.001   0.689
10757SOL    HW233171   2.414   2.920   0.573
10758SOL     OW33172   0.440   6.559   4.234
10758SOL    HW133173   0.478   6.472   4.267
10758SOL    HW233174   0.505   6.633   4.252
10759SOL     OW33175   1.895   3.052   1.272
10759SOL    HW133176   1.894   3.099   1.183
10759SOL    HW233177   1.827   2.979   1.272
10760SOL     OW33178   5.781   1.456   2.150
10760SOL    HW133179   5.766   1.463   2.051
10760SOL    HW233180   5.880   1.457   2.168
10761SOL     OW33181   1.037   6.686   6.410
10761SOL    HW133182   0.989   6.643   6.487
10761SOL    HW233183   1.059   6.616   6.342
10762SOL     OW33184   3.587   2.121   4.551
10762SOL    HW133185   3.557   2.095   4.459
10762SOL    HW233186   3.509   2.119   4.614
10763SOL     OW33187   5.280   6.464   2.484
10763SOL    HW133188   5.272   6.400   2.408
10763SOL    HW233189   5.189   6.500   2.505
10764SOL     OW33190   4.815   2.615   5.995
10764SOL    HW133191   4.871   2.589   6.073
10764SOL    HW233192   4.846   2.567   5.913
10765SOL     OW33193   5.294   2.263   0.243
10765SOL    HW133194   5.232   2.188   0.217
10765SOL    HW233195   5.385   2.225   0.263
10766SOL     OW33196   4.963   3.728   0.356
10766SOL    HW133197   5.051   3.722   0.403
10766SOL    HW233198   4.930   3.636   0.336
10767SOL     OW33199   1.241   0.872   0.231
10767SOL    HW133200   1.174   0.928   0.183
10767SOL    HW233201   1.285   0.810   0.166
10768SOL     OW33202   4.634   4.571   1.704
10768SOL    HW133203   4.680   4.483   1.712
10768SOL    HW233204   4.541   4.563   1.739
10769SOL     OW33205   2.679   4.139   5.288
10769SOL    HW133206   2.606   4.120   5.222
10769SOL    HW233207   2.694   4.237   5.293
10770SOL     OW33208   5.695   0.401   4.902
10770SOL    HW133209   5.738   0.491   4.908
10770SOL    HW233210   5.655   0.377   4.990
10771SOL     OW33211   5.872   0.108   3.718
10771SOL    HW133212   5.940   0.165   3.763
10771SOL    HW233213   5.800   0.085   3.784
10772SOL     OW33214   5.764   6.820   4.290
10772SOL    HW133215   5.787   6.846   4.197
10772SOL    HW233216   5.791   6.725   4.306
10773SOL     OW33217   6.450   5.937   6.891
10773SOL    HW133218   6.474   5.852   6.938
10773SOL    HW233219   6.471   5.929   6.794
10774SOL     OW33220   3.294   1.394   6.744
10774SOL    HW133221   3.340   1.443   6.818
10774SOL    HW233222   3.223   1.452   6.705
10775SOL     OW33223   0.512   4.604   1.709
10775SOL    HW133224   0.588   4.648   1.757
10775SOL    HW233225   0.447   4.569   1.776
10776SOL     OW33226   6.972   0.850   6.705
10776SOL    HW133227   6.912   0.815   6.777
10776SOL    HW233228   0.021   0.900   6.747
10777SOL     OW33229   3.799   5.515   2.915
10777SOL    HW133230   3.890   5.552   2.896
10777SOL    HW233231   3.751   5.500   2.828
10778SOL     OW33232   5.865   0.023   4.353
10778SOL    HW133233   5.786   0.082   4.334
10778SOL    HW233234   5.838   6.955   4.341
10779SOL     OW33235   6.350   3.439   3.690
10779SOL    HW133236   6.416   3.510   3.712
10779SOL    HW233237   6.257   3.474   3.703
10780SOL     OW33238   2.278   1.037   3.565
10780SOL    HW133239   2.262   1.133   3.588
10780SOL    HW233240   2.322   0.990   3.642
10781SOL     OW33241   4.738   1.107   4.618
10781SOL    HW133242   4.774   1.061   4.699
10781SOL    HW233243   4.645   1.137   4.636
10782SOL     OW33244   6.361   1.947   1.697
10782SOL    HW133245   6.421   1.868   1.708
10782SOL    HW233246   6.405   2.029   1.735
10783SOL     OW33247   0.345   2.925   3.050
10783SOL    HW133248   0.322   3.022   3.052
10783SOL    HW233249   0.273   2.874   3.002
10784SOL     OW33250   3.660   6.733   4.186
10784SOL    HW133251   3.585   6.769   4.131
10784SOL    HW233252   3.714   6.809   4.223
10785SOL     OW33253   0.014   4.498   1.103
10785SOL    HW133254   0.037   4.531   1.012
10785SOL    HW233255   0.089   4.518   1.166
10786SOL     OW33256   5.780   4.611   3.200
10786SOL    HW133257   5.794   4.530   3.258
10786SOL    HW233258   5.684   4.615   3.172
10787SOL     OW33259   2.424   1.483   5.297
10787SOL    HW133260   2.399   1.568   5.342
10787SOL    HW233261   2.370   1.408   5.335
10788SOL     OW33262   1.880   4.629   5.925
10788SOL    HW133263   1.974   4.594   5.935
10788SOL    HW233264   1.883   4.726   5.899
10789SOL     OW33265   6.821   2.904   6.735
10789SOL    HW133266   6.760   2.909   6.656
10789SOL    HW233267   6.900   2.847   6.712
10790SOL     OW33268   1.160   0.273   1.761
10790SOL    HW133269   1.090   0.339   1.787
10790SOL    HW233270   1.122   0.207   1.697
10791SOL     OW33271   6.666   6.943   1.580
10791SOL    HW133272   6.750   6.995   1.597
10791SOL    HW233273   6.617   6.931   1.667
10792SOL     OW33274   3.095   3.690   4.636
10792SOL    HW133275   3.072   3.771   4.583
10792SOL    HW233276   3.085   3.709   4.733
10793SOL     OW33277   5.418   3.108   4.778
10793SOL    HW133278   5.435   3.178   4.848
10793SOL    HW233279   5.468   3.131   4.695
10794SOL     OW33280   3.344   3.190   4.373
10794SOL    HW133281   3.262   3.151   4.414
10794SOL    HW233282   3.352   3.159   4.278
10795SOL     OW33283   6.810   5.086   1.820
10795SOL    HW133284   6.850   5.137   1.896
10795SOL    HW233285   6.831   4.989   1.829
10796SOL     OW33286   5.700   0.477   5.893
10796SOL    HW133287   5.701   0.576   5.903
10796SOL    HW233288   5.752   0.451   5.812
10797SOL     OW33289   3.072   2.292   1.395
10797SOL    HW133290   3.142   2.239   1.348
10797SOL    HW233291   3.020   2.231   1.455
10798SOL     OW33292   2.693   0.238   0.100
10798SOL    HW133293   2.710   0.195   0.189
10798SOL    HW233294   2.763   0.307   0.083
10799SOL     OW33295   3.875   1.239   1.844
10799SOL    HW133296   3.868   1.162   1.781
10799SOL    HW233297   3.910   1.320   1.795
10800SOL     OW33298   6.687   6.553   6.190
10800SOL    HW133299   6.607   6.591   6.237
10800SOL    HW233300   6.731   6.484   6.249
10801SOL     OW33301   1.026   6.525   6.165
10801SOL    HW133302   1.024   6.517   6.065
10801SOL    HW233303   0.971   6.452   6.206
10802SOL     OW33304   0.983   0.285   2.730
10802SOL    HW133305   0.982   0.357   2.660
10802SOL    HW233306   0.891   0.247   2.740
10803SOL     OW33307   2.326   5.251   6.438
10803SOL    HW133308   2.392   5.209   6.375
10803SOL    HW233309   2.363   5.248   6.531
10804SOL     OW33310   5.765   3.291   2.393
10804SOL    HW133311   5.766   3.333   2.483
10804SOL    HW233312   5.726   3.356   2.326
10805SOL     OW33313   4.698   6.236   6.241
10805SOL    HW133314   4.744   6.315   6.200
10805SOL    HW233315   4.632   6.269   6.309
10806SOL     OW33316   4.313   4.223   6.636
10806SOL    HW133317   4.301   4.278   6.554
10806SOL    HW233318   4.371   4.144   6.615
10807SOL     OW33319   1.663   6.765   2.472
10807SOL    HW133320   1.649   6.805   2.381
10807SOL    HW233321   1.729   6.690   2.465
10808SOL     OW33322   0.031   2.793   6.065
10808SOL    HW133323   6.963   2.777   6.044
10808SOL    HW233324   0.079   2.823   5.982
10809SOL     OW33325   2.833   4.829   3.818
10809SOL    HW133326   2.848   4.831   3.719
10809SOL    HW233327   2.765   4.759   3.839
10810SOL     OW33328   1.257   0.272   3.823
10810SOL    HW133329   1.263   0.269   3.724
10810SOL    HW233330   1.288   0.360   3.857
10811SOL     OW33331   4.292   4.796   6.242
10811SOL    HW133332   4.232   4.874   6.260
10811SOL    HW233333   4.293   4.736   6.321
10812SOL     OW33334   0.314   3.721   0.755
10812SOL    HW133335   0.341   3.794   0.693
10812SOL    HW233336   0.391   3.695   0.812
10813SOL     OW33337   1.811   4.124   6.502
10813SOL    HW133338   1.897   4.132   6.451
10813SOL    HW233339   1.751   4.058   6.456
10814SOL     OW33340   1.482   6.870   6.376
10814SOL    HW133341   1.484   6.813   6.294
10814SOL    HW233342   1.575   6.899   6.399
10815SOL     OW33343   5.174   3.749   3.429
10815SOL    HW133344   5.084   3.727   3.466
10815SOL    HW233345   5.231   3.666   3.428
10816SOL     OW33346   3.360   3.894   2.994
10816SOL    HW133347   3.394   3.803   2.971
10816SOL    HW233348   3.356   3.905   3.093
10817SOL     OW33349   4.510   0.308   3.264
10817SOL    HW133350   4.450   0.234   3.234
10817SOL    HW233351   4.457   0.376   3.315
10818SOL     OW33352   4.715   4.479   5.277
10818SOL    HW133353   4.749   4.491   5.370
10818SOL    HW233354   4.791   4.461   5.215
10819SOL     OW33355   6.358   5.258   6.225
10819SOL    HW133356   6.401   5.263   6.315
10819SOL    HW233357   6.368   5.346   6.179
10820SOL     OW33358   6.984   4.872   4.204
10820SOL    HW133359   7.022   4.859   4.112
10820SOL    HW233360   7.002   4.791   4.260
10821SOL     OW33361   4.769   6.942   3.901
10821SOL    HW133362   4.730   6.935   3.809
10821SOL    HW233363   4.868   6.954   3.895
10822SOL     OW33364   5.989   2.157   2.940
10822SOL    HW133365   6.036   2.236   2.978
10822SOL    HW233366   6.033   2.130   2.854
10823SOL     OW33367   0.899   0.816   1.800
10823SOL    HW133368   0.929   0.794   1.708
10823SOL    HW233369   0.953   0.893   1.835
10824SOL     OW33370   6.955   1.222   2.745
10824SOL    HW133371   7.023   1.295   2.751
10824SOL    HW233372   7.001   1.133   2.755
10825SOL     OW33373   2.003   1.849   6.094
10825SOL    HW133374   1.934   1.881   6.158
10825SOL    HW233375   2.093   1.850   6.138
10826SOL     OW33376   0.594   2.307   3.426
10826SOL    HW133377   0.547   2.254   3.496
10826SOL    HW233378   0.660   2.368   3.469
10827SOL     OW33379   0.060   3.372   4.551
10827SOL    HW133380   0.076   3.337   4.459
10827SOL    HW233381   0.135   3.433   4.577
10828SOL     OW33382   1.232   4.485   0.847
10828SOL    HW133383   1.143   4.503   0.805
10828SOL    HW233384   1.293   4.445   0.779
10829SOL     OW33385   4.613   2.696   0.447
10829SOL    HW133386   4.702   2.676   0.488
10829SOL    HW233387   4.559   2.612   0.440
10830SOL     OW33388   4.294   1.903   3.116
10830SOL    HW133389   4.282   1.825   3.054
10830SOL    HW233390   4.336   1.872   3.201
10831SOL     OW33391   3.164   6.494   2.842
10831SOL    HW133392   3.153   6.532   2.750
10831SOL    HW233393   3.261   6.495   2.867
10832SOL     OW33394   0.606   3.531   6.024
10832SOL    HW133395   0.578   3.615   5.978
10832SOL    HW233396   0.694   3.546   6.069
10833SOL     OW33397   0.417   1.224   1.950
10833SOL    HW133398   0.417   1.125   1.966
10833SOL    HW233399   0.512   1.257   1.946
10834SOL     OW33400   6.715   1.629   0.631
10834SOL    HW133401   6.729   1.587   0.541
10834SOL    HW233402   6.755   1.570   0.702
10835SOL     OW33403   6.101   2.520   0.297
10835SOL    HW133404   6.007   2.543   0.323
10835SOL    HW233405   6.165   2.572   0.353
10836SOL     OW33406   6.516   1.413   4.857
10836SOL    HW133407   6.491   1.477   4.784
10836SOL    HW233408   6.551   1.464   4.935
10837SOL     OW33409   6.621   5.124   1.121
10837SOL    HW133410   6.565   5.057   1.169
10837SOL    HW233411   6.607   5.115   1.022
10838SOL     OW33412   6.829   6.148   3.744
10838SOL    HW133413   6.862   6.126   3.653
10838SOL    HW233414   6.906   6.174   3.803
10839SOL     OW33415   4.263   3.156   1.825
10839SOL    HW133416   4.189   3.094   1.802
10839SOL    HW233417   4.351   3.112   1.808
10840SOL     OW33418   3.258   6.377   2.567
10840SOL    HW133419   3.290   6.350   2.658
10840SOL    HW233420   3.286   6.308   2.500
10841SOL     OW33421   6.493   4.950   5.672
10841SOL    HW133422   6.503   4.921   5.768
10841SOL    HW233423   6.444   4.880   5.621
10842SOL     OW33424   5.192   2.081   1.193
10842SOL    HW133425   5.241   2.151   1.245
10842SOL    HW233426   5.095   2.105   1.187
10843SOL     OW33427   1.317   1.505   1.141
10843SOL    HW133428   1.272   1.549   1.063
10843SOL    HW233429   1.287   1.549   1.226
10844SOL     OW33430   0.577   6.149   3.319
10844SOL    HW133431   0.519   6.150   3.401
10844SOL    HW233432   0.671   6.168   3.345
10845SOL     OW33433   3.565   6.683   5.405
10845SOL    HW133434   3.613   6.622   5.469
10845SOL    HW233435   3.623   6.761   5.384
10846SOL     OW33436   5.576   0.747   7.022
10846SOL    HW133437   5.529   0.721   0.078
10846SOL    HW233438   5.675   0.744   0.009
10847SOL     OW33439   3.471   2.891   0.225
10847SOL    HW133440   3.392   2.937   0.265
10847SOL    HW233441   3.527   2.852   0.297
10848SOL     OW33442   2.161   3.872   0.792
10848SOL    HW133443   2.258   3.888   0.773
10848SOL    HW233444   2.149   3.855   0.890
10849SOL     OW33445   2.375   4.382   4.094
10849SOL    HW133446   2.397   4.286   4.081
10849SOL    HW233447   2.355   4.424   4.005
10850SOL     OW33448   2.461   6.336   6.056
10850SOL    HW133449   2.509   6.421   6.035
10850SOL    HW233450   2.515   6.282   6.121
10851SOL     OW33451   2.393   3.385   0.599
10851SOL    HW133452   2.357   3.397   0.506
10851SOL    HW233453   2.357   3.457   0.658
10852SOL     OW33454   0.989   0.185   0.141
10852SOL    HW133455   1.061   0.119   0.121
10852SOL    HW233456   0.917   0.177   0.072
10853SOL     OW33457   1.698   2.853   5.186
10853SOL    HW133458   1.777   2.902   5.150
10853SOL    HW233459   1.688   2.766   5.138
10854SOL     OW33460   4.786   4.793   5.767
10854SOL    HW133461   4.689   4.772   5.771
10854SOL    HW233462   4.832   4.757   5.848
10855SOL     OW33463   3.825   1.266   1.063
10855SOL    HW133464   3.875   1.311   0.989
10855SOL    HW233465   3.881   1.265   1.146
10856SOL     OW33466   5.180   1.069   0.423
10856SOL    HW133467   5.130   1.053   0.509
10856SOL    HW233468   5.126   1.035   0.346
10857SOL     OW33469   0.494   1.862   2.868
10857SOL    HW133470   0.419   1.842   2.931
10857SOL    HW233471   0.578   1.819   2.901
10858SOL     OW33472   0.769   1.351   6.989
10858SOL    HW133473   0.808   1.268   6.949
10858SOL    HW233474   0.798   1.431   6.937
10859SOL     OW33475   1.055   4.266   4.681
10859SOL    HW133476   1.111   4.235   4.605
10859SOL    HW233477   1.101   4.343   4.726
10860SOL     OW33478   0.073   3.467   5.078
10860SOL    HW133479   0.087   3.477   5.176
10860SOL    HW233480   0.153   3.425   5.036
10861SOL     OW33481   3.287   3.857   3.789
10861SOL    HW133482   3.349   3.816   3.855
10861SOL    HW233483   3.192   3.840   3.817
10862SOL     OW33484   2.149   1.369   6.447
10862SOL    HW133485   2.089   1.446   6.466
10862SOL    HW233486   2.095   1.285   6.439
10863SOL     OW33487   3.154   0.992   3.794
10863SOL    HW133488   3.097   0.963   3.871
10863SOL    HW233489   3.198   1.079   3.816
10864SOL     OW33490   2.309   6.519   0.330
10864SOL    HW133491   2.284   6.492   0.237
10864SOL    HW233492   2.392   6.575   0.327
10865SOL     OW33493   0.003   1.656   1.413
10865SOL    HW133494   0.023   1.608   1.499
10865SOL    HW233495   6.980   1.595   1.353
10866SOL     OW33496   5.530   4.050   0.306
10866SOL    HW133497   5.529   3.952   0.323
10866SOL    HW233498   5.452   4.093   0.352
10867SOL     OW33499   3.746   3.827   0.187
10867SOL    HW133500   3.697   3.801   0.270
10867SOL    HW233501   3.837   3.787   0.187
10868SOL     OW33502   5.277   1.121   3.760
10868SOL    HW133503   5.321   1.099   3.672
10868SOL    HW233504   5.320   1.203   3.798
10869NA      NA33505   6.416   2.879   5.379
10870NA      NA33506   4.496   4.549   5.176
10871NA      NA33507   1.897   2.976   2.250
10872NA      NA33508   5.081   3.784   4.867
10873NA      NA33509   4.216   2.360   5.300
10874NA      NA33510   3.506   4.847   1.720
10875NA      NA33511   0.049   4.853   0.238
10876NA      NA33512   3.730   3.425   4.499
10877NA      NA33513   4.930   6.009   0.169
10878NA      NA33514   3.444   6.601   5.209
10879NA      NA33515   5.876   5.310   1.670
10880NA      NA33516   2.209   0.239   3.898
10881NA      NA33517   3.808   5.450   2.497
10882NA      NA33518   3.700   3.902   2.343
   7.02812   7.02812   7.02812
