Generated by trjconv : CNT in water t= 224.00000
33518
    1C        C    1   2.836   2.764   4.741
    1C        C    2   2.888   2.713   4.862
    1C        C    3   2.836   2.766   4.981
    1C        C    4   2.845   2.774   4.255
    1C        C    5   2.899   2.722   4.375
    1C        C    6   2.845   2.770   4.497
    1C        C    7   3.011   2.643   4.622
    1C        C    8   2.892   2.719   4.620
    1C        C    9   3.075   2.606   4.743
    1C        C   10   3.003   2.630   4.861
    1C        C   11   3.172   2.480   4.969
    1C        C   12   3.053   2.554   4.967
    1C        C   13   2.845   2.772   3.767
    1C        C   14   2.897   2.723   3.889
    1C        C   15   2.844   2.771   4.011
    1C        C   16   3.014   2.645   4.134
    1C        C   17   2.900   2.729   4.134
    1C        C   18   3.079   2.612   4.255
    1C        C   19   3.016   2.643   4.378
    1C        C   20   3.208   2.560   4.501
    1C        C   21   3.076   2.609   4.501
    1C        C   22   3.279   2.536   4.621
    1C        C   23   3.206   2.550   4.741
    1C        C   24   3.405   2.483   4.861
    1C        C   25   3.263   2.493   4.859
    1C        C   26   3.483   2.470   4.977
    1C        C   27   2.841   2.762   3.277
    1C        C   28   2.898   2.723   3.400
    1C        C   29   2.847   2.769   3.524
    1C        C   30   3.017   2.645   3.646
    1C        C   31   2.902   2.727   3.646
    1C        C   32   3.075   2.604   3.769
    1C        C   33   3.012   2.641   3.890
    1C        C   34   3.205   2.557   4.013
    1C        C   35   3.072   2.604   4.012
    1C        C   36   3.277   2.538   4.133
    1C        C   37   3.211   2.561   4.256
    1C        C   38   3.415   2.512   4.377
    1C        C   39   3.277   2.541   4.379
    1C        C   40   3.487   2.504   4.498
    1C        C   41   3.417   2.504   4.620
    1C        C   42   3.627   2.483   4.743
    1C        C   43   3.484   2.485   4.743
    1C        C   44   3.702   2.481   4.862
    1C        C   45   3.622   2.476   4.977
    1C        C   46   2.833   2.747   2.790
    1C        C   47   2.887   2.703   2.913
    1C        C   48   2.835   2.752   3.035
    1C        C   49   3.014   2.635   3.158
    1C        C   50   2.895   2.711   3.156
    1C        C   51   3.076   2.604   3.281
    1C        C   52   3.017   2.646   3.403
    1C        C   53   3.207   2.549   3.526
    1C        C   54   3.080   2.611   3.524
    1C        C   55   3.276   2.527   3.647
    1C        C   56   3.205   2.548   3.767
    1C        C   57   3.411   2.510   3.890
    1C        C   58   3.272   2.536   3.891
    1C        C   59   3.485   2.501   4.010
    1C        C   60   3.415   2.508   4.133
    1C        C   61   3.627   2.493   4.256
    1C        C   62   3.485   2.500   4.255
    1C        C   63   3.699   2.501   4.377
    1C        C   64   3.628   2.503   4.499
    1C        C   65   3.834   2.538   4.620
    1C        C   66   3.697   2.503   4.623
    1C        C   67   3.904   2.557   4.741
    1C        C   68   3.838   2.519   4.859
    1C        C   69   4.052   2.574   4.972
    1C        C   70   3.921   2.525   4.972
    1C        C   71   2.821   2.730   2.307
    1C        C   72   2.876   2.683   2.428
    1C        C   73   2.825   2.739   2.548
    1C        C   74   3.007   2.624   2.669
    1C        C   75   2.887   2.699   2.668
    1C        C   76   3.070   2.596   2.792
    1C        C   77   3.008   2.631   2.914
    1C        C   78   3.204   2.545   3.034
    1C        C   79   3.074   2.600   3.035
    1C        C   80   3.270   2.524   3.157
    1C        C   81   3.204   2.546   3.280
    1C        C   82   3.412   2.505   3.400
    1C        C   83   3.273   2.527   3.403
    1C        C   84   3.482   2.497   3.522
    1C        C   85   3.415   2.503   3.646
    1C        C   86   3.625   2.496   3.766
    1C        C   87   3.484   2.495   3.770
    1C        C   88   3.694   2.510   3.889
    1C        C   89   3.626   2.503   4.013
    1C        C   90   3.833   2.545   4.134
    1C        C   91   3.697   2.505   4.135
    1C        C   92   3.901   2.567   4.256
    1C        C   93   3.835   2.538   4.378
    1C        C   94   4.027   2.631   4.497
    1C        C   95   3.903   2.562   4.499
    1C        C   96   4.086   2.669   4.619
    1C        C   97   4.031   2.622   4.740
    1C        C   98   4.188   2.764   4.862
    1C        C   99   4.098   2.652   4.862
    1C        C  100   4.214   2.838   4.978
    1C        C  101   2.818   2.723   2.070
    1C        C  102   2.989   2.588   2.187
    1C        C  103   2.875   2.674   2.188
    1C        C  104   3.059   2.565   2.309
    1C        C  105   2.995   2.608   2.428
    1C        C  106   3.199   2.538   2.548
    1C        C  107   3.064   2.579   2.548
    1C        C  108   3.267   2.512   2.669
    1C        C  109   3.199   2.539   2.790
    1C        C  110   3.409   2.502   2.912
    1C        C  111   3.269   2.520   2.911
    1C        C  112   3.481   2.495   3.034
    1C        C  113   3.409   2.502   3.155
    1C        C  114   3.622   2.500   3.278
    1C        C  115   3.481   2.495   3.277
    1C        C  116   3.693   2.507   3.400
    1C        C  117   3.624   2.495   3.523
    1C        C  118   3.834   2.534   3.645
    1C        C  119   3.696   2.505   3.644
    1C        C  120   3.899   2.561   3.767
    1C        C  121   3.832   2.543   3.890
    1C        C  122   4.026   2.628   4.009
    1C        C  123   3.899   2.566   4.011
    1C        C  124   4.088   2.663   4.131
    1C        C  125   4.026   2.633   4.255
    1C        C  126   4.197   2.761   4.376
    1C        C  127   4.086   2.674   4.376
    1C        C  128   4.242   2.816   4.498
    1C        C  129   4.190   2.765   4.618
    1C        C  130   4.319   2.934   4.741
    1C        C  131   4.239   2.816   4.740
    1C        C  132   4.351   3.002   4.860
    1C        C  133   4.284   2.958   4.974
    1C        C  134   3.169   2.465   2.078
    1C        C  135   3.035   2.505   2.080
    1C        C  136   3.255   2.471   2.188
    1C        C  137   3.192   2.517   2.306
    1C        C  138   3.403   2.475   2.425
    1C        C  139   3.266   2.508   2.427
    1C        C  140   3.478   2.476   2.545
    1C        C  141   3.406   2.489   2.666
    1C        C  142   3.618   2.491   2.790
    1C        C  143   3.477   2.494   2.788
    1C        C  144   3.688   2.509   2.912
    1C        C  145   3.622   2.497   3.036
    1C        C  146   3.833   2.533   3.154
    1C        C  147   3.695   2.502   3.157
    1C        C  148   3.899   2.557   3.277
    1C        C  149   3.831   2.536   3.400
    1C        C  150   4.023   2.626   3.521
    1C        C  151   3.898   2.560   3.522
    1C        C  152   4.083   2.664   3.643
    1C        C  153   4.025   2.627   3.766
    1C        C  154   4.191   2.762   3.887
    1C        C  155   4.081   2.673   3.887
    1C        C  156   4.238   2.812   4.010
    1C        C  157   4.191   2.759   4.132
    1C        C  158   4.334   2.919   4.252
    1C        C  159   4.247   2.808   4.252
    1C        C  160   4.373   2.982   4.373
    1C        C  161   4.325   2.930   4.495
    1C        C  162   4.431   3.112   4.614
    1C        C  163   4.363   2.989   4.618
    1C        C  164   4.461   3.181   4.734
    1C        C  165   4.433   3.118   4.856
    1C        C  166   4.505   3.319   4.971
    1C        C  167   4.473   3.184   4.973
    1C        C  168   3.472   2.434   2.071
    1C        C  169   3.395   2.451   2.186
    1C        C  170   3.615   2.465   2.304
    1C        C  171   3.473   2.456   2.304
    1C        C  172   3.688   2.483   2.423
    1C        C  173   3.619   2.486   2.546
    1C        C  174   3.825   2.538   2.665
    1C        C  175   3.689   2.498   2.668
    1C        C  176   3.893   2.557   2.787
    1C        C  177   3.827   2.534   2.910
    1C        C  178   4.026   2.614   3.029
    1C        C  179   3.898   2.554   3.031
    1C        C  180   4.087   2.652   3.151
    1C        C  181   4.024   2.621   3.274
    1C        C  182   4.191   2.748   3.397
    1C        C  183   4.082   2.658   3.397
    1C        C  184   4.245   2.796   3.518
    1C        C  185   4.195   2.751   3.642
    1C        C  186   4.335   2.914   3.763
    1C        C  187   4.243   2.806   3.763
    1C        C  188   4.371   2.974   3.886
    1C        C  189   4.330   2.920   4.010
    1C        C  190   4.441   3.103   4.127
    1C        C  191   4.376   2.978   4.130
    1C        C  192   4.462   3.172   4.248
    1C        C  193   4.435   3.108   4.372
    1C        C  194   4.499   3.313   4.488
    1C        C  195   4.461   3.177   4.492
    1C        C  196   4.512   3.383   4.610
    1C        C  197   4.506   3.316   4.734
    1C        C  198   4.551   3.532   4.848
    1C        C  199   4.530   3.390   4.853
    1C        C  200   4.579   3.616   4.960
    1C        C  201   3.610   2.411   2.074
    1C        C  202   3.822   2.511   2.184
    1C        C  203   3.688   2.461   2.183
    1C        C  204   3.897   2.537   2.302
    1C        C  205   3.825   2.518   2.423
    1C        C  206   4.021   2.612   2.539
    1C        C  207   3.892   2.553   2.542
    1C        C  208   4.081   2.650   2.661
    1C        C  209   4.021   2.616   2.785
    1C        C  210   4.196   2.738   2.905
    1C        C  211   4.083   2.654   2.906
    1C        C  212   4.247   2.788   3.027
    1C        C  213   4.195   2.743   3.150
    1C        C  214   4.326   2.908   3.270
    1C        C  215   4.240   2.796   3.273
    1C        C  216   4.364   2.968   3.392
    1C        C  217   4.330   2.909   3.516
    1C        C  218   4.431   3.096   3.636
    1C        C  219   4.371   2.968   3.638
    1C        C  220   4.458   3.163   3.758
    1C        C  221   4.434   3.100   3.882
    1C        C  222   4.503   3.303   3.998
    1C        C  223   4.468   3.166   4.003
    1C        C  224   4.517   3.375   4.119
    1C        C  225   4.502   3.307   4.242
    1C        C  226   4.522   3.519   4.362
    1C        C  227   4.512   3.379   4.363
    1C        C  228   4.522   3.592   4.484
    1C        C  229   4.525   3.524   4.608
    1C        C  230   4.500   3.739   4.721
    1C        C  231   4.539   3.602   4.725
    1C        C  232   4.493   3.814   4.840
    1C        C  233   4.542   3.751   4.956
    1C        C  234   4.016   2.596   2.062
    1C        C  235   3.890   2.538   2.064
    1C        C  236   4.085   2.641   2.176
    1C        C  237   4.023   2.601   2.296
    1C        C  238   4.198   2.729   2.416
    1C        C  239   4.085   2.643   2.417
    1C        C  240   4.248   2.780   2.537
    1C        C  241   4.192   2.736   2.660
    1C        C  242   4.332   2.897   2.781
    1C        C  243   4.245   2.786   2.781
    1C        C  244   4.372   2.957   2.903
    1C        C  245   4.331   2.902   3.027
    1C        C  246   4.435   3.089   3.144
    1C        C  247   4.371   2.963   3.148
    1C        C  248   4.455   3.155   3.268
    1C        C  249   4.429   3.093   3.392
    1C        C  250   4.488   3.298   3.509
    1C        C  251   4.454   3.161   3.513
    1C        C  252   4.502   3.369   3.630
    1C        C  253   4.494   3.300   3.753
    1C        C  254   4.516   3.512   3.871
    1C        C  255   4.509   3.371   3.874
    1C        C  256   4.513   3.582   3.994
    1C        C  257   4.516   3.516   4.119
    1C        C  258   4.492   3.728   4.236
    1C        C  259   4.516   3.589   4.240
    1C        C  260   4.472   3.797   4.358
    1C        C  261   4.492   3.730   4.481
    1C        C  262   4.429   3.938   4.597
    1C        C  263   4.472   3.804   4.599
    1C        C  264   4.397   4.005   4.717
    1C        C  265   4.429   3.940   4.838
    1C        C  266   4.317   4.125   4.954
    1C        C  267   4.390   4.007   4.954
    1C        C  268   4.262   2.764   2.058
    1C        C  269   4.197   2.727   2.176
    1C        C  270   4.349   2.883   2.295
    1C        C  271   4.254   2.777   2.295
    1C        C  272   4.377   2.951   2.415
    1C        C  273   4.336   2.891   2.536
    1C        C  274   4.440   3.076   2.656
    1C        C  275   4.375   2.951   2.658
    1C        C  276   4.466   3.146   2.776
    1C        C  277   4.440   3.080   2.898
    1C        C  278   4.495   3.286   3.021
    1C        C  279   4.465   3.148   3.019
    1C        C  280   4.506   3.359   3.141
    1C        C  281   4.490   3.292   3.264
    1C        C  282   4.514   3.505   3.383
    1C        C  283   4.503   3.364   3.385
    1C        C  284   4.515   3.578   3.504
    1C        C  285   4.516   3.509   3.627
    1C        C  286   4.486   3.721   3.747
    1C        C  287   4.512   3.582   3.749
    1C        C  288   4.470   3.788   3.871
    1C        C  289   4.492   3.722   3.994
    1C        C  290   4.426   3.928   4.110
    1C        C  291   4.477   3.797   4.113
    1C        C  292   4.388   3.987   4.233
    1C        C  293   4.415   3.926   4.357
    1C        C  294   4.322   4.122   4.474
    1C        C  295   4.396   4.002   4.475
    1C        C  296   4.278   4.183   4.594
    1C        C  297   4.323   4.127   4.716
    1C        C  298   4.194   4.304   4.836
    1C        C  299   4.282   4.192   4.835
    1C        C  300   4.168   4.395   4.944
    1C        C  301   4.349   2.872   2.058
    1C        C  302   4.465   3.063   2.170
    1C        C  303   4.397   2.937   2.172
    1C        C  304   4.478   3.138   2.290
    1C        C  305   4.440   3.077   2.412
    1C        C  306   4.498   3.281   2.529
    1C        C  307   4.467   3.143   2.534
    1C        C  308   4.505   3.352   2.651
    1C        C  309   4.495   3.284   2.775
    1C        C  310   4.517   3.495   2.895
    1C        C  311   4.503   3.354   2.897
    1C        C  312   4.515   3.568   3.017
    1C        C  313   4.523   3.499   3.140
    1C        C  314   4.485   3.712   3.258
    1C        C  315   4.516   3.574   3.260
    1C        C  316   4.475   3.783   3.380
    1C        C  317   4.493   3.717   3.504
    1C        C  318   4.422   3.920   3.623
    1C        C  319   4.471   3.788   3.624
    1C        C  320   4.389   3.982   3.745
    1C        C  321   4.423   3.921   3.868
    1C        C  322   4.310   4.103   3.987
    1C        C  323   4.394   3.990   3.987
    1C        C  324   4.271   4.162   4.109
    1C        C  325   4.318   4.110   4.232
    1C        C  326   4.182   4.278   4.349
    1C        C  327   4.281   4.177   4.351
    1C        C  328   4.131   4.332   4.469
    1C        C  329   4.188   4.292   4.592
    1C        C  330   4.023   4.431   4.711
    1C        C  331   4.135   4.343   4.713
    1C        C  332   3.968   4.487   4.828
    1C        C  333   4.048   4.468   4.941
    1C        C  334   4.540   3.264   2.053
    1C        C  335   4.528   3.125   2.057
    1C        C  336   4.535   3.346   2.167
    1C        C  337   4.512   3.276   2.287
    1C        C  338   4.520   3.491   2.407
    1C        C  339   4.514   3.350   2.407
    1C        C  340   4.515   3.563   2.529
    1C        C  341   4.518   3.493   2.651
    1C        C  342   4.494   3.704   2.770
    1C        C  343   4.515   3.565   2.773
    1C        C  344   4.476   3.776   2.891
    1C        C  345   4.488   3.706   3.013
    1C        C  346   4.415   3.908   3.132
    1C        C  347   4.467   3.776   3.134
    1C        C  348   4.387   3.974   3.253
    1C        C  349   4.424   3.915   3.376
    1C        C  350   4.315   4.098   3.498
    1C        C  351   4.392   3.980   3.498
    1C        C  352   4.271   4.159   3.618
    1C        C  353   4.311   4.100   3.740
    1C        C  354   4.169   4.257   3.860
    1C        C  355   4.268   4.157   3.863
    1C        C  356   4.117   4.305   3.982
    1C        C  357   4.169   4.260   4.105
    1C        C  358   4.006   4.396   4.227
    1C        C  359   4.119   4.312   4.227
    1C        C  360   3.946   4.437   4.348
    1C        C  361   4.012   4.409   4.470
    1C        C  362   3.825   4.511   4.589
    1C        C  363   3.953   4.453   4.590
    1C        C  364   3.759   4.545   4.710
    1C        C  365   3.838   4.542   4.828
    1C        C  366   3.626   4.586   4.948
    1C        C  367   3.764   4.569   4.944
    1C        C  368   4.508   3.560   2.047
    1C        C  369   4.523   3.487   2.166
    1C        C  370   4.497   3.702   2.284
    1C        C  371   4.513   3.562   2.285
    1C        C  372   4.482   3.772   2.406
    1C        C  373   4.501   3.704   2.529
    1C        C  374   4.423   3.905   2.645
    1C        C  375   4.476   3.774   2.648
    1C        C  376   4.387   3.967   2.767
    1C        C  377   4.422   3.906   2.889
    1C        C  378   4.316   4.094   3.009
    1C        C  379   4.387   3.972   3.009
    1C        C  380   4.269   4.151   3.130
    1C        C  381   4.311   4.092   3.251
    1C        C  382   4.171   4.250   3.372
    1C        C  383   4.268   4.148   3.374
    1C        C  384   4.118   4.301   3.493
    1C        C  385   4.173   4.260   3.616
    1C        C  386   3.999   4.383   3.739
    1C        C  387   4.117   4.305   3.738
    1C        C  388   3.939   4.421   3.861
    1C        C  389   4.001   4.387   3.983
    1C        C  390   3.813   4.484   4.106
    1C        C  391   3.944   4.430   4.105
    1C        C  392   3.747   4.515   4.227
    1C        C  393   3.819   4.498   4.347
    1C        C  394   3.612   4.545   4.470
    1C        C  395   3.751   4.522   4.469
    1C        C  396   3.543   4.561   4.592
    1C        C  397   3.619   4.562   4.711
    1C        C  398   3.409   4.546   4.838
    1C        C  399   3.548   4.573   4.832
    1C        C  400   3.340   4.509   4.954
    1C        C  401   4.506   3.699   2.050
    1C        C  402   4.455   3.913   2.164
    1C        C  403   4.494   3.778   2.165
    1C        C  404   4.409   3.974   2.283
    1C        C  405   4.430   3.903   2.403
    1C        C  406   4.322   4.091   2.521
    1C        C  407   4.396   3.970   2.523
    1C        C  408   4.274   4.145   2.642
    1C        C  409   4.311   4.086   2.765
    1C        C  410   4.167   4.243   2.883
    1C        C  411   4.272   4.148   2.886
    1C        C  412   4.113   4.287   3.006
    1C        C  413   4.171   4.252   3.130
    1C        C  414   3.997   4.375   3.248
    1C        C  415   4.116   4.299   3.251
    1C        C  416   3.937   4.411   3.371
    1C        C  417   4.000   4.379   3.493
    1C        C  418   3.806   4.463   3.615
    1C        C  419   3.937   4.409   3.616
    1C        C  420   3.741   4.491   3.737
    1C        C  421   3.806   4.471   3.861
    1C        C  422   3.604   4.526   3.983
    1C        C  423   3.743   4.501   3.984
    1C        C  424   3.536   4.534   4.107
    1C        C  425   3.607   4.533   4.229
    1C        C  426   3.395   4.546   4.355
    1C        C  427   3.537   4.546   4.351
    1C        C  428   3.326   4.541   4.478
    1C        C  429   3.402   4.550   4.596
    1C        C  430   3.193   4.516   4.721
    1C        C  431   3.333   4.539   4.719
    1C        C  432   3.121   4.493   4.842
    1C        C  433   3.203   4.485   4.955
    1C        C  434   4.378   4.116   2.050
    1C        C  435   4.446   3.993   2.049
    1C        C  436   4.298   4.158   2.160
    1C        C  437   4.329   4.091   2.282
    1C        C  438   4.175   4.245   2.398
    1C        C  439   4.277   4.147   2.400
    1C        C  440   4.117   4.290   2.519
    1C        C  441   4.171   4.242   2.640
    1C        C  442   3.996   4.367   2.761
    1C        C  443   4.114   4.289   2.761
    1C        C  444   3.932   4.400   2.883
    1C        C  445   3.995   4.365   3.004
    1C        C  446   3.806   4.463   3.126
    1C        C  447   3.935   4.405   3.125
    1C        C  448   3.740   4.487   3.248
    1C        C  449   3.804   4.457   3.371
    1C        C  450   3.600   4.517   3.495
    1C        C  451   3.737   4.483   3.493
    1C        C  452   3.531   4.531   3.618
    1C        C  453   3.604   4.526   3.738
    1C        C  454   3.394   4.542   3.862
    1C        C  455   3.535   4.539   3.861
    1C        C  456   3.325   4.532   3.986
    1C        C  457   3.395   4.532   4.108
    1C        C  458   3.188   4.505   4.235
    1C        C  459   3.327   4.530   4.232
    1C        C  460   3.119   4.489   4.357
    1C        C  461   3.188   4.511   4.478
    1C        C  462   2.995   4.427   4.601
    1C        C  463   3.122   4.489   4.602
    1C        C  464   2.926   4.400   4.721
    1C        C  465   2.986   4.447   4.842
    1C        C  466   2.801   4.331   4.957
    1C        C  467   2.900   4.431   4.955
    1C        C  468   4.119   4.283   2.039
    1C        C  469   4.181   4.241   2.158
    1C        C  470   4.000   4.366   2.274
    1C        C  471   4.121   4.291   2.276
    1C        C  472   3.934   4.397   2.395
    1C        C  473   3.998   4.366   2.517
    1C        C  474   3.806   4.458   2.640
    1C        C  475   3.934   4.398   2.638
    1C        C  476   3.738   4.483   2.762
    1C        C  477   3.803   4.458   2.885
    1C        C  478   3.598   4.515   3.007
    1C        C  479   3.736   4.487   3.005
    1C        C  480   3.529   4.531   3.130
    1C        C  481   3.603   4.521   3.250
    1C        C  482   3.391   4.531   3.372
    1C        C  483   3.533   4.532   3.372
    1C        C  484   3.321   4.528   3.494
    1C        C  485   3.390   4.539   3.617
    1C        C  486   3.186   4.498   3.742
    1C        C  487   3.323   4.533   3.740
    1C        C  488   3.122   4.479   3.866
    1C        C  489   3.187   4.501   3.990
    1C        C  490   2.995   4.418   4.113
    1C        C  491   3.122   4.480   4.113
    1C        C  492   2.935   4.381   4.236
    1C        C  493   2.993   4.424   4.357
    1C        C  494   2.828   4.295   4.481
    1C        C  495   2.933   4.389   4.480
    1C        C  496   2.773   4.247   4.602
    1C        C  497   2.818   4.308   4.721
    1C        C  498   2.670   4.155   4.844
    1C        C  499   2.756   4.267   4.841
    1C        C  500   2.590   4.112   4.951
    1C        C  501   3.999   4.353   2.035
    1C        C  502   3.811   4.462   2.148
    1C        C  503   3.936   4.398   2.152
    1C        C  504   3.741   4.475   2.270
    1C        C  505   3.803   4.451   2.395
    1C        C  506   3.599   4.504   2.516
    1C        C  507   3.738   4.478   2.518
    1C        C  508   3.529   4.514   2.638
    1C        C  509   3.600   4.511   2.760
    1C        C  510   3.389   4.528   2.881
    1C        C  511   3.530   4.520   2.883
    1C        C  512   3.319   4.521   3.003
    1C        C  513   3.388   4.533   3.126
    1C        C  514   3.182   4.502   3.251
    1C        C  515   3.320   4.534   3.250
    1C        C  516   3.118   4.470   3.372
    1C        C  517   3.184   4.493   3.495
    1C        C  518   2.993   4.411   3.622
    1C        C  519   3.121   4.470   3.620
    1C        C  520   2.940   4.369   3.746
    1C        C  521   3.001   4.406   3.868
    1C        C  522   2.831   4.282   3.995
    1C        C  523   2.941   4.371   3.991
    1C        C  524   2.781   4.233   4.117
    1C        C  525   2.833   4.284   4.238
    1C        C  526   2.695   4.126   4.363
    1C        C  527   2.782   4.237   4.361
    1C        C  528   2.650   4.070   4.485
    1C        C  529   2.684   4.137   4.605
    1C        C  530   2.585   3.951   4.727
    1C        C  531   2.641   4.081   4.727
    1C        C  532   2.539   3.896   4.850
    1C        C  533   2.526   3.988   4.960
    1C        C  534   3.614   4.554   2.033
    1C        C  535   3.747   4.508   2.032
    1C        C  536   3.534   4.534   2.150
    1C        C  537   3.601   4.501   2.271
    1C        C  538   3.390   4.521   2.393
    1C        C  539   3.531   4.511   2.393
    1C        C  540   3.319   4.512   2.515
    1C        C  541   3.388   4.520   2.638
    1C        C  542   3.179   4.487   2.760
    1C        C  543   3.317   4.518   2.761
    1C        C  544   3.113   4.468   2.883
    1C        C  545   3.181   4.491   3.005
    1C        C  546   2.992   4.407   3.131
    1C        C  547   3.115   4.476   3.129
    1C        C  548   2.937   4.363   3.254
    1C        C  549   2.993   4.405   3.377
    1C        C  550   2.831   4.273   3.500
    1C        C  551   2.934   4.370   3.501
    1C        C  552   2.783   4.226   3.624
    1C        C  553   2.832   4.278   3.746
    1C        C  554   2.706   4.115   3.872
    1C        C  555   2.785   4.232   3.871
    1C        C  556   2.668   4.053   3.993
    1C        C  557   2.704   4.114   4.115
    1C        C  558   2.599   3.938   4.243
    1C        C  559   2.663   4.064   4.240
    1C        C  560   2.568   3.873   4.365
    1C        C  561   2.588   3.943   4.485
    1C        C  562   2.527   3.742   4.610
    1C        C  563   2.564   3.878   4.608
    1C        C  564   2.507   3.677   4.735
    1C        C  565   2.515   3.755   4.853
    1C        C  566   2.522   3.543   4.971
    1C        C  567   2.525   3.682   4.972
    1C        C  568   3.326   4.466   2.038
    1C        C  569   3.394   4.510   2.153
    1C        C  570   3.180   4.477   2.275
    1C        C  571   3.318   4.511   2.273
    1C        C  572   3.110   4.459   2.397
    1C        C  573   3.181   4.480   2.517
    1C        C  574   2.984   4.403   2.642
    1C        C  575   3.111   4.465   2.639
    1C        C  576   2.928   4.360   2.765
    1C        C  577   2.991   4.396   2.887
    1C        C  578   2.825   4.271   3.012
    1C        C  579   2.932   4.363   3.011
    1C        C  580   2.776   4.219   3.134
    1C        C  581   2.830   4.271   3.253
    1C        C  582   2.698   4.109   3.379
    1C        C  583   2.783   4.222   3.377
    1C        C  584   2.666   4.050   3.503
    1C        C  585   2.702   4.110   3.626
    1C        C  586   2.602   3.929   3.751
    1C        C  587   2.667   4.054   3.751
    1C        C  588   2.569   3.867   3.873
    1C        C  589   2.597   3.930   3.997
    1C        C  590   2.535   3.734   4.123
    1C        C  591   2.573   3.870   4.122
    1C        C  592   2.521   3.665   4.245
    1C        C  593   2.533   3.736   4.367
    1C        C  594   2.503   3.528   4.491
    1C        C  595   2.514   3.669   4.490
    1C        C  596   2.506   3.460   4.615
    1C        C  597   2.501   3.535   4.735
    1C        C  598   2.518   3.323   4.856
    1C        C  599   2.512   3.464   4.856
    1C        C  600   2.521   3.245   4.973
    1C        C  601   3.190   4.440   2.038
    1C        C  602   2.977   4.396   2.155
    1C        C  603   3.113   4.442   2.155
    1C        C  604   2.919   4.363   2.280
    1C        C  605   2.982   4.401   2.401
    1C        C  606   2.813   4.272   2.523
    1C        C  607   2.921   4.364   2.522
    1C        C  608   2.769   4.218   2.646
    1C        C  609   2.824   4.265   2.767
    1C        C  610   2.695   4.101   2.890
    1C        C  611   2.775   4.217   2.891
    1C        C  612   2.656   4.045   3.014
    1C        C  613   2.692   4.105   3.136
    1C        C  614   2.592   3.920   3.261
    1C        C  615   2.654   4.047   3.260
    1C        C  616   2.567   3.860   3.386
    1C        C  617   2.601   3.924   3.508
    1C        C  618   2.534   3.725   3.633
    1C        C  619   2.572   3.861   3.630
    1C        C  620   2.519   3.659   3.757
    1C        C  621   2.533   3.730   3.878
    1C        C  622   2.505   3.523   4.003
    1C        C  623   2.523   3.663   4.001
    1C        C  624   2.505   3.452   4.125
    1C        C  625   2.508   3.525   4.246
    1C        C  626   2.528   3.316   4.372
    1C        C  627   2.508   3.456   4.370
    1C        C  628   2.547   3.250   4.495
    1C        C  629   2.526   3.320   4.616
    1C        C  630   2.587   3.115   4.738
    1C        C  631   2.541   3.250   4.737
    1C        C  632   2.607   3.045   4.859
    1C        C  633   2.555   3.110   4.976
    1C        C  634   2.778   4.301   2.050
    1C        C  635   2.888   4.388   2.043
    1C        C  636   2.746   4.227   2.165
    1C        C  637   2.805   4.278   2.283
    1C        C  638   2.678   4.106   2.405
    1C        C  639   2.756   4.223   2.404
    1C        C  640   2.643   4.044   2.527
    1C        C  641   2.682   4.107   2.648
    1C        C  642   2.586   3.918   2.771
    1C        C  643   2.647   4.045   2.770
    1C        C  644   2.565   3.853   2.896
    1C        C  645   2.592   3.919   3.018
    1C        C  646   2.527   3.717   3.143
    1C        C  647   2.568   3.852   3.140
    1C        C  648   2.518   3.650   3.267
    1C        C  649   2.535   3.723   3.387
    1C        C  650   2.511   3.515   3.513
    1C        C  651   2.519   3.656   3.510
    1C        C  652   2.515   3.446   3.636
    1C        C  653   2.511   3.518   3.758
    1C        C  654   2.525   3.310   3.884
    1C        C  655   2.505   3.450   3.882
    1C        C  656   2.542   3.244   4.007
    1C        C  657   2.523   3.312   4.129
    1C        C  658   2.596   3.112   4.252
    1C        C  659   2.542   3.243   4.252
    1C        C  660   2.626   3.051   4.376
    1C        C  661   2.596   3.117   4.497
    1C        C  662   2.703   2.933   4.620
    1C        C  663   2.627   3.052   4.618
    1C        C  664   2.744   2.873   4.741
    1C        C  665   2.694   2.931   4.861
    1C        C  666   2.740   2.866   4.977
    1C        C  667   2.683   4.020   2.048
    1C        C  668   2.691   4.097   2.165
    1C        C  669   2.585   3.909   2.285
    1C        C  670   2.646   4.038   2.285
    1C        C  671   2.561   3.845   2.408
    1C        C  672   2.586   3.915   2.528
    1C        C  673   2.524   3.713   2.653
    1C        C  674   2.559   3.850   2.650
    1C        C  675   2.515   3.644   2.776
    1C        C  676   2.529   3.717   2.896
    1C        C  677   2.501   3.508   3.024
    1C        C  678   2.516   3.649   3.019
    1C        C  679   2.498   3.437   3.146
    1C        C  680   2.503   3.510   3.267
    1C        C  681   2.531   3.303   3.394
    1C        C  682   2.509   3.442   3.392
    1C        C  683   2.547   3.237   3.517
    1C        C  684   2.528   3.305   3.639
    1C        C  685   2.591   3.107   3.767
    1C        C  686   2.538   3.238   3.763
    1C        C  687   2.623   3.044   3.889
    1C        C  688   2.591   3.111   4.010
    1C        C  689   2.704   2.930   4.135
    1C        C  690   2.623   3.046   4.131
    1C        C  691   2.747   2.876   4.258
    1C        C  692   2.704   2.933   4.380
    1C        C  693   2.749   2.874   4.500
    1C        C  694   2.625   3.892   2.049
    1C        C  695   2.520   3.704   2.173
    1C        C  696   2.575   3.833   2.166
    1C        C  697   2.501   3.633   2.294
    1C        C  698   2.523   3.708   2.411
    1C        C  699   2.492   3.500   2.536
    1C        C  700   2.505   3.641   2.534
    1C        C  701   2.504   3.430   2.658
    1C        C  702   2.502   3.503   2.779
    1C        C  703   2.527   3.296   2.906
    1C        C  704   2.505   3.436   2.903
    1C        C  705   2.540   3.227   3.029
    1C        C  706   2.524   3.298   3.150
    1C        C  707   2.594   3.099   3.276
    1C        C  708   2.542   3.231   3.273
    1C        C  709   2.625   3.037   3.399
    1C        C  710   2.594   3.103   3.520
    1C        C  711   2.700   2.925   3.644
    1C        C  712   2.621   3.043   3.645
    1C        C  713   2.747   2.873   3.767
    1C        C  714   2.705   2.929   3.890
    1C        C  715   2.747   2.874   4.013
    1C        C  716   2.446   3.494   2.057
    1C        C  717   2.486   3.628   2.059
    1C        C  718   2.462   3.417   2.177
    1C        C  719   2.477   3.493   2.297
    1C        C  720   2.505   3.281   2.420
    1C        C  721   2.488   3.421   2.418
    1C        C  722   2.530   3.214   2.542
    1C        C  723   2.524   3.290   2.661
    1C        C  724   2.594   3.093   2.786
    1C        C  725   2.546   3.226   2.785
    1C        C  726   2.617   3.027   2.908
    1C        C  727   2.589   3.095   3.029
    1C        C  728   2.697   2.915   3.152
    1C        C  729   2.623   3.036   3.153
    1C        C  730   2.747   2.867   3.275
    1C        C  731   2.707   2.922   3.399
    1C        C  732   2.746   2.868   3.523
    1C        C  733   2.489   3.193   2.066
    1C        C  734   2.485   3.276   2.179
    1C        C  735   2.571   3.076   2.300
    1C        C  736   2.517   3.208   2.300
    1C        C  737   2.599   3.009   2.421
    1C        C  738   2.572   3.079   2.541
    1C        C  739   2.690   2.905   2.666
    1C        C  740   2.614   3.024   2.664
    1C        C  741   2.736   2.849   2.787
    1C        C  742   2.694   2.909   2.909
    1C        C  743   2.737   2.854   3.032
    1C        C  744   2.541   3.064   2.067
    1C        C  745   2.685   2.894   2.180
    1C        C  746   2.605   3.011   2.180
    1C        C  747   2.727   2.837   2.302
    1C        C  748   2.681   2.894   2.422
    1C        C  749   2.732   2.846   2.545
    1C        C  750   2.731   2.832   2.063
    1C        C  751   3.655   2.303   1.982
    1C        O  752   3.677   2.183   2.015
    1C        O  753   3.623   2.313   1.846
    1C        C  754   4.606   3.057   1.951
    1C        O  755   4.549   3.043   1.839
    1C        O  756   4.742   3.025   1.944
    1C        C  757   4.436   4.213   1.954
    1C        O  758   4.532   4.293   1.970
    1C        O  759   4.390   4.208   1.821
    1C        C  760   3.581   4.644   1.920
    1C        O  761   3.571   4.764   1.960
    1C        O  762   3.580   4.620   1.783
    1C        C  763   2.873   4.496   1.944
    1C        O  764   2.908   4.483   1.823
    1C        O  765   2.840   4.626   1.983
    1C        C  766   2.329   3.472   1.970
    1C        O  767   2.357   3.424   1.857
    1C        O  768   2.200   3.448   2.020
    1C        C  769   4.701   3.586   5.039
    1C        O  770   4.681   3.553   5.159
    1C        O  771   4.828   3.603   4.984
    1C        C  772   4.285   4.464   5.003
    1C        O  773   4.320   4.424   5.117
    1C        O  774   4.396   4.516   4.935
    1C        C  775   4.138   2.508   5.074
    1C        O  776   4.229   2.426   5.047
    1C        O  777   4.153   2.579   5.193
    1C        C  778   2.863   4.554   5.029
    1C        O  779   2.772   4.637   5.001
    1C        O  780   2.914   4.585   5.156
    1C        C  781   2.512   3.040   5.099
    1C        O  782   2.418   2.958   5.110
    1C        O  783   2.569   3.077   5.221
    1C        C  784   2.405   3.986   5.045
    1C        O  785   2.296   4.033   5.001
    1C        O  786   2.413   3.998   5.184
    1C        C  787   2.944   2.433   1.988
    1C        O  788   2.975   2.425   1.866
    1C        O  789   2.863   2.326   2.024
    1C        C  790   3.178   2.368   5.066
    1C        O  791   3.192   2.249   5.026
    1C        O  792   3.188   2.389   5.204
    1C        H  793   4.277   3.026   5.057
    1C        H  794   4.194   2.795   5.074
    1C        H  795   4.501   3.123   5.057
    1C        H  796   4.465   3.376   5.051
    1C        H  797   4.574   3.813   5.037
    1C        H  798   4.453   3.994   5.039
    1C        H  799   4.266   4.157   5.042
    1C        H  800   4.029   4.529   5.027
    1C        H  801   3.807   4.548   5.039
    1C        H  802   3.602   4.665   5.016
    1C        H  803   3.383   4.533   5.049
    1C        H  804   3.155   4.450   5.044
    1C        H  805   3.883   2.489   5.066
    1C        H  806   3.672   2.465   5.071
    1C        H  807   2.996   2.550   5.057
    1C        H  808   3.441   2.415   5.059
    1C        H  809   2.894   2.756   5.071
    1C        H  810   2.680   2.873   5.065
    1C        H  811   2.488   3.287   5.066
    1C        H  812   2.506   3.498   5.067
    1C        H  813   2.558   3.722   5.065
    1C        H  814   2.548   4.194   5.005
    1C        H  815   2.757   4.305   5.050
    1C        H  816   2.718   2.873   1.965
    1C        H  817   2.824   2.665   1.981
    1C        H  818   3.214   2.465   1.981
    1C        H  819   3.422   2.410   1.979
    1C        H  820   3.859   2.480   1.979
    1C        H  821   4.039   2.634   1.965
    1C        H  822   4.260   2.696   1.975
    1C        H  823   4.364   2.912   1.960
    1C        H  824   4.553   3.311   1.958
    1C        H  825   4.494   3.506   1.956
    1C        H  826   4.512   3.744   1.953
    1C        H  827   3.811   4.547   1.956
    1C        H  828   3.935   4.322   1.955
    1C        H  829   4.144   4.225   1.953
    1C        H  830   4.505   3.967   1.964
    1C        H  831   2.575   3.869   1.957
    1C        H  832   2.724   4.055   1.956
    1C        H  833   2.706   4.303   1.971
    1C        H  834   3.383   4.431   1.955
    1C        H  835   3.143   4.474   1.949
    1C        H  836   2.501   2.996   1.995
    1C        H  837   2.423   3.212   1.984
    1C        H  838   2.531   3.655   1.966
    2V3OU   H29  839   2.800   3.548   2.015
    2V3OU   C27  840   2.784   3.492   2.111
    2V3OU   H27  841   2.729   3.561   2.180
    2V3OU   H28  842   2.732   3.393   2.112
    2V3OU   O11  843   2.913   3.468   2.169
    2V3OU   C15  844   2.924   3.392   2.283
    2V3OU   C13  845   3.052   3.365   2.335
    2V3OU   C14  846   3.075   3.260   2.426
    2V3OU   C16  847   2.971   3.181   2.472
    2V3OU    H6  848   2.986   3.099   2.544
    2V3OU   C12  849   3.208   3.227   2.483
    2V3OU    O2  850   3.230   3.129   2.558
    2V3OU   C10  851   3.321   3.310   2.439
    2V3OU    C8  852   3.450   3.267   2.467
    2V3OU   O10  853   3.481   3.150   2.529
    2V3OU   H26  854   3.394   3.110   2.544
    2V3OU    C6  855   3.560   3.345   2.421
    2V3OU    C5  856   3.533   3.465   2.357
    2V3OU    C4  857   3.698   3.291   2.416
    2V3OU    H4  858   3.719   3.222   2.504
    2V3OU    H5  859   3.713   3.223   2.327
    2V3OU    C2  860   3.811   3.394   2.431
    2V3OU    O6  861   3.801   3.468   2.552
    2V3OU   H21  862   3.750   3.547   2.527
    2V3OU    C3  863   3.779   3.496   2.322
    2V3OU    H2  864   3.858   3.575   2.314
    2V3OU    H3  865   3.777   3.439   2.226
    2V3OU   C25  866   3.946   3.323   2.424
    2V3OU    O7  867   3.998   3.291   2.317
    2V3OU   C26  868   4.022   3.284   2.549
    2V3OU   H22  869   4.051   3.380   2.601
    2V3OU   H23  870   4.112   3.224   2.522
    2V3OU    O8  871   3.960   3.204   2.647
    2V3OU   H24  872   3.917   3.264   2.709
    2V3OU    C1  873   3.644   3.564   2.339
    2V3OU    H1  874   3.622   3.620   2.243
    2V3OU    O3  875   3.654   3.650   2.453
    2V3OU   C19  876   3.614   3.787   2.447
    2V3OU    H9  877   3.515   3.798   2.394
    2V3OU    O4  878   3.710   3.846   2.361
    2V3OU   C20  879   3.842   3.872   2.409
    2V3OU   H10  880   3.892   3.774   2.432
    2V3OU   C24  881   3.607   3.856   2.583
    2V3OU   H16  882   3.542   3.791   2.646
    2V3OU   H17  883   3.565   3.958   2.562
    2V3OU   C23  884   3.749   3.871   2.638
    2V3OU   H15  885   3.797   3.768   2.651
    2V3OU    N1  886   3.731   3.955   2.755
    2V3OU   H19  887   3.798   3.927   2.824
    2V3OU   H20  888   3.644   3.928   2.796
    2V3OU   C21  889   3.844   3.948   2.542
    2V3OU   H11  890   3.947   3.930   2.587
    2V3OU    O5  891   3.822   4.088   2.547
    2V3OU   H18  892   3.772   4.096   2.629
    2V3OU   C22  893   3.908   3.951   2.297
    2V3OU   H12  894   3.855   4.047   2.273
    2V3OU   H13  895   3.904   3.888   2.205
    2V3OU   H14  896   4.019   3.956   2.316
    2V3OU   C11  897   3.152   3.472   2.331
    2V3OU    O1  898   3.133   3.583   2.277
    2V3OU    C9  899   3.289   3.427   2.365
    2V3OU    C7  900   3.398   3.504   2.327
    2V3OU    O9  901   3.384   3.623   2.258
    2V3OU   H25  902   3.287   3.630   2.256
    2V3OU   C17  903   2.821   3.309   2.333
    2V3OU    H7  904   2.720   3.343   2.310
    2V3OU   C18  905   2.843   3.210   2.427
    2V3OU    H8  906   2.774   3.155   2.494
    3SOL     OW  907   2.924   5.140   0.814
    3SOL    HW1  908   2.956   5.176   0.902
    3SOL    HW2  909   2.929   5.211   0.745
    4SOL     OW  910   0.202   6.410   2.227
    4SOL    HW1  911   0.244   6.501   2.223
    4SOL    HW2  912   0.263   6.343   2.186
    5SOL     OW  913   4.312   1.117   2.937
    5SOL    HW1  914   4.400   1.103   2.985
    5SOL    HW2  915   4.285   1.213   2.944
    6SOL     OW  916   4.028   0.993   0.962
    6SOL    HW1  917   4.072   1.047   0.890
    6SOL    HW2  918   3.968   1.052   1.017
    7SOL     OW  919   6.710   3.448   2.120
    7SOL    HW1  920   6.635   3.428   2.057
    7SOL    HW2  921   6.733   3.364   2.170
    8SOL     OW  922   2.903   0.450   6.998
    8SOL    HW1  923   2.822   0.497   0.017
    8SOL    HW2  924   2.896   0.352   0.001
    9SOL     OW  925   5.810   6.974   6.362
    9SOL    HW1  926   5.838   0.030   6.426
    9SOL    HW2  927   5.891   6.926   6.327
   10SOL     OW  928   1.566   5.231   6.459
   10SOL    HW1  929   1.500   5.156   6.451
   10SOL    HW2  930   1.658   5.194   6.457
   11SOL     OW  931   2.809   6.943   5.818
   11SOL    HW1  932   2.830   6.846   5.834
   11SOL    HW2  933   2.881   6.983   5.761
   12SOL     OW  934   3.970   5.973   2.923
   12SOL    HW1  935   3.992   6.069   2.910
   12SOL    HW2  936   4.045   5.927   2.972
   13SOL     OW  937   4.416   6.055   3.775
   13SOL    HW1  938   4.317   6.061   3.763
   13SOL    HW2  939   4.445   5.960   3.762
   14SOL     OW  940   3.334   5.871   6.105
   14SOL    HW1  941   3.320   5.970   6.108
   14SOL    HW2  942   3.388   5.843   6.185
   15SOL     OW  943   2.043   6.527   1.734
   15SOL    HW1  944   2.142   6.535   1.745
   15SOL    HW2  945   2.023   6.449   1.674
   16SOL     OW  946   5.138   2.761   5.530
   16SOL    HW1  947   5.232   2.778   5.502
   16SOL    HW2  948   5.137   2.688   5.599
   17SOL     OW  949   5.222   5.450   5.820
   17SOL    HW1  950   5.191   5.365   5.779
   17SOL    HW2  951   5.163   5.525   5.791
   18SOL     OW  952   3.088   1.011   5.870
   18SOL    HW1  953   3.139   0.938   5.823
   18SOL    HW2  954   3.070   1.086   5.806
   19SOL     OW  955   0.636   0.907   3.378
   19SOL    HW1  956   0.606   0.954   3.461
   19SOL    HW2  957   0.569   0.837   3.353
   20SOL     OW  958   5.684   2.364   4.687
   20SOL    HW1  959   5.782   2.345   4.678
   20SOL    HW2  960   5.672   2.450   4.737
   21SOL     OW  961   3.951   2.073   2.380
   21SOL    HW1  962   3.973   2.091   2.284
   21SOL    HW2  963   3.854   2.090   2.396
   22SOL     OW  964   1.699   6.300   0.529
   22SOL    HW1  965   1.790   6.333   0.554
   22SOL    HW2  966   1.682   6.212   0.574
   23SOL     OW  967   5.626   6.108   3.312
   23SOL    HW1  968   5.677   6.033   3.353
   23SOL    HW2  969   5.614   6.181   3.380
   24SOL     OW  970   4.919   0.938   3.496
   24SOL    HW1  971   4.940   0.974   3.587
   24SOL    HW2  972   4.848   0.868   3.503
   25SOL     OW  973   3.240   0.431   4.949
   25SOL    HW1  974   3.312   0.362   4.938
   25SOL    HW2  975   3.230   0.453   5.046
   26SOL     OW  976   6.690   0.935   0.349
   26SOL    HW1  977   6.673   1.010   0.413
   26SOL    HW2  978   6.634   0.856   0.373
   27SOL     OW  979   0.943   2.261   2.279
   27SOL    HW1  980   0.889   2.298   2.355
   27SOL    HW2  981   0.897   2.180   2.242
   28SOL     OW  982   2.952   1.931   5.664
   28SOL    HW1  983   2.885   1.948   5.591
   28SOL    HW2  984   3.022   2.002   5.662
   29SOL     OW  985   5.253   2.278   2.019
   29SOL    HW1  986   5.155   2.260   2.022
   29SOL    HW2  987   5.303   2.193   2.037
   30SOL     OW  988   3.785   0.999   4.476
   30SOL    HW1  989   3.855   1.016   4.546
   30SOL    HW2  990   3.736   0.915   4.498
   31SOL     OW  991   1.503   2.642   6.493
   31SOL    HW1  992   1.565   2.718   6.514
   31SOL    HW2  993   1.553   2.555   6.497
   32SOL     OW  994   0.421   1.756   2.483
   32SOL    HW1  995   0.484   1.681   2.464
   32SOL    HW2  996   0.385   1.746   2.576
   33SOL     OW  997   2.318   4.368   6.266
   33SOL    HW1  998   2.388   4.437   6.250
   33SOL    HW2  999   2.283   4.335   6.178
   34SOL     OW 1000   2.647   0.973   4.132
   34SOL    HW1 1001   2.725   1.024   4.168
   34SOL    HW2 1002   2.625   0.898   4.193
   35SOL     OW 1003   3.323   3.656   6.953
   35SOL    HW1 1004   3.420   3.677   6.957
   35SOL    HW2 1005   3.281   3.709   6.879
   36SOL     OW 1006   6.154   0.990   4.743
   36SOL    HW1 1007   6.239   1.037   4.768
   36SOL    HW2 1008   6.162   0.954   4.650
   37SOL     OW 1009   0.932   1.835   0.496
   37SOL    HW1 1010   0.846   1.786   0.486
   37SOL    HW2 1011   0.969   1.858   0.406
   38SOL     OW 1012   6.859   4.455   2.518
   38SOL    HW1 1013   6.884   4.414   2.430
   38SOL    HW2 1014   6.871   4.554   2.513
   39SOL     OW 1015   0.064   4.895   6.787
   39SOL    HW1 1016   0.077   4.850   6.876
   39SOL    HW2 1017   6.987   4.932   6.782
   40SOL     OW 1018   5.320   2.006   0.447
   40SOL    HW1 1019   5.270   1.939   0.392
   40SOL    HW2 1020   5.413   1.973   0.464
   41SOL     OW 1021   0.039   5.829   4.008
   41SOL    HW1 1022   0.014   5.830   4.104
   41SOL    HW2 1023   6.978   5.862   3.953
   42SOL     OW 1024   2.834   5.317   5.416
   42SOL    HW1 1025   2.933   5.310   5.407
   42SOL    HW2 1026   2.803   5.399   5.368
   43SOL     OW 1027   6.148   6.620   5.370
   43SOL    HW1 1028   6.064   6.616   5.424
   43SOL    HW2 1029   6.154   6.709   5.324
   44SOL     OW 1030   4.870   1.906   6.308
   44SOL    HW1 1031   4.898   1.856   6.390
   44SOL    HW2 1032   4.896   1.855   6.226
   45SOL     OW 1033   4.209   6.090   3.103
   45SOL    HW1 1034   4.309   6.090   3.106
   45SOL    HW2 1035   4.176   6.183   3.091
   46SOL     OW 1036   0.955   2.836   3.241
   46SOL    HW1 1037   0.897   2.788   3.307
   46SOL    HW2 1038   0.939   2.800   3.149
   47SOL     OW 1039   4.739   4.328   0.428
   47SOL    HW1 1040   4.707   4.287   0.342
   47SOL    HW2 1041   4.758   4.425   0.412
   48SOL     OW 1042   0.110   3.078   5.986
   48SOL    HW1 1043   0.110   3.097   5.888
   48SOL    HW2 1044   0.201   3.051   6.015
   49SOL     OW 1045   5.392   4.056   1.395
   49SOL    HW1 1046   5.434   3.966   1.386
   49SOL    HW2 1047   5.462   4.127   1.391
   50SOL     OW 1048   5.351   0.834   4.800
   50SOL    HW1 1049   5.363   0.883   4.713
   50SOL    HW2 1050   5.294   0.753   4.785
   51SOL     OW 1051   2.442   0.005   3.002
   51SOL    HW1 1052   2.490   0.088   2.973
   51SOL    HW2 1053   2.459   7.004   3.099
   52SOL     OW 1054   6.081   2.293   2.943
   52SOL    HW1 1055   6.171   2.250   2.954
   52SOL    HW2 1056   6.084   2.357   2.866
   53SOL     OW 1057   3.540   6.438   4.249
   53SOL    HW1 1058   3.535   6.399   4.341
   53SOL    HW2 1059   3.448   6.465   4.220
   54SOL     OW 1060   3.633   5.019   1.025
   54SOL    HW1 1061   3.717   5.005   1.077
   54SOL    HW2 1062   3.555   5.027   1.087
   55SOL     OW 1063   2.570   2.318   6.686
   55SOL    HW1 1064   2.641   2.262   6.643
   55SOL    HW2 1065   2.520   2.368   6.616
   56SOL     OW 1066   0.142   0.096   1.023
   56SOL    HW1 1067   0.098   0.183   1.000
   56SOL    HW2 1068   0.222   0.113   1.080
   57SOL     OW 1069   5.424   1.358   0.992
   57SOL    HW1 1070   5.377   1.275   0.964
   57SOL    HW2 1071   5.359   1.418   1.039
   58SOL     OW 1072   6.540   6.514   5.761
   58SOL    HW1 1073   6.632   6.499   5.799
   58SOL    HW2 1074   6.510   6.432   5.713
   59SOL     OW 1075   1.002   1.560   4.998
   59SOL    HW1 1076   0.985   1.595   5.089
   59SOL    HW2 1077   1.077   1.494   5.001
   60SOL     OW 1078   5.483   2.430   5.429
   60SOL    HW1 1079   5.559   2.440   5.364
   60SOL    HW2 1080   5.446   2.520   5.452
   61SOL     OW 1081   5.729   2.068   4.707
   61SOL    HW1 1082   5.777   2.119   4.778
   61SOL    HW2 1083   5.773   2.085   4.619
   62SOL     OW 1084   0.815   1.103   1.899
   62SOL    HW1 1085   0.808   1.093   1.799
   62SOL    HW2 1086   0.777   1.192   1.926
   63SOL     OW 1087   5.052   1.007   3.246
   63SOL    HW1 1088   5.145   0.970   3.244
   63SOL    HW2 1089   5.004   0.971   3.326
   64SOL     OW 1090   6.793   3.216   5.807
   64SOL    HW1 1091   6.812   3.291   5.870
   64SOL    HW2 1092   6.879   3.184   5.768
   65SOL     OW 1093   0.023   5.305   6.512
   65SOL    HW1 1094   7.000   5.319   6.421
   65SOL    HW2 1095   0.054   5.210   6.521
   66SOL     OW 1096   3.920   1.308   5.719
   66SOL    HW1 1097   4.015   1.291   5.745
   66SOL    HW2 1098   3.917   1.347   5.627
   67SOL     OW 1099   5.184   4.280   5.793
   67SOL    HW1 1100   5.117   4.282   5.720
   67SOL    HW2 1101   5.253   4.350   5.778
   68SOL     OW 1102   6.101   0.920   0.090
   68SOL    HW1 1103   6.115   0.995   0.025
   68SOL    HW2 1104   6.005   0.917   0.117
   69SOL     OW 1105   0.880   3.500   5.923
   69SOL    HW1 1106   0.796   3.456   5.956
   69SOL    HW2 1107   0.856   3.584   5.875
   70SOL     OW 1108   5.460   3.654   5.086
   70SOL    HW1 1109   5.392   3.727   5.077
   70SOL    HW2 1110   5.527   3.662   5.012
   71SOL     OW 1111   4.655   1.601   3.520
   71SOL    HW1 1112   4.603   1.591   3.435
   71SOL    HW2 1113   4.668   1.698   3.540
   72SOL     OW 1114   1.863   6.401   4.292
   72SOL    HW1 1115   1.959   6.383   4.270
   72SOL    HW2 1116   1.833   6.485   4.247
   73SOL     OW 1117   3.866   0.793   1.298
   73SOL    HW1 1118   3.848   0.875   1.352
   73SOL    HW2 1119   3.955   0.801   1.252
   74SOL     OW 1120   5.149   6.918   0.001
   74SOL    HW1 1121   5.124   6.906   6.921
   74SOL    HW2 1122   5.137   6.831   0.050
   75SOL     OW 1123   4.431   0.609   0.751
   75SOL    HW1 1124   4.391   0.592   0.841
   75SOL    HW2 1125   4.395   0.543   0.686
   76SOL     OW 1126   3.264   3.261   0.964
   76SOL    HW1 1127   3.182   3.318   0.959
   76SOL    HW2 1128   3.274   3.224   1.056
   77SOL     OW 1129   0.173   6.982   3.021
   77SOL    HW1 1130   0.186   6.899   3.075
   77SOL    HW2 1131   0.225   6.975   2.936
   78SOL     OW 1132   6.152   1.819   6.824
   78SOL    HW1 1133   6.093   1.749   6.865
   78SOL    HW2 1134   6.188   1.878   6.896
   79SOL     OW 1135   3.510   6.166   0.762
   79SOL    HW1 1136   3.610   6.163   0.764
   79SOL    HW2 1137   3.480   6.262   0.756
   80SOL     OW 1138   5.200   1.292   4.252
   80SOL    HW1 1139   5.179   1.200   4.286
   80SOL    HW2 1140   5.130   1.355   4.285
   81SOL     OW 1141   1.824   6.963   2.582
   81SOL    HW1 1142   1.735   6.926   2.609
   81SOL    HW2 1143   1.888   6.955   2.659
   82SOL     OW 1144   6.125   4.850   1.132
   82SOL    HW1 1145   6.065   4.876   1.056
   82SOL    HW2 1146   6.164   4.760   1.115
   83SOL     OW 1147   0.491   0.843   0.006
   83SOL    HW1 1148   0.580   0.812   0.040
   83SOL    HW2 1149   0.418   0.804   0.062
   84SOL     OW 1150   6.115   2.846   3.237
   84SOL    HW1 1151   6.195   2.902   3.256
   84SOL    HW2 1152   6.092   2.852   3.140
   85SOL     OW 1153   1.583   0.963   4.080
   85SOL    HW1 1154   1.646   1.039   4.070
   85SOL    HW2 1155   1.561   0.951   4.177
   86SOL     OW 1156   6.938   0.982   5.112
   86SOL    HW1 1157   7.006   1.049   5.143
   86SOL    HW2 1158   6.854   1.030   5.085
   87SOL     OW 1159   4.699   3.736   0.854
   87SOL    HW1 1160   4.799   3.737   0.843
   87SOL    HW2 1161   4.667   3.642   0.848
   88SOL     OW 1162   3.518   1.725   5.287
   88SOL    HW1 1163   3.526   1.633   5.326
   88SOL    HW2 1164   3.585   1.785   5.331
   89SOL     OW 1165   1.220   2.629   5.824
   89SOL    HW1 1166   1.280   2.549   5.827
   89SOL    HW2 1167   1.152   2.623   5.897
   90SOL     OW 1168   3.452   4.867   2.602
   90SOL    HW1 1169   3.514   4.862   2.524
   90SOL    HW2 1170   3.362   4.832   2.575
   91SOL     OW 1171   5.508   4.335   5.586
   91SOL    HW1 1172   5.456   4.404   5.636
   91SOL    HW2 1173   5.467   4.245   5.602
   92SOL     OW 1174   3.891   4.755   0.685
   92SOL    HW1 1175   3.837   4.780   0.605
   92SOL    HW2 1176   3.979   4.717   0.655
   93SOL     OW 1177   3.182   4.197   0.056
   93SOL    HW1 1178   3.202   4.276   7.014
   93SOL    HW2 1179   3.092   4.160   0.033
   94SOL     OW 1180   2.052   5.814   6.580
   94SOL    HW1 1181   2.104   5.737   6.543
   94SOL    HW2 1182   1.981   5.779   6.641
   95SOL     OW 1183   1.056   0.321   4.059
   95SOL    HW1 1184   1.114   0.245   4.087
   95SOL    HW2 1185   1.053   0.389   4.132
   96SOL     OW 1186   3.285   0.693   4.965
   96SOL    HW1 1187   3.238   0.755   4.903
   96SOL    HW2 1188   3.265   0.598   4.939
   97SOL     OW 1189   2.216   3.385   5.733
   97SOL    HW1 1190   2.226   3.286   5.722
   97SOL    HW2 1191   2.180   3.405   5.823
   98SOL     OW 1192   0.369   3.525   0.788
   98SOL    HW1 1193   0.465   3.498   0.801
   98SOL    HW2 1194   0.355   3.555   0.694
   99SOL     OW 1195   3.779   3.009   1.050
   99SOL    HW1 1196   3.878   2.999   1.042
   99SOL    HW2 1197   3.757   3.053   1.137
  100SOL     OW 1198   6.968   0.207   4.962
  100SOL    HW1 1199   6.958   0.278   5.032
  100SOL    HW2 1200   6.956   0.117   5.004
  101SOL     OW 1201   1.697   5.227   2.153
  101SOL    HW1 1202   1.653   5.220   2.063
  101SOL    HW2 1203   1.667   5.151   2.210
  102SOL     OW 1204   4.196   5.674   2.327
  102SOL    HW1 1205   4.174   5.745   2.259
  102SOL    HW2 1206   4.295   5.666   2.335
  103SOL     OW 1207   2.357   1.810   1.742
  103SOL    HW1 1208   2.334   1.904   1.715
  103SOL    HW2 1209   2.451   1.807   1.778
  104SOL     OW 1210   1.080   5.443   2.521
  104SOL    HW1 1211   1.092   5.519   2.457
  104SOL    HW2 1212   1.169   5.400   2.538
  105SOL     OW 1213   6.548   2.227   6.411
  105SOL    HW1 1214   6.452   2.201   6.415
  105SOL    HW2 1215   6.557   2.324   6.434
  106SOL     OW 1216   3.594   6.221   4.810
  106SOL    HW1 1217   3.676   6.277   4.804
  106SOL    HW2 1218   3.515   6.273   4.777
  107SOL     OW 1219   1.516   1.555   1.589
  107SOL    HW1 1220   1.468   1.640   1.612
  107SOL    HW2 1221   1.461   1.503   1.523
  108SOL     OW 1222   2.551   6.282   5.484
  108SOL    HW1 1223   2.632   6.334   5.456
  108SOL    HW2 1224   2.557   6.189   5.448
  109SOL     OW 1225   0.197   0.084   1.956
  109SOL    HW1 1226   0.285   0.094   1.909
  109SOL    HW2 1227   0.162   7.008   1.940
  110SOL     OW 1228   3.318   5.897   4.683
  110SOL    HW1 1229   3.334   5.930   4.590
  110SOL    HW2 1230   3.225   5.861   4.690
  111SOL     OW 1231   2.134   0.987   4.477
  111SOL    HW1 1232   2.141   0.999   4.576
  111SOL    HW2 1233   2.158   0.893   4.454
  112SOL     OW 1234   3.647   6.578   6.724
  112SOL    HW1 1235   3.601   6.663   6.752
  112SOL    HW2 1236   3.589   6.529   6.660
  113SOL     OW 1237   0.398   5.498   3.323
  113SOL    HW1 1238   0.434   5.405   3.324
  113SOL    HW2 1239   0.421   5.543   3.410
  114SOL     OW 1240   1.117   6.939   2.359
  114SOL    HW1 1241   1.095   0.019   2.379
  114SOL    HW2 1242   1.145   6.930   2.264
  115SOL     OW 1243   4.696   1.432   3.114
  115SOL    HW1 1244   4.699   1.337   3.145
  115SOL    HW2 1245   4.648   1.437   3.027
  116SOL     OW 1246   6.140   5.416   1.984
  116SOL    HW1 1247   6.161   5.353   1.910
  116SOL    HW2 1248   6.134   5.509   1.948
  117SOL     OW 1249   1.883   2.106   0.467
  117SOL    HW1 1250   1.804   2.132   0.522
  117SOL    HW2 1251   1.863   2.023   0.416
  118SOL     OW 1252   1.533   0.761   2.504
  118SOL    HW1 1253   1.501   0.809   2.585
  118SOL    HW2 1254   1.588   0.682   2.530
  119SOL     OW 1255   0.581   0.345   0.067
  119SOL    HW1 1256   0.676   0.352   0.097
  119SOL    HW2 1257   0.573   0.375   6.988
  120SOL     OW 1258   5.566   6.835   6.415
  120SOL    HW1 1259   5.543   6.875   6.504
  120SOL    HW2 1260   5.631   6.894   6.368
  121SOL     OW 1261   1.129   3.410   5.934
  121SOL    HW1 1262   1.031   3.418   5.951
  121SOL    HW2 1263   1.144   3.354   5.853
  122SOL     OW 1264   1.812   3.631   5.720
  122SOL    HW1 1265   1.737   3.600   5.778
  122SOL    HW2 1266   1.831   3.562   5.650
  123SOL     OW 1267   0.638   1.121   2.826
  123SOL    HW1 1268   0.643   1.036   2.773
  123SOL    HW2 1269   0.562   1.115   2.891
  124SOL     OW 1270   3.627   2.774   0.443
  124SOL    HW1 1271   3.574   2.722   0.510
  124SOL    HW2 1272   3.567   2.838   0.396
  125SOL     OW 1273   3.152   1.795   0.459
  125SOL    HW1 1274   3.238   1.846   0.450
  125SOL    HW2 1275   3.076   1.850   0.423
  126SOL     OW 1276   1.964   4.505   0.654
  126SOL    HW1 1277   2.059   4.524   0.633
  126SOL    HW2 1278   1.937   4.418   0.611
  127SOL     OW 1279   0.764   5.172   6.902
  127SOL    HW1 1280   0.778   5.073   6.903
  127SOL    HW2 1281   0.685   5.194   6.846
  128SOL     OW 1282   5.424   2.326   1.478
  128SOL    HW1 1283   5.369   2.405   1.451
  128SOL    HW2 1284   5.521   2.346   1.461
  129SOL     OW 1285   2.357   3.465   6.096
  129SOL    HW1 1286   2.352   3.424   6.187
  129SOL    HW2 1287   2.433   3.425   6.045
  130SOL     OW 1288   1.536   2.210   4.362
  130SOL    HW1 1289   1.538   2.152   4.282
  130SOL    HW2 1290   1.540   2.154   4.445
  131SOL     OW 1291   4.911   1.050   3.011
  131SOL    HW1 1292   4.968   1.056   3.092
  131SOL    HW2 1293   4.888   0.955   2.993
  132SOL     OW 1294   3.173   3.075   1.452
  132SOL    HW1 1295   3.179   3.140   1.527
  132SOL    HW2 1296   3.081   3.035   1.450
  133SOL     OW 1297   5.399   0.256   4.505
  133SOL    HW1 1298   5.311   0.299   4.523
  133SOL    HW2 1299   5.473   0.320   4.529
  134SOL     OW 1300   6.575   0.659   2.464
  134SOL    HW1 1301   6.507   0.636   2.534
  134SOL    HW2 1302   6.537   0.729   2.403
  135SOL     OW 1303   5.331   3.521   3.537
  135SOL    HW1 1304   5.254   3.582   3.517
  135SOL    HW2 1305   5.312   3.431   3.497
  136SOL     OW 1306   2.390   4.828   5.960
  136SOL    HW1 1307   2.397   4.854   6.056
  136SOL    HW2 1308   2.313   4.765   5.948
  137SOL     OW 1309   5.925   2.518   3.237
  137SOL    HW1 1310   5.875   2.525   3.150
  137SOL    HW2 1311   5.934   2.422   3.262
  138SOL     OW 1312   1.251   4.710   2.244
  138SOL    HW1 1313   1.295   4.793   2.209
  138SOL    HW2 1314   1.315   4.634   2.241
  139SOL     OW 1315   1.659   6.977   5.044
  139SOL    HW1 1316   1.571   6.938   5.071
  139SOL    HW2 1317   1.711   6.909   4.993
  140SOL     OW 1318   1.592   6.260   3.494
  140SOL    HW1 1319   1.651   6.282   3.571
  140SOL    HW2 1320   1.632   6.185   3.442
  141SOL     OW 1321   0.630   2.472   5.213
  141SOL    HW1 1322   0.694   2.403   5.180
  141SOL    HW2 1323   0.617   2.542   5.143
  142SOL     OW 1324   1.393   3.685   1.221
  142SOL    HW1 1325   1.334   3.746   1.275
  142SOL    HW2 1326   1.366   3.690   1.125
  143SOL     OW 1327   5.971   4.171   0.542
  143SOL    HW1 1328   6.002   4.118   0.463
  143SOL    HW2 1329   5.874   4.190   0.534
  144SOL     OW 1330   1.783   4.832   5.959
  144SOL    HW1 1331   1.846   4.825   5.882
  144SOL    HW2 1332   1.724   4.751   5.961
  145SOL     OW 1333   0.460   5.547   0.697
  145SOL    HW1 1334   0.442   5.640   0.731
  145SOL    HW2 1335   0.554   5.542   0.662
  146SOL     OW 1336   4.794   0.546   6.169
  146SOL    HW1 1337   4.835   0.545   6.078
  146SOL    HW2 1338   4.724   0.475   6.175
  147SOL     OW 1339   5.799   3.458   0.026
  147SOL    HW1 1340   5.724   3.434   6.980
  147SOL    HW2 1341   5.816   3.383   0.089
  148SOL     OW 1342   6.889   5.577   0.285
  148SOL    HW1 1343   6.960   5.630   0.240
  148SOL    HW2 1344   6.928   5.528   0.363
  149SOL     OW 1345   3.786   2.140   4.211
  149SOL    HW1 1346   3.810   2.115   4.117
  149SOL    HW2 1347   3.688   2.126   4.226
  150SOL     OW 1348   5.858   6.762   0.926
  150SOL    HW1 1349   5.918   6.762   1.006
  150SOL    HW2 1350   5.894   6.823   0.856
  151SOL     OW 1351   3.104   2.759   1.096
  151SOL    HW1 1352   3.096   2.672   1.144
  151SOL    HW2 1353   3.037   2.763   1.022
  152SOL     OW 1354   0.268   0.784   1.632
  152SOL    HW1 1355   0.211   0.841   1.573
  152SOL    HW2 1356   0.214   0.754   1.711
  153SOL     OW 1357   2.971   0.896   2.770
  153SOL    HW1 1358   2.943   0.921   2.678
  153SOL    HW2 1359   3.063   0.858   2.768
  154SOL     OW 1360   0.517   2.884   2.015
  154SOL    HW1 1361   0.519   2.904   1.917
  154SOL    HW2 1362   0.492   2.967   2.065
  155SOL     OW 1363   0.632   1.773   4.162
  155SOL    HW1 1364   0.729   1.779   4.186
  155SOL    HW2 1365   0.609   1.846   4.097
  156SOL     OW 1366   6.683   1.466   0.406
  156SOL    HW1 1367   6.704   1.550   0.357
  156SOL    HW2 1368   6.768   1.414   0.421
  157SOL     OW 1369   5.132   3.638   2.039
  157SOL    HW1 1370   5.065   3.674   2.104
  157SOL    HW2 1371   5.221   3.679   2.056
  158SOL     OW 1372   2.010   4.346   2.453
  158SOL    HW1 1373   2.013   4.404   2.372
  158SOL    HW2 1374   2.055   4.259   2.434
  159SOL     OW 1375   4.776   4.352   2.472
  159SOL    HW1 1376   4.853   4.409   2.500
  159SOL    HW2 1377   4.698   4.411   2.449
  160SOL     OW 1378   5.203   5.570   0.955
  160SOL    HW1 1379   5.242   5.486   0.991
  160SOL    HW2 1380   5.276   5.630   0.922
  161SOL     OW 1381   1.760   6.163   4.132
  161SOL    HW1 1382   1.832   6.115   4.082
  161SOL    HW2 1383   1.801   6.219   4.204
  162SOL     OW 1384   3.620   6.041   0.387
  162SOL    HW1 1385   3.718   6.054   0.403
  162SOL    HW2 1386   3.580   5.992   0.464
  163SOL     OW 1387   5.906   5.640   1.027
  163SOL    HW1 1388   5.871   5.734   1.018
  163SOL    HW2 1389   5.977   5.625   0.958
  164SOL     OW 1390   0.163   4.127   1.756
  164SOL    HW1 1391   0.103   4.079   1.820
  164SOL    HW2 1392   0.111   4.151   1.674
  165SOL     OW 1393   4.954   3.517   1.418
  165SOL    HW1 1394   5.048   3.529   1.448
  165SOL    HW2 1395   4.936   3.420   1.403
  166SOL     OW 1396   0.781   3.778   2.739
  166SOL    HW1 1397   0.816   3.755   2.829
  166SOL    HW2 1398   0.718   3.706   2.709
  167SOL     OW 1399   5.181   3.021   6.969
  167SOL    HW1 1400   5.188   2.973   6.882
  167SOL    HW2 1401   5.206   2.960   0.028
  168SOL     OW 1402   3.236   3.448   1.246
  168SOL    HW1 1403   3.275   3.358   1.225
  168SOL    HW2 1404   3.173   3.474   1.172
  169SOL     OW 1405   5.325   2.068   1.807
  169SOL    HW1 1406   5.227   2.064   1.789
  169SOL    HW2 1407   5.354   2.163   1.810
  170SOL     OW 1408   1.009   0.584   2.756
  170SOL    HW1 1409   1.048   0.676   2.746
  170SOL    HW2 1410   1.063   0.519   2.703
  171SOL     OW 1411   3.053   4.854   6.533
  171SOL    HW1 1412   3.032   4.830   6.438
  171SOL    HW2 1413   3.009   4.789   6.595
  172SOL     OW 1414   6.781   1.389   2.665
  172SOL    HW1 1415   6.718   1.464   2.682
  172SOL    HW2 1416   6.734   1.316   2.614
  173SOL     OW 1417   5.546   1.588   4.232
  173SOL    HW1 1418   5.546   1.642   4.148
  173SOL    HW2 1419   5.636   1.595   4.276
  174SOL     OW 1420   4.058   5.089   3.691
  174SOL    HW1 1421   4.133   5.072   3.627
  174SOL    HW2 1422   4.048   5.010   3.752
  175SOL     OW 1423   3.326   0.409   1.968
  175SOL    HW1 1424   3.279   0.324   1.992
  175SOL    HW2 1425   3.265   0.467   1.915
  176SOL     OW 1426   0.257   4.357   0.820
  176SOL    HW1 1427   0.222   4.401   0.903
  176SOL    HW2 1428   0.346   4.397   0.796
  177SOL     OW 1429   5.141   2.605   2.620
  177SOL    HW1 1430   5.236   2.576   2.608
  177SOL    HW2 1431   5.102   2.629   2.532
  178SOL     OW 1432   2.309   3.167   6.423
  178SOL    HW1 1433   2.235   3.226   6.392
  178SOL    HW2 1434   2.386   3.173   6.359
  179SOL     OW 1435   3.896   1.496   5.487
  179SOL    HW1 1436   3.839   1.576   5.466
  179SOL    HW2 1437   3.884   1.427   5.416
  180SOL     OW 1438   2.142   6.868   0.142
  180SOL    HW1 1439   2.154   6.956   0.095
  180SOL    HW2 1440   2.084   6.808   0.087
  181SOL     OW 1441   3.345   3.384   6.411
  181SOL    HW1 1442   3.416   3.419   6.351
  181SOL    HW2 1443   3.380   3.304   6.461
  182SOL     OW 1444   3.461   2.052   5.614
  182SOL    HW1 1445   3.424   2.048   5.707
  182SOL    HW2 1446   3.385   2.049   5.548
  183SOL     OW 1447   4.059   2.169   3.257
  183SOL    HW1 1448   4.128   2.205   3.193
  183SOL    HW2 1449   3.968   2.180   3.217
  184SOL     OW 1450   0.913   6.522   4.854
  184SOL    HW1 1451   1.002   6.565   4.839
  184SOL    HW2 1452   0.883   6.538   4.948
  185SOL     OW 1453   1.055   1.069   6.138
  185SOL    HW1 1454   0.969   1.020   6.123
  185SOL    HW2 1455   1.126   1.031   6.080
  186SOL     OW 1456   5.584   0.413   4.264
  186SOL    HW1 1457   5.572   0.431   4.167
  186SOL    HW2 1458   5.649   0.338   4.277
  187SOL     OW 1459   4.773   0.272   2.407
  187SOL    HW1 1460   4.829   0.353   2.390
  187SOL    HW2 1461   4.800   0.230   2.494
  188SOL     OW 1462   0.853   2.313   3.537
  188SOL    HW1 1463   0.950   2.293   3.552
  188SOL    HW2 1464   0.833   2.312   3.440
  189SOL     OW 1465   2.429   5.241   1.702
  189SOL    HW1 1466   2.484   5.187   1.765
  189SOL    HW2 1467   2.467   5.236   1.610
  190SOL     OW 1468   5.274   2.615   4.634
  190SOL    HW1 1469   5.268   2.532   4.689
  190SOL    HW2 1470   5.229   2.690   4.682
  191SOL     OW 1471   5.494   0.325   0.020
  191SOL    HW1 1472   5.445   0.240   0.003
  191SOL    HW2 1473   5.576   0.305   0.074
  192SOL     OW 1474   1.227   5.354   1.570
  192SOL    HW1 1475   1.250   5.263   1.606
  192SOL    HW2 1476   1.133   5.355   1.538
  193SOL     OW 1477   4.449   3.627   5.303
  193SOL    HW1 1478   4.376   3.649   5.238
  193SOL    HW2 1479   4.521   3.575   5.256
  194SOL     OW 1480   4.457   1.223   3.318
  194SOL    HW1 1481   4.544   1.212   3.269
  194SOL    HW2 1482   4.422   1.133   3.344
  195SOL     OW 1483   1.707   0.206   5.209
  195SOL    HW1 1484   1.661   0.271   5.149
  195SOL    HW2 1485   1.700   0.114   5.170
  196SOL     OW 1486   2.259   0.783   0.942
  196SOL    HW1 1487   2.243   0.720   0.867
  196SOL    HW2 1488   2.357   0.787   0.962
  197SOL     OW 1489   2.821   0.091   1.399
  197SOL    HW1 1490   2.736   0.143   1.412
  197SOL    HW2 1491   2.800   7.009   1.394
  198SOL     OW 1492   5.064   0.488   1.456
  198SOL    HW1 1493   5.031   0.582   1.463
  198SOL    HW2 1494   5.048   0.454   1.363
  199SOL     OW 1495   0.168   1.232   3.903
  199SOL    HW1 1496   0.222   1.301   3.855
  199SOL    HW2 1497   0.141   1.267   3.992
  200SOL     OW 1498   0.983   4.228   1.884
  200SOL    HW1 1499   0.915   4.278   1.938
  200SOL    HW2 1500   1.023   4.289   1.816
  201SOL     OW 1501   6.301   6.804   5.845
  201SOL    HW1 1502   6.316   6.845   5.935
  201SOL    HW2 1503   6.206   6.816   5.818
  202SOL     OW 1504   4.692   1.143   0.023
  202SOL    HW1 1505   4.694   1.234   0.064
  202SOL    HW2 1506   4.614   1.136   6.977
  203SOL     OW 1507   5.243   2.325   5.085
  203SOL    HW1 1508   5.329   2.345   5.131
  203SOL    HW2 1509   5.184   2.405   5.088
  204SOL     OW 1510   0.527   0.621   5.702
  204SOL    HW1 1511   0.429   0.620   5.723
  204SOL    HW2 1512   0.552   0.709   5.662
  205SOL     OW 1513   0.569   1.367   2.744
  205SOL    HW1 1514   0.589   1.276   2.781
  205SOL    HW2 1515   0.506   1.358   2.667
  206SOL     OW 1516   0.266   4.146   1.008
  206SOL    HW1 1517   0.254   4.224   0.947
  206SOL    HW2 1518   0.199   4.075   0.983
  207SOL     OW 1519   6.082   1.664   3.376
  207SOL    HW1 1520   6.092   1.736   3.307
  207SOL    HW2 1521   6.059   1.705   3.464
  208SOL     OW 1522   6.108   3.132   4.864
  208SOL    HW1 1523   6.176   3.204   4.881
  208SOL    HW2 1524   6.031   3.144   4.926
  209SOL     OW 1525   0.584   4.456   3.577
  209SOL    HW1 1526   0.605   4.534   3.517
  209SOL    HW2 1527   0.591   4.485   3.673
  210SOL     OW 1528   4.087   2.369   0.989
  210SOL    HW1 1529   3.987   2.370   0.987
  210SOL    HW2 1530   4.119   2.385   1.083
  211SOL     OW 1531   2.007   6.100   2.977
  211SOL    HW1 1532   1.971   6.024   2.923
  211SOL    HW2 1533   1.935   6.134   3.038
  212SOL     OW 1534   1.345   4.068   1.865
  212SOL    HW1 1535   1.325   4.156   1.907
  212SOL    HW2 1536   1.439   4.042   1.885
  213SOL     OW 1537   3.141   0.806   0.473
  213SOL    HW1 1538   3.158   0.835   0.379
  213SOL    HW2 1539   3.061   0.854   0.508
  214SOL     OW 1540   4.484   4.582   1.592
  214SOL    HW1 1541   4.450   4.491   1.615
  214SOL    HW2 1542   4.429   4.651   1.639
  215SOL     OW 1543   2.488   4.183   0.638
  215SOL    HW1 1544   2.574   4.140   0.664
  215SOL    HW2 1545   2.470   4.167   0.541
  216SOL     OW 1546   2.014   6.219   3.948
  216SOL    HW1 1547   2.021   6.254   4.042
  216SOL    HW2 1548   2.032   6.120   3.949
  217SOL     OW 1549   0.967   2.075   3.785
  217SOL    HW1 1550   0.929   2.164   3.808
  217SOL    HW2 1551   0.896   2.019   3.741
  218SOL     OW 1552   0.365   3.857   4.407
  218SOL    HW1 1553   0.284   3.853   4.465
  218SOL    HW2 1554   0.444   3.820   4.457
  219SOL     OW 1555   4.288   0.010   6.532
  219SOL    HW1 1556   4.356   0.032   6.461
  219SOL    HW2 1557   4.312   0.058   6.617
  220SOL     OW 1558   2.835   0.100   1.110
  220SOL    HW1 1559   2.879   0.186   1.086
  220SOL    HW2 1560   2.847   0.082   1.208
  221SOL     OW 1561   0.126   3.403   0.837
  221SOL    HW1 1562   0.148   3.315   0.879
  221SOL    HW2 1563   0.210   3.451   0.814
  222SOL     OW 1564   1.727   5.302   5.611
  222SOL    HW1 1565   1.771   5.392   5.604
  222SOL    HW2 1566   1.660   5.304   5.685
  223SOL     OW 1567   6.018   3.277   6.760
  223SOL    HW1 1568   5.922   3.249   6.752
  223SOL    HW2 1569   6.043   3.334   6.682
  224SOL     OW 1570   1.860   1.215   4.671
  224SOL    HW1 1571   1.931   1.284   4.680
  224SOL    HW2 1572   1.819   1.197   4.760
  225SOL     OW 1573   4.057   3.182   6.157
  225SOL    HW1 1574   4.153   3.198   6.181
  225SOL    HW2 1575   4.053   3.136   6.067
  226SOL     OW 1576   2.354   1.268   5.969
  226SOL    HW1 1577   2.273   1.326   5.965
  226SOL    HW2 1578   2.333   1.185   6.021
  227SOL     OW 1579   1.616   3.868   2.179
  227SOL    HW1 1580   1.664   3.850   2.265
  227SOL    HW2 1581   1.520   3.890   2.199
  228SOL     OW 1582   2.783   6.509   3.827
  228SOL    HW1 1583   2.876   6.475   3.818
  228SOL    HW2 1584   2.720   6.432   3.842
  229SOL     OW 1585   5.929   6.001   6.961
  229SOL    HW1 1586   5.848   5.967   7.009
  229SOL    HW2 1587   5.916   6.097   6.939
  230SOL     OW 1588   3.216   5.382   4.097
  230SOL    HW1 1589   3.222   5.283   4.092
  230SOL    HW2 1590   3.308   5.422   4.098
  231SOL     OW 1591   6.265   2.159   5.717
  231SOL    HW1 1592   6.250   2.178   5.814
  231SOL    HW2 1593   6.357   2.123   5.703
  232SOL     OW 1594   0.803   3.051   6.589
  232SOL    HW1 1595   0.840   3.014   6.504
  232SOL    HW2 1596   0.720   3.103   6.569
  233SOL     OW 1597   2.936   1.379   2.813
  233SOL    HW1 1598   2.989   1.381   2.897
  233SOL    HW2 1599   2.838   1.376   2.835
  234SOL     OW 1600   5.240   0.428   5.533
  234SOL    HW1 1601   5.264   0.366   5.458
  234SOL    HW2 1602   5.187   0.505   5.498
  235SOL     OW 1603   3.393   2.573   1.496
  235SOL    HW1 1604   3.416   2.587   1.592
  235SOL    HW2 1605   3.432   2.486   1.465
  236SOL     OW 1606   4.953   3.106   6.505
  236SOL    HW1 1607   4.861   3.068   6.509
  236SOL    HW2 1608   5.016   3.038   6.467
  237SOL     OW 1609   6.071   4.492   1.501
  237SOL    HW1 1610   6.059   4.536   1.590
  237SOL    HW2 1611   6.169   4.486   1.480
  238SOL     OW 1612   4.674   2.251   0.565
  238SOL    HW1 1613   4.584   2.252   0.607
  238SOL    HW2 1614   4.733   2.319   0.610
  239SOL     OW 1615   0.566   5.287   6.755
  239SOL    HW1 1616   0.622   5.333   6.686
  239SOL    HW2 1617   0.470   5.293   6.729
  240SOL     OW 1618   0.147   2.618   3.211
  240SOL    HW1 1619   0.201   2.600   3.128
  240SOL    HW2 1620   0.096   2.536   3.236
  241SOL     OW 1621   2.350   1.112   5.293
  241SOL    HW1 1622   2.279   1.134   5.226
  241SOL    HW2 1623   2.332   1.022   5.333
  242SOL     OW 1624   3.439   3.294   4.634
  242SOL    HW1 1625   3.493   3.368   4.674
  242SOL    HW2 1626   3.486   3.207   4.649
  243SOL     OW 1627   3.930   0.820   5.670
  243SOL    HW1 1628   4.023   0.847   5.694
  243SOL    HW2 1629   3.934   0.754   5.594
  244SOL     OW 1630   6.161   2.861   4.907
  244SOL    HW1 1631   6.099   2.849   4.985
  244SOL    HW2 1632   6.153   2.955   4.873
  245SOL     OW 1633   5.533   4.155   4.013
  245SOL    HW1 1634   5.580   4.077   3.973
  245SOL    HW2 1635   5.588   4.238   3.998
  246SOL     OW 1636   4.581   2.616   3.547
  246SOL    HW1 1637   4.533   2.580   3.627
  246SOL    HW2 1638   4.525   2.603   3.466
  247SOL     OW 1639   3.141   1.627   1.405
  247SOL    HW1 1640   3.170   1.533   1.389
  247SOL    HW2 1641   3.074   1.653   1.335
  248SOL     OW 1642   3.534   1.583   2.704
  248SOL    HW1 1643   3.615   1.617   2.657
  248SOL    HW2 1644   3.524   1.485   2.687
  249SOL     OW 1645   4.482   0.747   4.957
  249SOL    HW1 1646   4.421   0.762   5.035
  249SOL    HW2 1647   4.428   0.734   4.874
  250SOL     OW 1648   5.098   2.590   0.963
  250SOL    HW1 1649   5.016   2.620   0.915
  250SOL    HW2 1650   5.073   2.554   1.053
  251SOL     OW 1651   4.269   4.172   5.759
  251SOL    HW1 1652   4.273   4.117   5.676
  251SOL    HW2 1653   4.212   4.127   5.827
  252SOL     OW 1654   6.592   6.128   0.200
  252SOL    HW1 1655   6.503   6.123   0.154
  252SOL    HW2 1656   6.590   6.202   0.267
  253SOL     OW 1657   2.766   5.521   6.725
  253SOL    HW1 1658   2.763   5.620   6.737
  253SOL    HW2 1659   2.712   5.476   6.796
  254SOL     OW 1660   5.236   3.023   3.930
  254SOL    HW1 1661   5.211   2.999   3.836
  254SOL    HW2 1662   5.291   2.949   3.970
  255SOL     OW 1663   1.788   3.247   4.830
  255SOL    HW1 1664   1.867   3.205   4.874
  255SOL    HW2 1665   1.760   3.328   4.880
  256SOL     OW 1666   6.371   3.813   5.967
  256SOL    HW1 1667   6.456   3.792   5.920
  256SOL    HW2 1668   6.390   3.866   6.049
  257SOL     OW 1669   4.661   7.015   3.331
  257SOL    HW1 1670   4.651   0.082   3.386
  257SOL    HW2 1671   4.619   6.938   3.379
  258SOL     OW 1672   1.953   5.001   4.685
  258SOL    HW1 1673   2.007   4.920   4.705
  258SOL    HW2 1674   1.872   5.002   4.745
  259SOL     OW 1675   0.830   2.094   1.878
  259SOL    HW1 1676   0.805   2.105   1.974
  259SOL    HW2 1677   0.915   2.142   1.859
  260SOL     OW 1678   4.659   1.083   0.804
  260SOL    HW1 1679   4.691   1.024   0.879
  260SOL    HW2 1680   4.707   1.060   0.720
  261SOL     OW 1681   6.579   3.455   0.841
  261SOL    HW1 1682   6.500   3.516   0.854
  261SOL    HW2 1683   6.578   3.419   0.748
  262SOL     OW 1684   6.964   3.932   0.324
  262SOL    HW1 1685   6.939   3.843   0.361
  262SOL    HW2 1686   6.910   4.003   0.369
  263SOL     OW 1687   1.247   0.780   3.641
  263SOL    HW1 1688   1.299   0.708   3.594
  263SOL    HW2 1689   1.266   0.868   3.599
  264SOL     OW 1690   5.758   3.230   6.663
  264SOL    HW1 1691   5.793   3.253   6.573
  264SOL    HW2 1692   5.696   3.302   6.695
  265SOL     OW 1693   5.046   5.732   2.718
  265SOL    HW1 1694   5.074   5.638   2.698
  265SOL    HW2 1695   4.962   5.731   2.771
  266SOL     OW 1696   3.133   3.053   5.503
  266SOL    HW1 1697   3.218   3.073   5.454
  266SOL    HW2 1698   3.102   3.135   5.551
  267SOL     OW 1699   0.474   1.546   6.636
  267SOL    HW1 1700   0.465   1.618   6.705
  267SOL    HW2 1701   0.469   1.457   6.680
  268SOL     OW 1702   3.662   0.862   5.828
  268SOL    HW1 1703   3.740   0.800   5.824
  268SOL    HW2 1704   3.694   0.956   5.834
  269SOL     OW 1705   1.045   3.696   2.008
  269SOL    HW1 1706   0.958   3.740   2.028
  269SOL    HW2 1707   1.087   3.740   1.928
  270SOL     OW 1708   0.487   0.150   0.239
  270SOL    HW1 1709   0.389   0.132   0.239
  270SOL    HW2 1710   0.510   0.217   0.168
  271SOL     OW 1711   1.227   1.544   6.801
  271SOL    HW1 1712   1.169   1.520   6.879
  271SOL    HW2 1713   1.206   1.637   6.770
  272SOL     OW 1714   3.171   5.335   4.505
  272SOL    HW1 1715   3.078   5.330   4.469
  272SOL    HW2 1716   3.211   5.424   4.481
  273SOL     OW 1717   2.284   4.145   4.583
  273SOL    HW1 1718   2.285   4.049   4.610
  273SOL    HW2 1719   2.285   4.203   4.664
  274SOL     OW 1720   4.209   1.828   3.037
  274SOL    HW1 1721   4.136   1.850   2.972
  274SOL    HW2 1722   4.245   1.737   3.017
  275SOL     OW 1723   5.953   4.804   5.461
  275SOL    HW1 1724   6.006   4.753   5.528
  275SOL    HW2 1725   5.928   4.893   5.499
  276SOL     OW 1726   0.388   6.131   2.481
  276SOL    HW1 1727   0.308   6.186   2.503
  276SOL    HW2 1728   0.416   6.150   2.387
  277SOL     OW 1729   1.128   3.938   0.827
  277SOL    HW1 1730   1.223   3.950   0.798
  277SOL    HW2 1731   1.071   4.007   0.782
  278SOL     OW 1732   5.950   5.132   1.927
  278SOL    HW1 1733   5.957   5.081   1.842
  278SOL    HW2 1734   6.037   5.125   1.977
  279SOL     OW 1735   6.619   2.844   4.410
  279SOL    HW1 1736   6.629   2.800   4.321
  279SOL    HW2 1737   6.538   2.904   4.408
  280SOL     OW 1738   3.156   0.289   3.312
  280SOL    HW1 1739   3.233   0.252   3.260
  280SOL    HW2 1740   3.091   0.332   3.249
  281SOL     OW 1741   2.788   4.732   2.502
  281SOL    HW1 1742   2.720   4.805   2.500
  281SOL    HW2 1743   2.798   4.693   2.410
  282SOL     OW 1744   3.344   1.478   5.424
  282SOL    HW1 1745   3.302   1.505   5.510
  282SOL    HW2 1746   3.316   1.541   5.351
  283SOL     OW 1747   6.619   1.737   6.114
  283SOL    HW1 1748   6.712   1.754   6.082
  283SOL    HW2 1749   6.614   1.756   6.212
  284SOL     OW 1750   1.174   3.829   4.341
  284SOL    HW1 1751   1.258   3.881   4.358
  284SOL    HW2 1752   1.120   3.822   4.425
  285SOL     OW 1753   6.135   4.677   5.642
  285SOL    HW1 1754   6.047   4.673   5.690
  285SOL    HW2 1755   6.186   4.756   5.675
  286SOL     OW 1756   3.590   5.995   5.236
  286SOL    HW1 1757   3.522   5.927   5.263
  286SOL    HW2 1758   3.591   6.003   5.136
  287SOL     OW 1759   0.115   4.517   6.708
  287SOL    HW1 1760   0.178   4.536   6.782
  287SOL    HW2 1761   0.023   4.501   6.745
  288SOL     OW 1762   3.453   1.764   6.006
  288SOL    HW1 1763   3.404   1.808   6.081
  288SOL    HW2 1764   3.549   1.753   6.031
  289SOL     OW 1765   0.014   4.579   4.834
  289SOL    HW1 1766   0.031   4.597   4.931
  289SOL    HW2 1767   6.973   4.652   4.796
  290SOL     OW 1768   5.928   2.359   4.141
  290SOL    HW1 1769   5.981   2.283   4.101
  290SOL    HW2 1770   5.832   2.333   4.147
  291SOL     OW 1771   1.697   2.416   4.474
  291SOL    HW1 1772   1.754   2.352   4.525
  291SOL    HW2 1773   1.631   2.366   4.419
  292SOL     OW 1774   1.421   1.737   3.084
  292SOL    HW1 1775   1.340   1.769   3.133
  292SOL    HW2 1776   1.503   1.760   3.135
  293SOL     OW 1777   4.374   4.801   1.729
  293SOL    HW1 1778   4.312   4.804   1.807
  293SOL    HW2 1779   4.328   4.836   1.648
  294SOL     OW 1780   6.529   5.613   6.696
  294SOL    HW1 1781   6.622   5.599   6.729
  294SOL    HW2 1782   6.484   5.524   6.684
  295SOL     OW 1783   2.967   1.880   4.356
  295SOL    HW1 1784   2.976   1.787   4.392
  295SOL    HW2 1785   2.985   1.945   4.429
  296SOL     OW 1786   4.920   1.610   2.941
  296SOL    HW1 1787   4.986   1.670   2.985
  296SOL    HW2 1788   4.955   1.516   2.940
  297SOL     OW 1789   2.126   4.464   2.801
  297SOL    HW1 1790   2.086   4.374   2.788
  297SOL    HW2 1791   2.171   4.494   2.717
  298SOL     OW 1792   3.672   6.589   0.923
  298SOL    HW1 1793   3.650   6.540   0.839
  298SOL    HW2 1794   3.678   6.687   0.903
  299SOL     OW 1795   4.291   3.916   6.836
  299SOL    HW1 1796   4.293   4.008   6.875
  299SOL    HW2 1797   4.352   3.857   6.889
  300SOL     OW 1798   6.057   1.034   1.497
  300SOL    HW1 1799   5.961   1.025   1.526
  300SOL    HW2 1800   6.079   1.131   1.488
  301SOL     OW 1801   5.208   3.555   1.488
  301SOL    HW1 1802   5.172   3.600   1.570
  301SOL    HW2 1803   5.252   3.469   1.513
  302SOL     OW 1804   0.506   0.453   3.697
  302SOL    HW1 1805   0.579   0.422   3.637
  302SOL    HW2 1806   0.464   0.373   3.742
  303SOL     OW 1807   6.155   0.041   1.457
  303SOL    HW1 1808   6.060   0.018   1.436
  303SOL    HW2 1809   6.164   0.141   1.463
  304SOL     OW 1810   2.441   0.453   4.283
  304SOL    HW1 1811   2.485   0.494   4.363
  304SOL    HW2 1812   2.406   0.526   4.224
  305SOL     OW 1813   0.902   3.082   0.063
  305SOL    HW1 1814   0.849   3.044   7.002
  305SOL    HW2 1815   0.995   3.102   0.031
  306SOL     OW 1816   2.086   0.726   3.753
  306SOL    HW1 1817   2.140   0.715   3.836
  306SOL    HW2 1818   2.057   0.636   3.721
  307SOL     OW 1819   5.302   6.675   0.723
  307SOL    HW1 1820   5.389   6.634   0.695
  307SOL    HW2 1821   5.229   6.608   0.712
  308SOL     OW 1822   5.696   3.311   5.270
  308SOL    HW1 1823   5.703   3.254   5.189
  308SOL    HW2 1824   5.607   3.358   5.271
  309SOL     OW 1825   3.487   5.255   6.809
  309SOL    HW1 1826   3.412   5.279   6.871
  309SOL    HW2 1827   3.499   5.326   6.741
  310SOL     OW 1828   6.371   0.042   5.134
  310SOL    HW1 1829   6.334   0.074   5.222
  310SOL    HW2 1830   6.434   0.110   5.097
  311SOL     OW 1831   5.611   4.545   2.550
  311SOL    HW1 1832   5.593   4.545   2.452
  311SOL    HW2 1833   5.703   4.510   2.567
  312SOL     OW 1834   4.168   1.385   5.834
  312SOL    HW1 1835   4.224   1.455   5.878
  312SOL    HW2 1836   4.119   1.333   5.904
  313SOL     OW 1837   3.353   4.053   2.010
  313SOL    HW1 1838   3.399   3.965   2.017
  313SOL    HW2 1839   3.254   4.040   2.016
  314SOL     OW 1840   3.732   5.073   6.649
  314SOL    HW1 1841   3.733   5.071   6.749
  314SOL    HW2 1842   3.813   5.121   6.616
  315SOL     OW 1843   1.436   2.663   3.597
  315SOL    HW1 1844   1.489   2.620   3.525
  315SOL    HW2 1845   1.426   2.761   3.577
  316SOL     OW 1846   3.037   1.441   3.424
  316SOL    HW1 1847   3.001   1.516   3.479
  316SOL    HW2 1848   3.085   1.477   3.344
  317SOL     OW 1849   0.474   0.593   0.898
  317SOL    HW1 1850   0.440   0.640   0.816
  317SOL    HW2 1851   0.491   0.660   0.970
  318SOL     OW 1852   1.296   6.096   6.894
  318SOL    HW1 1853   1.291   6.027   6.822
  318SOL    HW2 1854   1.278   6.187   6.854
  319SOL     OW 1855   6.754   0.202   4.048
  319SOL    HW1 1856   6.756   0.292   4.092
  319SOL    HW2 1857   6.841   0.155   4.066
  320SOL     OW 1858   5.968   2.215   0.208
  320SOL    HW1 1859   6.000   2.256   0.122
  320SOL    HW2 1860   5.895   2.150   0.190
  321SOL     OW 1861   3.971   1.572   0.432
  321SOL    HW1 1862   3.970   1.639   0.507
  321SOL    HW2 1863   4.060   1.526   0.431
  322SOL     OW 1864   3.726   3.753   4.470
  322SOL    HW1 1865   3.784   3.682   4.430
  322SOL    HW2 1866   3.751   3.767   4.566
  323SOL     OW 1867   1.071   3.193   6.545
  323SOL    HW1 1868   1.099   3.114   6.599
  323SOL    HW2 1869   0.987   3.231   6.583
  324SOL     OW 1870   2.271   1.916   4.193
  324SOL    HW1 1871   2.232   1.964   4.114
  324SOL    HW2 1872   2.304   1.826   4.164
  325SOL     OW 1873   1.071   2.868   1.580
  325SOL    HW1 1874   1.089   2.888   1.676
  325SOL    HW2 1875   1.050   2.953   1.532
  326SOL     OW 1876   0.851   4.914   6.939
  326SOL    HW1 1877   0.941   4.944   6.908
  326SOL    HW2 1878   0.851   4.815   6.951
  327SOL     OW 1879   1.370   4.975   3.655
  327SOL    HW1 1880   1.322   5.058   3.682
  327SOL    HW2 1881   1.377   4.972   3.555
  328SOL     OW 1882   1.325   5.794   1.514
  328SOL    HW1 1883   1.320   5.888   1.546
  328SOL    HW2 1884   1.394   5.744   1.566
  329SOL     OW 1885   3.784   3.995   4.356
  329SOL    HW1 1886   3.786   3.898   4.380
  329SOL    HW2 1887   3.833   4.009   4.270
  330SOL     OW 1888   3.013   0.341   0.963
  330SOL    HW1 1889   3.051   0.378   1.047
  330SOL    HW2 1890   2.981   0.415   0.904
  331SOL     OW 1891   3.776   5.712   0.325
  331SOL    HW1 1892   3.714   5.694   0.401
  331SOL    HW2 1893   3.869   5.687   0.350
  332SOL     OW 1894   2.944   1.847   4.089
  332SOL    HW1 1895   3.035   1.854   4.049
  332SOL    HW2 1896   2.950   1.856   4.189
  333SOL     OW 1897   3.614   6.362   6.244
  333SOL    HW1 1898   3.631   6.407   6.157
  333SOL    HW2 1899   3.692   6.304   6.267
  334SOL     OW 1900   2.913   0.928   1.394
  334SOL    HW1 1901   2.969   0.972   1.323
  334SOL    HW2 1902   2.906   0.830   1.375
  335SOL     OW 1903   3.338   7.014   4.524
  335SOL    HW1 1904   3.433   0.016   4.499
  335SOL    HW2 1905   3.310   6.925   4.488
  336SOL     OW 1906   1.985   0.990   3.799
  336SOL    HW1 1907   1.974   1.015   3.895
  336SOL    HW2 1908   2.025   0.898   3.793
  337SOL     OW 1909   0.085   3.135   0.083
  337SOL    HW1 1910   0.168   3.188   0.101
  337SOL    HW2 1911   0.050   3.097   0.169
  338SOL     OW 1912   2.992   2.739   1.471
  338SOL    HW1 1913   3.033   2.710   1.557
  338SOL    HW2 1914   2.968   2.836   1.476
  339SOL     OW 1915   3.106   0.061   4.343
  339SOL    HW1 1916   3.118   0.074   4.244
  339SOL    HW2 1917   3.126   6.981   4.367
  340SOL     OW 1918   4.862   4.551   5.744
  340SOL    HW1 1919   4.884   4.454   5.728
  340SOL    HW2 1920   4.763   4.562   5.754
  341SOL     OW 1921   6.508   1.277   4.406
  341SOL    HW1 1922   6.589   1.226   4.376
  341SOL    HW2 1923   6.517   1.301   4.502
  342SOL     OW 1924   5.979   3.780   6.931
  342SOL    HW1 1925   6.017   3.872   6.936
  342SOL    HW2 1926   5.894   3.775   6.984
  343SOL     OW 1927   1.792   5.296   0.774
  343SOL    HW1 1928   1.841   5.321   0.857
  343SOL    HW2 1929   1.705   5.345   0.770
  344SOL     OW 1930   1.042   5.103   1.935
  344SOL    HW1 1931   0.974   5.034   1.956
  344SOL    HW2 1932   1.099   5.120   2.015
  345SOL     OW 1933   5.613   1.313   4.005
  345SOL    HW1 1934   5.569   1.299   4.093
  345SOL    HW2 1935   5.711   1.291   4.013
  346SOL     OW 1936   1.773   0.634   2.636
  346SOL    HW1 1937   1.777   0.552   2.693
  346SOL    HW2 1938   1.801   0.714   2.690
  347SOL     OW 1939   3.125   5.224   6.084
  347SOL    HW1 1940   3.030   5.251   6.071
  347SOL    HW2 1941   3.185   5.303   6.075
  348SOL     OW 1942   5.435   4.623   1.681
  348SOL    HW1 1943   5.362   4.601   1.747
  348SOL    HW2 1944   5.518   4.573   1.706
  349SOL     OW 1945   0.184   4.130   0.654
  349SOL    HW1 1946   0.188   4.216   0.704
  349SOL    HW2 1947   0.193   4.053   0.717
  350SOL     OW 1948   3.824   2.863   0.720
  350SOL    HW1 1949   3.730   2.869   0.755
  350SOL    HW2 1950   3.853   2.767   0.719
  351SOL     OW 1951   2.157   2.392   6.934
  351SOL    HW1 1952   2.148   2.362   0.014
  351SOL    HW2 1953   2.194   2.317   6.879
  352SOL     OW 1954   3.465   0.805   4.770
  352SOL    HW1 1955   3.413   0.853   4.699
  352SOL    HW2 1956   3.402   0.752   4.828
  353SOL     OW 1957   2.641   6.747   0.693
  353SOL    HW1 1958   2.599   6.753   0.783
  353SOL    HW2 1959   2.726   6.695   0.699
  354SOL     OW 1960   3.172   2.752   0.288
  354SOL    HW1 1961   3.135   2.809   0.215
  354SOL    HW2 1962   3.118   2.668   0.294
  355SOL     OW 1963   0.249   3.051   2.992
  355SOL    HW1 1964   0.184   3.043   2.916
  355SOL    HW2 1965   0.222   2.987   3.065
  356SOL     OW 1966   3.498   6.240   5.112
  356SOL    HW1 1967   3.582   6.232   5.059
  356SOL    HW2 1968   3.493   6.165   5.178
  357SOL     OW 1969   6.433   6.722   4.964
  357SOL    HW1 1970   6.485   6.638   4.950
  357SOL    HW2 1971   6.496   6.799   4.973
  358SOL     OW 1972   5.160   0.025   1.576
  358SOL    HW1 1973   5.111   6.996   1.650
  358SOL    HW2 1974   5.151   0.124   1.584
  359SOL     OW 1975   1.197   2.347   2.202
  359SOL    HW1 1976   1.120   2.295   2.238
  359SOL    HW2 1977   1.251   2.384   2.279
  360SOL     OW 1978   1.138   6.009   6.439
  360SOL    HW1 1979   1.041   5.985   6.440
  360SOL    HW2 1980   1.192   5.929   6.409
  361SOL     OW 1981   5.753   5.884   3.432
  361SOL    HW1 1982   5.678   5.823   3.459
  361SOL    HW2 1983   5.813   5.837   3.368
  362SOL     OW 1984   3.682   4.053   1.370
  362SOL    HW1 1985   3.592   4.047   1.413
  362SOL    HW2 1986   3.684   3.994   1.289
  363SOL     OW 1987   5.038   4.553   3.844
  363SOL    HW1 1988   4.948   4.555   3.800
  363SOL    HW2 1989   5.092   4.631   3.812
  364SOL     OW 1990   6.290   5.869   6.295
  364SOL    HW1 1991   6.359   5.804   6.262
  364SOL    HW2 1992   6.309   5.960   6.258
  365SOL     OW 1993   5.680   5.098   1.949
  365SOL    HW1 1994   5.674   5.064   1.855
  365SOL    HW2 1995   5.776   5.112   1.973
  366SOL     OW 1996   6.586   0.554   6.954
  366SOL    HW1 1997   6.619   0.499   0.015
  366SOL    HW2 1998   6.504   0.604   6.982
  367SOL     OW 1999   4.895   3.249   1.382
  367SOL    HW1 2000   4.894   3.263   1.283
  367SOL    HW2 2001   4.804   3.223   1.413
  368SOL     OW 2002   0.060   3.652   4.818
  368SOL    HW1 2003   0.026   3.739   4.782
  368SOL    HW2 2004   0.008   3.577   4.778
  369SOL     OW 2005   6.663   5.400   1.802
  369SOL    HW1 2006   6.619   5.473   1.750
  369SOL    HW2 2007   6.628   5.312   1.771
  370SOL     OW 2008   2.904   1.715   5.809
  370SOL    HW1 2009   2.882   1.650   5.736
  370SOL    HW2 2010   2.935   1.801   5.769
  371SOL     OW 2011   2.496   3.468   6.660
  371SOL    HW1 2012   2.505   3.532   6.736
  371SOL    HW2 2013   2.408   3.482   6.615
  372SOL     OW 2014   0.455   6.973   5.429
  372SOL    HW1 2015   0.421   0.042   5.388
  372SOL    HW2 2016   0.400   6.949   5.509
  373SOL     OW 2017   6.037   6.181   4.949
  373SOL    HW1 2018   5.954   6.148   4.993
  373SOL    HW2 2019   6.014   6.248   4.879
  374SOL     OW 2020   2.807   1.760   2.506
  374SOL    HW1 2021   2.741   1.739   2.579
  374SOL    HW2 2022   2.876   1.823   2.541
  375SOL     OW 2023   0.784   4.362   3.395
  375SOL    HW1 2024   0.690   4.328   3.398
  375SOL    HW2 2025   0.815   4.366   3.300
  376SOL     OW 2026   2.115   2.049   4.597
  376SOL    HW1 2027   2.098   2.091   4.508
  376SOL    HW2 2028   2.134   1.951   4.585
  377SOL     OW 2029   0.035   2.867   1.997
  377SOL    HW1 2030   0.110   2.922   1.958
  377SOL    HW2 2031   0.036   2.776   1.956
  378SOL     OW 2032   3.354   3.129   5.287
  378SOL    HW1 2033   3.380   3.033   5.284
  378SOL    HW2 2034   3.352   3.167   5.195
  379SOL     OW 2035   6.043   3.918   1.669
  379SOL    HW1 2036   6.078   3.953   1.756
  379SOL    HW2 2037   6.017   3.994   1.610
  380SOL     OW 2038   3.089   1.356   1.580
  380SOL    HW1 2039   3.141   1.346   1.665
  380SOL    HW2 2040   3.151   1.348   1.502
  381SOL     OW 2041   1.528   4.363   2.679
  381SOL    HW1 2042   1.444   4.400   2.719
  381SOL    HW2 2043   1.598   4.434   2.677
  382SOL     OW 2044   5.453   6.336   5.931
  382SOL    HW1 2045   5.485   6.287   6.012
  382SOL    HW2 2046   5.423   6.428   5.957
  383SOL     OW 2047   5.580   3.208   6.215
  383SOL    HW1 2048   5.620   3.298   6.198
  383SOL    HW2 2049   5.523   3.182   6.137
  384SOL     OW 2050   6.270   5.008   4.429
  384SOL    HW1 2051   6.305   4.929   4.380
  384SOL    HW2 2052   6.343   5.075   4.441
  385SOL     OW 2053   4.407   5.993   5.790
  385SOL    HW1 2054   4.339   6.014   5.720
  385SOL    HW2 2055   4.464   5.917   5.758
  386SOL     OW 2056   3.196   6.175   5.389
  386SOL    HW1 2057   3.225   6.130   5.304
  386SOL    HW2 2058   3.276   6.189   5.448
  387SOL     OW 2059   0.351   6.708   3.071
  387SOL    HW1 2060   0.420   6.772   3.040
  387SOL    HW2 2061   0.292   6.682   2.995
  388SOL     OW 2062   1.763   2.315   3.988
  388SOL    HW1 2063   1.752   2.414   3.997
  388SOL    HW2 2064   1.688   2.278   3.933
  389SOL     OW 2065   4.151   4.102   1.717
  389SOL    HW1 2066   4.114   4.041   1.787
  389SOL    HW2 2067   4.238   4.140   1.750
  390SOL     OW 2068   3.877   1.135   6.837
  390SOL    HW1 2069   3.825   1.195   6.898
  390SOL    HW2 2070   3.857   1.158   6.742
  391SOL     OW 2071   2.289   4.151   5.370
  391SOL    HW1 2072   2.362   4.167   5.437
  391SOL    HW2 2073   2.321   4.087   5.301
  392SOL     OW 2074   1.930   3.533   1.664
  392SOL    HW1 2075   2.022   3.556   1.698
  392SOL    HW2 2076   1.909   3.439   1.690
  393SOL     OW 2077   1.133   4.976   0.164
  393SOL    HW1 2078   1.050   5.003   0.115
  393SOL    HW2 2079   1.206   5.041   0.146
  394SOL     OW 2080   0.534   2.761   0.251
  394SOL    HW1 2081   0.448   2.759   0.301
  394SOL    HW2 2082   0.550   2.853   0.215
  395SOL     OW 2083   5.148   4.922   2.934
  395SOL    HW1 2084   5.225   4.867   2.967
  395SOL    HW2 2085   5.106   4.969   3.012
  396SOL     OW 2086   2.574   2.856   1.714
  396SOL    HW1 2087   2.492   2.846   1.771
  396SOL    HW2 2088   2.595   2.953   1.702
  397SOL     OW 2089   5.353   2.070   6.430
  397SOL    HW1 2090   5.281   2.036   6.491
  397SOL    HW2 2091   5.359   2.010   6.350
  398SOL     OW 2092   1.622   6.571   3.548
  398SOL    HW1 2093   1.533   6.608   3.572
  398SOL    HW2 2094   1.615   6.520   3.462
  399SOL     OW 2095   5.905   6.603   4.560
  399SOL    HW1 2096   5.829   6.572   4.617
  399SOL    HW2 2097   5.913   6.703   4.566
  400SOL     OW 2098   5.886   6.421   6.031
  400SOL    HW1 2099   5.807   6.434   6.090
  400SOL    HW2 2100   5.969   6.454   6.078
  401SOL     OW 2101   5.279   0.115   5.908
  401SOL    HW1 2102   5.234   0.035   5.869
  401SOL    HW2 2103   5.317   0.171   5.834
  402SOL     OW 2104   6.561   0.611   3.390
  402SOL    HW1 2105   6.547   0.589   3.293
  402SOL    HW2 2106   6.531   0.534   3.446
  403SOL     OW 2107   3.662   0.727   5.451
  403SOL    HW1 2108   3.622   0.733   5.542
  403SOL    HW2 2109   3.661   0.818   5.409
  404SOL     OW 2110   1.754   5.100   4.868
  404SOL    HW1 2111   1.658   5.073   4.862
  404SOL    HW2 2112   1.766   5.193   4.833
  405SOL     OW 2113   2.080   3.579   2.963
  405SOL    HW1 2114   2.105   3.492   3.007
  405SOL    HW2 2115   2.068   3.565   2.865
  406SOL     OW 2116   0.408   4.445   4.678
  406SOL    HW1 2117   0.373   4.484   4.763
  406SOL    HW2 2118   0.494   4.397   4.697
  407SOL     OW 2119   1.974   2.265   5.012
  407SOL    HW1 2120   2.038   2.229   4.943
  407SOL    HW2 2121   1.962   2.197   5.084
  408SOL     OW 2122   3.267   2.118   3.145
  408SOL    HW1 2123   3.247   2.111   3.243
  408SOL    HW2 2124   3.183   2.102   3.093
  409SOL     OW 2125   6.433   3.229   1.705
  409SOL    HW1 2126   6.350   3.263   1.749
  409SOL    HW2 2127   6.467   3.298   1.642
  410SOL     OW 2128   1.293   1.747   1.268
  410SOL    HW1 2129   1.245   1.795   1.194
  410SOL    HW2 2130   1.264   1.651   1.269
  411SOL     OW 2131   6.120   0.793   1.617
  411SOL    HW1 2132   6.034   0.776   1.665
  411SOL    HW2 2133   6.115   0.881   1.570
  412SOL     OW 2134   3.252   4.965   3.220
  412SOL    HW1 2135   3.351   4.956   3.231
  412SOL    HW2 2136   3.233   5.040   3.156
  413SOL     OW 2137   4.744   4.293   1.679
  413SOL    HW1 2138   4.813   4.317   1.611
  413SOL    HW2 2139   4.788   4.275   1.767
  414SOL     OW 2140   2.842   6.802   4.081
  414SOL    HW1 2141   2.836   6.877   4.148
  414SOL    HW2 2142   2.764   6.807   4.020
  415SOL     OW 2143   0.367   0.553   0.103
  415SOL    HW1 2144   0.434   0.489   0.139
  415SOL    HW2 2145   0.308   0.585   0.178
  416SOL     OW 2146   5.192   5.034   4.973
  416SOL    HW1 2147   5.261   4.962   4.980
  416SOL    HW2 2148   5.101   4.995   4.992
  417SOL     OW 2149   2.120   1.017   6.551
  417SOL    HW1 2150   2.156   1.103   6.588
  417SOL    HW2 2151   2.096   0.956   6.626
  418SOL     OW 2152   2.482   6.727   5.917
  418SOL    HW1 2153   2.511   6.755   5.825
  418SOL    HW2 2154   2.503   6.799   5.983
  419SOL     OW 2155   0.576   0.302   2.826
  419SOL    HW1 2156   0.642   0.363   2.783
  419SOL    HW2 2157   0.542   0.343   2.910
  420SOL     OW 2158   5.767   1.379   6.180
  420SOL    HW1 2159   5.846   1.319   6.194
  420SOL    HW2 2160   5.700   1.333   6.121
  421SOL     OW 2161   5.903   3.801   5.013
  421SOL    HW1 2162   5.863   3.788   5.104
  421SOL    HW2 2163   5.993   3.757   5.010
  422SOL     OW 2164   5.090   3.009   0.968
  422SOL    HW1 2165   4.990   3.013   0.961
  422SOL    HW2 2166   5.127   3.102   0.975
  423SOL     OW 2167   2.709   1.471   0.012
  423SOL    HW1 2168   2.699   1.570   0.009
  423SOL    HW2 2169   2.750   1.443   0.098
  424SOL     OW 2170   1.846   4.963   2.871
  424SOL    HW1 2171   1.746   4.960   2.877
  424SOL    HW2 2172   1.885   4.977   2.962
  425SOL     OW 2173   4.879   1.625   4.548
  425SOL    HW1 2174   4.871   1.666   4.457
  425SOL    HW2 2175   4.799   1.568   4.565
  426SOL     OW 2176   2.470   2.694   5.093
  426SOL    HW1 2177   2.475   2.794   5.093
  426SOL    HW2 2178   2.482   2.660   5.000
  427SOL     OW 2179   5.812   0.261   3.536
  427SOL    HW1 2180   5.817   0.181   3.476
  427SOL    HW2 2181   5.874   0.250   3.613
  428SOL     OW 2182   3.665   0.473   2.633
  428SOL    HW1 2183   3.630   0.528   2.709
  428SOL    HW2 2184   3.684   0.532   2.555
  429SOL     OW 2185   0.756   5.168   4.089
  429SOL    HW1 2186   0.694   5.244   4.072
  429SOL    HW2 2187   0.737   5.129   4.179
  430SOL     OW 2188   1.422   6.827   3.807
  430SOL    HW1 2189   1.487   6.886   3.853
  430SOL    HW2 2190   1.378   6.767   3.874
  431SOL     OW 2191   2.417   1.753   0.759
  431SOL    HW1 2192   2.433   1.735   0.856
  431SOL    HW2 2193   2.502   1.740   0.709
  432SOL     OW 2194   6.277   2.356   0.548
  432SOL    HW1 2195   6.327   2.395   0.471
  432SOL    HW2 2196   6.179   2.365   0.531
  433SOL     OW 2197   2.595   5.980   6.067
  433SOL    HW1 2198   2.506   5.950   6.101
  433SOL    HW2 2199   2.591   6.077   6.043
  434SOL     OW 2200   4.198   5.956   4.065
  434SOL    HW1 2201   4.230   6.008   3.985
  434SOL    HW2 2202   4.262   5.881   4.082
  435SOL     OW 2203   3.955   1.972   5.471
  435SOL    HW1 2204   3.987   1.891   5.424
  435SOL    HW2 2205   3.855   1.971   5.475
  436SOL     OW 2206   3.431   6.068   2.536
  436SOL    HW1 2207   3.498   6.142   2.530
  436SOL    HW2 2208   3.461   6.001   2.604
  437SOL     OW 2209   0.134   1.145   5.429
  437SOL    HW1 2210   0.184   1.211   5.373
  437SOL    HW2 2211   0.142   1.054   5.389
  438SOL     OW 2212   1.735   3.758   3.719
  438SOL    HW1 2213   1.790   3.834   3.752
  438SOL    HW2 2214   1.706   3.701   3.796
  439SOL     OW 2215   6.193   6.424   2.513
  439SOL    HW1 2216   6.159   6.364   2.441
  439SOL    HW2 2217   6.197   6.518   2.479
  440SOL     OW 2218   3.512   1.640   6.340
  440SOL    HW1 2219   3.518   1.631   6.439
  440SOL    HW2 2220   3.436   1.701   6.317
  441SOL     OW 2221   5.646   4.355   3.326
  441SOL    HW1 2222   5.642   4.444   3.369
  441SOL    HW2 2223   5.727   4.350   3.266
  442SOL     OW 2224   4.709   5.096   5.437
  442SOL    HW1 2225   4.700   5.186   5.394
  442SOL    HW2 2226   4.696   5.025   5.369
  443SOL     OW 2227   5.978   4.149   4.601
  443SOL    HW1 2228   5.914   4.126   4.675
  443SOL    HW2 2229   6.032   4.229   4.628
  444SOL     OW 2230   4.474   1.170   6.847
  444SOL    HW1 2231   4.453   1.097   6.782
  444SOL    HW2 2232   4.389   1.213   6.878
  445SOL     OW 2233   2.222   5.917   3.425
  445SOL    HW1 2234   2.196   5.978   3.499
  445SOL    HW2 2235   2.320   5.925   3.407
  446SOL     OW 2236   4.030   5.630   3.114
  446SOL    HW1 2237   4.017   5.536   3.146
  446SOL    HW2 2238   4.041   5.691   3.192
  447SOL     OW 2239   6.471   3.219   5.113
  447SOL    HW1 2240   6.491   3.289   5.181
  447SOL    HW2 2241   6.464   3.130   5.158
  448SOL     OW 2242   1.863   1.133   2.651
  448SOL    HW1 2243   1.860   1.079   2.567
  448SOL    HW2 2244   1.930   1.206   2.642
  449SOL     OW 2245   2.547   2.256   3.123
  449SOL    HW1 2246   2.640   2.270   3.157
  449SOL    HW2 2247   2.486   2.236   3.200
  450SOL     OW 2248   1.732   4.844   3.660
  450SOL    HW1 2249   1.797   4.788   3.711
  450SOL    HW2 2250   1.741   4.939   3.687
  451SOL     OW 2251   1.475   2.564   4.039
  451SOL    HW1 2252   1.536   2.603   4.108
  451SOL    HW2 2253   1.410   2.502   4.082
  452SOL     OW 2254   3.923   0.617   1.520
  452SOL    HW1 2255   3.961   0.536   1.474
  452SOL    HW2 2256   3.890   0.682   1.451
  453SOL     OW 2257   3.621   6.930   6.624
  453SOL    HW1 2258   3.596   6.880   6.707
  453SOL    HW2 2259   3.546   6.992   6.599
  454SOL     OW 2260   6.846   3.793   6.632
  454SOL    HW1 2261   6.814   3.888   6.636
  454SOL    HW2 2262   6.822   3.746   6.717
  455SOL     OW 2263   6.489   3.456   5.262
  455SOL    HW1 2264   6.580   3.428   5.292
  455SOL    HW2 2265   6.431   3.474   5.342
  456SOL     OW 2266   1.669   0.529   4.566
  456SOL    HW1 2267   1.651   0.492   4.475
  456SOL    HW2 2268   1.679   0.628   4.561
  457SOL     OW 2269   0.992   4.518   4.427
  457SOL    HW1 2270   1.045   4.433   4.428
  457SOL    HW2 2271   0.895   4.496   4.422
  458SOL     OW 2272   3.817   0.677   3.124
  458SOL    HW1 2273   3.910   0.654   3.096
  458SOL    HW2 2274   3.814   0.771   3.159
  459SOL     OW 2275   1.955   0.407   5.528
  459SOL    HW1 2276   1.954   0.399   5.429
  459SOL    HW2 2277   1.880   0.466   5.558
  460SOL     OW 2278   1.388   1.217   5.098
  460SOL    HW1 2279   1.410   1.300   5.048
  460SOL    HW2 2280   1.383   1.140   5.034
  461SOL     OW 2281   6.416   5.157   5.667
  461SOL    HW1 2282   6.353   5.212   5.722
  461SOL    HW2 2283   6.510   5.181   5.692
  462SOL     OW 2284   3.774   3.841   4.735
  462SOL    HW1 2285   3.710   3.860   4.810
  462SOL    HW2 2286   3.850   3.905   4.740
  463SOL     OW 2287   6.666   0.513   2.800
  463SOL    HW1 2288   6.752   0.550   2.836
  463SOL    HW2 2289   6.680   0.417   2.775
  464SOL     OW 2290   3.020   0.301   5.845
  464SOL    HW1 2291   3.008   0.231   5.775
  464SOL    HW2 2292   3.079   0.266   5.918
  465SOL     OW 2293   0.673   2.566   6.736
  465SOL    HW1 2294   0.766   2.541   6.708
  465SOL    HW2 2295   0.677   2.650   6.791
  466SOL     OW 2296   2.525   6.693   4.077
  466SOL    HW1 2297   2.529   6.727   3.982
  466SOL    HW2 2298   2.540   6.769   4.140
  467SOL     OW 2299   0.954   1.975   2.508
  467SOL    HW1 2300   0.966   2.017   2.418
  467SOL    HW2 2301   0.872   1.918   2.507
  468SOL     OW 2302   4.251   5.989   6.240
  468SOL    HW1 2303   4.215   5.962   6.151
  468SOL    HW2 2304   4.348   6.011   6.232
  469SOL     OW 2305   2.696   4.425   5.712
  469SOL    HW1 2306   2.654   4.487   5.645
  469SOL    HW2 2307   2.709   4.335   5.670
  470SOL     OW 2308   3.900   5.906   2.406
  470SOL    HW1 2309   3.840   5.842   2.357
  470SOL    HW2 2310   3.877   5.906   2.503
  471SOL     OW 2311   2.993   2.236   3.961
  471SOL    HW1 2312   2.934   2.295   4.016
  471SOL    HW2 2313   3.075   2.213   4.013
  472SOL     OW 2314   6.078   4.890   6.853
  472SOL    HW1 2315   6.072   4.798   6.814
  472SOL    HW2 2316   5.998   4.909   6.910
  473SOL     OW 2317   6.819   2.000   2.512
  473SOL    HW1 2318   6.731   2.020   2.470
  473SOL    HW2 2319   6.889   2.061   2.475
  474SOL     OW 2320   5.989   5.034   5.617
  474SOL    HW1 2321   5.974   5.028   5.715
  474SOL    HW2 2322   5.926   5.102   5.578
  475SOL     OW 2323   6.328   3.511   0.025
  475SOL    HW1 2324   6.239   3.470   0.010
  475SOL    HW2 2325   6.387   3.448   0.076
  476SOL     OW 2326   0.340   3.979   1.378
  476SOL    HW1 2327   0.403   3.986   1.301
  476SOL    HW2 2328   0.290   3.893   1.373
  477SOL     OW 2329   1.948   5.925   3.580
  477SOL    HW1 2330   1.944   5.835   3.622
  477SOL    HW2 2331   2.011   5.983   3.631
  478SOL     OW 2332   4.290   6.328   3.484
  478SOL    HW1 2333   4.294   6.233   3.453
  478SOL    HW2 2334   4.310   6.333   3.581
  479SOL     OW 2335   3.202   3.415   4.843
  479SOL    HW1 2336   3.121   3.468   4.869
  479SOL    HW2 2337   3.174   3.325   4.809
  480SOL     OW 2338   1.867   0.137   2.390
  480SOL    HW1 2339   1.806   0.212   2.418
  480SOL    HW2 2340   1.873   0.070   2.465
  481SOL     OW 2341   0.849   6.901   1.577
  481SOL    HW1 2342   0.834   6.979   1.516
  481SOL    HW2 2343   0.916   6.925   1.646
  482SOL     OW 2344   4.424   4.855   2.598
  482SOL    HW1 2345   4.412   4.915   2.677
  482SOL    HW2 2346   4.376   4.894   2.519
  483SOL     OW 2347   6.567   2.230   2.535
  483SOL    HW1 2348   6.579   2.206   2.631
  483SOL    HW2 2349   6.574   2.329   2.523
  484SOL     OW 2350   1.620   4.333   5.029
  484SOL    HW1 2351   1.559   4.408   5.054
  484SOL    HW2 2352   1.650   4.285   5.111
  485SOL     OW 2353   5.347   3.560   2.435
  485SOL    HW1 2354   5.429   3.527   2.389
  485SOL    HW2 2355   5.299   3.484   2.477
  486SOL     OW 2356   5.638   0.925   6.489
  486SOL    HW1 2357   5.656   1.021   6.465
  486SOL    HW2 2358   5.616   0.875   6.405
  487SOL     OW 2359   0.754   0.540   2.868
  487SOL    HW1 2360   0.722   0.630   2.900
  487SOL    HW2 2361   0.838   0.551   2.815
  488SOL     OW 2362   1.717   6.830   3.378
  488SOL    HW1 2363   1.673   6.793   3.296
  488SOL    HW2 2364   1.748   6.754   3.436
  489SOL     OW 2365   5.833   5.563   5.002
  489SOL    HW1 2366   5.749   5.547   4.951
  489SOL    HW2 2367   5.906   5.590   4.939
  490SOL     OW 2368   1.710   5.898   4.423
  490SOL    HW1 2369   1.712   5.977   4.484
  490SOL    HW2 2370   1.618   5.886   4.387
  491SOL     OW 2371   0.746   3.280   0.162
  491SOL    HW1 2372   0.680   3.318   0.097
  491SOL    HW2 2373   0.794   3.204   0.120
  492SOL     OW 2374   1.943   1.451   6.093
  492SOL    HW1 2375   2.011   1.385   6.126
  492SOL    HW2 2376   1.851   1.413   6.106
  493SOL     OW 2377   2.617   6.825   5.678
  493SOL    HW1 2378   2.702   6.854   5.722
  493SOL    HW2 2379   2.594   6.888   5.604
  494SOL     OW 2380   2.438   1.802   6.545
  494SOL    HW1 2381   2.413   1.710   6.574
  494SOL    HW2 2382   2.534   1.820   6.571
  495SOL     OW 2383   3.893   6.338   5.307
  495SOL    HW1 2384   3.856   6.342   5.214
  495SOL    HW2 2385   3.985   6.376   5.309
  496SOL     OW 2386   6.399   1.488   2.276
  496SOL    HW1 2387   6.361   1.449   2.360
  496SOL    HW2 2388   6.325   1.504   2.210
  497SOL     OW 2389   3.608   1.106   4.297
  497SOL    HW1 2390   3.676   1.060   4.355
  497SOL    HW2 2391   3.648   1.190   4.259
  498SOL     OW 2392   0.445   4.875   1.974
  498SOL    HW1 2393   0.471   4.814   1.899
  498SOL    HW2 2394   0.424   4.966   1.937
  499SOL     OW 2395   2.134   5.720   5.717
  499SOL    HW1 2396   2.118   5.660   5.639
  499SOL    HW2 2397   2.232   5.739   5.726
  500SOL     OW 2398   5.307   3.001   5.807
  500SOL    HW1 2399   5.241   3.002   5.733
  500SOL    HW2 2400   5.308   2.911   5.850
  501SOL     OW 2401   2.873   0.085   1.826
  501SOL    HW1 2402   2.861   0.117   1.921
  501SOL    HW2 2403   2.842   0.157   1.764
  502SOL     OW 2404   1.034   4.726   6.764
  502SOL    HW1 2405   0.983   4.775   6.693
  502SOL    HW2 2406   1.122   4.695   6.726
  503SOL     OW 2407   2.025   5.273   6.269
  503SOL    HW1 2408   2.094   5.223   6.218
  503SOL    HW2 2409   1.974   5.210   6.327
  504SOL     OW 2410   0.651   6.025   2.218
  504SOL    HW1 2411   0.659   5.938   2.267
  504SOL    HW2 2412   0.637   6.007   2.120
  505SOL     OW 2413   3.829   0.405   4.944
  505SOL    HW1 2414   3.905   0.429   5.003
  505SOL    HW2 2415   3.856   0.331   4.883
  506SOL     OW 2416   3.220   5.794   2.519
  506SOL    HW1 2417   3.299   5.741   2.488
  506SOL    HW2 2418   3.187   5.852   2.443
  507SOL     OW 2419   4.048   0.976   2.418
  507SOL    HW1 2420   4.009   0.958   2.328
  507SOL    HW2 2421   4.083   1.070   2.421
  508SOL     OW 2422   6.734   2.489   3.454
  508SOL    HW1 2423   6.793   2.502   3.534
  508SOL    HW2 2424   6.699   2.578   3.424
  509SOL     OW 2425   4.865   0.584   0.045
  509SOL    HW1 2426   4.840   0.489   0.064
  509SOL    HW2 2427   4.813   0.617   6.982
  510SOL     OW 2428   6.763   5.034   6.009
  510SOL    HW1 2429   6.797   4.959   6.067
  510SOL    HW2 2430   6.681   5.003   5.960
  511SOL     OW 2431   1.389   1.586   6.606
  511SOL    HW1 2432   1.468   1.647   6.606
  511SOL    HW2 2433   1.352   1.580   6.699
  512SOL     OW 2434   5.893   2.737   6.612
  512SOL    HW1 2435   5.898   2.723   6.711
  512SOL    HW2 2436   5.829   2.671   6.572
  513SOL     OW 2437   5.047   6.356   2.605
  513SOL    HW1 2438   5.141   6.342   2.575
  513SOL    HW2 2439   4.985   6.344   2.527
  514SOL     OW 2440   0.253   0.239   4.406
  514SOL    HW1 2441   0.328   0.174   4.419
  514SOL    HW2 2442   0.177   0.194   4.360
  515SOL     OW 2443   2.070   0.318   6.298
  515SOL    HW1 2444   2.121   0.395   6.260
  515SOL    HW2 2445   2.130   0.264   6.357
  516SOL     OW 2446   2.308   4.298   1.925
  516SOL    HW1 2447   2.345   4.369   1.985
  516SOL    HW2 2448   2.337   4.316   1.831
  517SOL     OW 2449   3.172   4.853   2.549
  517SOL    HW1 2450   3.151   4.875   2.454
  517SOL    HW2 2451   3.095   4.880   2.607
  518SOL     OW 2452   2.568   2.171   4.001
  518SOL    HW1 2453   2.579   2.074   3.981
  518SOL    HW2 2454   2.478   2.201   3.970
  519SOL     OW 2455   0.237   6.885   3.430
  519SOL    HW1 2456   0.167   6.860   3.498
  519SOL    HW2 2457   0.223   6.979   3.401
  520SOL     OW 2458   1.047   4.072   6.693
  520SOL    HW1 2459   1.130   4.123   6.716
  520SOL    HW2 2460   1.029   4.080   6.595
  521SOL     OW 2461   4.432   5.448   4.571
  521SOL    HW1 2462   4.494   5.372   4.553
  521SOL    HW2 2463   4.373   5.463   4.492
  522SOL     OW 2464   4.144   3.721   2.025
  522SOL    HW1 2465   4.085   3.646   2.054
  522SOL    HW2 2466   4.237   3.703   2.055
  523SOL     OW 2467   0.165   6.042   1.890
  523SOL    HW1 2468   0.123   6.010   1.975
  523SOL    HW2 2469   0.227   5.971   1.855
  524SOL     OW 2470   0.863   3.221   2.568
  524SOL    HW1 2471   0.846   3.312   2.608
  524SOL    HW2 2472   0.927   3.170   2.626
  525SOL     OW 2473   2.044   4.153   6.743
  525SOL    HW1 2474   1.946   4.150   6.725
  525SOL    HW2 2475   2.078   4.060   6.758
  526SOL     OW 2476   2.929   0.070   3.816
  526SOL    HW1 2477   2.945   0.025   3.904
  526SOL    HW2 2478   2.974   0.019   3.743
  527SOL     OW 2479   0.484   2.442   6.889
  527SOL    HW1 2480   0.534   2.385   6.954
  527SOL    HW2 2481   0.550   2.492   6.832
  528SOL     OW 2482   1.228   2.717   4.138
  528SOL    HW1 2483   1.292   2.666   4.081
  528SOL    HW2 2484   1.232   2.814   4.114
  529SOL     OW 2485   2.127   0.148   5.359
  529SOL    HW1 2486   2.089   0.240   5.347
  529SOL    HW2 2487   2.132   0.126   5.456
  530SOL     OW 2488   3.683   3.001   2.380
  530SOL    HW1 2489   3.591   3.039   2.366
  530SOL    HW2 2490   3.699   2.990   2.479
  531SOL     OW 2491   1.451   0.907   2.744
  531SOL    HW1 2492   1.373   0.897   2.807
  531SOL    HW2 2493   1.530   0.941   2.795
  532SOL     OW 2494   1.467   3.733   0.653
  532SOL    HW1 2495   1.511   3.703   0.737
  532SOL    HW2 2496   1.495   3.674   0.577
  533SOL     OW 2497   5.058   6.641   4.004
  533SOL    HW1 2498   5.027   6.626   3.910
  533SOL    HW2 2499   5.080   6.737   4.017
  534SOL     OW 2500   6.814   6.159   2.221
  534SOL    HW1 2501   6.880   6.198   2.157
  534SOL    HW2 2502   6.721   6.180   2.191
  535SOL     OW 2503   0.203   4.404   2.905
  535SOL    HW1 2504   0.297   4.384   2.878
  535SOL    HW2 2505   0.142   4.338   2.862
  536SOL     OW 2506   6.420   5.367   2.971
  536SOL    HW1 2507   6.377   5.403   2.888
  536SOL    HW2 2508   6.362   5.388   3.050
  537SOL     OW 2509   3.553   6.879   4.310
  537SOL    HW1 2510   3.498   6.816   4.255
  537SOL    HW2 2511   3.624   6.827   4.358
  538SOL     OW 2512   0.935   4.197   4.913
  538SOL    HW1 2513   1.008   4.259   4.939
  538SOL    HW2 2514   0.934   4.119   4.976
  539SOL     OW 2515   1.975   5.652   1.862
  539SOL    HW1 2516   1.876   5.653   1.878
  539SOL    HW2 2517   2.010   5.746   1.862
  540SOL     OW 2518   1.795   0.528   3.949
  540SOL    HW1 2519   1.803   0.603   4.014
  540SOL    HW2 2520   1.714   0.540   3.893
  541SOL     OW 2521   4.752   5.852   3.890
  541SOL    HW1 2522   4.784   5.918   3.958
  541SOL    HW2 2523   4.826   5.831   3.826
  542SOL     OW 2524   3.760   5.957   6.228
  542SOL    HW1 2525   3.770   6.047   6.271
  542SOL    HW2 2526   3.681   5.911   6.268
  543SOL     OW 2527   5.571   3.413   3.607
  543SOL    HW1 2528   5.486   3.465   3.603
  543SOL    HW2 2529   5.631   3.440   3.532
  544SOL     OW 2530   0.361   5.157   0.272
  544SOL    HW1 2531   0.309   5.143   0.356
  544SOL    HW2 2532   0.459   5.164   0.294
  545SOL     OW 2533   4.429   1.441   0.648
  545SOL    HW1 2534   4.404   1.350   0.681
  545SOL    HW2 2535   4.518   1.466   0.685
  546SOL     OW 2536   1.205   3.817   1.847
  546SOL    HW1 2537   1.256   3.904   1.844
  546SOL    HW2 2538   1.270   3.741   1.844
  547SOL     OW 2539   3.073   3.019   0.822
  547SOL    HW1 2540   3.040   3.083   0.753
  547SOL    HW2 2541   3.173   3.015   0.819
  548SOL     OW 2542   3.790   3.845   1.191
  548SOL    HW1 2543   3.853   3.844   1.268
  548SOL    HW2 2544   3.841   3.849   1.105
  549SOL     OW 2545   5.260   2.598   1.751
  549SOL    HW1 2546   5.183   2.661   1.743
  549SOL    HW2 2547   5.298   2.604   1.844
  550SOL     OW 2548   1.088   5.317   3.410
  550SOL    HW1 2549   1.074   5.361   3.321
  550SOL    HW2 2550   1.185   5.296   3.422
  551SOL     OW 2551   6.779   0.270   1.515
  551SOL    HW1 2552   6.845   0.332   1.558
  551SOL    HW2 2553   6.794   0.269   1.416
  552SOL     OW 2554   5.425   4.303   5.309
  552SOL    HW1 2555   5.444   4.330   5.403
  552SOL    HW2 2556   5.448   4.206   5.297
  553SOL     OW 2557   2.853   6.742   3.417
  553SOL    HW1 2558   2.809   6.665   3.462
  553SOL    HW2 2559   2.949   6.748   3.445
  554SOL     OW 2560   5.796   6.441   0.184
  554SOL    HW1 2561   5.753   6.530   0.173
  554SOL    HW2 2562   5.811   6.424   0.281
  555SOL     OW 2563   2.917   5.215   4.787
  555SOL    HW1 2564   2.981   5.140   4.804
  555SOL    HW2 2565   2.868   5.237   4.871
  556SOL     OW 2566   4.770   1.246   4.183
  556SOL    HW1 2567   4.807   1.163   4.141
  556SOL    HW2 2568   4.745   1.312   4.112
  557SOL     OW 2569   6.845   5.064   6.447
  557SOL    HW1 2570   6.770   5.029   6.392
  557SOL    HW2 2571   6.930   5.020   6.419
  558SOL     OW 2572   3.076   3.072   4.302
  558SOL    HW1 2573   3.094   3.058   4.204
  558SOL    HW2 2574   2.994   3.022   4.329
  559SOL     OW 2575   6.666   5.687   5.578
  559SOL    HW1 2576   6.698   5.738   5.657
  559SOL    HW2 2577   6.573   5.716   5.555
  560SOL     OW 2578   6.351   4.001   2.978
  560SOL    HW1 2579   6.422   3.940   3.014
  560SOL    HW2 2580   6.377   4.096   2.994
  561SOL     OW 2581   0.305   2.429   0.310
  561SOL    HW1 2582   0.232   2.389   0.256
  561SOL    HW2 2583   0.270   2.505   0.364
  562SOL     OW 2584   4.017   1.254   6.015
  562SOL    HW1 2585   4.051   1.297   6.098
  562SOL    HW2 2586   3.997   1.158   6.032
  563SOL     OW 2587   1.889   1.530   3.317
  563SOL    HW1 2588   1.912   1.522   3.220
  563SOL    HW2 2589   1.902   1.624   3.347
  564SOL     OW 2590   1.130   2.407   0.274
  564SOL    HW1 2591   1.060   2.449   0.216
  564SOL    HW2 2592   1.129   2.451   0.364
  565SOL     OW 2593   3.200   3.544   3.104
  565SOL    HW1 2594   3.207   3.471   3.172
  565SOL    HW2 2595   3.104   3.557   3.079
  566SOL     OW 2596   1.825   3.491   3.612
  566SOL    HW1 2597   1.780   3.402   3.602
  566SOL    HW2 2598   1.756   3.561   3.626
  567SOL     OW 2599   3.159   2.571   1.338
  567SOL    HW1 2600   3.253   2.573   1.372
  567SOL    HW2 2601   3.109   2.648   1.376
  568SOL     OW 2602   5.376   6.772   0.095
  568SOL    HW1 2603   5.315   6.846   0.065
  568SOL    HW2 2604   5.335   6.725   0.173
  569SOL     OW 2605   0.928   2.678   0.854
  569SOL    HW1 2606   0.976   2.721   0.931
  569SOL    HW2 2607   0.831   2.699   0.859
  570SOL     OW 2608   3.196   0.160   6.352
  570SOL    HW1 2609   3.130   0.192   6.420
  570SOL    HW2 2610   3.284   0.205   6.368
  571SOL     OW 2611   2.805   5.121   3.904
  571SOL    HW1 2612   2.767   5.211   3.926
  571SOL    HW2 2613   2.741   5.071   3.845
  572SOL     OW 2614   1.828   5.015   5.141
  572SOL    HW1 2615   1.822   5.067   5.055
  572SOL    HW2 2616   1.883   4.933   5.127
  573SOL     OW 2617   6.023   1.306   6.164
  573SOL    HW1 2618   6.023   1.385   6.225
  573SOL    HW2 2619   6.091   1.239   6.197
  574SOL     OW 2620   3.735   0.213   5.175
  574SOL    HW1 2621   3.732   0.296   5.120
  574SOL    HW2 2622   3.795   0.228   5.254
  575SOL     OW 2623   4.220   2.836   1.695
  575SOL    HW1 2624   4.157   2.913   1.685
  575SOL    HW2 2625   4.168   2.751   1.702
  576SOL     OW 2626   1.078   3.296   3.051
  576SOL    HW1 2627   1.142   3.304   3.128
  576SOL    HW2 2628   1.119   3.241   2.979
  577SOL     OW 2629   1.538   0.852   2.247
  577SOL    HW1 2630   1.448   0.819   2.220
  577SOL    HW2 2631   1.554   0.833   2.344
  578SOL     OW 2632   0.590   5.084   5.108
  578SOL    HW1 2633   0.539   5.092   5.022
  578SOL    HW2 2634   0.680   5.126   5.097
  579SOL     OW 2635   1.575   4.143   3.047
  579SOL    HW1 2636   1.577   4.217   3.115
  579SOL    HW2 2637   1.624   4.171   2.965
  580SOL     OW 2638   4.049   5.205   5.476
  580SOL    HW1 2639   4.008   5.113   5.472
  580SOL    HW2 2640   4.035   5.244   5.567
  581SOL     OW 2641   2.113   3.243   2.175
  581SOL    HW1 2642   2.154   3.325   2.136
  581SOL    HW2 2643   2.133   3.164   2.116
  582SOL     OW 2644   4.319   5.547   2.656
  582SOL    HW1 2645   4.329   5.449   2.646
  582SOL    HW2 2646   4.409   5.591   2.649
  583SOL     OW 2647   2.903   6.310   5.366
  583SOL    HW1 2648   3.001   6.306   5.386
  583SOL    HW2 2649   2.884   6.258   5.283
  584SOL     OW 2650   2.894   6.764   6.409
  584SOL    HW1 2651   2.945   6.760   6.495
  584SOL    HW2 2652   2.805   6.808   6.424
  585SOL     OW 2653   4.294   1.180   0.247
  585SOL    HW1 2654   4.195   1.183   0.231
  585SOL    HW2 2655   4.339   1.246   0.188
  586SOL     OW 2656   3.408   0.937   0.473
  586SOL    HW1 2657   3.309   0.947   0.463
  586SOL    HW2 2658   3.430   0.842   0.496
  587SOL     OW 2659   4.537   2.382   3.089
  587SOL    HW1 2660   4.585   2.296   3.101
  587SOL    HW2 2661   4.470   2.373   3.015
  588SOL     OW 2662   2.265   5.108   1.337
  588SOL    HW1 2663   2.228   5.019   1.308
  588SOL    HW2 2664   2.251   5.119   1.435
  589SOL     OW 2665   3.480   5.567   1.859
  589SOL    HW1 2666   3.564   5.524   1.893
  589SOL    HW2 2667   3.497   5.664   1.843
  590SOL     OW 2668   5.607   1.713   1.032
  590SOL    HW1 2669   5.591   1.741   1.126
  590SOL    HW2 2670   5.688   1.654   1.028
  591SOL     OW 2671   3.445   6.270   3.571
  591SOL    HW1 2672   3.350   6.280   3.543
  591SOL    HW2 2673   3.501   6.339   3.525
  592SOL     OW 2674   4.243   0.809   2.316
  592SOL    HW1 2675   4.167   0.852   2.365
  592SOL    HW2 2676   4.238   0.710   2.327
  593SOL     OW 2677   4.633   2.165   3.732
  593SOL    HW1 2678   4.639   2.145   3.830
  593SOL    HW2 2679   4.724   2.160   3.691
  594SOL     OW 2680   5.912   0.230   0.891
  594SOL    HW1 2681   5.942   0.252   0.984
  594SOL    HW2 2682   5.814   0.211   0.892
  595SOL     OW 2683   5.447   6.494   3.546
  595SOL    HW1 2684   5.390   6.501   3.628
  595SOL    HW2 2685   5.431   6.574   3.488
  596SOL     OW 2686   0.321   4.880   2.876
  596SOL    HW1 2687   0.293   4.961   2.928
  596SOL    HW2 2688   0.371   4.818   2.936
  597SOL     OW 2689   3.036   6.520   6.744
  597SOL    HW1 2690   3.102   6.500   6.817
  597SOL    HW2 2691   3.056   6.462   6.665
  598SOL     OW 2692   3.776   4.132   4.600
  598SOL    HW1 2693   3.803   4.111   4.506
  598SOL    HW2 2694   3.681   4.105   4.614
  599SOL     OW 2695   2.279   5.727   2.881
  599SOL    HW1 2696   2.243   5.638   2.909
  599SOL    HW2 2697   2.325   5.771   2.959
  600SOL     OW 2698   6.114   2.476   6.345
  600SOL    HW1 2699   6.153   2.410   6.281
  600SOL    HW2 2700   6.127   2.569   6.310
  601SOL     OW 2701   1.620   0.705   4.166
  601SOL    HW1 2702   1.588   0.785   4.115
  601SOL    HW2 2703   1.556   0.629   4.151
  602SOL     OW 2704   2.186   0.547   6.200
  602SOL    HW1 2705   2.111   0.608   6.227
  602SOL    HW2 2706   2.218   0.573   6.109
  603SOL     OW 2707   2.880   2.610   5.326
  603SOL    HW1 2708   2.977   2.634   5.324
  603SOL    HW2 2709   2.832   2.672   5.388
  604SOL     OW 2710   1.095   1.525   1.351
  604SOL    HW1 2711   1.024   1.492   1.413
  604SOL    HW2 2712   1.059   1.526   1.257
  605SOL     OW 2713   6.484   4.708   1.172
  605SOL    HW1 2714   6.393   4.670   1.154
  605SOL    HW2 2715   6.520   4.669   1.257
  606SOL     OW 2716   4.880   6.394   5.629
  606SOL    HW1 2717   4.899   6.345   5.714
  606SOL    HW2 2718   4.955   6.379   5.564
  607SOL     OW 2719   6.820   4.837   4.975
  607SOL    HW1 2720   6.900   4.863   4.921
  607SOL    HW2 2721   6.839   4.753   5.025
  608SOL     OW 2722   3.882   5.965   6.747
  608SOL    HW1 2723   3.852   5.888   6.803
  608SOL    HW2 2724   3.967   6.002   6.785
  609SOL     OW 2725   3.555   2.831   2.194
  609SOL    HW1 2726   3.630   2.821   2.259
  609SOL    HW2 2727   3.583   2.797   2.105
  610SOL     OW 2728   5.804   3.221   0.159
  610SOL    HW1 2729   5.705   3.226   0.150
  610SOL    HW2 2730   5.833   3.125   0.154
  611SOL     OW 2731   4.682   0.467   1.729
  611SOL    HW1 2732   4.590   0.428   1.728
  611SOL    HW2 2733   4.683   0.552   1.675
  612SOL     OW 2734   3.274   5.834   4.401
  612SOL    HW1 2735   3.181   5.869   4.389
  612SOL    HW2 2736   3.335   5.878   4.335
  613SOL     OW 2737   4.371   4.743   5.665
  613SOL    HW1 2738   4.317   4.733   5.582
  613SOL    HW2 2739   4.370   4.839   5.694
  614SOL     OW 2740   4.810   5.005   5.824
  614SOL    HW1 2741   4.843   4.975   5.913
  614SOL    HW2 2742   4.712   4.983   5.815
  615SOL     OW 2743   6.601   2.452   1.159
  615SOL    HW1 2744   6.679   2.410   1.206
  615SOL    HW2 2745   6.616   2.551   1.151
  616SOL     OW 2746   0.043   2.052   1.861
  616SOL    HW1 2747   0.041   2.118   1.936
  616SOL    HW2 2748   0.090   1.969   1.889
  617SOL     OW 2749   0.304   4.684   5.624
  617SOL    HW1 2750   0.397   4.706   5.596
  617SOL    HW2 2751   0.266   4.614   5.564
  618SOL     OW 2752   0.940   2.188   0.474
  618SOL    HW1 2753   1.028   2.176   0.519
  618SOL    HW2 2754   0.909   2.283   0.487
  619SOL     OW 2755   2.874   1.601   0.916
  619SOL    HW1 2756   2.876   1.544   0.997
  619SOL    HW2 2757   2.878   1.544   0.834
  620SOL     OW 2758   4.464   2.267   0.726
  620SOL    HW1 2759   4.392   2.335   0.717
  620SOL    HW2 2760   4.425   2.176   0.722
  621SOL     OW 2761   3.309   5.762   6.915
  621SOL    HW1 2762   3.388   5.733   6.861
  621SOL    HW2 2763   3.226   5.725   6.874
  622SOL     OW 2764   1.079   0.693   6.285
  622SOL    HW1 2765   1.157   0.730   6.234
  622SOL    HW2 2766   1.050   0.607   6.243
  623SOL     OW 2767   0.937   5.822   5.929
  623SOL    HW1 2768   0.966   5.727   5.913
  623SOL    HW2 2769   0.921   5.867   5.841
  624SOL     OW 2770   6.992   2.350   1.165
  624SOL    HW1 2771   6.970   2.374   1.070
  624SOL    HW2 2772   0.059   2.399   1.194
  625SOL     OW 2773   2.701   1.980   1.746
  625SOL    HW1 2774   2.767   2.054   1.754
  625SOL    HW2 2775   2.668   1.955   1.838
  626SOL     OW 2776   2.644   5.506   3.749
  626SOL    HW1 2777   2.656   5.471   3.656
  626SOL    HW2 2778   2.561   5.467   3.789
  627SOL     OW 2779   5.227   0.234   0.752
  627SOL    HW1 2780   5.145   0.240   0.696
  627SOL    HW2 2781   5.298   0.183   0.702
  628SOL     OW 2782   5.710   5.340   5.986
  628SOL    HW1 2783   5.678   5.246   5.994
  628SOL    HW2 2784   5.667   5.384   5.907
  629SOL     OW 2785   6.700   6.656   0.871
  629SOL    HW1 2786   6.703   6.624   0.966
  629SOL    HW2 2787   6.777   6.617   0.820
  630SOL     OW 2788   6.325   1.384   2.533
  630SOL    HW1 2789   6.378   1.395   2.617
  630SOL    HW2 2790   6.307   1.287   2.517
  631SOL     OW 2791   3.476   6.787   4.814
  631SOL    HW1 2792   3.382   6.755   4.826
  631SOL    HW2 2793   3.478   6.860   4.746
  632SOL     OW 2794   2.617   1.771   0.588
  632SOL    HW1 2795   2.570   1.834   0.526
  632SOL    HW2 2796   2.632   1.684   0.542
  633SOL     OW 2797   4.598   5.027   0.131
  633SOL    HW1 2798   4.559   5.008   0.222
  633SOL    HW2 2799   4.674   4.964   0.114
  634SOL     OW 2800   4.901   4.627   1.829
  634SOL    HW1 2801   4.878   4.671   1.742
  634SOL    HW2 2802   4.817   4.592   1.871
  635SOL     OW 2803   4.766   5.295   1.861
  635SOL    HW1 2804   4.702   5.219   1.849
  635SOL    HW2 2805   4.757   5.359   1.784
  636SOL     OW 2806   5.070   5.804   0.042
  636SOL    HW1 2807   5.084   5.902   0.053
  636SOL    HW2 2808   5.033   5.765   0.126
  637SOL     OW 2809   6.323   3.780   1.928
  637SOL    HW1 2810   6.311   3.748   1.834
  637SOL    HW2 2811   6.369   3.709   1.982
  638SOL     OW 2812   4.993   2.044   2.337
  638SOL    HW1 2813   4.953   2.059   2.427
  638SOL    HW2 2814   5.091   2.063   2.340
  639SOL     OW 2815   5.408   4.118   2.625
  639SOL    HW1 2816   5.357   4.040   2.660
  639SOL    HW2 2817   5.373   4.143   2.535
  640SOL     OW 2818   0.852   4.705   5.184
  640SOL    HW1 2819   0.825   4.657   5.267
  640SOL    HW2 2820   0.819   4.656   5.104
  641SOL     OW 2821   6.967   5.367   4.722
  641SOL    HW1 2822   6.904   5.347   4.648
  641SOL    HW2 2823   7.008   5.457   4.708
  642SOL     OW 2824   6.637   4.135   4.273
  642SOL    HW1 2825   6.583   4.060   4.235
  642SOL    HW2 2826   6.717   4.098   4.320
  643SOL     OW 2827   5.608   4.878   5.425
  643SOL    HW1 2828   5.550   4.952   5.390
  643SOL    HW2 2829   5.690   4.870   5.369
  644SOL     OW 2830   1.190   6.155   3.687
  644SOL    HW1 2831   1.128   6.189   3.758
  644SOL    HW2 2832   1.240   6.232   3.647
  645SOL     OW 2833   5.509   2.292   4.477
  645SOL    HW1 2834   5.548   2.330   4.560
  645SOL    HW2 2835   5.427   2.239   4.499
  646SOL     OW 2836   2.500   1.461   3.253
  646SOL    HW1 2837   2.501   1.515   3.337
  646SOL    HW2 2838   2.588   1.415   3.242
  647SOL     OW 2839   5.961   2.637   5.916
  647SOL    HW1 2840   5.916   2.698   5.980
  647SOL    HW2 2841   5.916   2.643   5.827
  648SOL     OW 2842   6.950   3.916   3.327
  648SOL    HW1 2843   6.912   3.851   3.392
  648SOL    HW2 2844   6.877   3.971   3.287
  649SOL     OW 2845   4.194   4.068   0.855
  649SOL    HW1 2846   4.220   4.164   0.853
  649SOL    HW2 2847   4.273   4.013   0.886
  650SOL     OW 2848   5.168   4.259   0.779
  650SOL    HW1 2849   5.151   4.354   0.753
  650SOL    HW2 2850   5.227   4.216   0.712
  651SOL     OW 2851   0.048   6.642   6.633
  651SOL    HW1 2852   0.021   6.554   6.595
  651SOL    HW2 2853   7.006   6.714   6.594
  652SOL     OW 2854   5.877   6.001   3.649
  652SOL    HW1 2855   5.818   5.960   3.579
  652SOL    HW2 2856   5.970   6.009   3.613
  653SOL     OW 2857   3.648   6.003   4.962
  653SOL    HW1 2858   3.644   6.073   4.891
  653SOL    HW2 2859   3.590   5.926   4.936
  654SOL     OW 2860   0.116   3.886   5.863
  654SOL    HW1 2861   0.163   3.925   5.784
  654SOL    HW2 2862   0.096   3.789   5.846
  655SOL     OW 2863   0.891   6.702   2.084
  655SOL    HW1 2864   0.958   6.674   2.152
  655SOL    HW2 2865   0.914   6.793   2.049
  656SOL     OW 2866   1.746   5.795   1.503
  656SOL    HW1 2867   1.791   5.870   1.552
  656SOL    HW2 2868   1.744   5.816   1.406
  657SOL     OW 2869   1.742   2.060   1.957
  657SOL    HW1 2870   1.702   1.969   1.964
  657SOL    HW2 2871   1.841   2.052   1.943
  658SOL     OW 2872   2.693   3.908   6.183
  658SOL    HW1 2873   2.762   3.836   6.195
  658SOL    HW2 2874   2.732   3.996   6.212
  659SOL     OW 2875   2.466   6.459   6.434
  659SOL    HW1 2876   2.525   6.454   6.353
  659SOL    HW2 2877   2.371   6.451   6.405
  660SOL     OW 2878   5.204   4.152   1.600
  660SOL    HW1 2879   5.189   4.110   1.690
  660SOL    HW2 2880   5.257   4.090   1.543
  661SOL     OW 2881   4.383   6.319   3.755
  661SOL    HW1 2882   4.351   6.348   3.845
  661SOL    HW2 2883   4.416   6.225   3.760
  662SOL     OW 2884   4.191   1.370   5.258
  662SOL    HW1 2885   4.249   1.291   5.241
  662SOL    HW2 2886   4.229   1.450   5.212
  663SOL     OW 2887   2.424   3.954   6.137
  663SOL    HW1 2888   2.405   3.867   6.091
  663SOL    HW2 2889   2.511   3.947   6.185
  664SOL     OW 2890   0.276   6.330   6.274
  664SOL    HW1 2891   0.364   6.306   6.317
  664SOL    HW2 2892   0.207   6.342   6.345
  665SOL     OW 2893   4.202   5.244   1.849
  665SOL    HW1 2894   4.129   5.265   1.784
  665SOL    HW2 2895   4.225   5.146   1.843
  666SOL     OW 2896   5.109   1.423   1.867
  666SOL    HW1 2897   5.166   1.442   1.788
  666SOL    HW2 2898   5.142   1.340   1.913
  667SOL     OW 2899   1.142   4.804   2.482
  667SOL    HW1 2900   1.054   4.823   2.439
  667SOL    HW2 2901   1.192   4.736   2.428
  668SOL     OW 2902   4.794   6.181   6.307
  668SOL    HW1 2903   4.702   6.146   6.329
  668SOL    HW2 2904   4.846   6.110   6.261
  669SOL     OW 2905   5.117   0.129   3.246
  669SOL    HW1 2906   5.154   0.039   3.225
  669SOL    HW2 2907   5.191   0.195   3.254
  670SOL     OW 2908   3.080   2.617   1.714
  670SOL    HW1 2909   3.150   2.663   1.769
  670SOL    HW2 2910   3.024   2.558   1.773
  671SOL     OW 2911   3.382   6.391   0.811
  671SOL    HW1 2912   3.355   6.408   0.906
  671SOL    HW2 2913   3.302   6.367   0.757
  672SOL     OW 2914   6.575   5.668   1.695
  672SOL    HW1 2915   6.486   5.693   1.658
  672SOL    HW2 2916   6.595   5.725   1.775
  673SOL     OW 2917   6.452   0.242   1.407
  673SOL    HW1 2918   6.480   0.231   1.503
  673SOL    HW2 2919   6.477   0.333   1.375
  674SOL     OW 2920   0.309   1.337   5.327
  674SOL    HW1 2921   0.285   1.403   5.256
  674SOL    HW2 2922   0.291   1.377   5.417
  675SOL     OW 2923   0.163   2.285   2.012
  675SOL    HW1 2924   0.256   2.256   1.992
  675SOL    HW2 2925   0.151   2.381   1.985
  676SOL     OW 2926   3.192   5.624   3.809
  676SOL    HW1 2927   3.204   5.533   3.770
  676SOL    HW2 2928   3.097   5.635   3.839
  677SOL     OW 2929   5.445   1.240   0.276
  677SOL    HW1 2930   5.468   1.180   0.353
  677SOL    HW2 2931   5.370   1.300   0.302
  678SOL     OW 2932   2.683   6.571   4.937
  678SOL    HW1 2933   2.684   6.551   5.035
  678SOL    HW2 2934   2.609   6.636   4.918
  679SOL     OW 2935   4.848   2.239   3.961
  679SOL    HW1 2936   4.942   2.271   3.952
  679SOL    HW2 2937   4.841   2.146   3.925
  680SOL     OW 2938   5.112   5.642   4.890
  680SOL    HW1 2939   5.200   5.660   4.846
  680SOL    HW2 2940   5.099   5.704   4.967
  681SOL     OW 2941   4.459   5.207   1.504
  681SOL    HW1 2942   4.440   5.303   1.528
  681SOL    HW2 2943   4.375   5.164   1.471
  682SOL     OW 2944   6.320   0.904   1.762
  682SOL    HW1 2945   6.260   0.874   1.687
  682SOL    HW2 2946   6.408   0.859   1.754
  683SOL     OW 2947   5.332   2.568   0.784
  683SOL    HW1 2948   5.403   2.626   0.825
  683SOL    HW2 2949   5.242   2.605   0.806
  684SOL     OW 2950   6.348   1.096   0.686
  684SOL    HW1 2951   6.355   1.100   0.786
  684SOL    HW2 2952   6.269   1.150   0.656
  685SOL     OW 2953   3.202   1.813   3.950
  685SOL    HW1 2954   3.161   1.813   3.859
  685SOL    HW2 2955   3.235   1.906   3.971
  686SOL     OW 2956   4.758   2.742   4.008
  686SOL    HW1 2957   4.723   2.758   4.100
  686SOL    HW2 2958   4.718   2.808   3.945
  687SOL     OW 2959   0.921   2.094   4.160
  687SOL    HW1 2960   0.932   2.002   4.122
  687SOL    HW2 2961   0.844   2.140   4.116
  688SOL     OW 2962   0.686   2.205   6.384
  688SOL    HW1 2963   0.658   2.265   6.309
  688SOL    HW2 2964   0.605   2.173   6.434
  689SOL     OW 2965   1.235   4.678   6.329
  689SOL    HW1 2966   1.254   4.640   6.419
  689SOL    HW2 2967   1.152   4.635   6.291
  690SOL     OW 2968   6.754   3.176   3.454
  690SOL    HW1 2969   6.806   3.249   3.410
  690SOL    HW2 2970   6.807   3.091   3.452
  691SOL     OW 2971   3.148   1.163   0.276
  691SOL    HW1 2972   3.080   1.137   0.345
  691SOL    HW2 2973   3.177   1.081   0.226
  692SOL     OW 2974   4.015   1.816   3.881
  692SOL    HW1 2975   3.997   1.757   3.959
  692SOL    HW2 2976   4.107   1.855   3.890
  693SOL     OW 2977   4.773   6.972   4.027
  693SOL    HW1 2978   4.871   6.954   4.030
  693SOL    HW2 2979   4.723   6.886   4.038
  694SOL     OW 2980   4.416   6.842   4.426
  694SOL    HW1 2981   4.478   6.887   4.362
  694SOL    HW2 2982   4.462   6.764   4.468
  695SOL     OW 2983   4.258   6.859   3.835
  695SOL    HW1 2984   4.277   6.813   3.921
  695SOL    HW2 2985   4.329   6.927   3.816
  696SOL     OW 2986   4.774   4.574   3.742
  696SOL    HW1 2987   4.733   4.485   3.719
  696SOL    HW2 2988   4.742   4.603   3.832
  697SOL     OW 2989   1.411   4.002   2.466
  697SOL    HW1 2990   1.421   3.903   2.480
  697SOL    HW2 2991   1.462   4.051   2.537
  698SOL     OW 2992   5.223   6.367   1.259
  698SOL    HW1 2993   5.307   6.381   1.312
  698SOL    HW2 2994   5.144   6.386   1.317
  699SOL     OW 2995   1.523   3.287   6.594
  699SOL    HW1 2996   1.591   3.327   6.533
  699SOL    HW2 2997   1.450   3.354   6.611
  700SOL     OW 2998   3.671   1.029   2.519
  700SOL    HW1 2999   3.729   1.027   2.601
  700SOL    HW2 3000   3.576   1.043   2.545
  701SOL     OW 3001   6.767   3.600   6.842
  701SOL    HW1 3002   6.670   3.623   6.834
  701SOL    HW2 3003   6.783   3.510   6.801
  702SOL     OW 3004   1.546   6.193   4.995
  702SOL    HW1 3005   1.488   6.147   4.928
  702SOL    HW2 3006   1.573   6.128   5.066
  703SOL     OW 3007   3.553   3.150   5.975
  703SOL    HW1 3008   3.559   3.123   6.071
  703SOL    HW2 3009   3.473   3.107   5.934
  704SOL     OW 3010   1.478   2.911   6.117
  704SOL    HW1 3011   1.527   2.971   6.180
  704SOL    HW2 3012   1.401   2.961   6.076
  705SOL     OW 3013   6.229   5.118   2.803
  705SOL    HW1 3014   6.315   5.167   2.815
  705SOL    HW2 3015   6.154   5.170   2.844
  706SOL     OW 3016   4.126   1.866   5.074
  706SOL    HW1 3017   4.162   1.951   5.036
  706SOL    HW2 3018   4.045   1.838   5.022
  707SOL     OW 3019   4.542   4.789   3.244
  707SOL    HW1 3020   4.537   4.888   3.230
  707SOL    HW2 3021   4.605   4.749   3.177
  708SOL     OW 3022   2.954   0.573   2.633
  708SOL    HW1 3023   2.913   0.657   2.596
  708SOL    HW2 3024   3.028   0.597   2.696
  709SOL     OW 3025   0.948   5.793   0.566
  709SOL    HW1 3026   0.862   5.841   0.575
  709SOL    HW2 3027   0.944   5.706   0.616
  710SOL     OW 3028   4.210   2.403   1.235
  710SOL    HW1 3029   4.278   2.474   1.214
  710SOL    HW2 3030   4.157   2.430   1.315
  711SOL     OW 3031   0.349   3.076   6.123
  711SOL    HW1 3032   0.302   3.101   6.207
  711SOL    HW2 3033   0.440   3.118   6.122
  712SOL     OW 3034   4.805   2.371   1.583
  712SOL    HW1 3035   4.845   2.424   1.658
  712SOL    HW2 3036   4.803   2.274   1.606
  713SOL     OW 3037   3.621   3.638   5.943
  713SOL    HW1 3038   3.718   3.641   5.919
  713SOL    HW2 3039   3.607   3.687   6.030
  714SOL     OW 3040   0.240   5.139   3.658
  714SOL    HW1 3041   0.226   5.236   3.674
  714SOL    HW2 3042   0.152   5.093   3.645
  715SOL     OW 3043   5.393   6.025   6.960
  715SOL    HW1 3044   5.369   5.929   6.974
  715SOL    HW2 3045   5.375   6.076   0.029
  716SOL     OW 3046   0.674   0.848   1.933
  716SOL    HW1 3047   0.650   0.843   2.030
  716SOL    HW2 3048   0.737   0.924   1.918
  717SOL     OW 3049   6.897   4.525   3.949
  717SOL    HW1 3050   6.895   4.444   4.007
  717SOL    HW2 3051   6.976   4.581   3.972
  718SOL     OW 3052   4.816   3.168   5.974
  718SOL    HW1 3053   4.798   3.266   5.967
  718SOL    HW2 3054   4.797   3.125   5.886
  719SOL     OW 3055   5.913   0.143   2.463
  719SOL    HW1 3056   5.938   0.224   2.409
  719SOL    HW2 3057   5.996   0.098   2.496
  720SOL     OW 3058   2.274   0.211   6.455
  720SOL    HW1 3059   2.279   0.111   6.452
  720SOL    HW2 3060   2.366   0.249   6.453
  721SOL     OW 3061   2.235   1.958   2.169
  721SOL    HW1 3062   2.282   1.869   2.166
  721SOL    HW2 3063   2.273   2.018   2.099
  722SOL     OW 3064   2.528   0.800   5.714
  722SOL    HW1 3065   2.532   0.804   5.814
  722SOL    HW2 3066   2.566   0.885   5.676
  723SOL     OW 3067   1.897   4.232   3.303
  723SOL    HW1 3068   1.899   4.278   3.392
  723SOL    HW2 3069   1.836   4.152   3.308
  724SOL     OW 3070   0.666   1.359   3.839
  724SOL    HW1 3071   0.760   1.346   3.810
  724SOL    HW2 3072   0.619   1.417   3.772
  725SOL     OW 3073   1.380   5.278   2.879
  725SOL    HW1 3074   1.328   5.288   2.964
  725SOL    HW2 3075   1.478   5.287   2.899
  726SOL     OW 3076   3.179   5.156   1.553
  726SOL    HW1 3077   3.164   5.161   1.652
  726SOL    HW2 3078   3.155   5.244   1.512
  727SOL     OW 3079   6.161   4.080   5.913
  727SOL    HW1 3080   6.128   4.167   5.877
  727SOL    HW2 3081   6.083   4.022   5.936
  728SOL     OW 3082   6.482   3.258   3.984
  728SOL    HW1 3083   6.420   3.240   3.907
  728SOL    HW2 3084   6.556   3.191   3.983
  729SOL     OW 3085   0.285   2.304   0.960
  729SOL    HW1 3086   0.359   2.369   0.981
  729SOL    HW2 3087   0.324   2.214   0.941
  730SOL     OW 3088   6.506   0.003   4.123
  730SOL    HW1 3089   6.536   0.093   4.153
  730SOL    HW2 3090   6.430   6.987   4.180
  731SOL     OW 3091   4.252   5.422   6.136
  731SOL    HW1 3092   4.333   5.446   6.189
  731SOL    HW2 3093   4.218   5.503   6.088
  732SOL     OW 3094   5.881   2.968   1.613
  732SOL    HW1 3095   5.795   2.981   1.564
  732SOL    HW2 3096   5.916   2.876   1.596
  733SOL     OW 3097   5.554   0.226   5.005
  733SOL    HW1 3098   5.508   0.314   5.001
  733SOL    HW2 3099   5.653   0.240   5.005
  734SOL     OW 3100   6.100   4.865   2.740
  734SOL    HW1 3101   6.160   4.945   2.740
  734SOL    HW2 3102   6.034   4.873   2.815
  735SOL     OW 3103   3.911   1.873   0.508
  735SOL    HW1 3104   3.947   1.876   0.602
  735SOL    HW2 3105   3.970   1.928   0.449
  736SOL     OW 3106   0.968   0.807   3.663
  736SOL    HW1 3107   0.963   0.852   3.574
  736SOL    HW2 3108   1.062   0.774   3.678
  737SOL     OW 3109   5.359   1.873   5.604
  737SOL    HW1 3110   5.297   1.847   5.530
  737SOL    HW2 3111   5.366   1.973   5.608
  738SOL     OW 3112   2.939   3.822   1.378
  738SOL    HW1 3113   2.943   3.816   1.278
  738SOL    HW2 3114   2.905   3.912   1.404
  739SOL     OW 3115   5.025   0.581   4.328
  739SOL    HW1 3116   5.120   0.555   4.342
  739SOL    HW2 3117   4.973   0.502   4.294
  740SOL     OW 3118   5.770   1.115   2.868
  740SOL    HW1 3119   5.763   1.060   2.951
  740SOL    HW2 3120   5.687   1.170   2.858
  741SOL     OW 3121   1.679   0.074   3.511
  741SOL    HW1 3122   1.668   7.001   3.467
  741SOL    HW2 3123   1.596   0.129   3.498
  742SOL     OW 3124   2.380   6.794   1.768
  742SOL    HW1 3125   2.352   6.846   1.849
  742SOL    HW2 3126   2.361   6.697   1.783
  743SOL     OW 3127   0.676   5.205   2.977
  743SOL    HW1 3128   0.680   5.146   3.059
  743SOL    HW2 3129   0.580   5.223   2.954
  744SOL     OW 3130   5.587   0.977   1.231
  744SOL    HW1 3131   5.572   0.878   1.234
  744SOL    HW2 3132   5.499   1.024   1.241
  745SOL     OW 3133   1.626   5.448   4.969
  745SOL    HW1 3134   1.569   5.513   5.018
  745SOL    HW2 3135   1.704   5.422   5.027
  746SOL     OW 3136   6.191   3.781   6.230
  746SOL    HW1 3137   6.218   3.867   6.273
  746SOL    HW2 3138   6.241   3.769   6.144
  747SOL     OW 3139   4.006   6.009   4.942
  747SOL    HW1 3140   4.049   5.944   4.879
  747SOL    HW2 3141   3.942   5.960   5.001
  748SOL     OW 3142   4.374   5.287   2.612
  748SOL    HW1 3143   4.339   5.260   2.702
  748SOL    HW2 3144   4.301   5.278   2.544
  749SOL     OW 3145   6.192   3.921   4.550
  749SOL    HW1 3146   6.167   3.850   4.483
  749SOL    HW2 3147   6.116   3.986   4.559
  750SOL     OW 3148   2.975   1.371   1.081
  750SOL    HW1 3149   3.064   1.354   1.123
  750SOL    HW2 3150   2.908   1.306   1.119
  751SOL     OW 3151   4.693   1.930   0.246
  751SOL    HW1 3152   4.636   2.006   0.215
  751SOL    HW2 3153   4.725   1.878   0.167
  752SOL     OW 3154   2.564   3.026   0.857
  752SOL    HW1 3155   2.513   2.978   0.929
  752SOL    HW2 3156   2.662   3.012   0.870
  753SOL     OW 3157   0.779   3.729   5.716
  753SOL    HW1 3158   0.770   3.752   5.619
  753SOL    HW2 3159   0.689   3.737   5.760
  754SOL     OW 3160   4.622   1.165   6.437
  754SOL    HW1 3161   4.661   1.254   6.415
  754SOL    HW2 3162   4.592   1.120   6.353
  755SOL     OW 3163   1.917   4.427   5.114
  755SOL    HW1 3164   1.980   4.435   5.191
  755SOL    HW2 3165   1.968   4.426   5.028
  756SOL     OW 3166   2.364   5.615   6.972
  756SOL    HW1 3167   2.307   5.697   6.968
  756SOL    HW2 3168   2.327   5.552   0.025
  757SOL     OW 3169   0.467   6.273   4.341
  757SOL    HW1 3170   0.514   6.299   4.257
  757SOL    HW2 3171   0.527   6.291   4.419
  758SOL     OW 3172   4.736   0.752   3.475
  758SOL    HW1 3173   4.784   0.736   3.389
  758SOL    HW2 3174   4.710   0.664   3.515
  759SOL     OW 3175   0.124   2.681   2.600
  759SOL    HW1 3176   0.217   2.646   2.608
  759SOL    HW2 3177   0.093   2.712   2.690
  760SOL     OW 3178   5.958   6.965   3.522
  760SOL    HW1 3179   6.032   6.986   3.586
  760SOL    HW2 3180   5.945   6.866   3.518
  761SOL     OW 3181   5.432   4.238   6.717
  761SOL    HW1 3182   5.495   4.289   6.659
  761SOL    HW2 3183   5.483   4.171   6.771
  762SOL     OW 3184   3.059   0.273   5.439
  762SOL    HW1 3185   3.055   0.287   5.340
  762SOL    HW2 3186   3.154   0.264   5.469
  763SOL     OW 3187   3.990   6.067   5.822
  763SOL    HW1 3188   3.994   6.040   5.726
  763SOL    HW2 3189   3.918   6.016   5.869
  764SOL     OW 3190   5.418   0.897   5.672
  764SOL    HW1 3191   5.504   0.911   5.720
  764SOL    HW2 3192   5.437   0.863   5.580
  765SOL     OW 3193   1.428   5.832   0.921
  765SOL    HW1 3194   1.468   5.871   1.004
  765SOL    HW2 3195   1.385   5.905   0.867
  766SOL     OW 3196   2.721   2.050   5.292
  766SOL    HW1 3197   2.651   2.056   5.363
  766SOL    HW2 3198   2.690   2.098   5.210
  767SOL     OW 3199   6.548   6.335   3.743
  767SOL    HW1 3200   6.599   6.257   3.705
  767SOL    HW2 3201   6.585   6.419   3.705
  768SOL     OW 3202   1.805   5.082   3.351
  768SOL    HW1 3203   1.784   5.147   3.424
  768SOL    HW2 3204   1.754   4.998   3.365
  769SOL     OW 3205   2.819   0.881   5.938
  769SOL    HW1 3206   2.862   0.970   5.937
  769SOL    HW2 3207   2.844   0.830   5.856
  770SOL     OW 3208   1.343   5.310   4.034
  770SOL    HW1 3209   1.412   5.308   4.106
  770SOL    HW2 3210   1.290   5.225   4.036
  771SOL     OW 3211   1.330   4.784   2.730
  771SOL    HW1 3212   1.312   4.852   2.800
  771SOL    HW2 3213   1.263   4.793   2.656
  772SOL     OW 3214   6.199   4.416   6.941
  772SOL    HW1 3215   6.268   4.473   6.897
  772SOL    HW2 3216   6.239   4.367   0.003
  773SOL     OW 3217   0.551   4.243   3.268
  773SOL    HW1 3218   0.461   4.224   3.228
  773SOL    HW2 3219   0.621   4.233   3.198
  774SOL     OW 3220   1.746   1.650   1.893
  774SOL    HW1 3221   1.738   1.723   1.960
  774SOL    HW2 3222   1.656   1.632   1.853
  775SOL     OW 3223   1.862   1.654   3.933
  775SOL    HW1 3224   1.875   1.680   3.837
  775SOL    HW2 3225   1.904   1.565   3.950
  776SOL     OW 3226   0.035   0.464   6.227
  776SOL    HW1 3227   6.992   0.385   6.243
  776SOL    HW2 3228   7.011   0.521   6.155
  777SOL     OW 3229   1.886   4.426   1.463
  777SOL    HW1 3230   1.869   4.332   1.492
  777SOL    HW2 3231   1.941   4.472   1.532
  778SOL     OW 3232   2.580   0.188   1.491
  778SOL    HW1 3233   2.549   0.133   1.568
  778SOL    HW2 3234   2.500   0.228   1.444
  779SOL     OW 3235   6.815   2.268   2.222
  779SOL    HW1 3236   6.900   2.216   2.214
  779SOL    HW2 3237   6.778   2.287   2.130
  780SOL     OW 3238   0.650   2.350   4.447
  780SOL    HW1 3239   0.728   2.403   4.480
  780SOL    HW2 3240   0.565   2.400   4.465
  781SOL     OW 3241   5.487   5.969   1.267
  781SOL    HW1 3242   5.408   5.967   1.329
  781SOL    HW2 3243   5.489   6.057   1.219
  782SOL     OW 3244   1.496   3.370   5.593
  782SOL    HW1 3245   1.489   3.448   5.656
  782SOL    HW2 3246   1.585   3.326   5.605
  783SOL     OW 3247   5.045   4.724   2.078
  783SOL    HW1 3248   4.967   4.690   2.025
  783SOL    HW2 3249   5.072   4.654   2.145
  784SOL     OW 3250   3.989   4.840   1.766
  784SOL    HW1 3251   4.081   4.876   1.787
  784SOL    HW2 3252   3.923   4.881   1.829
  785SOL     OW 3253   0.835   1.297   3.507
  785SOL    HW1 3254   0.774   1.235   3.458
  785SOL    HW2 3255   0.782   1.360   3.563
  786SOL     OW 3256   6.870   0.262   2.484
  786SOL    HW1 3257   6.946   0.245   2.546
  786SOL    HW2 3258   6.833   0.354   2.501
  787SOL     OW 3259   1.394   0.768   0.084
  787SOL    HW1 3260   1.397   0.705   0.162
  787SOL    HW2 3261   1.446   0.730   0.008
  788SOL     OW 3262   4.667   2.153   1.191
  788SOL    HW1 3263   4.629   2.071   1.146
  788SOL    HW2 3264   4.670   2.138   1.289
  789SOL     OW 3265   4.207   4.927   1.937
  789SOL    HW1 3266   4.129   4.896   1.992
  789SOL    HW2 3267   4.286   4.940   1.997
  790SOL     OW 3268   2.639   1.675   2.747
  790SOL    HW1 3269   2.570   1.604   2.767
  790SOL    HW2 3270   2.689   1.696   2.830
  791SOL     OW 3271   2.623   6.098   5.176
  791SOL    HW1 3272   2.561   6.069   5.249
  791SOL    HW2 3273   2.639   6.021   5.114
  792SOL     OW 3274   1.028   0.743   2.219
  792SOL    HW1 3275   0.949   0.685   2.197
  792SOL    HW2 3276   1.017   0.832   2.174
  793SOL     OW 3277   5.073   5.361   4.881
  793SOL    HW1 3278   5.069   5.459   4.867
  793SOL    HW2 3279   5.101   5.341   4.975
  794SOL     OW 3280   2.732   4.057   5.752
  794SOL    HW1 3281   2.726   4.114   5.670
  794SOL    HW2 3282   2.669   4.091   5.821
  795SOL     OW 3283   4.183   0.647   5.368
  795SOL    HW1 3284   4.246   0.615   5.438
  795SOL    HW2 3285   4.089   0.622   5.392
  796SOL     OW 3286   0.934   2.965   6.821
  796SOL    HW1 3287   0.898   2.999   6.733
  796SOL    HW2 3288   1.033   2.974   6.822
  797SOL     OW 3289   4.847   0.365   0.846
  797SOL    HW1 3290   4.916   0.435   0.866
  797SOL    HW2 3291   4.799   0.340   0.930
  798SOL     OW 3292   3.584   6.873   2.315
  798SOL    HW1 3293   3.601   6.815   2.235
  798SOL    HW2 3294   3.509   6.834   2.368
  799SOL     OW 3295   0.422   0.638   6.318
  799SOL    HW1 3296   0.443   0.736   6.311
  799SOL    HW2 3297   0.408   0.613   6.414
  800SOL     OW 3298   6.603   1.017   2.325
  800SOL    HW1 3299   6.542   1.019   2.404
  800SOL    HW2 3300   6.551   1.041   2.243
  801SOL     OW 3301   2.220   4.619   5.130
  801SOL    HW1 3302   2.199   4.522   5.119
  801SOL    HW2 3303   2.285   4.648   5.060
  802SOL     OW 3304   3.178   2.453   6.769
  802SOL    HW1 3305   3.245   2.522   6.741
  802SOL    HW2 3306   3.194   2.369   6.718
  803SOL     OW 3307   1.479   0.444   5.774
  803SOL    HW1 3308   1.469   0.541   5.749
  803SOL    HW2 3309   1.470   0.434   5.873
  804SOL     OW 3310   6.616   6.210   1.405
  804SOL    HW1 3311   6.697   6.262   1.379
  804SOL    HW2 3312   6.596   6.142   1.335
  805SOL     OW 3313   2.337   1.208   4.435
  805SOL    HW1 3314   2.420   1.172   4.476
  805SOL    HW2 3315   2.261   1.197   4.498
  806SOL     OW 3316   5.696   0.487   5.735
  806SOL    HW1 3317   5.601   0.487   5.705
  806SOL    HW2 3318   5.752   0.534   5.666
  807SOL     OW 3319   0.528   0.158   4.698
  807SOL    HW1 3320   0.574   0.199   4.776
  807SOL    HW2 3321   0.573   0.072   4.674
  808SOL     OW 3322   4.425   3.225   0.129
  808SOL    HW1 3323   4.466   3.215   0.219
  808SOL    HW2 3324   4.379   3.314   0.123
  809SOL     OW 3325   0.859   4.765   0.766
  809SOL    HW1 3326   0.821   4.681   0.727
  809SOL    HW2 3327   0.838   4.769   0.864
  810SOL     OW 3328   3.528   4.511   0.173
  810SOL    HW1 3329   3.462   4.442   0.203
  810SOL    HW2 3330   3.508   4.537   0.078
  811SOL     OW 3331   5.388   5.367   4.144
  811SOL    HW1 3332   5.430   5.402   4.061
  811SOL    HW2 3333   5.451   5.379   4.221
  812SOL     OW 3334   0.107   1.686   2.269
  812SOL    HW1 3335   0.103   1.636   2.355
  812SOL    HW2 3336   0.020   1.732   2.254
  813SOL     OW 3337   3.438   0.373   4.429
  813SOL    HW1 3338   3.466   0.302   4.366
  813SOL    HW2 3339   3.360   0.340   4.484
  814SOL     OW 3340   6.451   5.275   2.552
  814SOL    HW1 3341   6.500   5.211   2.611
  814SOL    HW2 3342   6.514   5.311   2.483
  815SOL     OW 3343   6.019   3.010   3.590
  815SOL    HW1 3344   5.930   3.050   3.566
  815SOL    HW2 3345   6.082   3.018   3.513
  816SOL     OW 3346   5.747   5.347   0.495
  816SOL    HW1 3347   5.664   5.337   0.550
  816SOL    HW2 3348   5.724   5.387   0.407
  817SOL     OW 3349   1.001   5.423   1.403
  817SOL    HW1 3350   1.056   5.358   1.350
  817SOL    HW2 3351   0.910   5.430   1.364
  818SOL     OW 3352   6.309   3.309   3.640
  818SOL    HW1 3353   6.218   3.320   3.599
  818SOL    HW2 3354   6.318   3.217   3.678
  819SOL     OW 3355   6.187   2.944   1.314
  819SOL    HW1 3356   6.223   2.888   1.388
  819SOL    HW2 3357   6.113   2.896   1.267
  820SOL     OW 3358   3.255   2.115   4.757
  820SOL    HW1 3359   3.266   2.144   4.852
  820SOL    HW2 3360   3.168   2.067   4.746
  821SOL     OW 3361   6.463   4.615   6.197
  821SOL    HW1 3362   6.402   4.661   6.133
  821SOL    HW2 3363   6.427   4.525   6.220
  822SOL     OW 3364   0.076   3.572   3.329
  822SOL    HW1 3365   0.020   3.492   3.352
  822SOL    HW2 3366   0.130   3.598   3.410
  823SOL     OW 3367   6.374   4.363   6.248
  823SOL    HW1 3368   6.415   4.292   6.305
  823SOL    HW2 3369   6.274   4.356   6.251
  824SOL     OW 3370   4.525   1.018   6.205
  824SOL    HW1 3371   4.432   0.988   6.225
  824SOL    HW2 3372   4.585   0.938   6.200
  825SOL     OW 3373   6.205   5.519   1.196
  825SOL    HW1 3374   6.242   5.524   1.289
  825SOL    HW2 3375   6.174   5.609   1.167
  826SOL     OW 3376   3.853   2.572   5.511
  826SOL    HW1 3377   3.903   2.626   5.444
  826SOL    HW2 3378   3.896   2.583   5.601
  827SOL     OW 3379   2.532   4.318   5.258
  827SOL    HW1 3380   2.437   4.291   5.272
  827SOL    HW2 3381   2.535   4.411   5.222
  828SOL     OW 3382   5.531   6.347   6.493
  828SOL    HW1 3383   5.551   6.439   6.460
  828SOL    HW2 3384   5.612   6.308   6.537
  829SOL     OW 3385   3.806   3.469   1.933
  829SOL    HW1 3386   3.747   3.389   1.938
  829SOL    HW2 3387   3.825   3.490   1.837
  830SOL     OW 3388   5.738   4.813   6.702
  830SOL    HW1 3389   5.826   4.826   6.657
  830SOL    HW2 3390   5.698   4.727   6.672
  831SOL     OW 3391   5.747   6.999   1.133
  831SOL    HW1 3392   5.833   0.036   1.132
  831SOL    HW2 3393   5.756   6.920   1.073
  832SOL     OW 3394   4.127   2.216   4.076
  832SOL    HW1 3395   4.033   2.207   4.109
  832SOL    HW2 3396   4.126   2.228   3.977
  833SOL     OW 3397   2.100   3.320   6.336
  833SOL    HW1 3398   2.068   3.400   6.284
  833SOL    HW2 3399   2.022   3.260   6.355
  834SOL     OW 3400   5.309   3.601   1.059
  834SOL    HW1 3401   5.216   3.569   1.045
  834SOL    HW2 3402   5.330   3.673   0.993
  835SOL     OW 3403   2.707   0.076   5.032
  835SOL    HW1 3404   2.781   0.020   4.995
  835SOL    HW2 3405   2.627   0.071   4.972
  836SOL     OW 3406   3.977   0.529   5.163
  836SOL    HW1 3407   4.074   0.505   5.167
  836SOL    HW2 3408   3.936   0.517   5.253
  837SOL     OW 3409   6.998   0.792   0.990
  837SOL    HW1 3410   6.917   0.749   1.029
  837SOL    HW2 3411   6.992   0.891   1.000
  838SOL     OW 3412   2.601   6.799   4.511
  838SOL    HW1 3413   2.516   6.769   4.469
  838SOL    HW2 3414   2.591   6.802   4.611
  839SOL     OW 3415   2.316   1.393   1.908
  839SOL    HW1 3416   2.252   1.385   1.831
  839SOL    HW2 3417   2.306   1.313   1.968
  840SOL     OW 3418   6.343   6.026   0.085
  840SOL    HW1 3419   6.294   6.039   0.172
  840SOL    HW2 3420   6.298   5.954   0.032
  841SOL     OW 3421   3.412   5.574   5.896
  841SOL    HW1 3422   3.489   5.610   5.948
  841SOL    HW2 3423   3.365   5.649   5.849
  842SOL     OW 3424   3.748   0.366   5.881
  842SOL    HW1 3425   3.667   0.397   5.831
  842SOL    HW2 3426   3.819   0.436   5.877
  843SOL     OW 3427   0.873   1.746   1.448
  843SOL    HW1 3428   0.819   1.817   1.493
  843SOL    HW2 3429   0.840   1.733   1.355
  844SOL     OW 3430   6.965   6.932   0.964
  844SOL    HW1 3431   0.025   6.997   0.970
  844SOL    HW2 3432   6.924   6.920   1.055
  845SOL     OW 3433   5.316   4.023   3.207
  845SOL    HW1 3434   5.251   4.087   3.246
  845SOL    HW2 3435   5.368   3.978   3.280
  846SOL     OW 3436   2.184   0.603   5.910
  846SOL    HW1 3437   2.224   0.694   5.915
  846SOL    HW2 3438   2.162   0.582   5.815
  847SOL     OW 3439   1.095   3.329   1.629
  847SOL    HW1 3440   0.997   3.324   1.650
  847SOL    HW2 3441   1.121   3.250   1.574
  848SOL     OW 3442   6.529   6.764   5.688
  848SOL    HW1 3443   6.443   6.800   5.725
  848SOL    HW2 3444   6.539   6.668   5.715
  849SOL     OW 3445   6.207   4.057   6.192
  849SOL    HW1 3446   6.201   4.069   6.093
  849SOL    HW2 3447   6.127   4.099   6.235
  850SOL     OW 3448   6.212   0.008   4.660
  850SOL    HW1 3449   6.195   0.103   4.635
  850SOL    HW2 3450   6.129   6.970   4.649
  851SOL     OW 3451   0.282   2.927   0.442
  851SOL    HW1 3452   0.207   2.987   0.470
  851SOL    HW2 3453   0.258   2.881   0.356
  852SOL     OW 3454   1.126   4.310   0.352
  852SOL    HW1 3455   1.062   4.240   0.320
  852SOL    HW2 3456   1.215   4.267   0.369
  853SOL     OW 3457   0.629   4.636   0.028
  853SOL    HW1 3458   0.558   4.692   0.071
  853SOL    HW2 3459   0.678   4.586   0.099
  854SOL     OW 3460   4.666   5.796   0.413
  854SOL    HW1 3461   4.642   5.887   0.447
  854SOL    HW2 3462   4.631   5.727   0.476
  855SOL     OW 3463   6.232   0.187   0.968
  855SOL    HW1 3464   6.237   0.286   0.982
  855SOL    HW2 3465   6.253   0.165   0.872
  856SOL     OW 3466   1.415   1.162   6.746
  856SOL    HW1 3467   1.457   1.232   6.687
  856SOL    HW2 3468   1.484   1.124   6.807
  857SOL     OW 3469   6.075   4.906   2.253
  857SOL    HW1 3470   6.058   4.847   2.174
  857SOL    HW2 3471   6.173   4.919   2.265
  858SOL     OW 3472   3.329   4.595   1.488
  858SOL    HW1 3473   3.262   4.551   1.547
  858SOL    HW2 3474   3.389   4.525   1.447
  859SOL     OW 3475   5.887   6.345   5.270
  859SOL    HW1 3476   5.850   6.260   5.233
  859SOL    HW2 3477   5.967   6.373   5.215
  860SOL     OW 3478   6.751   2.420   6.584
  860SOL    HW1 3479   6.721   2.385   6.672
  860SOL    HW2 3480   6.823   2.488   6.598
  861SOL     OW 3481   1.909   4.731   3.863
  861SOL    HW1 3482   1.859   4.778   3.935
  861SOL    HW2 3483   1.883   4.635   3.862
  862SOL     OW 3484   1.869   3.975   2.950
  862SOL    HW1 3485   1.865   4.074   2.934
  862SOL    HW2 3486   1.798   3.930   2.896
  863SOL     OW 3487   6.180   0.922   5.950
  863SOL    HW1 3488   6.139   0.874   5.873
  863SOL    HW2 3489   6.167   1.020   5.940
  864SOL     OW 3490   4.026   5.983   4.267
  864SOL    HW1 3491   4.095   5.971   4.195
  864SOL    HW2 3492   4.030   5.906   4.331
  865SOL     OW 3493   1.632   6.583   5.585
  865SOL    HW1 3494   1.682   6.636   5.654
  865SOL    HW2 3495   1.630   6.487   5.613
  866SOL     OW 3496   2.866   1.057   0.675
  866SOL    HW1 3497   2.868   1.147   0.630
  866SOL    HW2 3498   2.883   1.068   0.773
  867SOL     OW 3499   5.202   3.497   0.751
  867SOL    HW1 3500   5.221   3.588   0.716
  867SOL    HW2 3501   5.127   3.501   0.816
  868SOL     OW 3502   6.519   0.966   1.387
  868SOL    HW1 3503   6.448   1.033   1.409
  868SOL    HW2 3504   6.606   0.995   1.427
  869SOL     OW 3505   0.045   4.204   2.746
  869SOL    HW1 3506   0.016   4.112   2.773
  869SOL    HW2 3507   0.102   4.197   2.664
  870SOL     OW 3508   3.981   3.684   0.668
  870SOL    HW1 3509   4.025   3.633   0.743
  870SOL    HW2 3510   3.989   3.782   0.686
  871SOL     OW 3511   5.070   2.210   3.409
  871SOL    HW1 3512   5.054   2.215   3.310
  871SOL    HW2 3513   5.095   2.300   3.444
  872SOL     OW 3514   5.617   2.883   3.675
  872SOL    HW1 3515   5.572   2.970   3.654
  872SOL    HW2 3516   5.625   2.829   3.591
  873SOL     OW 3517   5.205   5.283   5.140
  873SOL    HW1 3518   5.221   5.198   5.089
  873SOL    HW2 3519   5.217   5.267   5.238
  874SOL     OW 3520   6.534   3.544   6.647
  874SOL    HW1 3521   6.612   3.506   6.596
  874SOL    HW2 3522   6.521   3.640   6.621
  875SOL     OW 3523   4.891   5.057   1.446
  875SOL    HW1 3524   4.919   5.138   1.497
  875SOL    HW2 3525   4.919   5.066   1.351
  876SOL     OW 3526   0.226   5.120   1.966
  876SOL    HW1 3527   0.319   5.155   1.954
  876SOL    HW2 3528   0.211   5.099   2.063
  877SOL     OW 3529   3.510   4.619   5.983
  877SOL    HW1 3530   3.522   4.601   6.081
  877SOL    HW2 3531   3.574   4.561   5.931
  878SOL     OW 3532   4.763   6.596   4.322
  878SOL    HW1 3533   4.788   6.534   4.248
  878SOL    HW2 3534   4.769   6.691   4.290
  879SOL     OW 3535   4.476   1.067   1.656
  879SOL    HW1 3536   4.386   1.032   1.633
  879SOL    HW2 3537   4.471   1.120   1.741
  880SOL     OW 3538   3.139   3.839   3.979
  880SOL    HW1 3539   3.107   3.790   3.898
  880SOL    HW2 3540   3.178   3.927   3.951
  881SOL     OW 3541   4.881   3.854   5.859
  881SOL    HW1 3542   4.829   3.834   5.942
  881SOL    HW2 3543   4.953   3.785   5.847
  882SOL     OW 3544   1.192   2.094   3.636
  882SOL    HW1 3545   1.103   2.102   3.679
  882SOL    HW2 3546   1.261   2.139   3.694
  883SOL     OW 3547   3.166   0.578   0.685
  883SOL    HW1 3548   3.168   0.645   0.611
  883SOL    HW2 3549   3.079   0.584   0.734
  884SOL     OW 3550   6.736   4.104   6.373
  884SOL    HW1 3551   6.815   4.094   6.432
  884SOL    HW2 3552   6.722   4.020   6.320
  885SOL     OW 3553   4.298   0.755   4.746
  885SOL    HW1 3554   4.232   0.796   4.809
  885SOL    HW2 3555   4.250   0.702   4.677
  886SOL     OW 3556   3.337   7.008   0.586
  886SOL    HW1 3557   3.375   0.070   0.535
  886SOL    HW2 3558   3.278   6.955   0.525
  887SOL     OW 3559   3.540   6.510   3.450
  887SOL    HW1 3560   3.614   6.555   3.500
  887SOL    HW2 3561   3.517   6.564   3.369
  888SOL     OW 3562   0.417   6.003   3.357
  888SOL    HW1 3563   0.455   6.095   3.344
  888SOL    HW2 3564   0.373   5.998   3.447
  889SOL     OW 3565   0.011   1.674   6.614
  889SOL    HW1 3566   0.106   1.691   6.589
  889SOL    HW2 3567   6.975   1.644   6.533
  890SOL     OW 3568   1.944   4.782   3.255
  890SOL    HW1 3569   1.869   4.816   3.312
  890SOL    HW2 3570   1.919   4.693   3.218
  891SOL     OW 3571   6.878   3.865   0.782
  891SOL    HW1 3572   6.861   3.819   0.869
  891SOL    HW2 3573   6.836   3.955   0.783
  892SOL     OW 3574   3.205   3.826   4.780
  892SOL    HW1 3575   3.216   3.811   4.682
  892SOL    HW2 3576   3.118   3.787   4.810
  893SOL     OW 3577   2.306   6.524   4.071
  893SOL    HW1 3578   2.274   6.593   4.007
  893SOL    HW2 3579   2.397   6.549   4.104
  894SOL     OW 3580   1.116   3.097   2.655
  894SOL    HW1 3581   1.117   3.026   2.585
  894SOL    HW2 3582   1.096   3.056   2.744
  895SOL     OW 3583   1.016   5.201   4.188
  895SOL    HW1 3584   0.931   5.185   4.137
  895SOL    HW2 3585   1.018   5.295   4.222
  896SOL     OW 3586   5.468   4.887   1.628
  896SOL    HW1 3587   5.507   4.945   1.700
  896SOL    HW2 3588   5.426   4.806   1.670
  897SOL     OW 3589   3.702   0.904   6.644
  897SOL    HW1 3590   3.759   0.936   6.720
  897SOL    HW2 3591   3.642   0.831   6.676
  898SOL     OW 3592   4.016   6.511   2.875
  898SOL    HW1 3593   3.926   6.523   2.918
  898SOL    HW2 3594   4.067   6.597   2.881
  899SOL     OW 3595   0.412   6.488   0.132
  899SOL    HW1 3596   0.374   6.468   0.042
  899SOL    HW2 3597   0.501   6.533   0.122
  900SOL     OW 3598   5.537   6.754   6.808
  900SOL    HW1 3599   5.619   6.696   6.805
  900SOL    HW2 3600   5.461   6.705   6.766
  901SOL     OW 3601   1.590   0.591   3.799
  901SOL    HW1 3602   1.583   0.628   3.706
  901SOL    HW2 3603   1.515   0.628   3.854
  902SOL     OW 3604   1.241   2.877   1.218
  902SOL    HW1 3605   1.261   2.788   1.177
  902SOL    HW2 3606   1.301   2.893   1.295
  903SOL     OW 3607   1.156   3.169   6.908
  903SOL    HW1 3608   1.237   3.207   6.864
  903SOL    HW2 3609   1.076   3.225   6.886
  904SOL     OW 3610   1.774   2.022   2.448
  904SOL    HW1 3611   1.767   1.923   2.435
  904SOL    HW2 3612   1.842   2.042   2.518
  905SOL     OW 3613   5.243   3.622   6.348
  905SOL    HW1 3614   5.338   3.650   6.357
  905SOL    HW2 3615   5.188   3.669   6.417
  906SOL     OW 3616   0.447   1.962   6.305
  906SOL    HW1 3617   0.472   1.922   6.392
  906SOL    HW2 3618   0.378   2.033   6.319
  907SOL     OW 3619   5.179   2.844   0.754
  907SOL    HW1 3620   5.156   2.898   0.835
  907SOL    HW2 3621   5.118   2.868   0.679
  908SOL     OW 3622   2.203   4.544   3.263
  908SOL    HW1 3623   2.256   4.491   3.196
  908SOL    HW2 3624   2.253   4.547   3.349
  909SOL     OW 3625   3.849   6.928   1.762
  909SOL    HW1 3626   3.888   6.978   1.685
  909SOL    HW2 3627   3.887   6.836   1.766
  910SOL     OW 3628   3.315   1.969   1.217
  910SOL    HW1 3629   3.237   1.912   1.192
  910SOL    HW2 3630   3.293   2.021   1.300
  911SOL     OW 3631   1.198   6.390   6.744
  911SOL    HW1 3632   1.237   6.482   6.740
  911SOL    HW2 3633   1.133   6.384   6.820
  912SOL     OW 3634   6.158   0.998   3.060
  912SOL    HW1 3635   6.111   1.065   3.117
  912SOL    HW2 3636   6.111   0.910   3.064
  913SOL     OW 3637   3.047   0.884   3.949
  913SOL    HW1 3638   3.050   0.806   3.887
  913SOL    HW2 3639   3.004   0.857   4.036
  914SOL     OW 3640   1.952   6.728   5.618
  914SOL    HW1 3641   1.968   6.801   5.551
  914SOL    HW2 3642   1.926   6.768   5.706
  915SOL     OW 3643   6.700   3.195   0.042
  915SOL    HW1 3644   6.710   3.230   6.965
  915SOL    HW2 3645   6.729   3.099   0.045
  916SOL     OW 3646   1.708   2.968   2.893
  916SOL    HW1 3647   1.666   2.881   2.869
  916SOL    HW2 3648   1.736   3.016   2.809
  917SOL     OW 3649   0.907   6.961   1.981
  917SOL    HW1 3650   0.956   0.031   1.967
  917SOL    HW2 3651   0.813   6.980   2.009
  918SOL     OW 3652   3.702   0.399   0.654
  918SOL    HW1 3653   3.724   0.420   0.558
  918SOL    HW2 3654   3.762   0.327   0.687
  919SOL     OW 3655   6.439   6.894   2.597
  919SOL    HW1 3656   6.519   6.953   2.610
  919SOL    HW2 3657   6.372   6.942   2.540
  920SOL     OW 3658   2.356   4.402   2.543
  920SOL    HW1 3659   2.341   4.500   2.527
  920SOL    HW2 3660   2.443   4.389   2.591
  921SOL     OW 3661   4.115   5.718   4.259
  921SOL    HW1 3662   4.019   5.717   4.233
  921SOL    HW2 3663   4.123   5.738   4.356
  922SOL     OW 3664   2.879   3.685   3.997
  922SOL    HW1 3665   2.870   3.650   4.090
  922SOL    HW2 3666   2.923   3.775   3.999
  923SOL     OW 3667   2.414   3.751   6.425
  923SOL    HW1 3668   2.398   3.817   6.352
  923SOL    HW2 3669   2.509   3.720   6.422
  924SOL     OW 3670   6.371   3.602   2.131
  924SOL    HW1 3671   6.350   3.509   2.163
  924SOL    HW2 3672   6.351   3.667   2.204
  925SOL     OW 3673   7.000   2.501   6.611
  925SOL    HW1 3674   0.053   2.535   6.546
  925SOL    HW2 3675   0.025   2.494   6.702
  926SOL     OW 3676   6.560   0.727   1.235
  926SOL    HW1 3677   6.573   0.730   1.136
  926SOL    HW2 3678   6.486   0.788   1.261
  927SOL     OW 3679   5.470   4.263   3.136
  927SOL    HW1 3680   5.529   4.284   3.214
  927SOL    HW2 3681   5.429   4.172   3.150
  928SOL     OW 3682   1.626   5.957   0.401
  928SOL    HW1 3683   1.630   5.989   0.496
  928SOL    HW2 3684   1.546   5.898   0.389
  929SOL     OW 3685   0.387   1.083   6.931
  929SOL    HW1 3686   0.292   1.088   6.900
  929SOL    HW2 3687   0.414   0.987   6.940
  930SOL     OW 3688   5.151   6.612   6.090
  930SOL    HW1 3689   5.212   6.672   6.142
  930SOL    HW2 3690   5.170   6.623   5.992
  931SOL     OW 3691   6.574   1.293   4.678
  931SOL    HW1 3692   6.510   1.299   4.754
  931SOL    HW2 3693   6.667   1.304   4.712
  932SOL     OW 3694   3.420   0.700   3.466
  932SOL    HW1 3695   3.488   0.766   3.497
  932SOL    HW2 3696   3.422   0.619   3.525
  933SOL     OW 3697   1.734   6.013   3.436
  933SOL    HW1 3698   1.646   5.994   3.479
  933SOL    HW2 3699   1.808   5.993   3.500
  934SOL     OW 3700   2.338   6.303   6.937
  934SOL    HW1 3701   2.242   6.311   6.909
  934SOL    HW2 3702   2.397   6.331   6.862
  935SOL     OW 3703   5.017   4.026   4.272
  935SOL    HW1 3704   4.934   3.973   4.260
  935SOL    HW2 3705   5.047   4.022   4.367
  936SOL     OW 3706   6.955   0.613   6.036
  936SOL    HW1 3707   6.912   0.567   5.958
  936SOL    HW2 3708   6.967   0.710   6.015
  937SOL     OW 3709   5.634   1.861   5.870
  937SOL    HW1 3710   5.573   1.843   5.947
  937SOL    HW2 3711   5.637   1.782   5.810
  938SOL     OW 3712   6.081   4.304   6.598
  938SOL    HW1 3713   6.021   4.288   6.519
  938SOL    HW2 3714   6.026   4.307   6.681
  939SOL     OW 3715   0.256   6.971   4.123
  939SOL    HW1 3716   0.176   6.991   4.180
  939SOL    HW2 3717   0.339   7.001   4.170
  940SOL     OW 3718   0.361   4.256   1.396
  940SOL    HW1 3719   0.347   4.163   1.432
  940SOL    HW2 3720   0.375   4.319   1.472
  941SOL     OW 3721   5.867   2.077   6.548
  941SOL    HW1 3722   5.882   2.176   6.542
  941SOL    HW2 3723   5.769   2.059   6.556
  942SOL     OW 3724   6.231   6.809   3.030
  942SOL    HW1 3725   6.139   6.770   3.025
  942SOL    HW2 3726   6.225   6.909   3.033
  943SOL     OW 3727   1.526   3.874   3.071
  943SOL    HW1 3728   1.577   3.835   2.994
  943SOL    HW2 3729   1.538   3.973   3.072
  944SOL     OW 3730   0.067   5.200   5.832
  944SOL    HW1 3731   0.015   5.115   5.839
  944SOL    HW2 3732   0.101   5.211   5.739
  945SOL     OW 3733   0.110   4.062   6.108
  945SOL    HW1 3734   0.111   4.022   6.016
  945SOL    HW2 3735   0.197   4.042   6.154
  946SOL     OW 3736   5.117   4.000   5.483
  946SOL    HW1 3737   5.052   3.968   5.551
  946SOL    HW2 3738   5.106   4.099   5.469
  947SOL     OW 3739   3.687   3.232   3.409
  947SOL    HW1 3740   3.770   3.191   3.369
  947SOL    HW2 3741   3.684   3.329   3.386
  948SOL     OW 3742   5.326   1.054   2.766
  948SOL    HW1 3743   5.249   1.008   2.810
  948SOL    HW2 3744   5.388   0.985   2.728
  949SOL     OW 3745   2.295   5.835   0.746
  949SOL    HW1 3746   2.354   5.779   0.687
  949SOL    HW2 3747   2.302   5.930   0.718
  950SOL     OW 3748   5.841   5.716   2.131
  950SOL    HW1 3749   5.828   5.632   2.183
  950SOL    HW2 3750   5.773   5.721   2.058
  951SOL     OW 3751   1.308   0.067   4.114
  951SOL    HW1 3752   1.354   0.150   4.082
  951SOL    HW2 3753   1.376   7.011   4.128
  952SOL     OW 3754   4.406   2.426   3.431
  952SOL    HW1 3755   4.479   2.365   3.463
  952SOL    HW2 3756   4.425   2.454   3.337
  953SOL     OW 3757   5.749   5.715   4.698
  953SOL    HW1 3758   5.699   5.643   4.746
  953SOL    HW2 3759   5.824   5.674   4.647
  954SOL     OW 3760   3.760   5.931   2.043
  954SOL    HW1 3761   3.742   5.976   2.131
  954SOL    HW2 3762   3.776   5.833   2.059
  955SOL     OW 3763   0.647   3.643   1.153
  955SOL    HW1 3764   0.694   3.669   1.068
  955SOL    HW2 3765   0.688   3.693   1.229
  956SOL     OW 3766   6.188   0.299   1.497
  956SOL    HW1 3767   6.197   0.384   1.550
  956SOL    HW2 3768   6.278   0.273   1.461
  957SOL     OW 3769   5.498   2.971   2.662
  957SOL    HW1 3770   5.413   3.021   2.649
  957SOL    HW2 3771   5.509   2.949   2.759
  958SOL     OW 3772   4.759   1.041   1.455
  958SOL    HW1 3773   4.835   1.036   1.520
  958SOL    HW2 3774   4.676   1.068   1.503
  959SOL     OW 3775   3.250   6.462   4.215
  959SOL    HW1 3776   3.239   6.417   4.303
  959SOL    HW2 3777   3.161   6.485   4.177
  960SOL     OW 3778   0.878   0.281   2.297
  960SOL    HW1 3779   0.858   0.190   2.333
  960SOL    HW2 3780   0.814   0.303   2.224
  961SOL     OW 3781   4.103   6.555   3.316
  961SOL    HW1 3782   4.182   6.617   3.305
  961SOL    HW2 3783   4.082   6.545   3.413
  962SOL     OW 3784   6.856   0.723   5.034
  962SOL    HW1 3785   6.883   0.819   5.037
  962SOL    HW2 3786   6.762   0.713   5.067
  963SOL     OW 3787   5.425   1.333   6.648
  963SOL    HW1 3788   5.390   1.243   6.620
  963SOL    HW2 3789   5.391   1.403   6.585
  964SOL     OW 3790   5.119   5.146   6.979
  964SOL    HW1 3791   5.192   5.121   6.915
  964SOL    HW2 3792   5.150   5.130   0.057
  965SOL     OW 3793   6.030   1.955   2.144
  965SOL    HW1 3794   6.059   2.049   2.154
  965SOL    HW2 3795   6.012   1.915   2.234
  966SOL     OW 3796   5.870   2.832   2.849
  966SOL    HW1 3797   5.966   2.843   2.872
  966SOL    HW2 3798   5.841   2.906   2.789
  967SOL     OW 3799   2.956   4.445   1.405
  967SOL    HW1 3800   2.898   4.428   1.484
  967SOL    HW2 3801   3.041   4.393   1.414
  968SOL     OW 3802   4.636   0.799   1.901
  968SOL    HW1 3803   4.550   0.748   1.911
  968SOL    HW2 3804   4.654   0.850   1.985
  969SOL     OW 3805   2.576   4.561   5.489
  969SOL    HW1 3806   2.516   4.492   5.528
  969SOL    HW2 3807   2.579   4.551   5.389
  970SOL     OW 3808   5.422   0.816   6.635
  970SOL    HW1 3809   5.452   0.804   6.730
  970SOL    HW2 3810   5.493   0.863   6.583
  971SOL     OW 3811   0.019   2.851   2.418
  971SOL    HW1 3812   0.064   2.778   2.470
  971SOL    HW2 3813   6.990   2.914   2.481
  972SOL     OW 3814   5.899   1.665   2.027
  972SOL    HW1 3815   5.941   1.584   1.986
  972SOL    HW2 3816   5.906   1.743   1.965
  973SOL     OW 3817   0.897   5.665   6.596
  973SOL    HW1 3818   0.853   5.599   6.534
  973SOL    HW2 3819   0.914   5.750   6.547
  974SOL     OW 3820   6.067   5.669   1.891
  974SOL    HW1 3821   6.123   5.711   1.820
  974SOL    HW2 3822   6.087   5.712   1.979
  975SOL     OW 3823   1.991   0.192   0.426
  975SOL    HW1 3824   1.980   0.280   0.471
  975SOL    HW2 3825   2.046   0.131   0.483
  976SOL     OW 3826   0.188   3.761   1.382
  976SOL    HW1 3827   0.123   3.734   1.454
  976SOL    HW2 3828   0.141   3.761   1.294
  977SOL     OW 3829   0.166   0.446   1.956
  977SOL    HW1 3830   0.187   0.348   1.963
  977SOL    HW2 3831   0.240   0.499   1.998
  978SOL     OW 3832   5.529   2.358   6.640
  978SOL    HW1 3833   5.571   2.371   6.730
  978SOL    HW2 3834   5.431   2.344   6.650
  979SOL     OW 3835   0.537   3.002   6.829
  979SOL    HW1 3836   0.589   3.077   6.788
  979SOL    HW2 3837   0.480   2.959   6.759
  980SOL     OW 3838   5.193   1.944   3.949
  980SOL    HW1 3839   5.217   1.860   3.998
  980SOL    HW2 3840   5.106   1.930   3.901
  981SOL     OW 3841   6.817   1.357   4.756
  981SOL    HW1 3842   6.909   1.363   4.717
  981SOL    HW2 3843   6.819   1.388   4.851
  982SOL     OW 3844   0.732   1.118   4.807
  982SOL    HW1 3845   0.765   1.210   4.829
  982SOL    HW2 3846   0.641   1.123   4.766
  983SOL     OW 3847   6.643   2.723   3.331
  983SOL    HW1 3848   6.629   2.680   3.242
  983SOL    HW2 3849   6.570   2.788   3.349
  984SOL     OW 3850   2.529   2.542   4.079
  984SOL    HW1 3851   2.568   2.460   4.120
  984SOL    HW2 3852   2.463   2.583   4.142
  985SOL     OW 3853   6.708   3.444   4.932
  985SOL    HW1 3854   6.785   3.495   4.895
  985SOL    HW2 3855   6.736   3.350   4.951
  986SOL     OW 3856   4.497   4.724   1.000
  986SOL    HW1 3857   4.516   4.746   1.095
  986SOL    HW2 3858   4.422   4.781   0.967
  987SOL     OW 3859   4.755   6.591   2.524
  987SOL    HW1 3860   4.691   6.661   2.556
  987SOL    HW2 3861   4.730   6.563   2.432
  988SOL     OW 3862   3.610   4.270   0.955
  988SOL    HW1 3863   3.514   4.290   0.974
  988SOL    HW2 3864   3.660   4.263   1.041
  989SOL     OW 3865   6.828   2.161   6.290
  989SOL    HW1 3866   6.837   2.111   6.204
  989SOL    HW2 3867   6.731   2.177   6.310
  990SOL     OW 3868   3.554   1.060   2.090
  990SOL    HW1 3869   3.590   0.985   2.035
  990SOL    HW2 3870   3.615   1.078   2.166
  991SOL     OW 3871   0.646   3.241   3.822
  991SOL    HW1 3872   0.619   3.239   3.918
  991SOL    HW2 3873   0.737   3.200   3.811
  992SOL     OW 3874   0.488   3.102   2.177
  992SOL    HW1 3875   0.535   3.124   2.263
  992SOL    HW2 3876   0.446   3.185   2.140
  993SOL     OW 3877   0.001   4.580   0.687
  993SOL    HW1 3878   6.933   4.571   0.741
  993SOL    HW2 3879   0.011   4.501   0.628
  994SOL     OW 3880   4.059   4.803   2.127
  994SOL    HW1 3881   3.971   4.830   2.088
  994SOL    HW2 3882   4.046   4.774   2.222
  995SOL     OW 3883   4.120   3.449   5.756
  995SOL    HW1 3884   4.126   3.469   5.854
  995SOL    HW2 3885   4.197   3.493   5.709
  996SOL     OW 3886   3.600   5.165   4.910
  996SOL    HW1 3887   3.537   5.098   4.872
  996SOL    HW2 3888   3.689   5.123   4.924
  997SOL     OW 3889   1.199   6.998   2.837
  997SOL    HW1 3890   1.141   6.936   2.889
  997SOL    HW2 3891   1.295   6.983   2.861
  998SOL     OW 3892   5.665   0.418   5.979
  998SOL    HW1 3893   5.601   0.485   6.017
  998SOL    HW2 3894   5.680   0.438   5.882
  999SOL     OW 3895   5.229   4.037   2.144
  999SOL    HW1 3896   5.136   4.010   2.170
  999SOL    HW2 3897   5.263   3.976   2.073
 1000SOL     OW 3898   4.004   1.582   1.645
 1000SOL    HW1 3899   4.032   1.631   1.563
 1000SOL    HW2 3900   3.915   1.538   1.629
 1001SOL     OW 3901   4.635   5.804   1.835
 1001SOL    HW1 3902   4.562   5.858   1.793
 1001SOL    HW2 3903   4.595   5.739   1.899
 1002SOL     OW 3904   5.831   2.060   0.791
 1002SOL    HW1 3905   5.894   2.019   0.724
 1002SOL    HW2 3906   5.829   2.159   0.779
 1003SOL     OW 3907   2.056   5.496   3.207
 1003SOL    HW1 3908   2.010   5.575   3.249
 1003SOL    HW2 3909   2.046   5.416   3.266
 1004SOL     OW 3910   0.926   1.358   2.200
 1004SOL    HW1 3911   1.017   1.390   2.173
 1004SOL    HW2 3912   0.863   1.366   2.123
 1005SOL     OW 3913   2.008   2.431   4.406
 1005SOL    HW1 3914   1.934   2.433   4.473
 1005SOL    HW2 3915   2.015   2.340   4.367
 1006SOL     OW 3916   1.566   4.134   0.586
 1006SOL    HW1 3917   1.622   4.069   0.638
 1006SOL    HW2 3918   1.606   4.225   0.592
 1007SOL     OW 3919   4.538   0.921   5.428
 1007SOL    HW1 3920   4.610   0.979   5.468
 1007SOL    HW2 3921   4.451   0.941   5.472
 1008SOL     OW 3922   0.658   2.152   5.567
 1008SOL    HW1 3923   0.614   2.224   5.512
 1008SOL    HW2 3924   0.620   2.154   5.659
 1009SOL     OW 3925   0.074   5.479   5.801
 1009SOL    HW1 3926   0.051   5.382   5.811
 1009SOL    HW2 3927   0.171   5.489   5.777
 1010SOL     OW 3928   2.615   2.196   0.979
 1010SOL    HW1 3929   2.610   2.277   1.037
 1010SOL    HW2 3930   2.625   2.114   1.036
 1011SOL     OW 3931   1.345   5.265   3.428
 1011SOL    HW1 3932   1.344   5.166   3.435
 1011SOL    HW2 3933   1.440   5.297   3.431
 1012SOL     OW 3934   0.385   6.732   1.962
 1012SOL    HW1 3935   0.434   6.797   1.904
 1012SOL    HW2 3936   0.290   6.761   1.973
 1013SOL     OW 3937   0.459   0.953   6.290
 1013SOL    HW1 3938   0.536   0.991   6.239
 1013SOL    HW2 3939   0.407   1.027   6.332
 1014SOL     OW 3940   0.518   3.861   5.381
 1014SOL    HW1 3941   0.444   3.897   5.438
 1014SOL    HW2 3942   0.486   3.782   5.329
 1015SOL     OW 3943   2.178   6.819   5.977
 1015SOL    HW1 3944   2.094   6.791   5.931
 1015SOL    HW2 3945   2.230   6.880   5.917
 1016SOL     OW 3946   4.136   3.885   0.418
 1016SOL    HW1 3947   4.120   3.928   0.329
 1016SOL    HW2 3948   4.073   3.808   0.430
 1017SOL     OW 3949   4.246   2.111   1.336
 1017SOL    HW1 3950   4.148   2.092   1.335
 1017SOL    HW2 3951   4.263   2.196   1.285
 1018SOL     OW 3952   1.037   4.252   4.166
 1018SOL    HW1 3953   0.966   4.287   4.227
 1018SOL    HW2 3954   1.127   4.273   4.203
 1019SOL     OW 3955   0.034   5.993   1.108
 1019SOL    HW1 3956   0.004   5.899   1.120
 1019SOL    HW2 3957   0.052   6.010   1.011
 1020SOL     OW 3958   6.297   1.308   1.675
 1020SOL    HW1 3959   6.277   1.250   1.753
 1020SOL    HW2 3960   6.212   1.350   1.641
 1021SOL     OW 3961   5.598   6.790   1.763
 1021SOL    HW1 3962   5.529   6.774   1.833
 1021SOL    HW2 3963   5.566   6.753   1.676
 1022SOL     OW 3964   2.795   4.800   5.270
 1022SOL    HW1 3965   2.807   4.720   5.212
 1022SOL    HW2 3966   2.745   4.774   5.353
 1023SOL     OW 3967   0.413   1.094   2.628
 1023SOL    HW1 3968   0.347   1.126   2.695
 1023SOL    HW2 3969   0.428   0.996   2.640
 1024SOL     OW 3970   0.019   2.105   4.021
 1024SOL    HW1 3971   6.996   2.122   4.112
 1024SOL    HW2 3972   0.119   2.110   4.026
 1025SOL     OW 3973   3.786   3.267   0.905
 1025SOL    HW1 3974   3.774   3.177   0.947
 1025SOL    HW2 3975   3.764   3.338   0.972
 1026SOL     OW 3976   2.648   3.197   1.392
 1026SOL    HW1 3977   2.680   3.285   1.358
 1026SOL    HW2 3978   2.613   3.207   1.485
 1027SOL     OW 3979   2.884   0.170   2.097
 1027SOL    HW1 3980   2.924   0.119   2.173
 1027SOL    HW2 3981   2.788   0.191   2.118
 1028SOL     OW 3982   1.541   6.633   2.707
 1028SOL    HW1 3983   1.591   6.618   2.792
 1028SOL    HW2 3984   1.545   6.730   2.683
 1029SOL     OW 3985   1.236   1.469   6.213
 1029SOL    HW1 3986   1.233   1.386   6.270
 1029SOL    HW2 3987   1.233   1.550   6.272
 1030SOL     OW 3988   3.526   3.186   1.717
 1030SOL    HW1 3989   3.564   3.227   1.800
 1030SOL    HW2 3990   3.441   3.233   1.693
 1031SOL     OW 3991   4.767   3.631   1.728
 1031SOL    HW1 3992   4.671   3.635   1.700
 1031SOL    HW2 3993   4.795   3.536   1.737
 1032SOL     OW 3994   0.644   1.049   5.078
 1032SOL    HW1 3995   0.634   1.105   4.996
 1032SOL    HW2 3996   0.725   1.078   5.129
 1033SOL     OW 3997   1.876   5.666   1.205
 1033SOL    HW1 3998   1.960   5.620   1.234
 1033SOL    HW2 3999   1.797   5.622   1.248
 1034SOL     OW 4000   1.742   5.379   4.374
 1034SOL    HW1 4001   1.751   5.328   4.459
 1034SOL    HW2 4002   1.750   5.317   4.296
 1035SOL     OW 4003   0.129   1.592   6.085
 1035SOL    HW1 4004   0.115   1.639   5.998
 1035SOL    HW2 4005   0.194   1.643   6.141
 1036SOL     OW 4006   4.033   1.041   1.863
 1036SOL    HW1 4007   3.992   0.966   1.812
 1036SOL    HW2 4008   4.108   1.006   1.919
 1037SOL     OW 4009   1.424   1.500   2.728
 1037SOL    HW1 4010   1.454   1.594   2.741
 1037SOL    HW2 4011   1.461   1.465   2.642
 1038SOL     OW 4012   1.883   1.439   5.460
 1038SOL    HW1 4013   1.971   1.482   5.440
 1038SOL    HW2 4014   1.870   1.360   5.401
 1039SOL     OW 4015   4.087   3.733   4.135
 1039SOL    HW1 4016   4.056   3.801   4.201
 1039SOL    HW2 4017   4.073   3.767   4.042
 1040SOL     OW 4018   4.914   1.078   2.131
 1040SOL    HW1 4019   4.860   1.156   2.163
 1040SOL    HW2 4020   4.858   0.996   2.132
 1041SOL     OW 4021   0.274   6.243   3.213
 1041SOL    HW1 4022   0.229   6.162   3.176
 1041SOL    HW2 4023   0.306   6.301   3.138
 1042SOL     OW 4024   3.981   5.090   2.750
 1042SOL    HW1 4025   3.990   5.089   2.650
 1042SOL    HW2 4026   3.900   5.144   2.776
 1043SOL     OW 4027   3.481   2.104   2.983
 1043SOL    HW1 4028   3.412   2.132   3.050
 1043SOL    HW2 4029   3.447   2.026   2.931
 1044SOL     OW 4030   5.957   5.285   2.532
 1044SOL    HW1 4031   5.890   5.244   2.471
 1044SOL    HW2 4032   6.044   5.295   2.483
 1045SOL     OW 4033   4.186   0.829   2.653
 1045SOL    HW1 4034   4.132   0.874   2.582
 1045SOL    HW2 4035   4.128   0.815   2.734
 1046SOL     OW 4036   1.575   1.244   0.181
 1046SOL    HW1 4037   1.489   1.244   0.233
 1046SOL    HW2 4038   1.603   1.338   0.163
 1047SOL     OW 4039   2.457   0.054   4.009
 1047SOL    HW1 4040   2.508   0.010   3.935
 1047SOL    HW2 4041   2.464   7.014   4.092
 1048SOL     OW 4042   3.296   6.373   2.316
 1048SOL    HW1 4043   3.231   6.442   2.347
 1048SOL    HW2 4044   3.361   6.354   2.389
 1049SOL     OW 4045   6.130   6.703   4.100
 1049SOL    HW1 4046   6.183   6.619   4.106
 1049SOL    HW2 4047   6.039   6.688   4.139
 1050SOL     OW 4048   3.682   4.898   2.725
 1050SOL    HW1 4049   3.726   4.951   2.652
 1050SOL    HW2 4050   3.594   4.864   2.692
 1051SOL     OW 4051   0.546   5.132   0.749
 1051SOL    HW1 4052   0.600   5.061   0.794
 1051SOL    HW2 4053   0.584   5.150   0.658
 1052SOL     OW 4054   4.438   1.068   5.653
 1052SOL    HW1 4055   4.397   1.078   5.743
 1052SOL    HW2 4056   4.370   1.086   5.582
 1053SOL     OW 4057   6.183   3.799   2.600
 1053SOL    HW1 4058   6.148   3.766   2.687
 1053SOL    HW2 4059   6.107   3.832   2.544
 1054SOL     OW 4060   2.707   3.649   0.741
 1054SOL    HW1 4061   2.800   3.678   0.721
 1054SOL    HW2 4062   2.688   3.662   0.839
 1055SOL     OW 4063   4.158   6.489   5.310
 1055SOL    HW1 4064   4.124   6.530   5.225
 1055SOL    HW2 4065   4.242   6.535   5.337
 1056SOL     OW 4066   1.615   3.382   0.096
 1056SOL    HW1 4067   1.676   3.412   0.023
 1056SOL    HW2 4068   1.644   3.423   0.183
 1057SOL     OW 4069   3.806   3.444   1.121
 1057SOL    HW1 4070   3.874   3.488   1.180
 1057SOL    HW2 4071   3.716   3.484   1.139
 1058SOL     OW 4072   5.112   2.286   3.976
 1058SOL    HW1 4073   5.182   2.214   3.964
 1058SOL    HW2 4074   5.152   2.374   3.952
 1059SOL     OW 4075   1.905   0.782   2.398
 1059SOL    HW1 4076   1.872   0.714   2.463
 1059SOL    HW2 4077   1.867   0.764   2.308
 1060SOL     OW 4078   0.325   4.752   3.784
 1060SOL    HW1 4079   0.266   4.737   3.705
 1060SOL    HW2 4080   0.380   4.670   3.801
 1061SOL     OW 4081   6.491   3.404   6.370
 1061SOL    HW1 4082   6.468   3.491   6.327
 1061SOL    HW2 4083   6.583   3.409   6.409
 1062SOL     OW 4084   5.091   5.210   5.682
 1062SOL    HW1 4085   5.003   5.257   5.683
 1062SOL    HW2 4086   5.078   5.115   5.656
 1063SOL     OW 4087   0.814   5.530   0.269
 1063SOL    HW1 4088   0.808   5.503   0.173
 1063SOL    HW2 4089   0.904   5.507   0.305
 1064SOL     OW 4090   1.251   4.506   2.741
 1064SOL    HW1 4091   1.178   4.462   2.794
 1064SOL    HW2 4092   1.224   4.599   2.717
 1065SOL     OW 4093   4.401   0.937   2.764
 1065SOL    HW1 4094   4.316   0.899   2.727
 1065SOL    HW2 4095   4.379   1.009   2.829
 1066SOL     OW 4096   4.626   6.817   2.834
 1066SOL    HW1 4097   4.592   6.815   2.740
 1066SOL    HW2 4098   4.662   6.727   2.859
 1067SOL     OW 4099   1.316   2.899   6.995
 1067SOL    HW1 4100   1.346   2.983   6.950
 1067SOL    HW2 4101   1.361   2.820   6.953
 1068SOL     OW 4102   7.001   4.459   1.717
 1068SOL    HW1 4103   0.061   4.525   1.716
 1068SOL    HW2 4104   0.023   4.366   1.717
 1069SOL     OW 4105   5.224   6.012   0.799
 1069SOL    HW1 4106   5.147   6.012   0.735
 1069SOL    HW2 4107   5.190   6.013   0.893
 1070SOL     OW 4108   1.233   0.013   1.470
 1070SOL    HW1 4109   1.281   0.023   1.557
 1070SOL    HW2 4110   1.194   0.101   1.443
 1071SOL     OW 4111   2.160   1.332   3.458
 1071SOL    HW1 4112   2.092   1.389   3.506
 1071SOL    HW2 4113   2.122   1.241   3.442
 1072SOL     OW 4114   2.487   1.037   1.257
 1072SOL    HW1 4115   2.521   1.009   1.346
 1072SOL    HW2 4116   2.494   1.137   1.249
 1073SOL     OW 4117   4.971   0.731   3.814
 1073SOL    HW1 4118   5.006   0.824   3.818
 1073SOL    HW2 4119   5.002   0.687   3.730
 1074SOL     OW 4120   2.523   5.132   1.944
 1074SOL    HW1 4121   2.608   5.080   1.955
 1074SOL    HW2 4122   2.533   5.223   1.985
 1075SOL     OW 4123   6.045   0.078   2.828
 1075SOL    HW1 4124   6.083   0.040   2.743
 1075SOL    HW2 4125   6.118   0.090   2.895
 1076SOL     OW 4126   1.040   2.333   5.568
 1076SOL    HW1 4127   1.050   2.278   5.651
 1076SOL    HW2 4128   0.945   2.362   5.559
 1077SOL     OW 4129   6.035   6.915   0.595
 1077SOL    HW1 4130   6.055   6.928   0.692
 1077SOL    HW2 4131   6.035   7.003   0.548
 1078SOL     OW 4132   6.858   0.931   2.393
 1078SOL    HW1 4133   6.903   1.009   2.351
 1078SOL    HW2 4134   6.760   0.949   2.400
 1079SOL     OW 4135   1.549   5.853   2.119
 1079SOL    HW1 4136   1.599   5.774   2.155
 1079SOL    HW2 4137   1.583   5.937   2.162
 1080SOL     OW 4138   1.973   5.500   3.553
 1080SOL    HW1 4139   1.889   5.552   3.538
 1080SOL    HW2 4140   1.963   5.409   3.512
 1081SOL     OW 4141   6.588   5.450   5.357
 1081SOL    HW1 4142   6.557   5.356   5.371
 1081SOL    HW2 4143   6.590   5.498   5.444
 1082SOL     OW 4144   5.531   2.282   5.706
 1082SOL    HW1 4145   5.575   2.214   5.764
 1082SOL    HW2 4146   5.587   2.298   5.625
 1083SOL     OW 4147   4.608   3.984   0.396
 1083SOL    HW1 4148   4.650   4.037   0.322
 1083SOL    HW2 4149   4.566   3.901   0.357
 1084SOL     OW 4150   6.507   6.460   6.540
 1084SOL    HW1 4151   6.426   6.484   6.593
 1084SOL    HW2 4152   6.526   6.362   6.550
 1085SOL     OW 4153   1.402   3.940   4.375
 1085SOL    HW1 4154   1.475   3.888   4.330
 1085SOL    HW2 4155   1.417   3.939   4.474
 1086SOL     OW 4156   6.854   4.257   0.223
 1086SOL    HW1 4157   6.879   4.258   0.320
 1086SOL    HW2 4158   6.800   4.175   0.203
 1087SOL     OW 4159   0.285   2.010   5.018
 1087SOL    HW1 4160   0.299   2.067   5.099
 1087SOL    HW2 4161   0.372   1.999   4.970
 1088SOL     OW 4162   6.718   3.524   2.407
 1088SOL    HW1 4163   6.716   3.587   2.329
 1088SOL    HW2 4164   6.626   3.515   2.445
 1089SOL     OW 4165   6.413   5.820   4.628
 1089SOL    HW1 4166   6.313   5.818   4.634
 1089SOL    HW2 4167   6.452   5.770   4.704
 1090SOL     OW 4168   3.381   1.836   3.019
 1090SOL    HW1 4169   3.372   1.857   3.116
 1090SOL    HW2 4170   3.293   1.803   2.983
 1091SOL     OW 4171   2.410   2.265   4.357
 1091SOL    HW1 4172   2.400   2.363   4.345
 1091SOL    HW2 4173   2.327   2.219   4.325
 1092SOL     OW 4174   0.909   4.668   0.214
 1092SOL    HW1 4175   0.839   4.665   0.286
 1092SOL    HW2 4176   0.875   4.618   0.134
 1093SOL     OW 4177   2.889   6.636   1.276
 1093SOL    HW1 4178   2.854   6.560   1.331
 1093SOL    HW2 4179   2.819   6.666   1.212
 1094SOL     OW 4180   0.998   6.427   3.326
 1094SOL    HW1 4181   1.080   6.484   3.317
 1094SOL    HW2 4182   0.931   6.453   3.257
 1095SOL     OW 4183   0.602   2.659   5.840
 1095SOL    HW1 4184   0.553   2.597   5.903
 1095SOL    HW2 4185   0.644   2.733   5.892
 1096SOL     OW 4186   3.585   4.536   1.160
 1096SOL    HW1 4187   3.670   4.586   1.172
 1096SOL    HW2 4188   3.559   4.493   1.246
 1097SOL     OW 4189   2.610   4.716   4.072
 1097SOL    HW1 4190   2.544   4.641   4.086
 1097SOL    HW2 4191   2.572   4.801   4.108
 1098SOL     OW 4192   5.068   3.510   6.835
 1098SOL    HW1 4193   5.082   3.521   6.737
 1098SOL    HW2 4194   5.059   3.413   6.858
 1099SOL     OW 4195   3.845   1.025   6.269
 1099SOL    HW1 4196   3.853   1.120   6.299
 1099SOL    HW2 4197   3.749   1.005   6.246
 1100SOL     OW 4198   4.356   1.701   4.517
 1100SOL    HW1 4199   4.377   1.778   4.457
 1100SOL    HW2 4200   4.278   1.723   4.575
 1101SOL     OW 4201   5.810   3.912   5.619
 1101SOL    HW1 4202   5.754   3.965   5.683
 1101SOL    HW2 4203   5.790   3.815   5.629
 1102SOL     OW 4204   1.108   0.893   5.070
 1102SOL    HW1 4205   1.131   0.978   5.023
 1102SOL    HW2 4206   1.065   0.830   5.006
 1103SOL     OW 4207   3.780   1.007   0.201
 1103SOL    HW1 4208   3.866   1.047   0.171
 1103SOL    HW2 4209   3.789   0.907   0.207
 1104SOL     OW 4210   1.941   3.120   4.329
 1104SOL    HW1 4211   1.904   3.180   4.400
 1104SOL    HW2 4212   2.032   3.089   4.356
 1105SOL     OW 4213   5.665   3.211   5.001
 1105SOL    HW1 4214   5.711   3.223   4.913
 1105SOL    HW2 4215   5.568   3.191   4.986
 1106SOL     OW 4216   0.808   2.417   0.538
 1106SOL    HW1 4217   0.850   2.507   0.540
 1106SOL    HW2 4218   0.733   2.416   0.472
 1107SOL     OW 4219   1.354   0.469   0.262
 1107SOL    HW1 4220   1.395   0.477   0.352
 1107SOL    HW2 4221   1.262   0.430   0.270
 1108SOL     OW 4222   3.629   6.921   5.674
 1108SOL    HW1 4223   3.542   6.873   5.686
 1108SOL    HW2 4224   3.689   6.868   5.614
 1109SOL     OW 4225   5.659   1.096   4.295
 1109SOL    HW1 4226   5.697   1.075   4.385
 1109SOL    HW2 4227   5.596   1.173   4.303
 1110SOL     OW 4228   4.199   2.246   3.019
 1110SOL    HW1 4229   4.241   2.325   2.975
 1110SOL    HW2 4230   4.261   2.168   3.016
 1111SOL     OW 4231   5.712   5.792   6.849
 1111SOL    HW1 4232   5.681   5.842   6.930
 1111SOL    HW2 4233   5.634   5.770   6.792
 1112SOL     OW 4234   5.934   1.310   2.184
 1112SOL    HW1 4235   5.878   1.387   2.214
 1112SOL    HW2 4236   6.026   1.317   2.223
 1113SOL     OW 4237   5.515   4.662   1.396
 1113SOL    HW1 4238   5.471   4.572   1.388
 1113SOL    HW2 4239   5.476   4.712   1.473
 1114SOL     OW 4240   2.625   1.146   6.261
 1114SOL    HW1 4241   2.714   1.180   6.291
 1114SOL    HW2 4242   2.589   1.206   6.189
 1115SOL     OW 4243   3.739   3.573   5.556
 1115SOL    HW1 4244   3.796   3.612   5.628
 1115SOL    HW2 4245   3.652   3.542   5.595
 1116SOL     OW 4246   4.938   6.492   6.855
 1116SOL    HW1 4247   4.858   6.495   6.915
 1116SOL    HW2 4248   4.980   6.582   6.850
 1117SOL     OW 4249   0.921   2.370   2.034
 1117SOL    HW1 4250   1.011   2.394   1.998
 1117SOL    HW2 4251   0.931   2.307   2.111
 1118SOL     OW 4252   2.040   5.219   0.417
 1118SOL    HW1 4253   1.990   5.140   0.452
 1118SOL    HW2 4254   1.977   5.283   0.374
 1119SOL     OW 4255   4.100   4.482   1.657
 1119SOL    HW1 4256   4.076   4.579   1.654
 1119SOL    HW2 4257   4.186   4.471   1.706
 1120SOL     OW 4258   6.075   5.729   0.844
 1120SOL    HW1 4259   6.165   5.756   0.878
 1120SOL    HW2 4260   6.023   5.810   0.819
 1121SOL     OW 4261   6.918   4.345   4.553
 1121SOL    HW1 4262   6.829   4.389   4.548
 1121SOL    HW2 4263   6.990   4.414   4.544
 1122SOL     OW 4264   5.315   2.941   1.818
 1122SOL    HW1 4265   5.223   2.902   1.829
 1122SOL    HW2 4266   5.310   3.040   1.828
 1123SOL     OW 4267   5.331   2.667   3.309
 1123SOL    HW1 4268   5.368   2.640   3.220
 1123SOL    HW2 4269   5.405   2.680   3.374
 1124SOL     OW 4270   0.216   3.812   5.239
 1124SOL    HW1 4271   0.186   3.734   5.183
 1124SOL    HW2 4272   0.152   3.824   5.315
 1125SOL     OW 4273   1.944   1.724   3.670
 1125SOL    HW1 4274   1.952   1.714   3.571
 1125SOL    HW2 4275   1.920   1.818   3.692
 1126SOL     OW 4276   5.870   5.867   6.124
 1126SOL    HW1 4277   5.790   5.921   6.096
 1126SOL    HW2 4278   5.903   5.900   6.212
 1127SOL     OW 4279   5.231   6.179   4.558
 1127SOL    HW1 4280   5.318   6.227   4.549
 1127SOL    HW2 4281   5.214   6.158   4.655
 1128SOL     OW 4282   5.575   1.740   3.981
 1128SOL    HW1 4283   5.548   1.695   3.896
 1128SOL    HW2 4284   5.542   1.834   3.981
 1129SOL     OW 4285   1.846   6.666   0.909
 1129SOL    HW1 4286   1.776   6.724   0.951
 1129SOL    HW2 4287   1.872   6.703   0.820
 1130SOL     OW 4288   2.163   5.301   0.662
 1130SOL    HW1 4289   2.120   5.293   0.572
 1130SOL    HW2 4290   2.121   5.235   0.724
 1131SOL     OW 4291   1.104   6.991   5.647
 1131SOL    HW1 4292   1.147   6.943   5.723
 1131SOL    HW2 4293   1.147   0.065   5.634
 1132SOL     OW 4294   4.599   0.065   2.861
 1132SOL    HW1 4295   4.641   0.124   2.793
 1132SOL    HW2 4296   4.627   6.985   2.845
 1133SOL     OW 4297   1.174   1.111   0.088
 1133SOL    HW1 4298   1.230   1.040   0.047
 1133SOL    HW2 4299   1.221   1.150   0.167
 1134SOL     OW 4300   4.872   0.123   2.640
 1134SOL    HW1 4301   4.863   0.025   2.624
 1134SOL    HW2 4302   4.947   0.139   2.704
 1135SOL     OW 4303   2.170   6.550   4.435
 1135SOL    HW1 4304   2.116   6.533   4.517
 1135SOL    HW2 4305   2.243   6.481   4.428
 1136SOL     OW 4306   4.468   4.483   3.167
 1136SOL    HW1 4307   4.487   4.460   3.263
 1136SOL    HW2 4308   4.546   4.456   3.111
 1137SOL     OW 4309   1.224   0.082   0.364
 1137SOL    HW1 4310   1.221   0.020   0.442
 1137SOL    HW2 4311   1.151   0.058   0.299
 1138SOL     OW 4312   6.891   1.144   5.772
 1138SOL    HW1 4313   6.970   1.198   5.744
 1138SOL    HW2 4314   6.912   1.047   5.760
 1139SOL     OW 4315   2.454   4.921   3.244
 1139SOL    HW1 4316   2.521   4.995   3.237
 1139SOL    HW2 4317   2.501   4.833   3.244
 1140SOL     OW 4318   2.800   1.080   2.299
 1140SOL    HW1 4319   2.747   1.057   2.217
 1140SOL    HW2 4320   2.754   1.153   2.349
 1141SOL     OW 4321   0.497   6.249   0.268
 1141SOL    HW1 4322   0.482   6.343   0.238
 1141SOL    HW2 4323   0.586   6.217   0.235
 1142SOL     OW 4324   3.184   0.467   3.946
 1142SOL    HW1 4325   3.189   0.561   3.912
 1142SOL    HW2 4326   3.164   0.405   3.871
 1143SOL     OW 4327   2.413   2.627   2.881
 1143SOL    HW1 4328   2.444   2.642   2.975
 1143SOL    HW2 4329   2.370   2.710   2.846
 1144SOL     OW 4330   6.334   4.354   3.421
 1144SOL    HW1 4331   6.343   4.276   3.482
 1144SOL    HW2 4332   6.307   4.323   3.330
 1145SOL     OW 4333   0.118   2.977   0.762
 1145SOL    HW1 4334   0.084   2.883   0.762
 1145SOL    HW2 4335   0.218   2.976   0.771
 1146SOL     OW 4336   0.306   1.005   1.804
 1146SOL    HW1 4337   0.378   0.949   1.764
 1146SOL    HW2 4338   0.225   1.002   1.745
 1147SOL     OW 4339   2.993   5.436   1.736
 1147SOL    HW1 4340   3.087   5.451   1.706
 1147SOL    HW2 4341   2.970   5.504   1.806
 1148SOL     OW 4342   4.823   6.414   0.545
 1148SOL    HW1 4343   4.819   6.341   0.614
 1148SOL    HW2 4344   4.904   6.400   0.487
 1149SOL     OW 4345   5.472   2.823   2.447
 1149SOL    HW1 4346   5.477   2.890   2.522
 1149SOL    HW2 4347   5.558   2.773   2.441
 1150SOL     OW 4348   0.786   4.564   6.656
 1150SOL    HW1 4349   0.696   4.604   6.676
 1150SOL    HW2 4350   0.854   4.602   6.719
 1151SOL     OW 4351   5.844   4.567   5.628
 1151SOL    HW1 4352   5.824   4.543   5.533
 1151SOL    HW2 4353   5.762   4.609   5.669
 1152SOL     OW 4354   4.613   5.781   6.194
 1152SOL    HW1 4355   4.690   5.843   6.207
 1152SOL    HW2 4356   4.593   5.773   6.097
 1153SOL     OW 4357   0.128   6.814   1.958
 1153SOL    HW1 4358   0.100   6.746   1.890
 1153SOL    HW2 4359   0.065   6.810   2.036
 1154SOL     OW 4360   0.561   4.764   0.696
 1154SOL    HW1 4361   0.591   4.836   0.758
 1154SOL    HW2 4362   0.594   4.783   0.604
 1155SOL     OW 4363   2.857   4.837   5.720
 1155SOL    HW1 4364   2.935   4.899   5.704
 1155SOL    HW2 4365   2.890   4.745   5.735
 1156SOL     OW 4366   4.381   1.757   5.364
 1156SOL    HW1 4367   4.374   1.748   5.464
 1156SOL    HW2 4368   4.355   1.850   5.338
 1157SOL     OW 4369   5.287   1.172   6.009
 1157SOL    HW1 4370   5.268   1.164   6.107
 1157SOL    HW2 4371   5.290   1.080   5.968
 1158SOL     OW 4372   6.778   5.105   4.978
 1158SOL    HW1 4373   6.695   5.132   5.028
 1158SOL    HW2 4374   6.791   5.006   4.985
 1159SOL     OW 4375   6.363   0.116   3.905
 1159SOL    HW1 4376   6.269   0.092   3.931
 1159SOL    HW2 4377   6.423   0.107   3.984
 1160SOL     OW 4378   4.637   4.992   1.451
 1160SOL    HW1 4379   4.577   5.068   1.478
 1160SOL    HW2 4380   4.732   5.022   1.454
 1161SOL     OW 4381   6.812   5.766   5.986
 1161SOL    HW1 4382   6.823   5.666   5.986
 1161SOL    HW2 4383   6.735   5.791   5.928
 1162SOL     OW 4384   1.951   1.893   6.384
 1162SOL    HW1 4385   1.944   1.872   6.481
 1162SOL    HW2 4386   2.042   1.868   6.351
 1163SOL     OW 4387   6.280   4.160   2.164
 1163SOL    HW1 4388   6.181   4.142   2.162
 1163SOL    HW2 4389   6.296   4.252   2.199
 1164SOL     OW 4390   4.867   2.512   3.855
 1164SOL    HW1 4391   4.819   2.553   3.933
 1164SOL    HW2 4392   4.824   2.424   3.832
 1165SOL     OW 4393   4.289   5.535   3.866
 1165SOL    HW1 4394   4.280   5.575   3.775
 1165SOL    HW2 4395   4.202   5.496   3.895
 1166SOL     OW 4396   2.757   6.510   0.237
 1166SOL    HW1 4397   2.813   6.427   0.231
 1166SOL    HW2 4398   2.685   6.507   0.168
 1167SOL     OW 4399   4.428   6.663   0.618
 1167SOL    HW1 4400   4.336   6.676   0.582
 1167SOL    HW2 4401   4.454   6.566   0.609
 1168SOL     OW 4402   5.643   2.989   1.442
 1168SOL    HW1 4403   5.571   3.038   1.394
 1168SOL    HW2 4404   5.642   2.893   1.415
 1169SOL     OW 4405   4.548   1.774   5.829
 1169SOL    HW1 4406   4.566   1.724   5.745
 1169SOL    HW2 4407   4.467   1.735   5.874
 1170SOL     OW 4408   5.134   6.738   2.727
 1170SOL    HW1 4409   5.094   6.712   2.815
 1170SOL    HW2 4410   5.187   6.662   2.691
 1171SOL     OW 4411   3.230   6.438   6.893
 1171SOL    HW1 4412   3.327   6.425   6.871
 1171SOL    HW2 4413   3.218   6.437   6.992
 1172SOL     OW 4414   4.021   3.955   0.702
 1172SOL    HW1 4415   3.981   3.999   0.621
 1172SOL    HW2 4416   4.072   4.023   0.755
 1173SOL     OW 4417   3.566   1.357   0.679
 1173SOL    HW1 4418   3.644   1.368   0.741
 1173SOL    HW2 4419   3.573   1.269   0.632
 1174SOL     OW 4420   2.763   4.028   1.410
 1174SOL    HW1 4421   2.729   4.119   1.383
 1174SOL    HW2 4422   2.799   4.033   1.503
 1175SOL     OW 4423   4.253   3.823   6.383
 1175SOL    HW1 4424   4.324   3.864   6.326
 1175SOL    HW2 4425   4.237   3.880   6.464
 1176SOL     OW 4426   5.309   3.721   0.362
 1176SOL    HW1 4427   5.330   3.751   0.455
 1176SOL    HW2 4428   5.211   3.700   0.355
 1177SOL     OW 4429   6.427   3.716   4.630
 1177SOL    HW1 4430   6.443   3.649   4.558
 1177SOL    HW2 4431   6.353   3.777   4.603
 1178SOL     OW 4432   3.249   3.986   0.550
 1178SOL    HW1 4433   3.163   3.966   0.503
 1178SOL    HW2 4434   3.268   4.084   0.545
 1179SOL     OW 4435   2.817   5.645   0.907
 1179SOL    HW1 4436   2.769   5.732   0.916
 1179SOL    HW2 4437   2.772   5.589   0.837
 1180SOL     OW 4438   2.338   6.261   3.924
 1180SOL    HW1 4439   2.297   6.170   3.914
 1180SOL    HW2 4440   2.285   6.315   3.988
 1181SOL     OW 4441   0.116   5.433   5.061
 1181SOL    HW1 4442   0.205   5.399   5.093
 1181SOL    HW2 4443   0.118   5.442   4.962
 1182SOL     OW 4444   5.451   5.182   3.641
 1182SOL    HW1 4445   5.353   5.196   3.656
 1182SOL    HW2 4446   5.488   5.123   3.713
 1183SOL     OW 4447   2.381   4.914   0.361
 1183SOL    HW1 4448   2.428   4.888   0.446
 1183SOL    HW2 4449   2.349   5.008   0.368
 1184SOL     OW 4450   0.021   1.409   5.119
 1184SOL    HW1 4451   0.078   1.330   5.097
 1184SOL    HW2 4452   0.077   1.479   5.164
 1185SOL     OW 4453   0.710   0.990   1.089
 1185SOL    HW1 4454   0.714   1.080   1.044
 1185SOL    HW2 4455   0.792   0.938   1.066
 1186SOL     OW 4456   4.924   6.016   5.282
 1186SOL    HW1 4457   4.871   6.083   5.334
 1186SOL    HW2 4458   5.005   5.989   5.334
 1187SOL     OW 4459   4.649   0.192   5.735
 1187SOL    HW1 4460   4.586   0.269   5.724
 1187SOL    HW2 4461   4.742   0.226   5.747
 1188SOL     OW 4462   3.297   6.153   6.091
 1188SOL    HW1 4463   3.334   6.181   6.002
 1188SOL    HW2 4464   3.198   6.158   6.089
 1189SOL     OW 4465   6.295   1.707   1.539
 1189SOL    HW1 4466   6.313   1.700   1.441
 1189SOL    HW2 4467   6.375   1.746   1.585
 1190SOL     OW 4468   3.555   5.842   3.728
 1190SOL    HW1 4469   3.596   5.893   3.652
 1190SOL    HW2 4470   3.621   5.775   3.762
 1191SOL     OW 4471   4.281   5.415   4.798
 1191SOL    HW1 4472   4.339   5.416   4.716
 1191SOL    HW2 4473   4.193   5.459   4.777
 1192SOL     OW 4474   5.199   4.903   2.576
 1192SOL    HW1 4475   5.140   4.961   2.632
 1192SOL    HW2 4476   5.247   4.838   2.634
 1193SOL     OW 4477   6.832   1.719   4.856
 1193SOL    HW1 4478   6.806   1.689   4.947
 1193SOL    HW2 4479   6.919   1.678   4.831
 1194SOL     OW 4480   5.553   7.015   1.586
 1194SOL    HW1 4481   5.632   0.061   1.585
 1194SOL    HW2 4482   5.554   6.959   1.669
 1195SOL     OW 4483   0.506   4.023   0.888
 1195SOL    HW1 4484   0.422   4.066   0.920
 1195SOL    HW2 4485   0.486   3.962   0.812
 1196SOL     OW 4486   6.866   5.044   3.428
 1196SOL    HW1 4487   6.865   4.947   3.402
 1196SOL    HW2 4488   6.819   5.098   3.358
 1197SOL     OW 4489   4.415   6.893   5.104
 1197SOL    HW1 4490   4.364   6.957   5.162
 1197SOL    HW2 4491   4.477   6.839   5.160
 1198SOL     OW 4492   1.504   3.120   3.021
 1198SOL    HW1 4493   1.556   3.122   3.106
 1198SOL    HW2 4494   1.559   3.077   2.949
 1199SOL     OW 4495   3.555   3.990   1.083
 1199SOL    HW1 4496   3.623   4.064   1.082
 1199SOL    HW2 4497   3.602   3.902   1.084
 1200SOL     OW 4498   3.434   4.157   4.008
 1200SOL    HW1 4499   3.337   4.140   4.025
 1200SOL    HW2 4500   3.483   4.161   4.095
 1201SOL     OW 4501   1.052   1.366   4.587
 1201SOL    HW1 4502   1.103   1.286   4.555
 1201SOL    HW2 4503   1.012   1.347   4.676
 1202SOL     OW 4504   0.322   5.518   5.698
 1202SOL    HW1 4505   0.318   5.618   5.693
 1202SOL    HW2 4506   0.287   5.479   5.613
 1203SOL     OW 4507   0.089   6.198   0.312
 1203SOL    HW1 4508   7.012   6.236   0.308
 1203SOL    HW2 4509   0.124   6.184   0.220
 1204SOL     OW 4510   4.651   1.500   1.474
 1204SOL    HW1 4511   4.647   1.422   1.536
 1204SOL    HW2 4512   4.589   1.486   1.397
 1205SOL     OW 4513   4.055   3.004   0.723
 1205SOL    HW1 4514   3.969   2.954   0.730
 1205SOL    HW2 4515   4.050   3.087   0.779
 1206SOL     OW 4516   2.704   2.892   5.371
 1206SOL    HW1 4517   2.797   2.929   5.362
 1206SOL    HW2 4518   2.640   2.951   5.321
 1207SOL     OW 4519   2.362   6.560   1.020
 1207SOL    HW1 4520   2.373   6.473   0.973
 1207SOL    HW2 4521   2.265   6.576   1.037
 1208SOL     OW 4522   3.622   3.621   1.256
 1208SOL    HW1 4523   3.678   3.702   1.237
 1208SOL    HW2 4524   3.535   3.650   1.297
 1209SOL     OW 4525   4.154   0.651   4.126
 1209SOL    HW1 4526   4.116   0.620   4.039
 1209SOL    HW2 4527   4.171   0.572   4.185
 1210SOL     OW 4528   3.440   0.137   3.137
 1210SOL    HW1 4529   3.537   0.151   3.159
 1210SOL    HW2 4530   3.415   0.043   3.157
 1211SOL     OW 4531   0.374   3.607   2.882
 1211SOL    HW1 4532   0.299   3.558   2.927
 1211SOL    HW2 4533   0.365   3.705   2.900
 1212SOL     OW 4534   6.021   0.635   0.142
 1212SOL    HW1 4535   5.995   0.683   0.059
 1212SOL    HW2 4536   5.939   0.599   0.187
 1213SOL     OW 4537   6.033   2.348   0.911
 1213SOL    HW1 4538   5.997   2.300   0.992
 1213SOL    HW2 4539   5.989   2.437   0.904
 1214SOL     OW 4540   1.402   3.101   6.768
 1214SOL    HW1 4541   1.491   3.107   6.814
 1214SOL    HW2 4542   1.397   3.170   6.696
 1215SOL     OW 4543   1.222   4.721   3.342
 1215SOL    HW1 4544   1.309   4.684   3.310
 1215SOL    HW2 4545   1.150   4.701   3.276
 1216SOL     OW 4546   4.982   0.158   1.073
 1216SOL    HW1 4547   5.052   0.101   1.030
 1216SOL    HW2 4548   4.898   0.154   1.017
 1217SOL     OW 4549   2.245   4.821   0.998
 1217SOL    HW1 4550   2.300   4.798   0.918
 1217SOL    HW2 4551   2.206   4.912   0.986
 1218SOL     OW 4552   1.369   3.669   4.759
 1218SOL    HW1 4553   1.465   3.670   4.730
 1218SOL    HW2 4554   1.358   3.727   4.839
 1219SOL     OW 4555   5.199   6.000   2.073
 1219SOL    HW1 4556   5.165   6.093   2.063
 1219SOL    HW2 4557   5.295   6.003   2.103
 1220SOL     OW 4558   0.871   4.642   3.274
 1220SOL    HW1 4559   0.910   4.554   3.247
 1220SOL    HW2 4560   0.829   4.634   3.364
 1221SOL     OW 4561   4.956   4.170   6.277
 1221SOL    HW1 4562   5.044   4.214   6.294
 1221SOL    HW2 4563   4.956   4.079   6.319
 1222SOL     OW 4564   6.943   0.600   0.045
 1222SOL    HW1 4565   6.910   0.682   0.092
 1222SOL    HW2 4566   6.907   0.600   6.967
 1223SOL     OW 4567   4.094   1.940   0.112
 1223SOL    HW1 4568   4.126   1.858   0.159
 1223SOL    HW2 4569   4.019   1.981   0.163
 1224SOL     OW 4570   3.657   5.495   0.947
 1224SOL    HW1 4571   3.658   5.429   1.021
 1224SOL    HW2 4572   3.581   5.474   0.885
 1225SOL     OW 4573   3.072   3.365   6.336
 1225SOL    HW1 4574   3.171   3.377   6.341
 1225SOL    HW2 4575   3.044   3.354   6.240
 1226SOL     OW 4576   2.910   6.084   2.082
 1226SOL    HW1 4577   2.958   5.997   2.096
 1226SOL    HW2 4578   2.828   6.069   2.028
 1227SOL     OW 4579   6.543   4.633   5.824
 1227SOL    HW1 4580   6.641   4.649   5.814
 1227SOL    HW2 4581   6.513   4.565   5.756
 1228SOL     OW 4582   3.172   1.634   6.425
 1228SOL    HW1 4583   3.080   1.646   6.464
 1228SOL    HW2 4584   3.176   1.678   6.336
 1229SOL     OW 4585   3.807   5.004   5.537
 1229SOL    HW1 4586   3.766   5.094   5.533
 1229SOL    HW2 4587   3.841   4.987   5.630
 1230SOL     OW 4588   4.546   6.767   2.561
 1230SOL    HW1 4589   4.489   6.692   2.527
 1230SOL    HW2 4590   4.531   6.849   2.506
 1231SOL     OW 4591   1.943   2.763   4.656
 1231SOL    HW1 4592   1.889   2.847   4.664
 1231SOL    HW2 4593   1.882   2.684   4.662
 1232SOL     OW 4594   0.531   1.510   4.998
 1232SOL    HW1 4595   0.556   1.565   4.918
 1232SOL    HW2 4596   0.460   1.557   5.050
 1233SOL     OW 4597   0.711   4.372   5.227
 1233SOL    HW1 4598   0.735   4.402   5.135
 1233SOL    HW2 4599   0.700   4.452   5.286
 1234SOL     OW 4600   6.520   3.677   5.112
 1234SOL    HW1 4601   6.511   3.590   5.160
 1234SOL    HW2 4602   6.577   3.664   5.031
 1235SOL     OW 4603   0.315   5.849   2.465
 1235SOL    HW1 4604   0.325   5.821   2.561
 1235SOL    HW2 4605   0.327   5.948   2.458
 1236SOL     OW 4606   4.570   1.448   6.764
 1236SOL    HW1 4607   4.573   1.357   6.723
 1236SOL    HW2 4608   4.609   1.445   6.856
 1237SOL     OW 4609   2.356   5.299   5.244
 1237SOL    HW1 4610   2.380   5.203   5.228
 1237SOL    HW2 4611   2.281   5.305   5.309
 1238SOL     OW 4612   2.562   1.376   0.280
 1238SOL    HW1 4613   2.478   1.325   0.260
 1238SOL    HW2 4614   2.635   1.346   0.220
 1239SOL     OW 4615   6.837   6.674   5.960
 1239SOL    HW1 4616   6.750   6.661   6.007
 1239SOL    HW2 4617   6.837   6.763   5.915
 1240SOL     OW 4618   5.443   6.696   1.954
 1240SOL    HW1 4619   5.454   6.607   1.999
 1240SOL    HW2 4620   5.373   6.748   2.002
 1241SOL     OW 4621   5.291   3.655   4.204
 1241SOL    HW1 4622   5.291   3.736   4.262
 1241SOL    HW2 4623   5.238   3.673   4.121
 1242SOL     OW 4624   0.541   3.498   1.938
 1242SOL    HW1 4625   0.528   3.543   1.849
 1242SOL    HW2 4626   0.471   3.428   1.950
 1243SOL     OW 4627   0.049   0.275   4.723
 1243SOL    HW1 4628   0.076   0.188   4.681
 1243SOL    HW2 4629   7.015   0.256   4.807
 1244SOL     OW 4630   6.260   0.149   4.226
 1244SOL    HW1 4631   6.232   0.057   4.253
 1244SOL    HW2 4632   6.342   0.175   4.275
 1245SOL     OW 4633   4.691   5.344   0.464
 1245SOL    HW1 4634   4.672   5.258   0.510
 1245SOL    HW2 4635   4.684   5.332   0.365
 1246SOL     OW 4636   2.430   6.149   1.857
 1246SOL    HW1 4637   2.526   6.121   1.865
 1246SOL    HW2 4638   2.408   6.213   1.931
 1247SOL     OW 4639   1.944   0.351   6.936
 1247SOL    HW1 4640   1.974   0.384   0.010
 1247SOL    HW2 4641   1.851   0.381   6.918
 1248SOL     OW 4642   2.399   0.278   5.171
 1248SOL    HW1 4643   2.411   0.295   5.269
 1248SOL    HW2 4644   2.455   0.343   5.119
 1249SOL     OW 4645   5.988   2.113   2.662
 1249SOL    HW1 4646   6.070   2.171   2.664
 1249SOL    HW2 4647   5.909   2.167   2.633
 1250SOL     OW 4648   6.052   4.944   4.599
 1250SOL    HW1 4649   6.122   4.992   4.546
 1250SOL    HW2 4650   6.063   4.966   4.696
 1251SOL     OW 4651   3.367   0.659   4.378
 1251SOL    HW1 4652   3.403   0.576   4.420
 1251SOL    HW2 4653   3.267   0.651   4.370
 1252SOL     OW 4654   3.724   3.388   4.972
 1252SOL    HW1 4655   3.637   3.410   5.017
 1252SOL    HW2 4656   3.767   3.473   4.941
 1253SOL     OW 4657   3.256   5.532   2.004
 1253SOL    HW1 4658   3.343   5.575   1.977
 1253SOL    HW2 4659   3.201   5.598   2.054
 1254SOL     OW 4660   0.952   2.330   2.776
 1254SOL    HW1 4661   0.868   2.312   2.828
 1254SOL    HW2 4662   0.931   2.392   2.700
 1255SOL     OW 4663   6.564   2.107   5.054
 1255SOL    HW1 4664   6.566   2.166   4.973
 1255SOL    HW2 4665   6.514   2.152   5.128
 1256SOL     OW 4666   6.835   6.454   3.450
 1256SOL    HW1 4667   6.862   6.528   3.388
 1256SOL    HW2 4668   6.914   6.397   3.470
 1257SOL     OW 4669   0.086   6.984   4.587
 1257SOL    HW1 4670   0.164   0.002   4.640
 1257SOL    HW2 4671   0.100   6.888   4.563
 1258SOL     OW 4672   1.672   5.263   3.582
 1258SOL    HW1 4673   1.657   5.356   3.547
 1258SOL    HW2 4674   1.601   5.240   3.648
 1259SOL     OW 4675   3.703   1.259   3.948
 1259SOL    HW1 4676   3.769   1.307   3.890
 1259SOL    HW2 4677   3.717   1.160   3.940
 1260SOL     OW 4678   1.522   1.740   7.000
 1260SOL    HW1 4679   1.465   1.758   6.920
 1260SOL    HW2 4680   1.597   1.805   7.003
 1261SOL     OW 4681   0.385   5.585   6.462
 1261SOL    HW1 4682   0.436   5.523   6.402
 1261SOL    HW2 4683   0.447   5.651   6.503
 1262SOL     OW 4684   4.931   4.363   1.461
 1262SOL    HW1 4685   5.013   4.400   1.506
 1262SOL    HW2 4686   4.946   4.267   1.438
 1263SOL     OW 4687   0.265   1.954   2.376
 1263SOL    HW1 4688   0.316   1.873   2.405
 1263SOL    HW2 4689   0.174   1.926   2.345
 1264SOL     OW 4690   6.290   4.300   0.157
 1264SOL    HW1 4691   6.368   4.356   0.185
 1264SOL    HW2 4692   6.238   4.272   0.238
 1265SOL     OW 4693   5.806   4.984   4.864
 1265SOL    HW1 4694   5.868   5.047   4.817
 1265SOL    HW2 4695   5.856   4.934   4.934
 1266SOL     OW 4696   0.336   1.136   4.116
 1266SOL    HW1 4697   0.271   1.140   4.041
 1266SOL    HW2 4698   0.392   1.053   4.108
 1267SOL     OW 4699   5.681   1.357   1.130
 1267SOL    HW1 4700   5.589   1.377   1.094
 1267SOL    HW2 4701   5.743   1.431   1.104
 1268SOL     OW 4702   2.924   2.919   6.308
 1268SOL    HW1 4703   2.906   2.993   6.373
 1268SOL    HW2 4704   2.912   2.831   6.354
 1269SOL     OW 4705   5.850   3.282   4.429
 1269SOL    HW1 4706   5.828   3.238   4.342
 1269SOL    HW2 4707   5.768   3.327   4.465
 1270SOL     OW 4708   1.488   4.299   2.410
 1270SOL    HW1 4709   1.512   4.321   2.504
 1270SOL    HW2 4710   1.544   4.222   2.378
 1271SOL     OW 4711   3.992   1.855   2.556
 1271SOL    HW1 4712   4.011   1.785   2.488
 1271SOL    HW2 4713   3.997   1.945   2.513
 1272SOL     OW 4714   5.795   4.884   6.966
 1272SOL    HW1 4715   5.712   4.883   0.005
 1272SOL    HW2 4716   5.772   4.867   6.870
 1273SOL     OW 4717   1.136   3.698   6.003
 1273SOL    HW1 4718   1.130   3.701   6.103
 1273SOL    HW2 4719   1.153   3.604   5.974
 1274SOL     OW 4720   0.028   4.362   1.221
 1274SOL    HW1 4721   0.060   4.275   1.258
 1274SOL    HW2 4722   6.981   4.405   1.286
 1275SOL     OW 4723   3.536   1.826   3.272
 1275SOL    HW1 4724   3.626   1.782   3.277
 1275SOL    HW2 4725   3.545   1.922   3.298
 1276SOL     OW 4726   6.021   5.368   5.077
 1276SOL    HW1 4727   5.958   5.442   5.053
 1276SOL    HW2 4728   6.077   5.345   4.997
 1277SOL     OW 4729   2.052   5.544   6.285
 1277SOL    HW1 4730   2.049   5.445   6.273
 1277SOL    HW2 4731   2.124   5.568   6.350
 1278SOL     OW 4732   0.922   0.483   4.976
 1278SOL    HW1 4733   0.869   0.538   5.041
 1278SOL    HW2 4734   0.970   0.411   5.026
 1279SOL     OW 4735   1.713   5.003   6.726
 1279SOL    HW1 4736   1.743   5.098   6.739
 1279SOL    HW2 4737   1.781   4.953   6.673
 1280SOL     OW 4738   4.636   6.748   4.051
 1280SOL    HW1 4739   4.541   6.774   4.063
 1280SOL    HW2 4740   4.648   6.652   4.077
 1281SOL     OW 4741   2.481   6.499   3.113
 1281SOL    HW1 4742   2.428   6.423   3.152
 1281SOL    HW2 4743   2.468   6.500   3.014
 1282SOL     OW 4744   6.546   2.147   6.098
 1282SOL    HW1 4745   6.559   2.246   6.090
 1282SOL    HW2 4746   6.526   2.123   6.193
 1283SOL     OW 4747   6.781   2.974   4.937
 1283SOL    HW1 4748   6.787   2.874   4.926
 1283SOL    HW2 4749   6.690   3.005   4.911
 1284SOL     OW 4750   4.791   1.839   1.982
 1284SOL    HW1 4751   4.694   1.822   1.968
 1284SOL    HW2 4752   4.817   1.924   1.936
 1285SOL     OW 4753   4.721   1.445   5.640
 1285SOL    HW1 4754   4.712   1.349   5.613
 1285SOL    HW2 4755   4.817   1.467   5.656
 1286SOL     OW 4756   4.353   3.113   0.799
 1286SOL    HW1 4757   4.295   3.065   0.733
 1286SOL    HW2 4758   4.329   3.085   0.891
 1287SOL     OW 4759   5.378   4.530   5.690
 1287SOL    HW1 4760   5.432   4.538   5.773
 1287SOL    HW2 4761   5.385   4.615   5.637
 1288SOL     OW 4762   3.685   3.985   6.305
 1288SOL    HW1 4763   3.613   3.936   6.354
 1288SOL    HW2 4764   3.657   4.080   6.290
 1289SOL     OW 4765   0.752   0.066   1.374
 1289SOL    HW1 4766   0.757   0.157   1.414
 1289SOL    HW2 4767   0.659   0.048   1.342
 1290SOL     OW 4768   1.205   6.955   0.608
 1290SOL    HW1 4769   1.243   6.863   0.598
 1290SOL    HW2 4770   1.250   7.003   0.683
 1291SOL     OW 4771   0.247   4.093   3.845
 1291SOL    HW1 4772   0.302   4.131   3.771
 1291SOL    HW2 4773   0.203   4.166   3.897
 1292SOL     OW 4774   0.907   5.892   2.496
 1292SOL    HW1 4775   0.869   5.982   2.515
 1292SOL    HW2 4776   0.990   5.901   2.443
 1293SOL     OW 4777   2.304   2.145   6.994
 1293SOL    HW1 4778   2.215   2.108   6.966
 1293SOL    HW2 4779   2.299   2.172   0.075
 1294SOL     OW 4780   0.337   3.177   5.801
 1294SOL    HW1 4781   0.319   3.147   5.707
 1294SOL    HW2 4782   0.353   3.275   5.803
 1295SOL     OW 4783   0.541   4.014   1.174
 1295SOL    HW1 4784   0.603   4.079   1.216
 1295SOL    HW2 4785   0.547   4.021   1.074
 1296SOL     OW 4786   4.200   6.182   5.073
 1296SOL    HW1 4787   4.135   6.127   5.021
 1296SOL    HW2 4788   4.179   6.175   5.170
 1297SOL     OW 4789   0.970   6.970   1.226
 1297SOL    HW1 4790   0.889   0.014   1.234
 1297SOL    HW2 4791   1.047   7.013   1.274
 1298SOL     OW 4792   4.789   5.780   3.389
 1298SOL    HW1 4793   4.805   5.859   3.449
 1298SOL    HW2 4794   4.691   5.760   3.386
 1299SOL     OW 4795   2.568   2.575   3.762
 1299SOL    HW1 4796   2.542   2.587   3.857
 1299SOL    HW2 4797   2.500   2.620   3.703
 1300SOL     OW 4798   2.154   2.956   0.862
 1300SOL    HW1 4799   2.078   2.977   0.800
 1300SOL    HW2 4800   2.240   2.959   0.811
 1301SOL     OW 4801   0.361   6.482   1.846
 1301SOL    HW1 4802   0.379   6.479   1.748
 1301SOL    HW2 4803   0.376   6.575   1.880
 1302SOL     OW 4804   5.058   7.000   5.084
 1302SOL    HW1 4805   5.069   6.989   5.182
 1302SOL    HW2 4806   4.990   0.055   5.065
 1303SOL     OW 4807   4.466   1.105   1.384
 1303SOL    HW1 4808   4.485   1.197   1.347
 1303SOL    HW2 4809   4.457   1.111   1.483
 1304SOL     OW 4810   1.995   0.035   0.789
 1304SOL    HW1 4811   1.980   6.956   0.761
 1304SOL    HW2 4812   2.079   0.070   0.748
 1305SOL     OW 4813   6.064   3.693   0.628
 1305SOL    HW1 4814   6.108   3.616   0.581
 1305SOL    HW2 4815   6.059   3.673   0.726
 1306SOL     OW 4816   1.084   5.979   4.655
 1306SOL    HW1 4817   1.119   6.066   4.689
 1306SOL    HW2 4818   0.987   5.988   4.634
 1307SOL     OW 4819   2.218   4.276   4.100
 1307SOL    HW1 4820   2.204   4.221   4.182
 1307SOL    HW2 4821   2.200   4.221   4.019
 1308SOL     OW 4822   6.831   6.986   6.091
 1308SOL    HW1 4823   6.863   0.062   6.068
 1308SOL    HW2 4824   6.754   6.961   6.033
 1309SOL     OW 4825   5.774   4.821   5.791
 1309SOL    HW1 4826   5.843   4.886   5.823
 1309SOL    HW2 4827   5.708   4.869   5.733
 1310SOL     OW 4828   0.385   3.840   3.133
 1310SOL    HW1 4829   0.311   3.865   3.195
 1310SOL    HW2 4830   0.425   3.753   3.162
 1311SOL     OW 4831   6.763   5.970   6.155
 1311SOL    HW1 4832   6.834   6.037   6.176
 1311SOL    HW2 4833   6.799   5.900   6.095
 1312SOL     OW 4834   1.272   6.679   0.283
 1312SOL    HW1 4835   1.264   6.595   0.229
 1312SOL    HW2 4836   1.218   6.752   0.241
 1313SOL     OW 4837   0.202   5.045   2.528
 1313SOL    HW1 4838   0.287   5.011   2.487
 1313SOL    HW2 4839   0.162   4.974   2.585
 1314SOL     OW 4840   3.683   1.340   4.586
 1314SOL    HW1 4841   3.770   1.368   4.625
 1314SOL    HW2 4842   3.693   1.329   4.487
 1315SOL     OW 4843   6.862   1.856   2.732
 1315SOL    HW1 4844   6.960   1.841   2.748
 1315SOL    HW2 4845   6.849   1.906   2.647
 1316SOL     OW 4846   3.819   0.109   5.725
 1316SOL    HW1 4847   3.787   0.189   5.775
 1316SOL    HW2 4848   3.740   0.053   5.699
 1317SOL     OW 4849   1.782   3.944   6.327
 1317SOL    HW1 4850   1.707   3.976   6.269
 1317SOL    HW2 4851   1.760   3.854   6.365
 1318SOL     OW 4852   1.105   2.373   0.784
 1318SOL    HW1 4853   1.115   2.274   0.786
 1318SOL    HW2 4854   1.123   2.411   0.875
 1319SOL     OW 4855   0.026   6.008   0.853
 1319SOL    HW1 4856   6.968   5.963   0.803
 1319SOL    HW2 4857   0.096   6.040   0.789
 1320SOL     OW 4858   3.749   4.434   6.774
 1320SOL    HW1 4859   3.781   4.483   6.855
 1320SOL    HW2 4860   3.651   4.416   6.782
 1321SOL     OW 4861   4.883   2.854   6.288
 1321SOL    HW1 4862   4.923   2.826   6.200
 1321SOL    HW2 4863   4.956   2.872   6.354
 1322SOL     OW 4864   3.549   1.591   4.318
 1322SOL    HW1 4865   3.532   1.645   4.400
 1322SOL    HW2 4866   3.462   1.573   4.272
 1323SOL     OW 4867   3.508   6.468   6.515
 1323SOL    HW1 4868   3.409   6.471   6.504
 1323SOL    HW2 4869   3.548   6.415   6.440
 1324SOL     OW 4870   0.414   3.350   6.593
 1324SOL    HW1 4871   0.340   3.406   6.631
 1324SOL    HW2 4872   0.401   3.340   6.494
 1325SOL     OW 4873   3.841   6.362   4.794
 1325SOL    HW1 4874   3.919   6.301   4.780
 1325SOL    HW2 4875   3.871   6.457   4.785
 1326SOL     OW 4876   4.960   3.488   5.187
 1326SOL    HW1 4877   4.893   3.534   5.129
 1326SOL    HW2 4878   5.045   3.472   5.136
 1327SOL     OW 4879   1.077   6.450   1.215
 1327SOL    HW1 4880   1.108   6.522   1.276
 1327SOL    HW2 4881   1.156   6.402   1.176
 1328SOL     OW 4882   2.310   3.215   6.941
 1328SOL    HW1 4883   2.339   3.140   6.881
 1328SOL    HW2 4884   2.390   3.257   6.983
 1329SOL     OW 4885   0.698   2.178   2.799
 1329SOL    HW1 4886   0.759   2.139   2.868
 1329SOL    HW2 4887   0.606   2.189   2.838
 1330SOL     OW 4888   1.739   1.748   1.542
 1330SOL    HW1 4889   1.753   1.654   1.513
 1330SOL    HW2 4890   1.815   1.777   1.600
 1331SOL     OW 4891   4.801   2.856   3.142
 1331SOL    HW1 4892   4.879   2.829   3.086
 1331SOL    HW2 4893   4.762   2.774   3.185
 1332SOL     OW 4894   2.645   0.187   0.888
 1332SOL    HW1 4895   2.723   0.137   0.926
 1332SOL    HW2 4896   2.660   0.285   0.899
 1333SOL     OW 4897   2.897   3.541   3.061
 1333SOL    HW1 4898   2.885   3.619   3.000
 1333SOL    HW2 4899   2.882   3.571   3.155
 1334SOL     OW 4900   6.445   1.766   3.892
 1334SOL    HW1 4901   6.413   1.704   3.963
 1334SOL    HW2 4902   6.545   1.763   3.887
 1335SOL     OW 4903   2.618   2.053   2.270
 1335SOL    HW1 4904   2.542   1.993   2.295
 1335SOL    HW2 4905   2.688   2.049   2.342
 1336SOL     OW 4906   2.859   1.652   4.826
 1336SOL    HW1 4907   2.806   1.606   4.897
 1336SOL    HW2 4908   2.802   1.719   4.779
 1337SOL     OW 4909   1.066   1.753   3.030
 1337SOL    HW1 4910   1.078   1.850   3.053
 1337SOL    HW2 4911   1.094   1.738   2.935
 1338SOL     OW 4912   6.801   3.101   4.693
 1338SOL    HW1 4913   6.794   3.006   4.661
 1338SOL    HW2 4914   6.720   3.152   4.663
 1339SOL     OW 4915   6.590   2.077   6.819
 1339SOL    HW1 4916   6.623   2.006   6.881
 1339SOL    HW2 4917   6.617   2.055   6.725
 1340SOL     OW 4918   5.376   1.519   2.687
 1340SOL    HW1 4919   5.286   1.560   2.671
 1340SOL    HW2 4920   5.442   1.590   2.711
 1341SOL     OW 4921   4.123   6.379   6.578
 1341SOL    HW1 4922   4.049   6.421   6.631
 1341SOL    HW2 4923   4.142   6.436   6.498
 1342SOL     OW 4924   2.924   5.409   6.302
 1342SOL    HW1 4925   2.862   5.411   6.380
 1342SOL    HW2 4926   2.990   5.484   6.310
 1343SOL     OW 4927   5.300   5.600   2.980
 1343SOL    HW1 4928   5.359   5.658   3.036
 1343SOL    HW2 4929   5.239   5.548   3.040
 1344SOL     OW 4930   6.919   6.032   4.580
 1344SOL    HW1 4931   6.947   5.963   4.646
 1344SOL    HW2 4932   6.949   6.122   4.611
 1345SOL     OW 4933   0.886   5.539   2.874
 1345SOL    HW1 4934   0.937   5.606   2.929
 1345SOL    HW2 4935   0.948   5.466   2.845
 1346SOL     OW 4936   2.218   5.605   5.052
 1346SOL    HW1 4937   2.293   5.668   5.070
 1346SOL    HW2 4938   2.214   5.537   5.125
 1347SOL     OW 4939   6.833   0.196   5.728
 1347SOL    HW1 4940   6.742   0.197   5.769
 1347SOL    HW2 4941   6.842   0.117   5.667
 1348SOL     OW 4942   6.162   6.451   4.532
 1348SOL    HW1 4943   6.240   6.510   4.516
 1348SOL    HW2 4944   6.090   6.472   4.466
 1349SOL     OW 4945   5.425   2.957   5.086
 1349SOL    HW1 4946   5.327   2.969   5.072
 1349SOL    HW2 4947   5.441   2.891   5.159
 1350SOL     OW 4948   5.248   5.177   5.415
 1350SOL    HW1 4949   5.155   5.150   5.392
 1350SOL    HW2 4950   5.247   5.242   5.491
 1351SOL     OW 4951   5.443   2.130   3.139
 1351SOL    HW1 4952   5.460   2.174   3.228
 1351SOL    HW2 4953   5.530   2.116   3.092
 1352SOL     OW 4954   6.382   5.706   4.042
 1352SOL    HW1 4955   6.348   5.614   4.026
 1352SOL    HW2 4956   6.322   5.772   3.997
 1353SOL     OW 4957   0.930   2.536   0.119
 1353SOL    HW1 4958   0.833   2.548   0.098
 1353SOL    HW2 4959   0.981   2.616   0.090
 1354SOL     OW 4960   0.489   4.708   1.736
 1354SOL    HW1 4961   0.460   4.773   1.666
 1354SOL    HW2 4962   0.443   4.620   1.720
 1355SOL     OW 4963   6.146   3.612   4.608
 1355SOL    HW1 4964   6.199   3.563   4.539
 1355SOL    HW2 4965   6.050   3.614   4.580
 1356SOL     OW 4966   3.070   3.053   2.122
 1356SOL    HW1 4967   3.072   3.081   2.218
 1356SOL    HW2 4968   3.156   3.007   2.099
 1357SOL     OW 4969   0.118   4.246   6.401
 1357SOL    HW1 4970   0.166   4.332   6.418
 1357SOL    HW2 4971   0.036   4.264   6.348
 1358SOL     OW 4972   5.284   6.332   6.605
 1358SOL    HW1 4973   5.365   6.327   6.547
 1358SOL    HW2 4974   5.270   6.245   6.651
 1359SOL     OW 4975   5.952   4.699   2.932
 1359SOL    HW1 4976   6.037   4.647   2.927
 1359SOL    HW2 4977   5.958   4.767   3.005
 1360SOL     OW 4978   2.859   3.734   0.253
 1360SOL    HW1 4979   2.792   3.662   0.239
 1360SOL    HW2 4980   2.904   3.757   0.167
 1361SOL     OW 4981   6.143   5.078   5.388
 1361SOL    HW1 4982   6.075   5.053   5.456
 1361SOL    HW2 4983   6.185   4.995   5.350
 1362SOL     OW 4984   3.857   3.885   3.256
 1362SOL    HW1 4985   3.920   3.885   3.179
 1362SOL    HW2 4986   3.907   3.867   3.341
 1363SOL     OW 4987   0.170   4.999   4.608
 1363SOL    HW1 4988   0.158   4.970   4.513
 1363SOL    HW2 4989   0.241   4.944   4.651
 1364SOL     OW 4990   4.894   4.198   0.629
 1364SOL    HW1 4991   4.987   4.233   0.626
 1364SOL    HW2 4992   4.838   4.245   0.560
 1365SOL     OW 4993   6.923   4.247   6.219
 1365SOL    HW1 4994   6.839   4.197   6.237
 1365SOL    HW2 4995   6.990   4.186   6.177
 1366SOL     OW 4996   1.639   5.620   6.975
 1366SOL    HW1 4997   1.645   5.527   6.939
 1366SOL    HW2 4998   1.719   5.639   0.017
 1367SOL     OW 4999   2.229   0.088   3.199
 1367SOL    HW1 5000   2.307   0.037   3.237
 1367SOL    HW2 5001   2.188   0.145   3.271
 1368SOL     OW 5002   5.376   6.843   3.804
 1368SOL    HW1 5003   5.364   6.928   3.753
 1368SOL    HW2 5004   5.472   6.814   3.800
 1369SOL     OW 5005   1.977   6.432   2.834
 1369SOL    HW1 5006   1.987   6.487   2.751
 1369SOL    HW2 5007   2.054   6.368   2.841
 1370SOL     OW 5008   3.499   1.345   1.111
 1370SOL    HW1 5009   3.446   1.374   1.031
 1370SOL    HW2 5010   3.565   1.415   1.135
 1371SOL     OW 5011   5.240   1.625   4.212
 1371SOL    HW1 5012   5.241   1.585   4.120
 1371SOL    HW2 5013   5.329   1.610   4.255
 1372SOL     OW 5014   1.321   2.627   0.800
 1372SOL    HW1 5015   1.338   2.702   0.864
 1372SOL    HW2 5016   1.224   2.606   0.797
 1373SOL     OW 5017   6.221   3.829   6.736
 1373SOL    HW1 5018   6.232   3.731   6.754
 1373SOL    HW2 5019   6.168   3.870   6.809
 1374SOL     OW 5020   3.640   2.062   0.593
 1374SOL    HW1 5021   3.674   2.113   0.514
 1374SOL    HW2 5022   3.625   1.966   0.566
 1375SOL     OW 5023   6.986   4.564   6.109
 1375SOL    HW1 5024   6.998   4.477   6.157
 1375SOL    HW2 5025   0.060   4.606   6.094
 1376SOL     OW 5026   4.903   3.452   3.696
 1376SOL    HW1 5027   4.965   3.374   3.708
 1376SOL    HW2 5028   4.812   3.418   3.673
 1377SOL     OW 5029   6.514   4.127   5.162
 1377SOL    HW1 5030   6.524   4.031   5.187
 1377SOL    HW2 5031   6.580   4.150   5.090
 1378SOL     OW 5032   6.435   1.918   4.839
 1378SOL    HW1 5033   6.360   1.973   4.804
 1378SOL    HW2 5034   6.521   1.949   4.798
 1379SOL     OW 5035   3.164   0.195   2.021
 1379SOL    HW1 5036   3.172   0.095   2.014
 1379SOL    HW2 5037   3.070   0.222   2.001
 1380SOL     OW 5038   7.001   0.391   2.258
 1380SOL    HW1 5039   6.954   0.345   2.334
 1380SOL    HW2 5040   6.995   0.490   2.271
 1381SOL     OW 5041   5.282   2.814   0.119
 1381SOL    HW1 5042   5.372   2.791   0.156
 1381SOL    HW2 5043   5.215   2.812   0.193
 1382SOL     OW 5044   5.315   4.395   0.100
 1382SOL    HW1 5045   5.231   4.410   0.048
 1382SOL    HW2 5046   5.393   4.394   0.038
 1383SOL     OW 5047   0.815   1.519   0.301
 1383SOL    HW1 5048   0.756   1.440   0.280
 1383SOL    HW2 5049   0.758   1.598   0.323
 1384SOL     OW 5050   4.020   1.123   2.890
 1384SOL    HW1 5051   4.091   1.080   2.945
 1384SOL    HW2 5052   3.977   1.197   2.942
 1385SOL     OW 5053   0.490   2.859   3.042
 1385SOL    HW1 5054   0.412   2.923   3.041
 1385SOL    HW2 5055   0.560   2.892   2.979
 1386SOL     OW 5056   2.249   1.650   4.444
 1386SOL    HW1 5057   2.325   1.715   4.451
 1386SOL    HW2 5058   2.281   1.565   4.401
 1387SOL     OW 5059   3.774   0.443   3.633
 1387SOL    HW1 5060   3.712   0.366   3.619
 1387SOL    HW2 5061   3.777   0.467   3.730
 1388SOL     OW 5062   6.761   6.565   4.238
 1388SOL    HW1 5063   6.783   6.468   4.246
 1388SOL    HW2 5064   6.751   6.589   4.141
 1389SOL     OW 5065   0.665   1.047   3.618
 1389SOL    HW1 5066   0.746   1.034   3.676
 1389SOL    HW2 5067   0.583   1.048   3.676
 1390SOL     OW 5068   4.737   1.392   6.423
 1390SOL    HW1 5069   4.723   1.441   6.509
 1390SOL    HW2 5070   4.827   1.416   6.385
 1391SOL     OW 5071   5.915   1.659   5.671
 1391SOL    HW1 5072   5.939   1.751   5.702
 1391SOL    HW2 5073   5.975   1.633   5.594
 1392SOL     OW 5074   5.096   5.555   5.493
 1392SOL    HW1 5075   5.051   5.466   5.483
 1392SOL    HW2 5076   5.076   5.593   5.583
 1393SOL     OW 5077   5.794   2.866   0.036
 1393SOL    HW1 5078   5.701   2.903   0.033
 1393SOL    HW2 5079   5.833   2.883   0.127
 1394SOL     OW 5080   3.548   6.678   3.744
 1394SOL    HW1 5081   3.632   6.668   3.691
 1394SOL    HW2 5082   3.570   6.710   3.836
 1395SOL     OW 5083   0.211   4.158   2.509
 1395SOL    HW1 5084   0.298   4.112   2.529
 1395SOL    HW2 5085   0.171   4.120   2.426
 1396SOL     OW 5086   1.949   0.116   4.377
 1396SOL    HW1 5087   1.910   0.052   4.443
 1396SOL    HW2 5088   1.967   0.069   4.291
 1397SOL     OW 5089   0.266   6.356   4.825
 1397SOL    HW1 5090   0.211   6.423   4.875
 1397SOL    HW2 5091   0.207   6.280   4.795
 1398SOL     OW 5092   1.682   0.887   1.581
 1398SOL    HW1 5093   1.639   0.831   1.510
 1398SOL    HW2 5094   1.770   0.921   1.547
 1399SOL     OW 5095   4.152   0.676   0.628
 1399SOL    HW1 5096   4.136   0.597   0.687
 1399SOL    HW2 5097   4.200   0.647   0.545
 1400SOL     OW 5098   6.315   0.893   4.067
 1400SOL    HW1 5099   6.382   0.927   4.001
 1400SOL    HW2 5100   6.275   0.808   4.032
 1401SOL     OW 5101   5.588   0.191   3.959
 1401SOL    HW1 5102   5.671   0.208   4.012
 1401SOL    HW2 5103   5.533   0.275   3.956
 1402SOL     OW 5104   6.061   4.027   6.899
 1402SOL    HW1 5105   6.159   4.041   6.914
 1402SOL    HW2 5106   6.012   4.113   6.913
 1403SOL     OW 5107   2.460   3.056   0.308
 1403SOL    HW1 5108   2.531   2.996   0.270
 1403SOL    HW2 5109   2.499   3.109   0.383
 1404SOL     OW 5110   4.695   0.342   1.076
 1404SOL    HW1 5111   4.601   0.341   1.043
 1404SOL    HW2 5112   4.710   0.421   1.135
 1405SOL     OW 5113   1.510   3.586   0.895
 1405SOL    HW1 5114   1.548   3.633   0.975
 1405SOL    HW2 5115   1.410   3.598   0.894
 1406SOL     OW 5116   2.254   4.084   1.466
 1406SOL    HW1 5117   2.158   4.107   1.481
 1406SOL    HW2 5118   2.288   4.029   1.543
 1407SOL     OW 5119   1.267   3.309   2.584
 1407SOL    HW1 5120   1.188   3.261   2.621
 1407SOL    HW2 5121   1.325   3.243   2.535
 1408SOL     OW 5122   6.119   6.703   0.232
 1408SOL    HW1 5123   6.073   6.615   0.234
 1408SOL    HW2 5124   6.179   6.712   0.312
 1409SOL     OW 5125   6.952   0.891   5.675
 1409SOL    HW1 5126   6.914   0.901   5.584
 1409SOL    HW2 5127   0.035   0.874   5.669
 1410SOL     OW 5128   2.715   3.225   6.393
 1410SOL    HW1 5129   2.702   3.198   6.489
 1410SOL    HW2 5130   2.801   3.276   6.384
 1411SOL     OW 5131   3.114   6.193   6.953
 1411SOL    HW1 5132   3.136   6.290   6.941
 1411SOL    HW2 5133   3.195   6.144   6.985
 1412SOL     OW 5134   0.656   3.504   0.823
 1412SOL    HW1 5135   0.705   3.590   0.836
 1412SOL    HW2 5136   0.708   3.445   0.761
 1413SOL     OW 5137   1.814   1.920   4.541
 1413SOL    HW1 5138   1.767   1.932   4.453
 1413SOL    HW2 5139   1.904   1.878   4.525
 1414SOL     OW 5140   1.139   2.946   1.819
 1414SOL    HW1 5141   1.088   3.028   1.845
 1414SOL    HW2 5142   1.225   2.973   1.775
 1415SOL     OW 5143   2.671   1.842   4.444
 1415SOL    HW1 5144   2.639   1.757   4.403
 1415SOL    HW2 5145   2.710   1.900   4.372
 1416SOL     OW 5146   4.302   0.772   5.162
 1416SOL    HW1 5147   4.275   0.868   5.171
 1416SOL    HW2 5148   4.298   0.727   5.251
 1417SOL     OW 5149   3.467   3.424   5.892
 1417SOL    HW1 5150   3.490   3.341   5.942
 1417SOL    HW2 5151   3.534   3.495   5.912
 1418SOL     OW 5152   3.347   3.878   0.816
 1418SOL    HW1 5153   3.447   3.881   0.828
 1418SOL    HW2 5154   3.323   3.923   0.730
 1419SOL     OW 5155   1.584   5.045   4.317
 1419SOL    HW1 5156   1.522   4.967   4.329
 1419SOL    HW2 5157   1.678   5.011   4.310
 1420SOL     OW 5158   4.077   5.078   3.003
 1420SOL    HW1 5159   4.076   4.987   3.044
 1420SOL    HW2 5160   4.052   5.071   2.906
 1421SOL     OW 5161   0.762   4.398   4.569
 1421SOL    HW1 5162   0.734   4.332   4.639
 1421SOL    HW2 5163   0.769   4.352   4.481
 1422SOL     OW 5164   2.415   5.087   5.842
 1422SOL    HW1 5165   2.378   5.138   5.920
 1422SOL    HW2 5166   2.432   4.992   5.870
 1423SOL     OW 5167   4.068   1.792   4.437
 1423SOL    HW1 5168   4.145   1.739   4.401
 1423SOL    HW2 5169   4.071   1.792   4.537
 1424SOL     OW 5170   6.481   3.796   6.547
 1424SOL    HW1 5171   6.478   3.894   6.566
 1424SOL    HW2 5172   6.399   3.770   6.496
 1425SOL     OW 5173   3.254   6.363   5.137
 1425SOL    HW1 5174   3.263   6.443   5.196
 1425SOL    HW2 5175   3.342   6.317   5.131
 1426SOL     OW 5176   2.047   1.762   6.647
 1426SOL    HW1 5177   1.967   1.743   6.703
 1426SOL    HW2 5178   2.084   1.676   6.611
 1427SOL     OW 5179   0.897   0.222   3.193
 1427SOL    HW1 5180   0.900   0.320   3.214
 1427SOL    HW2 5181   0.965   0.201   3.123
 1428SOL     OW 5182   0.173   2.498   1.277
 1428SOL    HW1 5183   0.131   2.589   1.280
 1428SOL    HW2 5184   0.251   2.499   1.215
 1429SOL     OW 5185   6.371   1.181   6.642
 1429SOL    HW1 5186   6.378   1.106   6.707
 1429SOL    HW2 5187   6.365   1.268   6.691
 1430SOL     OW 5188   2.406   4.635   4.401
 1430SOL    HW1 5189   2.462   4.706   4.443
 1430SOL    HW2 5190   2.408   4.552   4.457
 1431SOL     OW 5191   2.951   2.168   5.399
 1431SOL    HW1 5192   2.943   2.219   5.485
 1431SOL    HW2 5193   2.866   2.118   5.382
 1432SOL     OW 5194   1.900   1.258   0.436
 1432SOL    HW1 5195   1.862   1.327   0.497
 1432SOL    HW2 5196   2.000   1.262   0.440
 1433SOL     OW 5197   3.891   0.044   3.617
 1433SOL    HW1 5198   3.905   0.126   3.673
 1433SOL    HW2 5199   3.937   6.982   3.660
 1434SOL     OW 5200   0.287   2.182   6.331
 1434SOL    HW1 5201   0.231   2.240   6.272
 1434SOL    HW2 5202   0.261   2.196   6.427
 1435SOL     OW 5203   0.361   0.423   4.063
 1435SOL    HW1 5204   0.377   0.522   4.065
 1435SOL    HW2 5205   0.263   0.405   4.058
 1436SOL     OW 5206   6.130   3.646   0.879
 1436SOL    HW1 5207   6.146   3.713   0.952
 1436SOL    HW2 5208   6.050   3.591   0.902
 1437SOL     OW 5209   3.320   1.562   5.664
 1437SOL    HW1 5210   3.263   1.585   5.743
 1437SOL    HW2 5211   3.369   1.643   5.633
 1438SOL     OW 5212   3.347   1.032   1.603
 1438SOL    HW1 5213   3.346   1.043   1.504
 1438SOL    HW2 5214   3.424   1.083   1.641
 1439SOL     OW 5215   0.744   5.903   0.221
 1439SOL    HW1 5216   0.830   5.856   0.201
 1439SOL    HW2 5217   0.691   5.849   0.286
 1440SOL     OW 5218   3.420   3.707   4.203
 1440SOL    HW1 5219   3.475   3.624   4.196
 1440SOL    HW2 5220   3.324   3.684   4.186
 1441SOL     OW 5221   6.660   3.478   3.072
 1441SOL    HW1 5222   6.613   3.502   3.157
 1441SOL    HW2 5223   6.757   3.500   3.081
 1442SOL     OW 5224   5.341   5.071   1.005
 1442SOL    HW1 5225   5.408   5.134   0.966
 1442SOL    HW2 5226   5.388   4.997   1.053
 1443SOL     OW 5227   0.853   0.317   3.871
 1443SOL    HW1 5228   0.834   0.413   3.852
 1443SOL    HW2 5229   0.924   0.311   3.942
 1444SOL     OW 5230   3.759   5.758   3.055
 1444SOL    HW1 5231   3.835   5.700   3.084
 1444SOL    HW2 5232   3.794   5.835   3.002
 1445SOL     OW 5233   0.234   2.961   1.823
 1445SOL    HW1 5234   0.182   2.900   1.763
 1445SOL    HW2 5235   0.329   2.929   1.828
 1446SOL     OW 5236   4.734   2.784   0.267
 1446SOL    HW1 5237   4.641   2.798   0.301
 1446SOL    HW2 5238   4.774   2.872   0.241
 1447SOL     OW 5239   6.420   0.648   5.181
 1447SOL    HW1 5240   6.446   0.727   5.237
 1447SOL    HW2 5241   6.342   0.601   5.223
 1448SOL     OW 5242   6.011   1.701   0.289
 1448SOL    HW1 5243   6.100   1.707   0.244
 1448SOL    HW2 5244   5.943   1.751   0.235
 1449SOL     OW 5245   5.860   6.731   0.497
 1449SOL    HW1 5246   5.805   6.760   0.419
 1449SOL    HW2 5247   5.900   6.812   0.542
 1450SOL     OW 5248   6.829   2.695   2.279
 1450SOL    HW1 5249   6.858   2.747   2.359
 1450SOL    HW2 5250   6.880   2.609   2.276
 1451SOL     OW 5251   3.233   0.754   2.825
 1451SOL    HW1 5252   3.200   0.693   2.897
 1451SOL    HW2 5253   3.331   0.772   2.839
 1452SOL     OW 5254   4.771   1.314   4.731
 1452SOL    HW1 5255   4.852   1.257   4.742
 1452SOL    HW2 5256   4.736   1.304   4.638
 1453SOL     OW 5257   5.796   3.451   4.803
 1453SOL    HW1 5258   5.783   3.388   4.726
 1453SOL    HW2 5259   5.876   3.508   4.784
 1454SOL     OW 5260   5.410   2.548   2.527
 1454SOL    HW1 5261   5.416   2.639   2.487
 1454SOL    HW2 5262   5.390   2.482   2.455
 1455SOL     OW 5263   1.021   0.480   1.826
 1455SOL    HW1 5264   1.034   0.467   1.924
 1455SOL    HW2 5265   0.923   0.493   1.807
 1456SOL     OW 5266   6.742   6.871   5.294
 1456SOL    HW1 5267   6.815   6.811   5.264
 1456SOL    HW2 5268   6.749   6.959   5.246
 1457SOL     OW 5269   1.488   7.009   2.919
 1457SOL    HW1 5270   1.455   6.987   3.011
 1457SOL    HW2 5271   1.587   0.008   2.922
 1458SOL     OW 5272   5.503   6.980   4.904
 1458SOL    HW1 5273   5.404   6.976   4.900
 1458SOL    HW2 5274   5.533   0.060   4.898
 1459SOL     OW 5275   2.829   5.161   6.931
 1459SOL    HW1 5276   2.822   5.202   0.006
 1459SOL    HW2 5277   2.851   5.064   6.940
 1460SOL     OW 5278   0.060   5.679   6.152
 1460SOL    HW1 5279   6.981   5.648   6.166
 1460SOL    HW2 5280   0.062   5.750   6.082
 1461SOL     OW 5281   6.532   4.516   3.585
 1461SOL    HW1 5282   6.451   4.464   3.557
 1461SOL    HW2 5283   6.588   4.460   3.647
 1462SOL     OW 5284   6.896   2.086   0.042
 1462SOL    HW1 5285   6.826   2.014   0.040
 1462SOL    HW2 5286   6.972   2.059   6.997
 1463SOL     OW 5287   0.441   7.004   5.850
 1463SOL    HW1 5288   0.472   0.064   5.791
 1463SOL    HW2 5289   0.517   6.971   5.905
 1464SOL     OW 5290   0.600   6.647   0.817
 1464SOL    HW1 5291   0.537   6.621   0.744
 1464SOL    HW2 5292   0.693   6.654   0.780
 1465SOL     OW 5293   1.182   1.255   3.151
 1465SOL    HW1 5294   1.263   1.212   3.112
 1465SOL    HW2 5295   1.193   1.355   3.149
 1466SOL     OW 5296   0.158   6.595   2.896
 1466SOL    HW1 5297   0.160   6.692   2.873
 1466SOL    HW2 5298   0.063   6.567   2.912
 1467SOL     OW 5299   1.535   0.418   2.201
 1467SOL    HW1 5300   1.499   0.326   2.185
 1467SOL    HW2 5301   1.635   0.414   2.211
 1468SOL     OW 5302   5.534   5.795   3.057
 1468SOL    HW1 5303   5.495   5.805   2.965
 1468SOL    HW2 5304   5.507   5.873   3.113
 1469SOL     OW 5305   0.700   0.792   2.948
 1469SOL    HW1 5306   0.748   0.840   2.874
 1469SOL    HW2 5307   0.619   0.844   2.974
 1470SOL     OW 5308   1.000   1.107   2.292
 1470SOL    HW1 5309   0.991   1.051   2.210
 1470SOL    HW2 5310   0.948   1.192   2.280
 1471SOL     OW 5311   0.486   0.725   6.630
 1471SOL    HW1 5312   0.576   0.706   6.666
 1471SOL    HW2 5313   0.416   0.689   6.691
 1472SOL     OW 5314   4.604   6.335   4.476
 1472SOL    HW1 5315   4.697   6.314   4.505
 1472SOL    HW2 5316   4.606   6.370   4.382
 1473SOL     OW 5317   6.038   5.657   3.457
 1473SOL    HW1 5318   6.120   5.711   3.437
 1473SOL    HW2 5319   6.050   5.564   3.423
 1474SOL     OW 5320   6.648   5.762   3.637
 1474SOL    HW1 5321   6.564   5.781   3.586
 1474SOL    HW2 5322   6.629   5.694   3.709
 1475SOL     OW 5323   0.257   0.477   1.582
 1475SOL    HW1 5324   0.180   0.413   1.590
 1475SOL    HW2 5325   0.232   0.551   1.519
 1476SOL     OW 5326   1.374   0.852   1.449
 1476SOL    HW1 5327   1.342   0.851   1.354
 1476SOL    HW2 5328   1.303   0.816   1.509
 1477SOL     OW 5329   2.948   0.157   6.227
 1477SOL    HW1 5330   2.995   0.160   6.315
 1477SOL    HW2 5331   3.014   0.143   6.153
 1478SOL     OW 5332   5.620   4.936   0.709
 1478SOL    HW1 5333   5.648   4.961   0.801
 1478SOL    HW2 5334   5.526   4.964   0.694
 1479SOL     OW 5335   1.220   4.534   0.251
 1479SOL    HW1 5336   1.166   4.456   0.284
 1479SOL    HW2 5337   1.291   4.501   0.188
 1480SOL     OW 5338   2.818   0.778   0.111
 1480SOL    HW1 5339   2.780   0.685   0.117
 1480SOL    HW2 5340   2.782   0.823   0.029
 1481SOL     OW 5341   5.423   1.804   4.996
 1481SOL    HW1 5342   5.405   1.715   5.039
 1481SOL    HW2 5343   5.409   1.876   5.064
 1482SOL     OW 5344   5.950   1.516   0.703
 1482SOL    HW1 5345   5.955   1.602   0.754
 1482SOL    HW2 5346   6.034   1.503   0.650
 1483SOL     OW 5347   0.224   3.541   6.665
 1483SOL    HW1 5348   0.227   3.580   6.757
 1483SOL    HW2 5349   0.130   3.542   6.632
 1484SOL     OW 5350   6.379   4.146   3.583
 1484SOL    HW1 5351   6.468   4.127   3.542
 1484SOL    HW2 5352   6.327   4.061   3.590
 1485SOL     OW 5353   4.551   2.581   2.417
 1485SOL    HW1 5354   4.605   2.577   2.332
 1485SOL    HW2 5355   4.551   2.675   2.451
 1486SOL     OW 5356   4.820   2.506   3.409
 1486SOL    HW1 5357   4.806   2.549   3.499
 1486SOL    HW2 5358   4.915   2.518   3.381
 1487SOL     OW 5359   6.816   1.988   6.078
 1487SOL    HW1 5360   6.725   1.946   6.078
 1487SOL    HW2 5361   6.843   2.009   5.985
 1488SOL     OW 5362   5.837   2.256   3.079
 1488SOL    HW1 5363   5.920   2.241   3.026
 1488SOL    HW2 5364   5.854   2.234   3.175
 1489SOL     OW 5365   3.830   4.983   4.438
 1489SOL    HW1 5366   3.916   4.958   4.483
 1489SOL    HW2 5367   3.753   4.939   4.485
 1490SOL     OW 5368   1.179   2.151   0.653
 1490SOL    HW1 5369   1.237   2.212   0.600
 1490SOL    HW2 5370   1.224   2.062   0.663
 1491SOL     OW 5371   6.966   3.694   3.054
 1491SOL    HW1 5372   7.005   3.614   3.009
 1491SOL    HW2 5373   7.002   3.700   3.147
 1492SOL     OW 5374   5.798   2.081   2.045
 1492SOL    HW1 5375   5.847   2.004   2.087
 1492SOL    HW2 5376   5.737   2.046   1.974
 1493SOL     OW 5377   4.941   0.793   4.731
 1493SOL    HW1 5378   4.928   0.830   4.639
 1493SOL    HW2 5379   4.855   0.799   4.781
 1494SOL     OW 5380   4.224   2.864   5.696
 1494SOL    HW1 5381   4.178   2.942   5.739
 1494SOL    HW2 5382   4.216   2.873   5.596
 1495SOL     OW 5383   0.680   3.138   3.531
 1495SOL    HW1 5384   0.582   3.118   3.536
 1495SOL    HW2 5385   0.714   3.119   3.439
 1496SOL     OW 5386   0.777   0.337   2.039
 1496SOL    HW1 5387   0.680   0.334   2.014
 1496SOL    HW2 5388   0.827   0.269   1.985
 1497SOL     OW 5389   0.276   4.176   3.203
 1497SOL    HW1 5390   0.247   4.083   3.225
 1497SOL    HW2 5391   0.205   4.222   3.150
 1498SOL     OW 5392   1.802   5.044   6.380
 1498SOL    HW1 5393   1.866   5.021   6.454
 1498SOL    HW2 5394   1.809   4.976   6.308
 1499SOL     OW 5395   1.349   3.867   5.112
 1499SOL    HW1 5396   1.380   3.784   5.158
 1499SOL    HW2 5397   1.267   3.902   5.158
 1500SOL     OW 5398   5.703   0.051   0.645
 1500SOL    HW1 5399   5.749   0.089   0.726
 1500SOL    HW2 5400   5.683   6.970   0.659
 1501SOL     OW 5401   4.366   0.753   6.090
 1501SOL    HW1 5402   4.339   0.817   6.162
 1501SOL    HW2 5403   4.446   0.789   6.041
 1502SOL     OW 5404   6.314   6.745   0.475
 1502SOL    HW1 5405   6.338   6.656   0.515
 1502SOL    HW2 5406   6.339   6.818   0.539
 1503SOL     OW 5407   2.296   2.515   1.301
 1503SOL    HW1 5408   2.292   2.458   1.383
 1503SOL    HW2 5409   2.364   2.477   1.238
 1504SOL     OW 5410   2.885   0.626   5.037
 1504SOL    HW1 5411   2.919   0.680   4.961
 1504SOL    HW2 5412   2.882   0.529   5.012
 1505SOL     OW 5413   5.029   0.049   6.335
 1505SOL    HW1 5414   5.016   0.011   6.243
 1505SOL    HW2 5415   4.994   0.143   6.337
 1506SOL     OW 5416   1.129   4.674   3.599
 1506SOL    HW1 5417   1.188   4.677   3.518
 1506SOL    HW2 5418   1.133   4.584   3.641
 1507SOL     OW 5419   1.591   1.776   4.582
 1507SOL    HW1 5420   1.672   1.833   4.599
 1507SOL    HW2 5421   1.604   1.724   4.498
 1508SOL     OW 5422   4.401   0.191   1.237
 1508SOL    HW1 5423   4.467   0.162   1.306
 1508SOL    HW2 5424   4.367   0.111   1.187
 1509SOL     OW 5425   4.470   2.704   6.042
 1509SOL    HW1 5426   4.522   2.773   6.091
 1509SOL    HW2 5427   4.474   2.617   6.092
 1510SOL     OW 5428   5.535   2.325   3.968
 1510SOL    HW1 5429   5.459   2.290   3.914
 1510SOL    HW2 5430   5.588   2.390   3.912
 1511SOL     OW 5431   2.271   1.822   6.961
 1511SOL    HW1 5432   2.229   1.736   6.930
 1511SOL    HW2 5433   2.220   1.899   6.922
 1512SOL     OW 5434   6.742   6.612   1.677
 1512SOL    HW1 5435   6.805   6.538   1.655
 1512SOL    HW2 5436   6.764   6.692   1.621
 1513SOL     OW 5437   4.790   1.024   3.780
 1513SOL    HW1 5438   4.743   0.976   3.853
 1513SOL    HW2 5439   4.724   1.077   3.726
 1514SOL     OW 5440   5.284   1.718   4.767
 1514SOL    HW1 5441   5.355   1.752   4.829
 1514SOL    HW2 5442   5.323   1.650   4.705
 1515SOL     OW 5443   0.042   2.631   5.481
 1515SOL    HW1 5444   6.981   2.695   5.475
 1515SOL    HW2 5445   0.042   2.588   5.571
 1516SOL     OW 5446   0.373   0.736   0.709
 1516SOL    HW1 5447   0.278   0.765   0.721
 1516SOL    HW2 5448   0.387   0.704   0.615
 1517SOL     OW 5449   4.500   5.366   3.984
 1517SOL    HW1 5450   4.573   5.405   4.040
 1517SOL    HW2 5451   4.433   5.436   3.962
 1518SOL     OW 5452   0.044   3.407   6.823
 1518SOL    HW1 5453   0.077   3.493   6.862
 1518SOL    HW2 5454   0.091   3.389   6.737
 1519SOL     OW 5455   0.013   4.219   1.537
 1519SOL    HW1 5456   0.023   4.183   1.444
 1519SOL    HW2 5457   6.932   4.212   1.564
 1520SOL     OW 5458   1.919   3.290   2.368
 1520SOL    HW1 5459   1.996   3.283   2.304
 1520SOL    HW2 5460   1.896   3.386   2.382
 1521SOL     OW 5461   1.904   3.124   6.847
 1521SOL    HW1 5462   1.866   3.097   6.935
 1521SOL    HW2 5463   1.994   3.083   6.835
 1522SOL     OW 5464   6.858   1.780   5.685
 1522SOL    HW1 5465   6.880   1.685   5.663
 1522SOL    HW2 5466   6.872   1.837   5.603
 1523SOL     OW 5467   5.031   3.989   6.767
 1523SOL    HW1 5468   4.955   4.028   6.819
 1523SOL    HW2 5469   4.997   3.947   6.683
 1524SOL     OW 5470   0.826   2.253   1.647
 1524SOL    HW1 5471   0.781   2.204   1.572
 1524SOL    HW2 5472   0.838   2.191   1.725
 1525SOL     OW 5473   4.894   2.042   5.664
 1525SOL    HW1 5474   4.800   2.009   5.661
 1525SOL    HW2 5475   4.922   2.055   5.759
 1526SOL     OW 5476   0.566   1.090   1.300
 1526SOL    HW1 5477   0.634   1.051   1.238
 1526SOL    HW2 5478   0.522   1.017   1.352
 1527SOL     OW 5479   3.413   1.392   4.569
 1527SOL    HW1 5480   3.509   1.390   4.542
 1527SOL    HW2 5481   3.398   1.468   4.632
 1528SOL     OW 5482   4.803   6.001   2.902
 1528SOL    HW1 5483   4.841   5.983   2.993
 1528SOL    HW2 5484   4.736   6.075   2.909
 1529SOL     OW 5485   4.542   1.361   5.864
 1529SOL    HW1 5486   4.581   1.435   5.808
 1529SOL    HW2 5487   4.542   1.276   5.811
 1530SOL     OW 5488   3.174   0.631   1.384
 1530SOL    HW1 5489   3.173   0.648   1.482
 1530SOL    HW2 5490   3.226   0.703   1.337
 1531SOL     OW 5491   5.902   1.096   5.345
 1531SOL    HW1 5492   5.829   1.035   5.376
 1531SOL    HW2 5493   5.922   1.078   5.249
 1532SOL     OW 5494   2.547   2.309   4.594
 1532SOL    HW1 5495   2.497   2.269   4.518
 1532SOL    HW2 5496   2.646   2.298   4.578
 1533SOL     OW 5497   7.008   3.538   6.514
 1533SOL    HW1 5498   0.007   3.516   6.418
 1533SOL    HW2 5499   6.974   3.632   6.522
 1534SOL     OW 5500   1.469   5.050   0.175
 1534SOL    HW1 5501   1.438   5.033   0.082
 1534SOL    HW2 5502   1.496   4.963   0.217
 1535SOL     OW 5503   5.729   5.537   4.331
 1535SOL    HW1 5504   5.774   5.580   4.409
 1535SOL    HW2 5505   5.797   5.492   4.274
 1536SOL     OW 5506   3.286   5.104   4.615
 1536SOL    HW1 5507   3.248   5.194   4.594
 1536SOL    HW2 5508   3.226   5.033   4.578
 1537SOL     OW 5509   3.805   5.692   3.786
 1537SOL    HW1 5510   3.869   5.735   3.850
 1537SOL    HW2 5511   3.843   5.694   3.694
 1538SOL     OW 5512   3.646   4.880   5.981
 1538SOL    HW1 5513   3.550   4.877   5.953
 1538SOL    HW2 5514   3.693   4.798   5.950
 1539SOL     OW 5515   4.256   4.272   1.440
 1539SOL    HW1 5516   4.324   4.282   1.513
 1539SOL    HW2 5517   4.301   4.233   1.359
 1540SOL     OW 5518   0.545   0.005   5.033
 1540SOL    HW1 5519   0.603   6.992   4.956
 1540SOL    HW2 5520   0.602   0.043   5.105
 1541SOL     OW 5521   3.778   2.431   1.103
 1541SOL    HW1 5522   3.801   2.522   1.070
 1541SOL    HW2 5523   3.755   2.373   1.025
 1542SOL     OW 5524   6.927   6.398   1.718
 1542SOL    HW1 5525   6.878   6.320   1.756
 1542SOL    HW2 5526   7.001   6.366   1.659
 1543SOL     OW 5527   2.956   3.753   3.369
 1543SOL    HW1 5528   3.032   3.817   3.380
 1543SOL    HW2 5529   2.878   3.800   3.329
 1544SOL     OW 5530   3.020   3.853   2.254
 1544SOL    HW1 5531   3.115   3.825   2.266
 1544SOL    HW2 5532   2.959   3.791   2.303
 1545SOL     OW 5533   5.387   0.665   5.192
 1545SOL    HW1 5534   5.309   0.720   5.223
 1545SOL    HW2 5535   5.448   0.721   5.137
 1546SOL     OW 5536   5.162   0.335   6.071
 1546SOL    HW1 5537   5.091   0.295   6.129
 1546SOL    HW2 5538   5.228   0.264   6.046
 1547SOL     OW 5539   2.285   4.242   2.292
 1547SOL    HW1 5540   2.295   4.146   2.267
 1547SOL    HW2 5541   2.312   4.254   2.388
 1548SOL     OW 5542   4.541   4.363   5.393
 1548SOL    HW1 5543   4.493   4.310   5.463
 1548SOL    HW2 5544   4.528   4.460   5.410
 1549SOL     OW 5545   6.441   1.225   2.183
 1549SOL    HW1 5546   6.474   1.167   2.108
 1549SOL    HW2 5547   6.428   1.318   2.150
 1550SOL     OW 5548   2.841   6.654   5.800
 1550SOL    HW1 5549   2.883   6.619   5.716
 1550SOL    HW2 5550   2.755   6.606   5.817
 1551SOL     OW 5551   1.452   3.503   1.409
 1551SOL    HW1 5552   1.431   3.563   1.332
 1551SOL    HW2 5553   1.546   3.518   1.438
 1552SOL     OW 5554   1.218   6.775   1.580
 1552SOL    HW1 5555   1.210   6.867   1.540
 1552SOL    HW2 5556   1.176   6.775   1.671
 1553SOL     OW 5557   6.267   2.080   5.983
 1553SOL    HW1 5558   6.223   1.991   5.976
 1553SOL    HW2 5559   6.357   2.069   6.027
 1554SOL     OW 5560   3.721   2.167   3.099
 1554SOL    HW1 5561   3.627   2.159   3.064
 1554SOL    HW2 5562   3.784   2.181   3.022
 1555SOL     OW 5563   5.090   2.197   5.276
 1555SOL    HW1 5564   5.002   2.159   5.246
 1555SOL    HW2 5565   5.140   2.230   5.196
 1556SOL     OW 5566   3.559   0.708   0.554
 1556SOL    HW1 5567   3.507   0.684   0.636
 1556SOL    HW2 5568   3.630   0.774   0.578
 1557SOL     OW 5569   2.511   2.483   1.095
 1557SOL    HW1 5570   2.523   2.524   1.005
 1557SOL    HW2 5571   2.600   2.459   1.134
 1558SOL     OW 5572   5.961   2.283   4.733
 1558SOL    HW1 5573   6.050   2.270   4.689
 1558SOL    HW2 5574   5.974   2.321   4.824
 1559SOL     OW 5575   0.376   3.520   1.433
 1559SOL    HW1 5576   0.324   3.435   1.433
 1559SOL    HW2 5577   0.326   3.591   1.384
 1560SOL     OW 5578   3.010   1.122   6.603
 1560SOL    HW1 5579   3.059   1.141   6.518
 1560SOL    HW2 5580   3.002   1.206   6.656
 1561SOL     OW 5581   4.899   5.929   3.148
 1561SOL    HW1 5582   4.870   5.871   3.224
 1561SOL    HW2 5583   4.984   5.894   3.110
 1562SOL     OW 5584   3.355   6.164   2.156
 1562SOL    HW1 5585   3.320   6.224   2.228
 1562SOL    HW2 5586   3.290   6.161   2.081
 1563SOL     OW 5587   2.959   2.119   4.829
 1563SOL    HW1 5588   2.901   2.058   4.884
 1563SOL    HW2 5589   2.986   2.198   4.884
 1564SOL     OW 5590   1.252   1.554   2.406
 1564SOL    HW1 5591   1.207   1.566   2.495
 1564SOL    HW2 5592   1.236   1.461   2.374
 1565SOL     OW 5593   4.300   5.578   5.020
 1565SOL    HW1 5594   4.307   5.528   4.933
 1565SOL    HW2 5595   4.204   5.599   5.039
 1566SOL     OW 5596   6.302   4.785   4.046
 1566SOL    HW1 5597   6.315   4.720   3.970
 1566SOL    HW2 5598   6.233   4.749   4.109
 1567SOL     OW 5599   5.962   5.072   6.669
 1567SOL    HW1 5600   5.923   5.134   6.737
 1567SOL    HW2 5601   6.022   5.005   6.715
 1568SOL     OW 5602   2.628   6.050   3.715
 1568SOL    HW1 5603   2.660   5.961   3.748
 1568SOL    HW2 5604   2.529   6.056   3.726
 1569SOL     OW 5605   3.611   0.500   3.201
 1569SOL    HW1 5606   3.694   0.554   3.187
 1569SOL    HW2 5607   3.559   0.539   3.277
 1570SOL     OW 5608   2.453   6.722   6.499
 1570SOL    HW1 5609   2.360   6.749   6.474
 1570SOL    HW2 5610   2.466   6.625   6.482
 1571SOL     OW 5611   1.093   3.196   3.643
 1571SOL    HW1 5612   1.042   3.282   3.649
 1571SOL    HW2 5613   1.108   3.172   3.547
 1572SOL     OW 5614   1.835   5.479   2.133
 1572SOL    HW1 5615   1.802   5.385   2.143
 1572SOL    HW2 5616   1.935   5.478   2.128
 1573SOL     OW 5617   5.569   5.068   2.185
 1573SOL    HW1 5618   5.588   4.977   2.222
 1573SOL    HW2 5619   5.612   5.077   2.095
 1574SOL     OW 5620   6.293   2.965   1.988
 1574SOL    HW1 5621   6.327   2.942   1.897
 1574SOL    HW2 5622   6.239   3.049   1.984
 1575SOL     OW 5623   2.029   0.462   1.858
 1575SOL    HW1 5624   2.102   0.474   1.791
 1575SOL    HW2 5625   1.945   0.502   1.823
 1576SOL     OW 5626   1.363   6.210   3.102
 1576SOL    HW1 5627   1.275   6.227   3.059
 1576SOL    HW2 5628   1.349   6.186   3.198
 1577SOL     OW 5629   2.456   0.517   6.326
 1577SOL    HW1 5630   2.513   0.444   6.288
 1577SOL    HW2 5631   2.379   0.535   6.264
 1578SOL     OW 5632   4.683   0.888   6.532
 1578SOL    HW1 5633   4.749   0.889   6.608
 1578SOL    HW2 5634   4.592   0.908   6.567
 1579SOL     OW 5635   0.354   2.738   1.628
 1579SOL    HW1 5636   0.417   2.795   1.680
 1579SOL    HW2 5637   0.396   2.716   1.539
 1580SOL     OW 5638   3.160   3.941   2.799
 1580SOL    HW1 5639   3.196   4.028   2.765
 1580SOL    HW2 5640   3.164   3.940   2.898
 1581SOL     OW 5641   6.780   4.550   5.500
 1581SOL    HW1 5642   6.761   4.457   5.467
 1581SOL    HW2 5643   6.741   4.616   5.436
 1582SOL     OW 5644   3.757   5.578   4.801
 1582SOL    HW1 5645   3.738   5.667   4.760
 1582SOL    HW2 5646   3.758   5.587   4.901
 1583SOL     OW 5647   0.557   5.438   4.770
 1583SOL    HW1 5648   0.480   5.495   4.741
 1583SOL    HW2 5649   0.576   5.454   4.867
 1584SOL     OW 5650   1.848   4.822   6.975
 1584SOL    HW1 5651   1.866   4.890   0.031
 1584SOL    HW2 5652   1.750   4.817   6.957
 1585SOL     OW 5653   4.223   1.379   2.971
 1585SOL    HW1 5654   4.160   1.432   2.914
 1585SOL    HW2 5655   4.249   1.432   3.051
 1586SOL     OW 5656   2.831   4.792   3.214
 1586SOL    HW1 5657   2.885   4.807   3.131
 1586SOL    HW2 5658   2.892   4.787   3.293
 1587SOL     OW 5659   1.870   5.198   5.384
 1587SOL    HW1 5660   1.793   5.234   5.437
 1587SOL    HW2 5661   1.844   5.110   5.344
 1588SOL     OW 5662   4.524   0.661   2.414
 1588SOL    HW1 5663   4.562   0.744   2.456
 1588SOL    HW2 5664   4.598   0.609   2.371
 1589SOL     OW 5665   6.721   3.450   2.798
 1589SOL    HW1 5666   6.692   3.482   2.888
 1589SOL    HW2 5667   6.751   3.528   2.744
 1590SOL     OW 5668   5.390   1.407   3.470
 1590SOL    HW1 5669   5.314   1.425   3.409
 1590SOL    HW2 5670   5.396   1.309   3.489
 1591SOL     OW 5671   6.847   5.689   1.592
 1591SOL    HW1 5672   6.753   5.705   1.622
 1591SOL    HW2 5673   6.882   5.771   1.546
 1592SOL     OW 5674   1.600   3.976   0.256
 1592SOL    HW1 5675   1.530   4.040   0.288
 1592SOL    HW2 5676   1.579   3.949   0.162
 1593SOL     OW 5677   0.818   0.051   6.551
 1593SOL    HW1 5678   0.779   0.143   6.547
 1593SOL    HW2 5679   0.749   7.000   6.521
 1594SOL     OW 5680   0.170   6.289   1.862
 1594SOL    HW1 5681   0.255   6.340   1.854
 1594SOL    HW2 5682   0.189   6.195   1.889
 1595SOL     OW 5683   1.139   4.299   0.837
 1595SOL    HW1 5684   1.164   4.367   0.767
 1595SOL    HW2 5685   1.221   4.271   0.886
 1596SOL     OW 5686   6.288   2.908   2.278
 1596SOL    HW1 5687   6.193   2.927   2.304
 1596SOL    HW2 5688   6.302   2.931   2.182
 1597SOL     OW 5689   3.003   6.006   1.242
 1597SOL    HW1 5690   2.970   5.949   1.317
 1597SOL    HW2 5691   3.027   5.949   1.164
 1598SOL     OW 5692   1.103   5.486   6.188
 1598SOL    HW1 5693   1.151   5.399   6.200
 1598SOL    HW2 5694   1.067   5.493   6.095
 1599SOL     OW 5695   4.677   4.974   5.199
 1599SOL    HW1 5696   4.627   5.061   5.191
 1599SOL    HW2 5697   4.618   4.899   5.170
 1600SOL     OW 5698   2.825   0.859   2.047
 1600SOL    HW1 5699   2.807   0.810   1.962
 1600SOL    HW2 5700   2.813   0.797   2.124
 1601SOL     OW 5701   7.007   6.681   4.214
 1601SOL    HW1 5702   0.009   6.604   4.153
 1601SOL    HW2 5703   6.911   6.680   4.242
 1602SOL     OW 5704   4.689   5.368   4.446
 1602SOL    HW1 5705   4.721   5.401   4.357
 1602SOL    HW2 5706   4.716   5.434   4.517
 1603SOL     OW 5707   2.628   5.326   4.006
 1603SOL    HW1 5708   2.603   5.315   4.102
 1603SOL    HW2 5709   2.545   5.345   3.952
 1604SOL     OW 5710   4.097   5.086   1.533
 1604SOL    HW1 5711   4.077   5.166   1.476
 1604SOL    HW2 5712   4.021   5.071   1.596
 1605SOL     OW 5713   6.366   5.569   1.418
 1605SOL    HW1 5714   6.409   5.653   1.385
 1605SOL    HW2 5715   6.277   5.590   1.459
 1606SOL     OW 5716   4.003   5.679   5.375
 1606SOL    HW1 5717   4.040   5.737   5.447
 1606SOL    HW2 5718   4.052   5.698   5.289
 1607SOL     OW 5719   4.434   0.319   0.975
 1607SOL    HW1 5720   4.413   0.284   1.066
 1607SOL    HW2 5721   4.454   0.242   0.914
 1608SOL     OW 5722   0.029   1.379   2.708
 1608SOL    HW1 5723   6.946   1.381   2.694
 1608SOL    HW2 5724   0.074   1.437   2.640
 1609SOL     OW 5725   3.363   0.202   0.811
 1609SOL    HW1 5726   3.318   0.144   0.742
 1609SOL    HW2 5727   3.452   0.231   0.777
 1610SOL     OW 5728   5.148   6.280   0.988
 1610SOL    HW1 5729   5.183   6.329   1.068
 1610SOL    HW2 5730   5.113   6.191   1.017
 1611SOL     OW 5731   1.600   3.387   0.731
 1611SOL    HW1 5732   1.614   3.308   0.790
 1611SOL    HW2 5733   1.580   3.467   0.787
 1612SOL     OW 5734   3.327   6.489   1.062
 1612SOL    HW1 5735   3.315   6.582   1.030
 1612SOL    HW2 5736   3.291   6.481   1.155
 1613SOL     OW 5737   0.631   5.735   2.271
 1613SOL    HW1 5738   0.718   5.697   2.241
 1613SOL    HW2 5739   0.609   5.701   2.363
 1614SOL     OW 5740   5.692   2.122   5.896
 1614SOL    HW1 5741   5.698   2.144   5.994
 1614SOL    HW2 5742   5.677   2.024   5.885
 1615SOL     OW 5743   6.484   5.526   6.373
 1615SOL    HW1 5744   6.429   5.494   6.451
 1615SOL    HW2 5745   6.568   5.569   6.407
 1616SOL     OW 5746   4.282   0.558   3.668
 1616SOL    HW1 5747   4.354   0.627   3.673
 1616SOL    HW2 5748   4.201   0.597   3.624
 1617SOL     OW 5749   4.793   6.189   3.184
 1617SOL    HW1 5750   4.772   6.227   3.093
 1617SOL    HW2 5751   4.858   6.113   3.174
 1618SOL     OW 5752   1.137   5.627   2.315
 1618SOL    HW1 5753   1.131   5.718   2.275
 1618SOL    HW2 5754   1.212   5.576   2.272
 1619SOL     OW 5755   0.411   5.749   6.978
 1619SOL    HW1 5756   0.368   5.677   6.923
 1619SOL    HW2 5757   0.507   5.727   6.994
 1620SOL     OW 5758   3.139   4.821   1.679
 1620SOL    HW1 5759   3.235   4.820   1.650
 1620SOL    HW2 5760   3.105   4.726   1.684
 1621SOL     OW 5761   5.643   0.283   0.884
 1621SOL    HW1 5762   5.636   0.315   0.789
 1621SOL    HW2 5763   5.553   0.286   0.927
 1622SOL     OW 5764   0.781   3.853   5.485
 1622SOL    HW1 5765   0.692   3.858   5.440
 1622SOL    HW2 5766   0.845   3.805   5.425
 1623SOL     OW 5767   0.299   2.179   4.554
 1623SOL    HW1 5768   0.244   2.129   4.621
 1623SOL    HW2 5769   0.298   2.130   4.467
 1624SOL     OW 5770   4.187   1.629   6.444
 1624SOL    HW1 5771   4.114   1.695   6.462
 1624SOL    HW2 5772   4.232   1.605   6.530
 1625SOL     OW 5773   1.431   5.195   6.723
 1625SOL    HW1 5774   1.466   5.207   6.630
 1625SOL    HW2 5775   1.343   5.241   6.731
 1626SOL     OW 5776   3.486   1.497   1.415
 1626SOL    HW1 5777   3.530   1.502   1.326
 1626SOL    HW2 5778   3.483   1.589   1.456
 1627SOL     OW 5779   5.569   2.741   3.421
 1627SOL    HW1 5780   5.522   2.826   3.401
 1627SOL    HW2 5781   5.660   2.743   3.381
 1628SOL     OW 5782   4.601   5.112   6.845
 1628SOL    HW1 5783   4.618   5.014   6.837
 1628SOL    HW2 5784   4.604   5.138   6.942
 1629SOL     OW 5785   2.407   1.047   3.450
 1629SOL    HW1 5786   2.363   1.117   3.506
 1629SOL    HW2 5787   2.342   1.011   3.384
 1630SOL     OW 5788   0.243   4.523   5.273
 1630SOL    HW1 5789   0.174   4.505   5.343
 1630SOL    HW2 5790   0.290   4.438   5.250
 1631SOL     OW 5791   0.388   2.986   0.791
 1631SOL    HW1 5792   0.450   3.044   0.844
 1631SOL    HW2 5793   0.400   2.890   0.819
 1632SOL     OW 5794   4.743   4.020   2.764
 1632SOL    HW1 5795   4.758   3.984   2.856
 1632SOL    HW2 5796   4.713   4.115   2.770
 1633SOL     OW 5797   5.195   4.090   4.981
 1633SOL    HW1 5798   5.280   4.112   4.932
 1633SOL    HW2 5799   5.139   4.030   4.925
 1634SOL     OW 5800   4.496   0.832   4.157
 1634SOL    HW1 5801   4.408   0.866   4.123
 1634SOL    HW2 5802   4.518   0.876   4.244
 1635SOL     OW 5803   1.066   5.074   6.462
 1635SOL    HW1 5804   1.052   5.075   6.363
 1635SOL    HW2 5805   1.041   5.163   6.500
 1636SOL     OW 5806   3.500   5.496   1.405
 1636SOL    HW1 5807   3.600   5.497   1.413
 1636SOL    HW2 5808   3.469   5.586   1.376
 1637SOL     OW 5809   6.459   0.128   3.654
 1637SOL    HW1 5810   6.471   0.057   3.584
 1637SOL    HW2 5811   6.434   0.085   3.741
 1638SOL     OW 5812   0.856   3.048   2.087
 1638SOL    HW1 5813   0.766   3.092   2.097
 1638SOL    HW2 5814   0.910   3.063   2.169
 1639SOL     OW 5815   5.915   4.715   1.875
 1639SOL    HW1 5816   5.990   4.771   1.908
 1639SOL    HW2 5817   5.833   4.734   1.929
 1640SOL     OW 5818   6.576   0.013   0.201
 1640SOL    HW1 5819   6.565   0.012   0.101
 1640SOL    HW2 5820   6.486   0.006   0.244
 1641SOL     OW 5821   6.921   2.911   3.766
 1641SOL    HW1 5822   6.941   2.818   3.797
 1641SOL    HW2 5823   6.999   2.946   3.713
 1642SOL     OW 5824   0.019   2.839   6.414
 1642SOL    HW1 5825   6.981   2.887   6.344
 1642SOL    HW2 5826   6.973   2.804   6.484
 1643SOL     OW 5827   2.591   4.664   3.262
 1643SOL    HW1 5828   2.568   4.625   3.173
 1643SOL    HW2 5829   2.683   4.704   3.258
 1644SOL     OW 5830   5.512   3.039   6.772
 1644SOL    HW1 5831   5.553   2.953   6.742
 1644SOL    HW2 5832   5.569   3.115   6.740
 1645SOL     OW 5833   2.987   6.460   6.387
 1645SOL    HW1 5834   3.003   6.541   6.330
 1645SOL    HW2 5835   2.888   6.449   6.402
 1646SOL     OW 5836   1.572   6.420   0.325
 1646SOL    HW1 5837   1.621   6.370   0.396
 1646SOL    HW2 5838   1.632   6.435   0.247
 1647SOL     OW 5839   5.966   2.556   3.973
 1647SOL    HW1 5840   6.054   2.521   3.941
 1647SOL    HW2 5841   5.926   2.492   4.039
 1648SOL     OW 5842   5.596   6.596   0.550
 1648SOL    HW1 5843   5.526   6.530   0.522
 1648SOL    HW2 5844   5.660   6.551   0.612
 1649SOL     OW 5845   3.752   1.369   4.322
 1649SOL    HW1 5846   3.848   1.399   4.317
 1649SOL    HW2 5847   3.693   1.449   4.326
 1650SOL     OW 5848   1.052   5.861   5.312
 1650SOL    HW1 5849   1.063   5.774   5.361
 1650SOL    HW2 5850   1.141   5.894   5.283
 1651SOL     OW 5851   0.426   1.929   2.867
 1651SOL    HW1 5852   0.385   1.847   2.908
 1651SOL    HW2 5853   0.506   1.902   2.813
 1652SOL     OW 5854   1.270   3.634   2.182
 1652SOL    HW1 5855   1.221   3.623   2.095
 1652SOL    HW2 5856   1.282   3.731   2.201
 1653SOL     OW 5857   0.210   5.820   1.500
 1653SOL    HW1 5858   0.129   5.861   1.540
 1653SOL    HW2 5859   0.292   5.865   1.535
 1654SOL     OW 5860   0.099   3.343   1.226
 1654SOL    HW1 5861   0.061   3.435   1.229
 1654SOL    HW2 5862   0.199   3.348   1.217
 1655SOL     OW 5863   6.518   1.305   4.126
 1655SOL    HW1 5864   6.521   1.218   4.077
 1655SOL    HW2 5865   6.486   1.289   4.219
 1656SOL     OW 5866   2.174   5.457   2.936
 1656SOL    HW1 5867   2.096   5.501   2.980
 1656SOL    HW2 5868   2.248   5.446   3.002
 1657SOL     OW 5869   6.039   0.312   4.266
 1657SOL    HW1 5870   6.033   0.320   4.365
 1657SOL    HW2 5871   6.103   0.239   4.242
 1658SOL     OW 5872   6.557   0.456   0.924
 1658SOL    HW1 5873   6.548   0.438   0.826
 1658SOL    HW2 5874   6.554   0.554   0.940
 1659SOL     OW 5875   3.654   6.950   7.008
 1659SOL    HW1 5876   3.644   0.009   0.057
 1659SOL    HW2 5877   3.600   6.871   0.024
 1660SOL     OW 5878   1.697   6.510   2.917
 1660SOL    HW1 5879   1.637   6.430   2.925
 1660SOL    HW2 5880   1.789   6.480   2.890
 1661SOL     OW 5881   2.828   5.910   1.751
 1661SOL    HW1 5882   2.738   5.870   1.731
 1661SOL    HW2 5883   2.886   5.840   1.792
 1662SOL     OW 5884   6.753   0.538   4.679
 1662SOL    HW1 5885   6.833   0.553   4.738
 1662SOL    HW2 5886   6.712   0.627   4.656
 1663SOL     OW 5887   4.890   5.299   2.806
 1663SOL    HW1 5888   4.980   5.262   2.830
 1663SOL    HW2 5889   4.885   5.313   2.707
 1664SOL     OW 5890   2.310   6.155   5.558
 1664SOL    HW1 5891   2.342   6.073   5.606
 1664SOL    HW2 5892   2.381   6.225   5.560
 1665SOL     OW 5893   0.102   3.650   1.681
 1665SOL    HW1 5894   0.014   3.640   1.726
 1665SOL    HW2 5895   0.106   3.589   1.602
 1666SOL     OW 5896   5.704   0.179   0.405
 1666SOL    HW1 5897   5.717   0.136   0.494
 1666SOL    HW2 5898   5.633   0.131   0.354
 1667SOL     OW 5899   6.614   6.255   1.871
 1667SOL    HW1 5900   6.640   6.170   1.917
 1667SOL    HW2 5901   6.656   6.332   1.919
 1668SOL     OW 5902   4.825   4.755   3.554
 1668SOL    HW1 5903   4.829   4.690   3.630
 1668SOL    HW2 5904   4.800   4.707   3.470
 1669SOL     OW 5905   6.815   4.691   5.748
 1669SOL    HW1 5906   6.859   4.607   5.779
 1669SOL    HW2 5907   6.819   4.696   5.648
 1670SOL     OW 5908   0.415   4.513   4.935
 1670SOL    HW1 5909   0.373   4.599   4.965
 1670SOL    HW2 5910   0.398   4.442   5.004
 1671SOL     OW 5911   5.656   1.000   3.088
 1671SOL    HW1 5912   5.619   1.093   3.091
 1671SOL    HW2 5913   5.688   0.975   3.180
 1672SOL     OW 5914   2.209   4.103   6.497
 1672SOL    HW1 5915   2.195   4.163   6.418
 1672SOL    HW2 5916   2.125   4.097   6.550
 1673SOL     OW 5917   1.531   1.502   5.018
 1673SOL    HW1 5918   1.464   1.540   5.082
 1673SOL    HW2 5919   1.514   1.539   4.927
 1674SOL     OW 5920   0.131   3.319   2.231
 1674SOL    HW1 5921   0.088   3.232   2.207
 1674SOL    HW2 5922   0.061   3.388   2.249
 1675SOL     OW 5923   5.078   6.971   6.744
 1675SOL    HW1 5924   5.025   0.038   6.764
 1675SOL    HW2 5925   5.046   6.931   6.658
 1676SOL     OW 5926   2.352   2.141   1.982
 1676SOL    HW1 5927   2.370   2.107   1.890
 1676SOL    HW2 5928   2.435   2.186   2.017
 1677SOL     OW 5929   3.987   3.808   3.476
 1677SOL    HW1 5930   3.912   3.759   3.521
 1677SOL    HW2 5931   4.043   3.743   3.425
 1678SOL     OW 5932   0.053   5.554   1.975
 1678SOL    HW1 5933   6.971   5.560   1.999
 1678SOL    HW2 5934   0.062   5.548   1.876
 1679SOL     OW 5935   2.210   1.443   5.142
 1679SOL    HW1 5936   2.147   1.474   5.071
 1679SOL    HW2 5937   2.208   1.343   5.148
 1680SOL     OW 5938   6.200   3.718   5.294
 1680SOL    HW1 5939   6.126   3.786   5.297
 1680SOL    HW2 5940   6.255   3.733   5.212
 1681SOL     OW 5941   1.660   5.984   5.506
 1681SOL    HW1 5942   1.727   5.963   5.577
 1681SOL    HW2 5943   1.660   6.082   5.488
 1682SOL     OW 5944   2.258   0.879   5.443
 1682SOL    HW1 5945   2.287   0.795   5.487
 1682SOL    HW2 5946   2.230   0.945   5.512
 1683SOL     OW 5947   6.411   5.519   2.658
 1683SOL    HW1 5948   6.336   5.572   2.617
 1683SOL    HW2 5949   6.409   5.426   2.622
 1684SOL     OW 5950   0.390   5.692   2.085
 1684SOL    HW1 5951   0.346   5.633   2.153
 1684SOL    HW2 5952   0.482   5.714   2.116
 1685SOL     OW 5953   2.385   1.685   6.199
 1685SOL    HW1 5954   2.388   1.734   6.111
 1685SOL    HW2 5955   2.451   1.610   6.197
 1686SOL     OW 5956   3.508   6.016   4.233
 1686SOL    HW1 5957   3.603   6.028   4.264
 1686SOL    HW2 5958   3.508   5.970   4.144
 1687SOL     OW 5959   0.490   2.946   1.748
 1687SOL    HW1 5960   0.585   2.969   1.729
 1687SOL    HW2 5961   0.431   3.025   1.731
 1688SOL     OW 5962   1.588   1.468   4.033
 1688SOL    HW1 5963   1.537   1.534   4.089
 1688SOL    HW2 5964   1.653   1.518   3.975
 1689SOL     OW 5965   6.301   0.656   2.286
 1689SOL    HW1 5966   6.265   0.563   2.299
 1689SOL    HW2 5967   6.317   0.698   2.375
 1690SOL     OW 5968   1.115   3.101   4.784
 1690SOL    HW1 5969   1.179   3.136   4.852
 1690SOL    HW2 5970   1.074   3.016   4.817
 1691SOL     OW 5971   5.510   3.096   3.993
 1691SOL    HW1 5972   5.537   3.039   4.071
 1691SOL    HW2 5973   5.418   3.132   4.008
 1692SOL     OW 5974   4.877   6.182   1.897
 1692SOL    HW1 5975   4.804   6.248   1.915
 1692SOL    HW2 5976   4.916   6.198   1.807
 1693SOL     OW 5977   6.867   2.047   3.682
 1693SOL    HW1 5978   6.937   1.993   3.728
 1693SOL    HW2 5979   6.776   2.014   3.708
 1694SOL     OW 5980   6.241   1.308   3.965
 1694SOL    HW1 5981   6.173   1.375   3.936
 1694SOL    HW2 5982   6.333   1.347   3.959
 1695SOL     OW 5983   3.425   0.305   6.533
 1695SOL    HW1 5984   3.491   0.291   6.607
 1695SOL    HW2 5985   3.382   0.395   6.543
 1696SOL     OW 5986   3.791   6.171   0.812
 1696SOL    HW1 5987   3.854   6.211   0.878
 1696SOL    HW2 5988   3.830   6.178   0.720
 1697SOL     OW 5989   6.237   2.070   1.190
 1697SOL    HW1 5990   6.319   2.103   1.239
 1697SOL    HW2 5991   6.244   1.971   1.178
 1698SOL     OW 5992   4.109   0.794   1.148
 1698SOL    HW1 5993   4.179   0.845   1.198
 1698SOL    HW2 5994   4.076   0.849   1.071
 1699SOL     OW 5995   2.198   1.857   5.895
 1699SOL    HW1 5996   2.141   1.918   5.950
 1699SOL    HW2 5997   2.208   1.895   5.803
 1700SOL     OW 5998   6.035   3.631   3.061
 1700SOL    HW1 5999   6.036   3.542   3.106
 1700SOL    HW2 6000   6.086   3.697   3.116
 1701SOL     OW 6001   5.991   5.960   5.396
 1701SOL    HW1 6002   5.942   5.913   5.470
 1701SOL    HW2 6003   6.030   6.045   5.431
 1702SOL     OW 6004   0.429   1.300   1.148
 1702SOL    HW1 6005   0.460   1.283   1.054
 1702SOL    HW2 6006   0.439   1.216   1.202
 1703SOL     OW 6007   3.703   1.200   6.617
 1703SOL    HW1 6008   3.665   1.126   6.561
 1703SOL    HW2 6009   3.635   1.272   6.628
 1704SOL     OW 6010   1.570   2.276   0.272
 1704SOL    HW1 6011   1.543   2.266   0.367
 1704SOL    HW2 6012   1.502   2.331   0.223
 1705SOL     OW 6013   3.408   2.502   1.752
 1705SOL    HW1 6014   3.329   2.441   1.758
 1705SOL    HW2 6015   3.492   2.449   1.759
 1706SOL     OW 6016   4.346   2.101   1.603
 1706SOL    HW1 6017   4.281   2.148   1.662
 1706SOL    HW2 6018   4.312   2.099   1.509
 1707SOL     OW 6019   4.775   2.752   2.702
 1707SOL    HW1 6020   4.827   2.701   2.634
 1707SOL    HW2 6021   4.700   2.695   2.736
 1708SOL     OW 6022   4.188   5.398   1.515
 1708SOL    HW1 6023   4.246   5.476   1.541
 1708SOL    HW2 6024   4.127   5.376   1.591
 1709SOL     OW 6025   3.595   6.763   1.372
 1709SOL    HW1 6026   3.635   6.746   1.282
 1709SOL    HW2 6027   3.528   6.837   1.365
 1710SOL     OW 6028   3.701   5.383   3.689
 1710SOL    HW1 6029   3.645   5.434   3.755
 1710SOL    HW2 6030   3.765   5.324   3.739
 1711SOL     OW 6031   2.253   4.818   4.930
 1711SOL    HW1 6032   2.212   4.878   4.999
 1711SOL    HW2 6033   2.183   4.794   4.862
 1712SOL     OW 6034   0.068   1.384   4.691
 1712SOL    HW1 6035   0.139   1.345   4.633
 1712SOL    HW2 6036   0.047   1.477   4.661
 1713SOL     OW 6037   4.452   1.619   2.475
 1713SOL    HW1 6038   4.357   1.649   2.478
 1713SOL    HW2 6039   4.502   1.658   2.552
 1714SOL     OW 6040   4.296   1.737   6.223
 1714SOL    HW1 6041   4.388   1.698   6.229
 1714SOL    HW2 6042   4.234   1.687   6.282
 1715SOL     OW 6043   2.379   5.438   3.104
 1715SOL    HW1 6044   2.449   5.486   3.051
 1715SOL    HW2 6045   2.367   5.482   3.192
 1716SOL     OW 6046   4.323   0.274   3.652
 1716SOL    HW1 6047   4.303   0.371   3.638
 1716SOL    HW2 6048   4.344   0.231   3.565
 1717SOL     OW 6049   3.489   5.505   4.996
 1717SOL    HW1 6050   3.501   5.463   4.906
 1717SOL    HW2 6051   3.410   5.465   5.042
 1718SOL     OW 6052   2.628   1.633   2.289
 1718SOL    HW1 6053   2.684   1.637   2.206
 1718SOL    HW2 6054   2.652   1.710   2.349
 1719SOL     OW 6055   2.152   3.582   0.997
 1719SOL    HW1 6056   2.152   3.681   0.987
 1719SOL    HW2 6057   2.069   3.544   0.955
 1720SOL     OW 6058   0.078   2.720   5.929
 1720SOL    HW1 6059   0.147   2.648   5.932
 1720SOL    HW2 6060   0.008   2.702   5.998
 1721SOL     OW 6061   1.705   0.193   1.317
 1721SOL    HW1 6062   1.724   0.112   1.372
 1721SOL    HW2 6063   1.626   0.241   1.355
 1722SOL     OW 6064   4.307   1.270   3.544
 1722SOL    HW1 6065   4.371   1.239   3.614
 1722SOL    HW2 6066   4.344   1.249   3.453
 1723SOL     OW 6067   4.507   2.458   0.380
 1723SOL    HW1 6068   4.569   2.486   0.453
 1723SOL    HW2 6069   4.559   2.413   0.308
 1724SOL     OW 6070   6.432   2.478   1.760
 1724SOL    HW1 6071   6.394   2.388   1.779
 1724SOL    HW2 6072   6.433   2.533   1.844
 1725SOL     OW 6073   1.856   5.257   6.722
 1725SOL    HW1 6074   1.894   5.308   6.645
 1725SOL    HW2 6075   1.929   5.206   6.767
 1726SOL     OW 6076   5.344   3.757   4.815
 1726SOL    HW1 6077   5.327   3.660   4.835
 1726SOL    HW2 6078   5.395   3.764   4.729
 1727SOL     OW 6079   3.726   3.540   3.410
 1727SOL    HW1 6080   3.629   3.526   3.390
 1727SOL    HW2 6081   3.771   3.582   3.331
 1728SOL     OW 6082   4.995   4.585   5.428
 1728SOL    HW1 6083   5.016   4.608   5.524
 1728SOL    HW2 6084   5.032   4.495   5.407
 1729SOL     OW 6085   1.319   3.725   3.147
 1729SOL    HW1 6086   1.295   3.678   3.062
 1729SOL    HW2 6087   1.395   3.788   3.130
 1730SOL     OW 6088   3.093   0.234   5.177
 1730SOL    HW1 6089   3.129   0.148   5.140
 1730SOL    HW2 6090   3.168   0.298   5.193
 1731SOL     OW 6091   6.120   4.523   3.510
 1731SOL    HW1 6092   6.069   4.504   3.594
 1731SOL    HW2 6093   6.205   4.469   3.510
 1732SOL     OW 6094   1.917   4.399   6.421
 1732SOL    HW1 6095   1.949   4.324   6.364
 1732SOL    HW2 6096   1.980   4.477   6.411
 1733SOL     OW 6097   2.389   3.679   1.540
 1733SOL    HW1 6098   2.363   3.766   1.582
 1733SOL    HW2 6099   2.472   3.692   1.487
 1734SOL     OW 6100   5.554   2.850   1.717
 1734SOL    HW1 6101   5.471   2.871   1.769
 1734SOL    HW2 6102   5.547   2.890   1.626
 1735SOL     OW 6103   4.271   5.576   5.574
 1735SOL    HW1 6104   4.186   5.585   5.626
 1735SOL    HW2 6105   4.300   5.480   5.574
 1736SOL     OW 6106   3.484   3.642   0.337
 1736SOL    HW1 6107   3.546   3.578   0.292
 1736SOL    HW2 6108   3.529   3.681   0.417
 1737SOL     OW 6109   4.892   6.834   4.545
 1737SOL    HW1 6110   4.849   6.874   4.626
 1737SOL    HW2 6111   4.991   6.849   4.550
 1738SOL     OW 6112   1.901   3.472   4.373
 1738SOL    HW1 6113   1.999   3.461   4.393
 1738SOL    HW2 6114   1.890   3.487   4.275
 1739SOL     OW 6115   6.050   0.813   4.271
 1739SOL    HW1 6116   5.969   0.778   4.224
 1739SOL    HW2 6117   6.091   0.886   4.216
 1740SOL     OW 6118   6.503   1.687   4.939
 1740SOL    HW1 6119   6.534   1.632   4.861
 1740SOL    HW2 6120   6.479   1.778   4.907
 1741SOL     OW 6121   2.875   1.106   4.224
 1741SOL    HW1 6122   2.972   1.086   4.234
 1741SOL    HW2 6123   2.856   1.131   4.129
 1742SOL     OW 6124   5.682   0.993   6.091
 1742SOL    HW1 6125   5.641   0.919   6.145
 1742SOL    HW2 6126   5.778   1.004   6.117
 1743SOL     OW 6127   0.964   1.015   2.562
 1743SOL    HW1 6128   1.017   1.034   2.479
 1743SOL    HW2 6129   0.935   1.101   2.603
 1744SOL     OW 6130   5.805   2.608   2.676
 1744SOL    HW1 6131   5.865   2.604   2.596
 1744SOL    HW2 6132   5.818   2.696   2.723
 1745SOL     OW 6133   6.305   6.429   2.192
 1745SOL    HW1 6134   6.255   6.346   2.217
 1745SOL    HW2 6135   6.282   6.455   2.099
 1746SOL     OW 6136   1.841   3.868   4.025
 1746SOL    HW1 6137   1.773   3.941   4.012
 1746SOL    HW2 6138   1.845   3.845   4.122
 1747SOL     OW 6139   3.422   1.811   2.108
 1747SOL    HW1 6140   3.404   1.726   2.157
 1747SOL    HW2 6141   3.338   1.866   2.106
 1748SOL     OW 6142   5.943   1.433   4.189
 1748SOL    HW1 6143   5.951   1.356   4.253
 1748SOL    HW2 6144   6.030   1.482   4.185
 1749SOL     OW 6145   2.685   6.995   6.886
 1749SOL    HW1 6146   2.751   6.947   6.945
 1749SOL    HW2 6147   2.635   6.928   6.831
 1750SOL     OW 6148   5.087   0.500   3.894
 1750SOL    HW1 6149   5.070   0.450   3.809
 1750SOL    HW2 6150   5.040   0.588   3.891
 1751SOL     OW 6151   5.645   1.831   4.839
 1751SOL    HW1 6152   5.687   1.918   4.863
 1751SOL    HW2 6153   5.564   1.816   4.895
 1752SOL     OW 6154   5.602   0.331   1.569
 1752SOL    HW1 6155   5.523   0.310   1.511
 1752SOL    HW2 6156   5.667   0.255   1.565
 1753SOL     OW 6157   6.807   1.021   1.762
 1753SOL    HW1 6158   6.810   0.930   1.804
 1753SOL    HW2 6159   6.784   1.089   1.832
 1754SOL     OW 6160   1.674   5.594   6.118
 1754SOL    HW1 6161   1.686   5.543   6.203
 1754SOL    HW2 6162   1.584   5.636   6.116
 1755SOL     OW 6163   0.098   5.897   6.338
 1755SOL    HW1 6164   0.064   5.825   6.277
 1755SOL    HW2 6165   0.115   5.859   6.429
 1756SOL     OW 6166   3.805   6.203   6.352
 1756SOL    HW1 6167   3.794   6.218   6.451
 1756SOL    HW2 6168   3.886   6.252   6.320
 1757SOL     OW 6169   3.455   5.030   5.173
 1757SOL    HW1 6170   3.393   5.030   5.095
 1757SOL    HW2 6171   3.481   4.936   5.195
 1758SOL     OW 6172   1.772   0.256   4.708
 1758SOL    HW1 6173   1.694   0.236   4.767
 1758SOL    HW2 6174   1.748   0.330   4.644
 1759SOL     OW 6175   1.303   6.759   5.263
 1759SOL    HW1 6176   1.362   6.776   5.185
 1759SOL    HW2 6177   1.358   6.731   5.342
 1760SOL     OW 6178   5.810   0.685   4.162
 1760SOL    HW1 6179   5.760   0.656   4.243
 1760SOL    HW2 6180   5.763   0.762   4.119
 1761SOL     OW 6181   6.600   0.471   1.369
 1761SOL    HW1 6182   6.656   0.460   1.451
 1761SOL    HW2 6183   6.599   0.567   1.342
 1762SOL     OW 6184   6.727   1.567   4.563
 1762SOL    HW1 6185   6.701   1.651   4.612
 1762SOL    HW2 6186   6.706   1.488   4.620
 1763SOL     OW 6187   1.123   4.636   4.976
 1763SOL    HW1 6188   1.054   4.573   4.942
 1763SOL    HW2 6189   1.129   4.631   5.075
 1764SOL     OW 6190   0.609   3.170   2.430
 1764SOL    HW1 6191   0.569   3.086   2.467
 1764SOL    HW2 6192   0.685   3.199   2.489
 1765SOL     OW 6193   3.723   2.010   1.357
 1765SOL    HW1 6194   3.667   2.007   1.440
 1765SOL    HW2 6195   3.676   2.065   1.287
 1766SOL     OW 6196   5.415   4.669   4.039
 1766SOL    HW1 6197   5.398   4.593   4.102
 1766SOL    HW2 6198   5.348   4.741   4.055
 1767SOL     OW 6199   1.013   4.665   2.811
 1767SOL    HW1 6200   0.996   4.653   2.714
 1767SOL    HW2 6201   0.945   4.615   2.864
 1768SOL     OW 6202   4.218   0.516   6.822
 1768SOL    HW1 6203   4.161   0.434   6.825
 1768SOL    HW2 6204   4.313   0.491   6.841
 1769SOL     OW 6205   5.726   0.975   0.477
 1769SOL    HW1 6206   5.761   1.012   0.391
 1769SOL    HW2 6207   5.791   0.996   0.550
 1770SOL     OW 6208   0.559   4.096   5.243
 1770SOL    HW1 6209   0.543   4.004   5.278
 1770SOL    HW2 6210   0.609   4.150   5.311
 1771SOL     OW 6211   1.900   4.939   0.221
 1771SOL    HW1 6212   1.839   5.018   0.216
 1771SOL    HW2 6213   1.935   4.930   0.314
 1772SOL     OW 6214   4.065   5.301   4.426
 1772SOL    HW1 6215   4.092   5.220   4.478
 1772SOL    HW2 6216   4.070   5.280   4.328
 1773SOL     OW 6217   0.909   1.849   5.442
 1773SOL    HW1 6218   0.967   1.911   5.390
 1773SOL    HW2 6219   0.882   1.893   5.528
 1774SOL     OW 6220   5.355   6.373   2.354
 1774SOL    HW1 6221   5.397   6.464   2.349
 1774SOL    HW2 6222   5.423   6.307   2.384
 1775SOL     OW 6223   1.887   5.625   6.715
 1775SOL    HW1 6224   1.896   5.596   6.811
 1775SOL    HW2 6225   1.880   5.544   6.657
 1776SOL     OW 6226   5.107   0.769   5.870
 1776SOL    HW1 6227   5.114   0.773   5.770
 1776SOL    HW2 6228   5.031   0.827   5.900
 1777SOL     OW 6229   4.053   6.667   6.213
 1777SOL    HW1 6230   3.996   6.610   6.273
 1777SOL    HW2 6231   4.076   6.752   6.261
 1778SOL     OW 6232   4.618   1.302   4.438
 1778SOL    HW1 6233   4.605   1.401   4.444
 1778SOL    HW2 6234   4.630   1.276   4.342
 1779SOL     OW 6235   4.961   6.747   5.577
 1779SOL    HW1 6236   4.999   6.796   5.657
 1779SOL    HW2 6237   4.872   6.709   5.601
 1780SOL     OW 6238   1.727   4.142   4.614
 1780SOL    HW1 6239   1.749   4.147   4.712
 1780SOL    HW2 6240   1.631   4.115   4.604
 1781SOL     OW 6241   4.846   0.225   4.794
 1781SOL    HW1 6242   4.799   0.190   4.712
 1781SOL    HW2 6243   4.836   0.159   4.869
 1782SOL     OW 6244   1.918   1.634   2.697
 1782SOL    HW1 6245   2.006   1.631   2.745
 1782SOL    HW2 6246   1.932   1.611   2.601
 1783SOL     OW 6247   2.326   3.737   6.012
 1783SOL    HW1 6248   2.232   3.756   6.040
 1783SOL    HW2 6249   2.344   3.639   6.024
 1784SOL     OW 6250   2.592   1.237   2.087
 1784SOL    HW1 6251   2.553   1.304   2.150
 1784SOL    HW2 6252   2.681   1.270   2.053
 1785SOL     OW 6253   6.802   6.280   4.289
 1785SOL    HW1 6254   6.829   6.295   4.385
 1785SOL    HW2 6255   6.874   6.231   4.241
 1786SOL     OW 6256   1.926   5.485   0.596
 1786SOL    HW1 6257   1.935   5.423   0.674
 1786SOL    HW2 6258   1.880   5.569   0.625
 1787SOL     OW 6259   2.203   2.386   5.960
 1787SOL    HW1 6260   2.122   2.443   5.941
 1787SOL    HW2 6261   2.220   2.325   5.883
 1788SOL     OW 6262   4.647   3.394   0.382
 1788SOL    HW1 6263   4.658   3.297   0.361
 1788SOL    HW2 6264   4.551   3.414   0.399
 1789SOL     OW 6265   6.411   2.961   1.672
 1789SOL    HW1 6266   6.465   2.896   1.727
 1789SOL    HW2 6267   6.446   3.054   1.687
 1790SOL     OW 6268   3.325   1.154   4.379
 1790SOL    HW1 6269   3.418   1.128   4.352
 1790SOL    HW2 6270   3.322   1.252   4.398
 1791SOL     OW 6271   6.365   0.978   3.260
 1791SOL    HW1 6272   6.379   0.982   3.359
 1791SOL    HW2 6273   6.418   1.050   3.216
 1792SOL     OW 6274   6.506   1.985   4.486
 1792SOL    HW1 6275   6.558   2.018   4.407
 1792SOL    HW2 6276   6.569   1.959   4.559
 1793SOL     OW 6277   6.069   1.378   4.525
 1793SOL    HW1 6278   6.026   1.329   4.449
 1793SOL    HW2 6279   6.159   1.412   4.496
 1794SOL     OW 6280   6.046   0.208   5.957
 1794SOL    HW1 6281   5.997   0.284   6.002
 1794SOL    HW2 6282   6.051   0.226   5.859
 1795SOL     OW 6283   6.148   5.287   1.016
 1795SOL    HW1 6284   6.131   5.378   1.053
 1795SOL    HW2 6285   6.247   5.269   1.017
 1796SOL     OW 6286   1.991   1.141   5.344
 1796SOL    HW1 6287   2.027   1.138   5.437
 1796SOL    HW2 6288   1.893   1.121   5.345
 1797SOL     OW 6289   1.134   0.221   5.193
 1797SOL    HW1 6290   1.215   0.164   5.206
 1797SOL    HW2 6291   1.054   0.172   5.226
 1798SOL     OW 6292   3.391   3.145   4.264
 1798SOL    HW1 6293   3.469   3.168   4.206
 1798SOL    HW2 6294   3.315   3.114   4.206
 1799SOL     OW 6295   4.552   2.478   6.661
 1799SOL    HW1 6296   4.458   2.443   6.652
 1799SOL    HW2 6297   4.552   2.556   6.724
 1800SOL     OW 6298   5.473   4.454   3.832
 1800SOL    HW1 6299   5.481   4.511   3.914
 1800SOL    HW2 6300   5.516   4.501   3.755
 1801SOL     OW 6301   0.565   2.069   1.765
 1801SOL    HW1 6302   0.523   2.145   1.715
 1801SOL    HW2 6303   0.650   2.100   1.808
 1802SOL     OW 6304   6.424   5.619   3.541
 1802SOL    HW1 6305   6.398   5.623   3.638
 1802SOL    HW2 6306   6.360   5.674   3.487
 1803SOL     OW 6307   0.031   6.796   2.207
 1803SOL    HW1 6308   0.031   6.699   2.232
 1803SOL    HW2 6309   0.054   6.852   2.287
 1804SOL     OW 6310   3.384   3.531   5.519
 1804SOL    HW1 6311   3.377   3.535   5.419
 1804SOL    HW2 6312   3.343   3.446   5.552
 1805SOL     OW 6313   0.985   6.042   5.713
 1805SOL    HW1 6314   0.952   6.078   5.800
 1805SOL    HW2 6315   0.946   6.094   5.637
 1806SOL     OW 6316   6.969   2.482   2.296
 1806SOL    HW1 6317   0.042   2.484   2.250
 1806SOL    HW2 6318   6.921   2.398   2.271
 1807SOL     OW 6319   6.402   3.766   0.038
 1807SOL    HW1 6320   6.470   3.771   6.980
 1807SOL    HW2 6321   6.365   3.673   0.043
 1808SOL     OW 6322   5.656   3.453   4.518
 1808SOL    HW1 6323   5.651   3.532   4.456
 1808SOL    HW2 6324   5.565   3.434   4.555
 1809SOL     OW 6325   3.128   1.719   5.505
 1809SOL    HW1 6326   3.111   1.810   5.542
 1809SOL    HW2 6327   3.052   1.658   5.527
 1810SOL     OW 6328   0.045   0.728   4.695
 1810SOL    HW1 6329   7.002   0.807   4.708
 1810SOL    HW2 6330   0.006   0.649   4.742
 1811SOL     OW 6331   4.766   4.580   1.460
 1811SOL    HW1 6332   4.806   4.489   1.445
 1811SOL    HW2 6333   4.678   4.571   1.507
 1812SOL     OW 6334   4.331   6.813   5.977
 1812SOL    HW1 6335   4.342   6.875   6.055
 1812SOL    HW2 6336   4.330   6.866   5.892
 1813SOL     OW 6337   4.512   4.454   2.168
 1813SOL    HW1 6338   4.508   4.388   2.092
 1813SOL    HW2 6339   4.430   4.512   2.165
 1814SOL     OW 6340   6.595   6.672   0.210
 1814SOL    HW1 6341   6.579   6.762   0.170
 1814SOL    HW2 6342   6.626   6.683   0.304
 1815SOL     OW 6343   5.932   5.778   2.967
 1815SOL    HW1 6344   5.974   5.829   2.891
 1815SOL    HW2 6345   5.842   5.746   2.939
 1816SOL     OW 6346   4.270   6.293   5.696
 1816SOL    HW1 6347   4.255   6.217   5.632
 1816SOL    HW2 6348   4.364   6.291   5.728
 1817SOL     OW 6349   3.234   1.697   2.809
 1817SOL    HW1 6350   3.257   1.672   2.715
 1817SOL    HW2 6351   3.136   1.683   2.824
 1818SOL     OW 6352   1.585   6.645   0.547
 1818SOL    HW1 6353   1.639   6.729   0.540
 1818SOL    HW2 6354   1.581   6.601   0.458
 1819SOL     OW 6355   1.815   5.363   1.809
 1819SOL    HW1 6356   1.877   5.420   1.862
 1819SOL    HW2 6357   1.732   5.347   1.862
 1820SOL     OW 6358   4.179   0.840   3.232
 1820SOL    HW1 6359   4.094   0.879   3.197
 1820SOL    HW2 6360   4.247   0.834   3.159
 1821SOL     OW 6361   3.578   1.127   1.735
 1821SOL    HW1 6362   3.644   1.060   1.700
 1821SOL    HW2 6363   3.576   1.123   1.835
 1822SOL     OW 6364   1.094   3.397   2.021
 1822SOL    HW1 6365   1.097   3.497   2.011
 1822SOL    HW2 6366   1.128   3.372   2.112
 1823SOL     OW 6367   3.520   6.327   2.505
 1823SOL    HW1 6368   3.620   6.329   2.511
 1823SOL    HW2 6369   3.481   6.400   2.560
 1824SOL     OW 6370   3.609   3.927   0.803
 1824SOL    HW1 6371   3.591   4.025   0.800
 1824SOL    HW2 6372   3.708   3.912   0.795
 1825SOL     OW 6373   0.438   3.206   4.988
 1825SOL    HW1 6374   0.401   3.191   4.896
 1825SOL    HW2 6375   0.476   3.120   5.022
 1826SOL     OW 6376   3.761   1.464   0.864
 1826SOL    HW1 6377   3.703   1.545   0.872
 1826SOL    HW2 6378   3.810   1.448   0.950
 1827SOL     OW 6379   4.889   5.418   1.159
 1827SOL    HW1 6380   4.800   5.446   1.196
 1827SOL    HW2 6381   4.940   5.369   1.229
 1828SOL     OW 6382   1.729   3.377   6.419
 1828SOL    HW1 6383   1.765   3.313   6.351
 1828SOL    HW2 6384   1.783   3.370   6.503
 1829SOL     OW 6385   3.817   0.700   3.585
 1829SOL    HW1 6386   3.802   0.602   3.576
 1829SOL    HW2 6387   3.914   0.721   3.577
 1830SOL     OW 6388   5.829   6.520   4.973
 1830SOL    HW1 6389   5.915   6.502   5.021
 1830SOL    HW2 6390   5.754   6.473   5.021
 1831SOL     OW 6391   5.168   5.854   3.482
 1831SOL    HW1 6392   5.242   5.883   3.543
 1831SOL    HW2 6393   5.173   5.906   3.397
 1832SOL     OW 6394   3.094   3.751   0.111
 1832SOL    HW1 6395   3.114   3.690   0.035
 1832SOL    HW2 6396   3.172   3.751   0.175
 1833SOL     OW 6397   4.615   0.077   1.378
 1833SOL    HW1 6398   4.599   7.005   1.425
 1833SOL    HW2 6399   4.693   0.123   1.419
 1834SOL     OW 6400   3.324   2.935   1.080
 1834SOL    HW1 6401   3.234   2.893   1.087
 1834SOL    HW2 6402   3.394   2.867   1.103
 1835SOL     OW 6403   0.940   5.222   1.042
 1835SOL    HW1 6404   0.891   5.249   1.125
 1835SOL    HW2 6405   1.038   5.222   1.060
 1836SOL     OW 6406   5.121   1.541   2.139
 1836SOL    HW1 6407   5.113   1.527   2.040
 1836SOL    HW2 6408   5.088   1.632   2.163
 1837SOL     OW 6409   1.855   0.859   5.531
 1837SOL    HW1 6410   1.933   0.800   5.511
 1837SOL    HW2 6411   1.829   0.908   5.447
 1838SOL     OW 6412   6.516   0.844   6.630
 1838SOL    HW1 6413   6.490   0.873   6.722
 1838SOL    HW2 6414   6.472   0.757   6.609
 1839SOL     OW 6415   6.263   1.752   6.444
 1839SOL    HW1 6416   6.306   1.702   6.519
 1839SOL    HW2 6417   6.227   1.839   6.478
 1840SOL     OW 6418   3.715   0.223   3.205
 1840SOL    HW1 6419   3.661   0.306   3.221
 1840SOL    HW2 6420   3.783   0.213   3.277
 1841SOL     OW 6421   2.549   0.467   2.412
 1841SOL    HW1 6422   2.477   0.444   2.347
 1841SOL    HW2 6423   2.563   0.566   2.413
 1842SOL     OW 6424   1.655   5.086   0.457
 1842SOL    HW1 6425   1.690   5.180   0.463
 1842SOL    HW2 6426   1.656   5.044   0.547
 1843SOL     OW 6427   3.949   1.061   4.703
 1843SOL    HW1 6428   4.010   1.053   4.782
 1843SOL    HW2 6429   3.875   1.125   4.724
 1844SOL     OW 6430   4.717   2.065   5.429
 1844SOL    HW1 6431   4.706   2.046   5.527
 1844SOL    HW2 6432   4.726   2.163   5.415
 1845SOL     OW 6433   2.872   0.918   3.595
 1845SOL    HW1 6434   2.773   0.906   3.592
 1845SOL    HW2 6435   2.912   0.859   3.665
 1846SOL     OW 6436   5.060   0.554   2.771
 1846SOL    HW1 6437   5.088   0.459   2.783
 1846SOL    HW2 6438   5.139   0.609   2.742
 1847SOL     OW 6439   1.305   0.555   4.964
 1847SOL    HW1 6440   1.262   0.476   4.919
 1847SOL    HW2 6441   1.402   0.557   4.942
 1848SOL     OW 6442   2.600   6.148   4.123
 1848SOL    HW1 6443   2.605   6.246   4.144
 1848SOL    HW2 6444   2.513   6.128   4.077
 1849SOL     OW 6445   4.881   3.027   2.184
 1849SOL    HW1 6446   4.817   3.049   2.110
 1849SOL    HW2 6447   4.949   2.962   2.150
 1850SOL     OW 6448   5.457   1.820   2.588
 1850SOL    HW1 6449   5.369   1.856   2.556
 1850SOL    HW2 6450   5.509   1.784   2.510
 1851SOL     OW 6451   0.419   3.311   6.318
 1851SOL    HW1 6452   0.333   3.260   6.316
 1851SOL    HW2 6453   0.495   3.248   6.296
 1852SOL     OW 6454   0.089   4.853   1.422
 1852SOL    HW1 6455   0.068   4.831   1.327
 1852SOL    HW2 6456   0.154   4.786   1.458
 1853SOL     OW 6457   6.669   2.779   4.155
 1853SOL    HW1 6458   6.694   2.683   4.142
 1853SOL    HW2 6459   6.619   2.812   4.075
 1854SOL     OW 6460   1.368   5.529   3.634
 1854SOL    HW1 6461   1.420   5.517   3.549
 1854SOL    HW2 6462   1.278   5.567   3.612
 1855SOL     OW 6463   5.779   3.156   4.731
 1855SOL    HW1 6464   5.869   3.129   4.699
 1855SOL    HW2 6465   5.709   3.102   4.685
 1856SOL     OW 6466   4.410   3.028   6.662
 1856SOL    HW1 6467   4.391   3.073   6.575
 1856SOL    HW2 6468   4.366   3.078   6.737
 1857SOL     OW 6469   5.824   1.139   0.296
 1857SOL    HW1 6470   5.872   1.222   0.270
 1857SOL    HW2 6471   5.803   1.085   0.215
 1858SOL     OW 6472   5.157   2.516   3.825
 1858SOL    HW1 6473   5.059   2.531   3.816
 1858SOL    HW2 6474   5.205   2.604   3.823
 1859SOL     OW 6475   5.263   2.137   4.612
 1859SOL    HW1 6476   5.321   2.071   4.659
 1859SOL    HW2 6477   5.224   2.095   4.530
 1860SOL     OW 6478   0.871   1.717   4.806
 1860SOL    HW1 6479   0.925   1.665   4.872
 1860SOL    HW2 6480   0.774   1.715   4.832
 1861SOL     OW 6481   5.714   0.209   3.032
 1861SOL    HW1 6482   5.748   0.147   2.961
 1861SOL    HW2 6483   5.748   0.179   3.121
 1862SOL     OW 6484   1.630   6.815   6.961
 1862SOL    HW1 6485   1.655   6.883   6.893
 1862SOL    HW2 6486   1.604   6.730   6.915
 1863SOL     OW 6487   0.373   2.802   1.271
 1863SOL    HW1 6488   0.368   2.730   1.340
 1863SOL    HW2 6489   0.296   2.865   1.283
 1864SOL     OW 6490   2.782   5.521   4.142
 1864SOL    HW1 6491   2.719   5.597   4.160
 1864SOL    HW2 6492   2.738   5.455   4.081
 1865SOL     OW 6493   4.148   1.463   1.108
 1865SOL    HW1 6494   4.191   1.422   1.189
 1865SOL    HW2 6495   4.129   1.391   1.041
 1866SOL     OW 6496   6.170   4.212   4.386
 1866SOL    HW1 6497   6.115   4.225   4.469
 1866SOL    HW2 6498   6.138   4.274   4.315
 1867SOL     OW 6499   2.602   2.695   1.496
 1867SOL    HW1 6500   2.584   2.770   1.433
 1867SOL    HW2 6501   2.567   2.718   1.586
 1868SOL     OW 6502   4.757   4.010   5.019
 1868SOL    HW1 6503   4.765   3.928   5.077
 1868SOL    HW2 6504   4.801   4.087   5.065
 1869SOL     OW 6505   5.313   2.718   3.997
 1869SOL    HW1 6506   5.223   2.752   4.023
 1869SOL    HW2 6507   5.336   2.638   4.053
 1870SOL     OW 6508   0.520   3.413   4.364
 1870SOL    HW1 6509   0.619   3.421   4.363
 1870SOL    HW2 6510   0.486   3.430   4.456
 1871SOL     OW 6511   6.840   6.265   0.410
 1871SOL    HW1 6512   6.846   6.222   0.500
 1871SOL    HW2 6513   6.746   6.297   0.395
 1872SOL     OW 6514   2.835   2.552   0.613
 1872SOL    HW1 6515   2.934   2.564   0.603
 1872SOL    HW2 6516   2.788   2.620   0.556
 1873SOL     OW 6517   6.379   0.965   6.869
 1873SOL    HW1 6518   6.301   0.905   6.851
 1873SOL    HW2 6519   6.409   0.954   6.964
 1874SOL     OW 6520   0.682   0.749   6.790
 1874SOL    HW1 6521   0.625   0.801   6.853
 1874SOL    HW2 6522   0.778   0.774   6.805
 1875SOL     OW 6523   6.594   6.189   0.806
 1875SOL    HW1 6524   6.639   6.222   0.889
 1875SOL    HW2 6525   6.500   6.222   0.803
 1876SOL     OW 6526   5.520   6.601   6.021
 1876SOL    HW1 6527   5.560   6.642   5.939
 1876SOL    HW2 6528   5.483   6.673   6.079
 1877SOL     OW 6529   6.872   1.201   2.317
 1877SOL    HW1 6530   6.859   1.221   2.220
 1877SOL    HW2 6531   6.786   1.218   2.366
 1878SOL     OW 6532   6.948   4.372   3.480
 1878SOL    HW1 6533   0.020   4.401   3.440
 1878SOL    HW2 6534   6.894   4.453   3.504
 1879SOL     OW 6535   2.644   5.081   4.671
 1879SOL    HW1 6536   2.729   5.107   4.716
 1879SOL    HW2 6537   2.572   5.145   4.697
 1880SOL     OW 6538   0.195   2.307   3.304
 1880SOL    HW1 6539   0.281   2.261   3.325
 1880SOL    HW2 6540   0.172   2.293   3.208
 1881SOL     OW 6541   0.710   2.542   3.615
 1881SOL    HW1 6542   0.632   2.521   3.675
 1881SOL    HW2 6543   0.758   2.457   3.592
 1882SOL     OW 6544   1.005   5.853   0.138
 1882SOL    HW1 6545   1.045   5.939   0.106
 1882SOL    HW2 6546   1.054   5.821   0.219
 1883SOL     OW 6547   1.347   3.596   2.584
 1883SOL    HW1 6548   1.354   3.497   2.590
 1883SOL    HW2 6549   1.255   3.624   2.613
 1884SOL     OW 6550   4.660   0.652   0.930
 1884SOL    HW1 6551   4.616   0.640   0.841
 1884SOL    HW2 6552   4.743   0.708   0.919
 1885SOL     OW 6553   6.566   2.192   0.705
 1885SOL    HW1 6554   6.491   2.242   0.749
 1885SOL    HW2 6555   6.643   2.186   0.769
 1886SOL     OW 6556   1.758   1.954   7.004
 1886SOL    HW1 6557   1.696   2.032   7.010
 1886SOL    HW2 6558   1.781   1.924   0.081
 1887SOL     OW 6559   0.182   4.284   5.860
 1887SOL    HW1 6560   0.142   4.225   5.930
 1887SOL    HW2 6561   0.218   4.228   5.786
 1888SOL     OW 6562   2.085   1.375   5.847
 1888SOL    HW1 6563   2.008   1.428   5.883
 1888SOL    HW2 6564   2.140   1.433   5.787
 1889SOL     OW 6565   4.231   3.425   0.255
 1889SOL    HW1 6566   4.254   3.500   0.193
 1889SOL    HW2 6567   4.137   3.395   0.238
 1890SOL     OW 6568   1.438   5.743   6.079
 1890SOL    HW1 6569   1.338   5.746   6.071
 1890SOL    HW2 6570   1.478   5.740   5.988
 1891SOL     OW 6571   5.376   3.111   5.368
 1891SOL    HW1 6572   5.386   3.045   5.443
 1891SOL    HW2 6573   5.404   3.068   5.282
 1892SOL     OW 6574   3.745   6.344   1.584
 1892SOL    HW1 6575   3.813   6.329   1.512
 1892SOL    HW2 6576   3.654   6.347   1.543
 1893SOL     OW 6577   3.511   2.049   4.655
 1893SOL    HW1 6578   3.596   2.094   4.680
 1893SOL    HW2 6579   3.434   2.110   4.674
 1894SOL     OW 6580   4.298   3.734   1.770
 1894SOL    HW1 6581   4.242   3.726   1.852
 1894SOL    HW2 6582   4.296   3.829   1.737
 1895SOL     OW 6583   6.090   0.801   2.140
 1895SOL    HW1 6584   6.103   0.888   2.187
 1895SOL    HW2 6585   6.179   0.758   2.124
 1896SOL     OW 6586   6.545   1.037   3.957
 1896SOL    HW1 6587   6.490   1.089   3.893
 1896SOL    HW2 6588   6.634   1.015   3.915
 1897SOL     OW 6589   6.942   5.505   3.528
 1897SOL    HW1 6590   6.997   5.440   3.580
 1897SOL    HW2 6591   6.905   5.461   3.447
 1898SOL     OW 6592   4.453   6.080   1.659
 1898SOL    HW1 6593   4.456   6.118   1.566
 1898SOL    HW2 6594   4.393   6.135   1.716
 1899SOL     OW 6595   0.121   3.721   2.634
 1899SOL    HW1 6596   0.143   3.773   2.551
 1899SOL    HW2 6597   0.130   3.781   2.714
 1900SOL     OW 6598   1.019   0.072   6.367
 1900SOL    HW1 6599   0.956   0.058   6.443
 1900SOL    HW2 6600   1.023   0.170   6.345
 1901SOL     OW 6601   2.109   1.460   0.190
 1901SOL    HW1 6602   2.205   1.483   0.204
 1901SOL    HW2 6603   2.102   1.369   0.149
 1902SOL     OW 6604   1.099   2.581   4.685
 1902SOL    HW1 6605   1.077   2.634   4.767
 1902SOL    HW2 6606   1.199   2.575   4.675
 1903SOL     OW 6607   6.708   3.883   3.059
 1903SOL    HW1 6608   6.698   3.923   2.968
 1903SOL    HW2 6609   6.791   3.826   3.061
 1904SOL     OW 6610   6.809   6.991   4.553
 1904SOL    HW1 6611   6.905   7.006   4.576
 1904SOL    HW2 6612   6.791   6.892   4.548
 1905SOL     OW 6613   0.032   2.733   3.519
 1905SOL    HW1 6614   0.125   2.754   3.550
 1905SOL    HW2 6615   0.027   2.638   3.488
 1906SOL     OW 6616   2.623   0.149   5.492
 1906SOL    HW1 6617   2.667   0.161   5.582
 1906SOL    HW2 6618   2.692   0.122   5.425
 1907SOL     OW 6619   2.712   0.254   3.700
 1907SOL    HW1 6620   2.755   0.185   3.757
 1907SOL    HW2 6621   2.672   0.325   3.758
 1908SOL     OW 6622   4.354   1.063   5.907
 1908SOL    HW1 6623   4.423   0.996   5.936
 1908SOL    HW2 6624   4.324   1.116   5.987
 1909SOL     OW 6625   2.096   4.477   4.323
 1909SOL    HW1 6626   2.032   4.465   4.248
 1909SOL    HW2 6627   2.129   4.388   4.354
 1910SOL     OW 6628   5.321   2.752   6.544
 1910SOL    HW1 6629   5.413   2.789   6.551
 1910SOL    HW2 6630   5.326   2.658   6.510
 1911SOL     OW 6631   6.570   1.980   5.291
 1911SOL    HW1 6632   6.477   2.010   5.313
 1911SOL    HW2 6633   6.589   1.998   5.194
 1912SOL     OW 6634   3.911   6.456   2.560
 1912SOL    HW1 6635   3.819   6.460   2.521
 1912SOL    HW2 6636   3.967   6.394   2.505
 1913SOL     OW 6637   1.696   6.263   5.441
 1913SOL    HW1 6638   1.792   6.290   5.430
 1913SOL    HW2 6639   1.643   6.295   5.362
 1914SOL     OW 6640   2.442   2.214   6.368
 1914SOL    HW1 6641   2.370   2.237   6.303
 1914SOL    HW2 6642   2.406   2.150   6.436
 1915SOL     OW 6643   3.768   1.537   5.794
 1915SOL    HW1 6644   3.806   1.606   5.856
 1915SOL    HW2 6645   3.837   1.468   5.774
 1916SOL     OW 6646   4.347   6.113   1.022
 1916SOL    HW1 6647   4.251   6.089   1.040
 1916SOL    HW2 6648   4.350   6.187   0.954
 1917SOL     OW 6649   3.884   3.276   4.477
 1917SOL    HW1 6650   3.805   3.216   4.465
 1917SOL    HW2 6651   3.927   3.256   4.565
 1918SOL     OW 6652   6.098   6.636   5.991
 1918SOL    HW1 6653   6.174   6.621   6.053
 1918SOL    HW2 6654   6.016   6.659   6.044
 1919SOL     OW 6655   1.780   6.238   1.852
 1919SOL    HW1 6656   1.715   6.247   1.927
 1919SOL    HW2 6657   1.840   6.160   1.869
 1920SOL     OW 6658   0.298   4.432   3.271
 1920SOL    HW1 6659   0.310   4.346   3.319
 1920SOL    HW2 6660   0.356   4.502   3.313
 1921SOL     OW 6661   6.994   5.318   6.800
 1921SOL    HW1 6662   7.012   5.416   6.800
 1921SOL    HW2 6663   7.008   5.282   6.708
 1922SOL     OW 6664   4.209   3.086   1.305
 1922SOL    HW1 6665   4.245   3.010   1.359
 1922SOL    HW2 6666   4.248   3.172   1.340
 1923SOL     OW 6667   3.522   1.127   0.246
 1923SOL    HW1 6668   3.485   1.091   0.331
 1923SOL    HW2 6669   3.594   1.066   0.213
 1924SOL     OW 6670   6.068   4.483   1.807
 1924SOL    HW1 6671   6.001   4.550   1.837
 1924SOL    HW2 6672   6.043   4.393   1.841
 1925SOL     OW 6673   3.000   3.633   1.581
 1925SOL    HW1 6674   2.968   3.702   1.516
 1925SOL    HW2 6675   3.044   3.678   1.659
 1926SOL     OW 6676   1.366   0.130   4.724
 1926SOL    HW1 6677   1.431   0.160   4.794
 1926SOL    HW2 6678   1.304   0.063   4.764
 1927SOL     OW 6679   3.287   4.193   6.313
 1927SOL    HW1 6680   3.367   4.206   6.254
 1927SOL    HW2 6681   3.223   4.132   6.267
 1928SOL     OW 6682   6.265   3.259   6.083
 1928SOL    HW1 6683   6.269   3.322   6.160
 1928SOL    HW2 6684   6.358   3.233   6.057
 1929SOL     OW 6685   0.978   5.497   1.665
 1929SOL    HW1 6686   0.981   5.595   1.682
 1929SOL    HW2 6687   0.989   5.480   1.567
 1930SOL     OW 6688   5.755   4.388   0.188
 1930SOL    HW1 6689   5.791   4.295   0.179
 1930SOL    HW2 6690   5.829   4.454   0.170
 1931SOL     OW 6691   7.006   3.434   2.956
 1931SOL    HW1 6692   0.082   3.459   2.988
 1931SOL    HW2 6693   7.008   3.422   2.857
 1932SOL     OW 6694   5.296   3.857   2.684
 1932SOL    HW1 6695   5.261   3.913   2.759
 1932SOL    HW2 6696   5.238   3.777   2.672
 1933SOL     OW 6697   2.643   4.749   1.270
 1933SOL    HW1 6698   2.670   4.837   1.232
 1933SOL    HW2 6699   2.545   4.735   1.254
 1934SOL     OW 6700   0.911   0.106   5.313
 1934SOL    HW1 6701   0.897   0.151   5.401
 1934SOL    HW2 6702   0.978   0.032   5.323
 1935SOL     OW 6703   3.418   0.211   4.998
 1935SOL    HW1 6704   3.412   0.217   5.098
 1935SOL    HW2 6705   3.499   0.158   4.973
 1936SOL     OW 6706   5.725   5.171   4.618
 1936SOL    HW1 6707   5.631   5.137   4.623
 1936SOL    HW2 6708   5.782   5.104   4.571
 1937SOL     OW 6709   3.970   0.374   2.063
 1937SOL    HW1 6710   3.870   0.374   2.052
 1937SOL    HW2 6711   3.993   0.357   2.158
 1938SOL     OW 6712   4.384   1.662   2.868
 1938SOL    HW1 6713   4.437   1.578   2.876
 1938SOL    HW2 6714   4.290   1.640   2.841
 1939SOL     OW 6715   0.672   6.647   4.110
 1939SOL    HW1 6716   0.684   6.595   4.195
 1939SOL    HW2 6717   0.581   6.631   4.074
 1940SOL     OW 6718   5.284   5.606   6.508
 1940SOL    HW1 6719   5.342   5.639   6.583
 1940SOL    HW2 6720   5.247   5.684   6.458
 1941SOL     OW 6721   6.641   4.082   2.808
 1941SOL    HW1 6722   6.550   4.044   2.791
 1941SOL    HW2 6723   6.687   4.101   2.721
 1942SOL     OW 6724   6.453   6.464   2.616
 1942SOL    HW1 6725   6.376   6.456   2.554
 1942SOL    HW2 6726   6.519   6.529   2.579
 1943SOL     OW 6727   3.230   5.815   1.856
 1943SOL    HW1 6728   3.284   5.834   1.938
 1943SOL    HW2 6729   3.274   5.857   1.777
 1944SOL     OW 6730   5.156   2.119   6.195
 1944SOL    HW1 6731   5.185   2.196   6.137
 1944SOL    HW2 6732   5.142   2.038   6.137
 1945SOL     OW 6733   4.486   5.606   2.979
 1945SOL    HW1 6734   4.514   5.603   3.075
 1945SOL    HW2 6735   4.560   5.570   2.922
 1946SOL     OW 6736   0.241   0.829   0.177
 1946SOL    HW1 6737   0.163   0.788   0.224
 1946SOL    HW2 6738   0.213   0.857   0.085
 1947SOL     OW 6739   5.661   6.523   4.364
 1947SOL    HW1 6740   5.630   6.537   4.458
 1947SOL    HW2 6741   5.584   6.491   4.308
 1948SOL     OW 6742   6.633   5.206   3.553
 1948SOL    HW1 6743   6.614   5.265   3.474
 1948SOL    HW2 6744   6.686   5.127   3.523
 1949SOL     OW 6745   4.286   4.442   5.623
 1949SOL    HW1 6746   4.273   4.525   5.677
 1949SOL    HW2 6747   4.325   4.370   5.681
 1950SOL     OW 6748   3.979   3.910   0.992
 1950SOL    HW1 6749   4.026   3.977   1.049
 1950SOL    HW2 6750   3.988   3.936   0.896
 1951SOL     OW 6751   6.753   3.006   0.515
 1951SOL    HW1 6752   6.743   3.000   0.415
 1951SOL    HW2 6753   6.836   3.058   0.537
 1952SOL     OW 6754   3.470   2.238   0.026
 1952SOL    HW1 6755   3.398   2.185   6.996
 1952SOL    HW2 6756   3.450   2.336   0.018
 1953SOL     OW 6757   6.289   2.145   6.437
 1953SOL    HW1 6758   6.248   2.080   6.501
 1953SOL    HW2 6759   6.220   2.175   6.371
 1954SOL     OW 6760   5.472   1.322   4.304
 1954SOL    HW1 6761   5.375   1.325   4.277
 1954SOL    HW2 6762   5.512   1.413   4.294
 1955SOL     OW 6763   1.435   0.166   2.181
 1955SOL    HW1 6764   1.372   0.175   2.258
 1955SOL    HW2 6765   1.404   0.092   2.121
 1956SOL     OW 6766   5.751   6.306   3.021
 1956SOL    HW1 6767   5.802   6.225   2.993
 1956SOL    HW2 6768   5.653   6.287   3.014
 1957SOL     OW 6769   6.419   4.678   4.968
 1957SOL    HW1 6770   6.475   4.757   4.945
 1957SOL    HW2 6771   6.449   4.599   4.914
 1958SOL     OW 6772   6.228   2.544   3.878
 1958SOL    HW1 6773   6.271   2.513   3.793
 1958SOL    HW2 6774   6.279   2.508   3.956
 1959SOL     OW 6775   0.567   2.122   5.810
 1959SOL    HW1 6776   0.564   2.140   5.908
 1959SOL    HW2 6777   0.501   2.050   5.787
 1960SOL     OW 6778   6.237   5.045   1.284
 1960SOL    HW1 6779   6.192   4.970   1.234
 1960SOL    HW2 6780   6.336   5.032   1.281
 1961SOL     OW 6781   5.430   4.480   4.255
 1961SOL    HW1 6782   5.399   4.444   4.343
 1961SOL    HW2 6783   5.528   4.503   4.261
 1962SOL     OW 6784   2.367   6.092   2.644
 1962SOL    HW1 6785   2.422   6.009   2.643
 1962SOL    HW2 6786   2.365   6.132   2.552
 1963SOL     OW 6787   0.712   0.756   1.544
 1963SOL    HW1 6788   0.754   0.671   1.577
 1963SOL    HW2 6789   0.780   0.829   1.547
 1964SOL     OW 6790   4.535   2.724   1.472
 1964SOL    HW1 6791   4.546   2.628   1.497
 1964SOL    HW2 6792   4.532   2.780   1.555
 1965SOL     OW 6793   0.885   3.144   2.890
 1965SOL    HW1 6794   0.960   3.079   2.904
 1965SOL    HW2 6795   0.917   3.236   2.911
 1966SOL     OW 6796   6.947   5.241   5.135
 1966SOL    HW1 6797   7.001   5.309   5.085
 1966SOL    HW2 6798   6.900   5.181   5.071
 1967SOL     OW 6799   4.626   1.988   5.679
 1967SOL    HW1 6800   4.547   2.044   5.656
 1967SOL    HW2 6801   4.598   1.916   5.743
 1968SOL     OW 6802   2.924   5.924   0.276
 1968SOL    HW1 6803   2.957   5.996   0.337
 1968SOL    HW2 6804   2.828   5.906   0.294
 1969SOL     OW 6805   0.496   1.659   1.649
 1969SOL    HW1 6806   0.590   1.689   1.660
 1969SOL    HW2 6807   0.474   1.652   1.552
 1970SOL     OW 6808   2.479   0.988   6.407
 1970SOL    HW1 6809   2.519   1.041   6.332
 1970SOL    HW2 6810   2.421   0.916   6.369
 1971SOL     OW 6811   6.357   6.631   6.354
 1971SOL    HW1 6812   6.386   6.550   6.405
 1971SOL    HW2 6813   6.330   6.605   6.262
 1972SOL     OW 6814   6.938   2.552   3.023
 1972SOL    HW1 6815   6.877   2.624   3.055
 1972SOL    HW2 6816   6.938   2.477   3.089
 1973SOL     OW 6817   2.697   3.288   1.056
 1973SOL    HW1 6818   2.726   3.276   1.151
 1973SOL    HW2 6819   2.610   3.336   1.053
 1974SOL     OW 6820   6.311   6.007   3.973
 1974SOL    HW1 6821   6.225   5.960   3.988
 1974SOL    HW2 6822   6.348   6.038   4.060
 1975SOL     OW 6823   2.516   0.906   3.095
 1975SOL    HW1 6824   2.585   0.960   3.143
 1975SOL    HW2 6825   2.428   0.954   3.099
 1976SOL     OW 6826   0.917   5.566   6.836
 1976SOL    HW1 6827   0.920   5.595   6.741
 1976SOL    HW2 6828   1.005   5.586   6.880
 1977SOL     OW 6829   1.609   2.549   3.405
 1977SOL    HW1 6830   1.564   2.589   3.325
 1977SOL    HW2 6831   1.706   2.535   3.385
 1978SOL     OW 6832   0.729   0.041   4.069
 1978SOL    HW1 6833   0.679   0.125   4.048
 1978SOL    HW2 6834   0.706   6.986   4.002
 1979SOL     OW 6835   6.494   4.117   4.665
 1979SOL    HW1 6836   6.440   4.190   4.706
 1979SOL    HW2 6837   6.465   4.029   4.702
 1980SOL     OW 6838   3.395   0.792   6.621
 1980SOL    HW1 6839   3.334   0.799   6.542
 1980SOL    HW2 6840   3.391   0.877   6.673
 1981SOL     OW 6841   5.965   2.561   2.459
 1981SOL    HW1 6842   5.940   2.481   2.404
 1981SOL    HW2 6843   6.043   2.607   2.417
 1982SOL     OW 6844   6.425   4.104   5.784
 1982SOL    HW1 6845   6.453   4.169   5.854
 1982SOL    HW2 6846   6.346   4.051   5.817
 1983SOL     OW 6847   1.087   2.057   2.768
 1983SOL    HW1 6848   1.078   2.157   2.762
 1983SOL    HW2 6849   1.022   2.015   2.704
 1984SOL     OW 6850   5.303   0.208   5.354
 1984SOL    HW1 6851   5.356   0.139   5.305
 1984SOL    HW2 6852   5.255   0.164   5.430
 1985SOL     OW 6853   1.301   0.727   2.145
 1985SOL    HW1 6854   1.203   0.736   2.164
 1985SOL    HW2 6855   1.339   0.653   2.200
 1986SOL     OW 6856   1.243   0.551   0.623
 1986SOL    HW1 6857   1.206   0.461   0.648
 1986SOL    HW2 6858   1.342   0.543   0.609
 1987SOL     OW 6859   1.836   3.568   2.248
 1987SOL    HW1 6860   1.738   3.554   2.260
 1987SOL    HW2 6861   1.852   3.628   2.169
 1988SOL     OW 6862   4.288   4.758   0.781
 1988SOL    HW1 6863   4.215   4.701   0.743
 1988SOL    HW2 6864   4.377   4.715   0.760
 1989SOL     OW 6865   2.783   6.503   5.216
 1989SOL    HW1 6866   2.729   6.522   5.299
 1989SOL    HW2 6867   2.864   6.450   5.241
 1990SOL     OW 6868   3.574   0.040   1.175
 1990SOL    HW1 6869   3.655   0.097   1.162
 1990SOL    HW2 6870   3.528   0.067   1.260
 1991SOL     OW 6871   4.032   5.332   6.282
 1991SOL    HW1 6872   4.119   5.367   6.248
 1991SOL    HW2 6873   4.035   5.232   6.285
 1992SOL     OW 6874   1.401   0.007   6.740
 1992SOL    HW1 6875   1.379   7.014   6.837
 1992SOL    HW2 6876   1.319   0.033   6.689
 1993SOL     OW 6877   4.228   3.726   5.135
 1993SOL    HW1 6878   4.129   3.718   5.148
 1993SOL    HW2 6879   4.247   3.762   5.044
 1994SOL     OW 6880   1.566   2.150   1.376
 1994SOL    HW1 6881   1.578   2.101   1.290
 1994SOL    HW2 6882   1.523   2.238   1.358
 1995SOL     OW 6883   6.102   2.567   1.335
 1995SOL    HW1 6884   6.160   2.567   1.416
 1995SOL    HW2 6885   6.128   2.492   1.275
 1996SOL     OW 6886   2.954   3.745   0.693
 1996SOL    HW1 6887   2.960   3.787   0.603
 1996SOL    HW2 6888   3.036   3.691   0.711
 1997SOL     OW 6889   4.931   0.208   5.761
 1997SOL    HW1 6890   4.990   0.257   5.825
 1997SOL    HW2 6891   4.988   0.154   5.698
 1998SOL     OW 6892   3.259   3.751   5.648
 1998SOL    HW1 6893   3.160   3.738   5.642
 1998SOL    HW2 6894   3.305   3.673   5.606
 1999SOL     OW 6895   2.536   0.036   1.732
 1999SOL    HW1 6896   2.586   6.999   1.802
 1999SOL    HW2 6897   2.438   0.027   1.747
 2000SOL     OW 6898   3.757   2.056   5.814
 2000SOL    HW1 6899   3.699   2.043   5.895
 2000SOL    HW2 6900   3.727   2.136   5.763
 2001SOL     OW 6901   3.441   2.143   1.772
 2001SOL    HW1 6902   3.518   2.204   1.792
 2001SOL    HW2 6903   3.357   2.182   1.811
 2002SOL     OW 6904   0.743   5.810   6.225
 2002SOL    HW1 6905   0.805   5.847   6.156
 2002SOL    HW2 6906   0.649   5.841   6.205
 2003SOL     OW 6907   5.165   6.889   3.181
 2003SOL    HW1 6908   5.258   6.906   3.147
 2003SOL    HW2 6909   5.112   6.841   3.111
 2004SOL     OW 6910   5.196   1.136   5.136
 2004SOL    HW1 6911   5.148   1.126   5.050
 2004SOL    HW2 6912   5.135   1.177   5.204
 2005SOL     OW 6913   1.034   5.154   6.943
 2005SOL    HW1 6914   1.089   5.233   6.970
 2005SOL    HW2 6915   0.946   5.186   6.908
 2006SOL     OW 6916   5.071   4.226   3.823
 2006SOL    HW1 6917   4.977   4.194   3.837
 2006SOL    HW2 6918   5.133   4.171   3.878
 2007SOL     OW 6919   4.647   6.042   0.817
 2007SOL    HW1 6920   4.627   6.139   0.830
 2007SOL    HW2 6921   4.566   5.996   0.779
 2008SOL     OW 6922   0.941   5.796   3.005
 2008SOL    HW1 6923   0.865   5.838   3.055
 2008SOL    HW2 6924   0.973   5.859   2.934
 2009SOL     OW 6925   6.989   6.952   1.429
 2009SOL    HW1 6926   0.036   6.887   1.474
 2009SOL    HW2 6927   0.015   0.028   1.429
 2010SOL     OW 6928   1.127   1.122   1.082
 2010SOL    HW1 6929   1.096   1.202   1.030
 2010SOL    HW2 6930   1.207   1.082   1.037
 2011SOL     OW 6931   6.998   1.613   4.613
 2011SOL    HW1 6932   6.901   1.603   4.594
 2011SOL    HW2 6933   0.020   1.688   4.557
 2012SOL     OW 6934   0.816   3.094   1.391
 2012SOL    HW1 6935   0.887   3.066   1.326
 2012SOL    HW2 6936   0.860   3.141   1.468
 2013SOL     OW 6937   5.689   0.449   3.377
 2013SOL    HW1 6938   5.729   0.368   3.420
 2013SOL    HW2 6939   5.738   0.468   3.292
 2014SOL     OW 6940   1.675   5.328   3.212
 2014SOL    HW1 6941   1.750   5.265   3.232
 2014SOL    HW2 6942   1.653   5.325   3.115
 2015SOL     OW 6943   2.649   1.097   6.898
 2015SOL    HW1 6944   2.550   1.085   6.895
 2015SOL    HW2 6945   2.674   1.178   6.845
 2016SOL     OW 6946   0.804   5.263   5.416
 2016SOL    HW1 6947   0.805   5.240   5.513
 2016SOL    HW2 6948   0.735   5.334   5.400
 2017SOL     OW 6949   2.943   6.581   4.544
 2017SOL    HW1 6950   2.922   6.489   4.577
 2017SOL    HW2 6951   2.921   6.647   4.616
 2018SOL     OW 6952   5.935   6.136   6.399
 2018SOL    HW1 6953   5.981   6.047   6.407
 2018SOL    HW2 6954   5.845   6.131   6.442
 2019SOL     OW 6955   4.665   2.640   2.179
 2019SOL    HW1 6956   4.585   2.673   2.129
 2019SOL    HW2 6957   4.719   2.580   2.120
 2020SOL     OW 6958   1.110   5.070   5.096
 2020SOL    HW1 6959   1.198   5.035   5.129
 2020SOL    HW2 6960   1.106   5.062   4.997
 2021SOL     OW 6961   2.267   6.755   3.260
 2021SOL    HW1 6962   2.351   6.741   3.208
 2021SOL    HW2 6963   2.188   6.737   3.202
 2022SOL     OW 6964   2.062   3.583   2.377
 2022SOL    HW1 6965   1.973   3.576   2.331
 2022SOL    HW2 6966   2.132   3.610   2.311
 2023SOL     OW 6967   0.092   1.586   0.107
 2023SOL    HW1 6968   0.006   1.550   0.071
 2023SOL    HW2 6969   0.161   1.514   0.109
 2024SOL     OW 6970   0.229   0.790   2.471
 2024SOL    HW1 6971   0.222   0.888   2.454
 2024SOL    HW2 6972   0.166   0.764   2.544
 2025SOL     OW 6973   1.697   2.772   2.279
 2025SOL    HW1 6974   1.783   2.728   2.306
 2025SOL    HW2 6975   1.703   2.870   2.298
 2026SOL     OW 6976   1.546   2.474   5.995
 2026SOL    HW1 6977   1.543   2.391   6.051
 2026SOL    HW2 6978   1.528   2.451   5.900
 2027SOL     OW 6979   1.515   1.412   1.235
 2027SOL    HW1 6980   1.508   1.321   1.194
 2027SOL    HW2 6981   1.460   1.414   1.319
 2028SOL     OW 6982   3.317   1.381   6.444
 2028SOL    HW1 6983   3.257   1.461   6.444
 2028SOL    HW2 6984   3.375   1.384   6.526
 2029SOL     OW 6985   0.011   0.394   0.672
 2029SOL    HW1 6986   6.982   0.315   0.630
 2029SOL    HW2 6987   6.956   0.458   0.704
 2030SOL     OW 6988   2.414   0.740   3.405
 2030SOL    HW1 6989   2.318   0.760   3.386
 2030SOL    HW2 6990   2.423   0.643   3.428
 2031SOL     OW 6991   4.835   6.194   2.468
 2031SOL    HW1 6992   4.742   6.221   2.494
 2031SOL    HW2 6993   4.884   6.162   2.550
 2032SOL     OW 6994   3.887   6.422   1.800
 2032SOL    HW1 6995   3.830   6.388   1.725
 2032SOL    HW2 6996   3.945   6.497   1.766
 2033SOL     OW 6997   3.462   5.027   6.666
 2033SOL    HW1 6998   3.542   5.042   6.607
 2033SOL    HW2 6999   3.440   5.111   6.715
 2034SOL     OW 7000   3.242   0.252   4.579
 2034SOL    HW1 7001   3.272   0.160   4.552
 2034SOL    HW2 7002   3.159   0.245   4.634
 2035SOL     OW 7003   0.538   0.969   2.237
 2035SOL    HW1 7004   0.479   1.035   2.191
 2035SOL    HW2 7005   0.589   1.015   2.310
 2036SOL     OW 7006   0.599   5.789   3.442
 2036SOL    HW1 7007   0.652   5.836   3.371
 2036SOL    HW2 7008   0.517   5.843   3.463
 2037SOL     OW 7009   0.451   2.177   6.064
 2037SOL    HW1 7010   0.477   2.205   6.156
 2037SOL    HW2 7011   0.358   2.142   6.064
 2038SOL     OW 7012   1.183   1.313   6.686
 2038SOL    HW1 7013   1.201   1.406   6.716
 2038SOL    HW2 7014   1.259   1.254   6.713
 2039SOL     OW 7015   6.985   5.064   2.277
 2039SOL    HW1 7016   6.919   5.036   2.346
 2039SOL    HW2 7017   6.960   5.154   2.241
 2040SOL     OW 7018   3.192   2.850   5.174
 2040SOL    HW1 7019   3.289   2.859   5.152
 2040SOL    HW2 7020   3.174   2.758   5.208
 2041SOL     OW 7021   6.619   6.187   5.913
 2041SOL    HW1 7022   6.653   6.194   5.819
 2041SOL    HW2 7023   6.671   6.117   5.962
 2042SOL     OW 7024   5.993   5.470   0.093
 2042SOL    HW1 7025   6.086   5.505   0.087
 2042SOL    HW2 7026   5.995   5.377   0.131
 2043SOL     OW 7027   6.669   4.184   2.175
 2043SOL    HW1 7028   6.615   4.194   2.259
 2043SOL    HW2 7029   6.639   4.102   2.126
 2044SOL     OW 7030   4.713   0.314   1.971
 2044SOL    HW1 7031   4.713   0.369   1.888
 2044SOL    HW2 7032   4.631   0.335   2.025
 2045SOL     OW 7033   1.732   4.654   5.028
 2045SOL    HW1 7034   1.730   4.556   5.047
 2045SOL    HW2 7035   1.765   4.670   4.935
 2046SOL     OW 7036   6.471   0.956   4.273
 2046SOL    HW1 7037   6.534   0.892   4.229
 2046SOL    HW2 7038   6.379   0.945   4.234
 2047SOL     OW 7039   4.450   2.189   0.346
 2047SOL    HW1 7040   4.434   2.275   0.394
 2047SOL    HW2 7041   4.487   2.122   0.409
 2048SOL     OW 7042   2.507   5.398   0.612
 2048SOL    HW1 7043   2.425   5.405   0.667
 2048SOL    HW2 7044   2.519   5.303   0.582
 2049SOL     OW 7045   4.562   1.620   6.238
 2049SOL    HW1 7046   4.615   1.589   6.318
 2049SOL    HW2 7047   4.624   1.658   6.170
 2050SOL     OW 7048   6.145   2.298   3.461
 2050SOL    HW1 7049   6.169   2.312   3.557
 2050SOL    HW2 7050   6.115   2.204   3.448
 2051SOL     OW 7051   0.211   5.158   0.500
 2051SOL    HW1 7052   0.238   5.255   0.496
 2051SOL    HW2 7053   0.128   5.150   0.555
 2052SOL     OW 7054   0.564   4.213   0.575
 2052SOL    HW1 7055   0.521   4.222   0.665
 2052SOL    HW2 7056   0.506   4.160   0.515
 2053SOL     OW 7057   6.216   0.506   6.757
 2053SOL    HW1 7058   6.298   0.451   6.739
 2053SOL    HW2 7059   6.163   0.515   6.673
 2054SOL     OW 7060   4.793   3.134   1.707
 2054SOL    HW1 7061   4.753   3.067   1.645
 2054SOL    HW2 7062   4.770   3.109   1.801
 2055SOL     OW 7063   6.094   3.099   2.988
 2055SOL    HW1 7064   6.000   3.113   3.020
 2055SOL    HW2 7065   6.151   3.176   3.019
 2056SOL     OW 7066   2.318   0.894   2.815
 2056SOL    HW1 7067   2.348   0.939   2.899
 2056SOL    HW2 7068   2.260   0.816   2.837
 2057SOL     OW 7069   5.523   2.270   3.416
 2057SOL    HW1 7070   5.465   2.268   3.497
 2057SOL    HW2 7071   5.593   2.340   3.426
 2058SOL     OW 7072   1.133   1.514   3.131
 2058SOL    HW1 7073   1.100   1.596   3.084
 2058SOL    HW2 7074   1.131   1.529   3.230
 2059SOL     OW 7075   2.754   6.375   6.522
 2059SOL    HW1 7076   2.662   6.376   6.563
 2059SOL    HW2 7077   2.812   6.312   6.573
 2060SOL     OW 7078   6.555   4.233   0.614
 2060SOL    HW1 7079   6.534   4.196   0.523
 2060SOL    HW2 7080   6.634   4.185   0.652
 2061SOL     OW 7081   0.786   1.608   3.116
 2061SOL    HW1 7082   0.863   1.632   3.057
 2061SOL    HW2 7083   0.808   1.526   3.169
 2062SOL     OW 7084   5.754   0.051   3.385
 2062SOL    HW1 7085   5.786   0.035   3.291
 2062SOL    HW2 7086   5.785   6.991   3.443
 2063SOL     OW 7087   1.660   0.576   6.128
 2063SOL    HW1 7088   1.719   0.594   6.207
 2063SOL    HW2 7089   1.717   0.566   6.046
 2064SOL     OW 7090   1.040   1.550   5.867
 2064SOL    HW1 7091   1.133   1.588   5.865
 2064SOL    HW2 7092   1.043   1.453   5.845
 2065SOL     OW 7093   6.507   3.456   2.582
 2065SOL    HW1 7094   6.424   3.400   2.580
 2065SOL    HW2 7095   6.580   3.407   2.629
 2066SOL     OW 7096   0.483   6.060   3.823
 2066SOL    HW1 7097   0.409   6.047   3.889
 2066SOL    HW2 7098   0.546   5.982   3.828
 2067SOL     OW 7099   6.447   5.980   0.630
 2067SOL    HW1 7100   6.495   5.915   0.570
 2067SOL    HW2 7101   6.510   6.012   0.701
 2068SOL     OW 7102   1.228   1.630   5.207
 2068SOL    HW1 7103   1.300   1.654   5.271
 2068SOL    HW2 7104   1.233   1.689   5.127
 2069SOL     OW 7105   0.986   2.981   3.745
 2069SOL    HW1 7106   1.017   3.072   3.717
 2069SOL    HW2 7107   1.014   2.914   3.677
 2070SOL     OW 7108   1.497   0.434   2.634
 2070SOL    HW1 7109   1.536   0.440   2.726
 2070SOL    HW2 7110   1.398   0.445   2.639
 2071SOL     OW 7111   6.644   5.992   5.381
 2071SOL    HW1 7112   6.581   5.997   5.458
 2071SOL    HW2 7113   6.620   6.061   5.313
 2072SOL     OW 7114   4.238   6.611   2.147
 2072SOL    HW1 7115   4.239   6.511   2.149
 2072SOL    HW2 7116   4.172   6.645   2.213
 2073SOL     OW 7117   3.558   0.131   4.311
 2073SOL    HW1 7118   3.562   0.031   4.303
 2073SOL    HW2 7119   3.635   0.163   4.367
 2074SOL     OW 7120   1.031   3.234   0.639
 2074SOL    HW1 7121   1.044   3.176   0.719
 2074SOL    HW2 7122   1.046   3.330   0.663
 2075SOL     OW 7123   5.096   3.190   1.599
 2075SOL    HW1 7124   5.130   3.127   1.529
 2075SOL    HW2 7125   4.996   3.184   1.604
 2076SOL     OW 7126   4.809   6.872   6.795
 2076SOL    HW1 7127   4.847   6.876   6.702
 2076SOL    HW2 7128   4.839   6.953   6.846
 2077SOL     OW 7129   5.310   2.227   2.703
 2077SOL    HW1 7130   5.350   2.311   2.740
 2077SOL    HW2 7131   5.234   2.198   2.762
 2078SOL     OW 7132   1.561   6.321   6.407
 2078SOL    HW1 7133   1.514   6.246   6.360
 2078SOL    HW2 7134   1.520   6.334   6.497
 2079SOL     OW 7135   5.671   1.268   3.208
 2079SOL    HW1 7136   5.770   1.259   3.220
 2079SOL    HW2 7137   5.635   1.335   3.274
 2080SOL     OW 7138   1.352   0.815   4.506
 2080SOL    HW1 7139   1.341   0.716   4.509
 2080SOL    HW2 7140   1.410   0.844   4.582
 2081SOL     OW 7141   2.187   5.454   4.812
 2081SOL    HW1 7142   2.211   5.521   4.881
 2081SOL    HW2 7143   2.268   5.400   4.788
 2082SOL     OW 7144   6.866   0.295   3.060
 2082SOL    HW1 7145   6.875   0.346   3.146
 2082SOL    HW2 7146   6.787   0.235   3.065
 2083SOL     OW 7147   4.677   4.677   6.476
 2083SOL    HW1 7148   4.672   4.772   6.507
 2083SOL    HW2 7149   4.735   4.672   6.394
 2084SOL     OW 7150   6.876   4.096   4.392
 2084SOL    HW1 7151   6.906   4.166   4.456
 2084SOL    HW2 7152   6.919   4.111   4.303
 2085SOL     OW 7153   4.864   0.841   6.726
 2085SOL    HW1 7154   4.955   0.810   6.700
 2085SOL    HW2 7155   4.869   0.936   6.758
 2086SOL     OW 7156   3.471   6.901   5.326
 2086SOL    HW1 7157   3.548   6.852   5.367
 2086SOL    HW2 7158   3.444   6.856   5.241
 2087SOL     OW 7159   5.077   6.930   1.837
 2087SOL    HW1 7160   5.135   6.897   1.911
 2087SOL    HW2 7161   5.011   6.859   1.812
 2088SOL     OW 7162   2.859   6.229   0.640
 2088SOL    HW1 7163   2.782   6.266   0.587
 2088SOL    HW2 7164   2.830   6.218   0.736
 2089SOL     OW 7165   5.254   2.334   6.644
 2089SOL    HW1 7166   5.200   2.295   6.570
 2089SOL    HW2 7167   5.215   2.422   6.671
 2090SOL     OW 7168   3.549   3.721   5.394
 2090SOL    HW1 7169   3.599   3.667   5.463
 2090SOL    HW2 7170   3.487   3.660   5.344
 2091SOL     OW 7171   6.790   5.400   0.118
 2091SOL    HW1 7172   6.828   5.461   0.188
 2091SOL    HW2 7173   6.740   5.326   0.163
 2092SOL     OW 7174   4.425   4.699   6.891
 2092SOL    HW1 7175   4.416   4.666   6.984
 2092SOL    HW2 7176   4.337   4.695   6.845
 2093SOL     OW 7177   2.595   2.333   1.901
 2093SOL    HW1 7178   2.653   2.315   1.981
 2093SOL    HW2 7179   2.640   2.400   1.842
 2094SOL     OW 7180   5.998   1.756   0.823
 2094SOL    HW1 7181   5.971   1.819   0.896
 2094SOL    HW2 7182   6.091   1.778   0.793
 2095SOL     OW 7183   5.195   0.267   5.076
 2095SOL    HW1 7184   5.192   0.180   5.126
 2095SOL    HW2 7185   5.186   0.249   4.978
 2096SOL     OW 7186   4.490   4.477   2.787
 2096SOL    HW1 7187   4.402   4.521   2.774
 2096SOL    HW2 7188   4.564   4.540   2.763
 2097SOL     OW 7189   1.684   3.070   6.583
 2097SOL    HW1 7190   1.615   3.140   6.600
 2097SOL    HW2 7191   1.775   3.109   6.596
 2098SOL     OW 7192   4.051   5.401   3.531
 2098SOL    HW1 7193   4.069   5.387   3.628
 2098SOL    HW2 7194   3.952   5.403   3.516
 2099SOL     OW 7195   2.814   3.196   5.229
 2099SOL    HW1 7196   2.872   3.119   5.255
 2099SOL    HW2 7197   2.723   3.163   5.207
 2100SOL     OW 7198   4.293   3.212   5.831
 2100SOL    HW1 7199   4.285   3.268   5.749
 2100SOL    HW2 7200   4.202   3.180   5.858
 2101SOL     OW 7201   1.803   5.949   3.143
 2101SOL    HW1 7202   1.795   5.969   3.241
 2101SOL    HW2 7203   1.731   5.884   3.116
 2102SOL     OW 7204   6.114   4.856   1.982
 2102SOL    HW1 7205   6.173   4.825   1.907
 2102SOL    HW2 7206   6.146   4.945   2.014
 2103SOL     OW 7207   2.966   3.756   6.123
 2103SOL    HW1 7208   2.915   3.673   6.103
 2103SOL    HW2 7209   3.053   3.756   6.073
 2104SOL     OW 7210   1.258   3.155   0.507
 2104SOL    HW1 7211   1.160   3.173   0.516
 2104SOL    HW2 7212   1.307   3.242   0.507
 2105SOL     OW 7213   5.013   5.479   4.519
 2105SOL    HW1 7214   5.091   5.521   4.472
 2105SOL    HW2 7215   5.034   5.383   4.539
 2106SOL     OW 7216   4.547   4.333   0.672
 2106SOL    HW1 7217   4.608   4.329   0.593
 2106SOL    HW2 7218   4.534   4.241   0.709
 2107SOL     OW 7219   5.424   2.940   5.573
 2107SOL    HW1 7220   5.516   2.975   5.589
 2107SOL    HW2 7221   5.369   2.952   5.656
 2108SOL     OW 7222   6.987   6.245   5.163
 2108SOL    HW1 7223   0.046   6.290   5.213
 2108SOL    HW2 7224   6.964   6.159   5.208
 2109SOL     OW 7225   4.389   6.342   3.223
 2109SOL    HW1 7226   4.354   6.372   3.312
 2109SOL    HW2 7227   4.319   6.357   3.153
 2110SOL     OW 7228   3.022   2.292   6.579
 2110SOL    HW1 7229   3.079   2.220   6.618
 2110SOL    HW2 7230   2.965   2.254   6.506
 2111SOL     OW 7231   1.624   2.200   0.032
 2111SOL    HW1 7232   1.612   2.235   0.125
 2111SOL    HW2 7233   1.685   2.261   6.996
 2112SOL     OW 7234   5.344   2.573   0.518
 2112SOL    HW1 7235   5.367   2.541   0.610
 2112SOL    HW2 7236   5.246   2.593   0.513
 2113SOL     OW 7237   0.915   0.765   5.474
 2113SOL    HW1 7238   0.844   0.835   5.480
 2113SOL    HW2 7239   0.918   0.713   5.558
 2114SOL     OW 7240   1.924   2.779   0.885
 2114SOL    HW1 7241   1.937   2.862   0.831
 2114SOL    HW2 7242   1.890   2.804   0.976
 2115SOL     OW 7243   2.113   3.519   2.641
 2115SOL    HW1 7244   2.204   3.480   2.634
 2115SOL    HW2 7245   2.088   3.563   2.555
 2116SOL     OW 7246   0.441   5.238   3.241
 2116SOL    HW1 7247   0.531   5.195   3.232
 2116SOL    HW2 7248   0.427   5.301   3.165
 2117SOL     OW 7249   6.798   4.641   1.734
 2117SOL    HW1 7250   6.871   4.574   1.724
 2117SOL    HW2 7251   6.773   4.651   1.830
 2118SOL     OW 7252   6.578   3.122   1.282
 2118SOL    HW1 7253   6.541   3.038   1.321
 2118SOL    HW2 7254   6.663   3.102   1.234
 2119SOL     OW 7255   2.478   5.866   1.322
 2119SOL    HW1 7256   2.397   5.869   1.263
 2119SOL    HW2 7257   2.480   5.779   1.372
 2120SOL     OW 7258   0.313   4.629   4.228
 2120SOL    HW1 7259   0.366   4.647   4.311
 2120SOL    HW2 7260   0.350   4.547   4.183
 2121SOL     OW 7261   1.165   3.982   5.625
 2121SOL    HW1 7262   1.081   3.995   5.679
 2121SOL    HW2 7263   1.171   3.888   5.594
 2122SOL     OW 7264   5.080   4.126   6.033
 2122SOL    HW1 7265   5.007   4.119   6.101
 2122SOL    HW2 7266   5.055   4.194   5.964
 2123SOL     OW 7267   6.793   5.519   2.024
 2123SOL    HW1 7268   6.738   5.480   1.950
 2123SOL    HW2 7269   6.799   5.453   2.099
 2124SOL     OW 7270   2.924   1.749   1.561
 2124SOL    HW1 7271   2.928   1.706   1.651
 2124SOL    HW2 7272   2.981   1.699   1.497
 2125SOL     OW 7273   1.881   0.658   1.519
 2125SOL    HW1 7274   1.953   0.695   1.461
 2125SOL    HW2 7275   1.878   0.559   1.509
 2126SOL     OW 7276   3.948   0.886   6.883
 2126SOL    HW1 7277   4.045   0.868   6.867
 2126SOL    HW2 7278   3.927   0.980   6.860
 2127SOL     OW 7279   6.507   3.165   4.356
 2127SOL    HW1 7280   6.600   3.195   4.377
 2127SOL    HW2 7281   6.466   3.126   4.439
 2128SOL     OW 7282   6.574   3.362   3.646
 2128SOL    HW1 7283   6.624   3.305   3.580
 2128SOL    HW2 7284   6.479   3.333   3.650
 2129SOL     OW 7285   4.549   3.638   5.827
 2129SOL    HW1 7286   4.451   3.637   5.809
 2129SOL    HW2 7287   4.599   3.638   5.740
 2130SOL     OW 7288   3.274   0.991   2.036
 2130SOL    HW1 7289   3.364   1.005   2.079
 2130SOL    HW2 7290   3.218   0.933   2.095
 2131SOL     OW 7291   6.317   0.011   0.306
 2131SOL    HW1 7292   6.314   6.965   0.385
 2131SOL    HW2 7293   6.237   7.012   0.248
 2132SOL     OW 7294   3.975   1.937   1.516
 2132SOL    HW1 7295   3.883   1.971   1.535
 2132SOL    HW2 7296   4.036   1.965   1.591
 2133SOL     OW 7297   2.674   3.247   6.664
 2133SOL    HW1 7298   2.746   3.284   6.723
 2133SOL    HW2 7299   2.597   3.310   6.663
 2134SOL     OW 7300   0.212   2.732   0.176
 2134SOL    HW1 7301   0.309   2.721   0.158
 2134SOL    HW2 7302   0.163   2.749   0.090
 2135SOL     OW 7303   6.983   4.001   4.125
 2135SOL    HW1 7304   0.011   3.918   4.090
 2135SOL    HW2 7305   6.912   4.031   4.061
 2136SOL     OW 7306   1.540   4.095   2.705
 2136SOL    HW1 7307   1.516   4.190   2.683
 2136SOL    HW2 7308   1.464   4.052   2.753
 2137SOL     OW 7309   2.891   5.713   5.466
 2137SOL    HW1 7310   2.900   5.811   5.487
 2137SOL    HW2 7311   2.951   5.660   5.525
 2138SOL     OW 7312   6.621   6.556   2.811
 2138SOL    HW1 7313   6.557   6.531   2.738
 2138SOL    HW2 7314   6.599   6.648   2.844
 2139SOL     OW 7315   4.465   0.777   3.666
 2139SOL    HW1 7316   4.524   0.835   3.611
 2139SOL    HW2 7317   4.437   0.826   3.749
 2140SOL     OW 7318   3.366   0.459   4.143
 2140SOL    HW1 7319   3.339   0.408   4.225
 2140SOL    HW2 7320   3.293   0.454   4.075
 2141SOL     OW 7321   6.509   3.169   2.141
 2141SOL    HW1 7322   6.468   3.129   2.060
 2141SOL    HW2 7323   6.567   3.101   2.187
 2142SOL     OW 7324   1.406   1.349   3.474
 2142SOL    HW1 7325   1.419   1.316   3.568
 2142SOL    HW2 7326   1.481   1.410   3.450
 2143SOL     OW 7327   3.230   4.848   1.392
 2143SOL    HW1 7328   3.322   4.886   1.398
 2143SOL    HW2 7329   3.235   4.748   1.390
 2144SOL     OW 7330   0.345   5.437   4.575
 2144SOL    HW1 7331   0.421   5.386   4.535
 2144SOL    HW2 7332   0.258   5.395   4.547
 2145SOL     OW 7333   3.790   6.633   4.208
 2145SOL    HW1 7334   3.727   6.559   4.232
 2145SOL    HW2 7335   3.801   6.695   4.286
 2146SOL     OW 7336   2.233   3.567   0.717
 2146SOL    HW1 7337   2.211   3.593   0.811
 2146SOL    HW2 7338   2.212   3.471   0.702
 2147SOL     OW 7339   6.193   1.644   6.209
 2147SOL    HW1 7340   6.255   1.685   6.276
 2147SOL    HW2 7341   6.102   1.684   6.220
 2148SOL     OW 7342   6.200   3.511   6.286
 2148SOL    HW1 7343   6.185   3.498   6.384
 2148SOL    HW2 7344   6.213   3.608   6.266
 2149SOL     OW 7345   2.478   1.634   1.054
 2149SOL    HW1 7346   2.447   1.729   1.066
 2149SOL    HW2 7347   2.402   1.572   1.069
 2150SOL     OW 7348   2.465   2.463   2.250
 2150SOL    HW1 7349   2.553   2.424   2.279
 2150SOL    HW2 7350   2.394   2.393   2.257
 2151SOL     OW 7351   1.941   6.797   6.397
 2151SOL    HW1 7352   1.908   6.880   6.351
 2151SOL    HW2 7353   1.878   6.772   6.470
 2152SOL     OW 7354   3.496   4.892   2.336
 2152SOL    HW1 7355   3.511   4.991   2.334
 2152SOL    HW2 7356   3.422   4.868   2.273
 2153SOL     OW 7357   4.577   1.441   2.867
 2153SOL    HW1 7358   4.561   1.359   2.813
 2153SOL    HW2 7359   4.654   1.492   2.829
 2154SOL     OW 7360   5.170   0.385   4.585
 2154SOL    HW1 7361   5.178   0.476   4.626
 2154SOL    HW2 7362   5.086   0.380   4.530
 2155SOL     OW 7363   3.927   6.559   1.363
 2155SOL    HW1 7364   4.008   6.590   1.313
 2155SOL    HW2 7365   3.844   6.586   1.312
 2156SOL     OW 7366   0.412   1.285   4.941
 2156SOL    HW1 7367   0.317   1.273   4.970
 2156SOL    HW2 7368   0.449   1.369   4.981
 2157SOL     OW 7369   6.063   6.778   2.693
 2157SOL    HW1 7370   6.027   6.712   2.628
 2157SOL    HW2 7371   6.079   6.733   2.781
 2158SOL     OW 7372   3.710   6.005   1.011
 2158SOL    HW1 7373   3.685   6.047   0.924
 2158SOL    HW2 7374   3.669   5.914   1.017
 2159SOL     OW 7375   1.544   0.677   4.879
 2159SOL    HW1 7376   1.537   0.742   4.804
 2159SOL    HW2 7377   1.625   0.620   4.867
 2160SOL     OW 7378   4.654   4.100   6.959
 2160SOL    HW1 7379   4.725   4.029   6.957
 2160SOL    HW2 7380   4.639   4.133   6.865
 2161SOL     OW 7381   5.871   4.465   2.251
 2161SOL    HW1 7382   5.890   4.369   2.271
 2161SOL    HW2 7383   5.855   4.514   2.337
 2162SOL     OW 7384   3.530   0.534   2.181
 2162SOL    HW1 7385   3.509   0.631   2.186
 2162SOL    HW2 7386   3.449   0.484   2.149
 2163SOL     OW 7387   1.890   4.230   0.290
 2163SOL    HW1 7388   1.898   4.142   0.242
 2163SOL    HW2 7389   1.794   4.257   0.294
 2164SOL     OW 7390   1.654   1.655   6.442
 2164SOL    HW1 7391   1.693   1.730   6.496
 2164SOL    HW2 7392   1.699   1.652   6.353
 2165SOL     OW 7393   6.978   2.157   3.458
 2165SOL    HW1 7394   6.987   2.096   3.536
 2165SOL    HW2 7395   6.889   2.143   3.414
 2166SOL     OW 7396   1.552   2.683   4.847
 2166SOL    HW1 7397   1.582   2.758   4.907
 2166SOL    HW2 7398   1.486   2.626   4.896
 2167SOL     OW 7399   1.881   2.003   3.751
 2167SOL    HW1 7400   1.929   2.083   3.788
 2167SOL    HW2 7401   1.810   1.975   3.815
 2168SOL     OW 7402   0.890   1.578   3.430
 2168SOL    HW1 7403   0.839   1.530   3.501
 2168SOL    HW2 7404   0.977   1.532   3.415
 2169SOL     OW 7405   5.632   2.334   6.905
 2169SOL    HW1 7406   5.661   2.372   6.994
 2169SOL    HW2 7407   5.640   2.234   6.908
 2170SOL     OW 7408   6.734   4.249   4.747
 2170SOL    HW1 7409   6.820   4.275   4.704
 2170SOL    HW2 7410   6.677   4.201   4.680
 2171SOL     OW 7411   0.240   5.420   1.451
 2171SOL    HW1 7412   0.269   5.424   1.547
 2171SOL    HW2 7413   0.153   5.372   1.445
 2172SOL     OW 7414   2.093   2.028   6.658
 2172SOL    HW1 7415   2.096   1.931   6.681
 2172SOL    HW2 7416   2.187   2.061   6.645
 2173SOL     OW 7417   4.395   0.659   5.586
 2173SOL    HW1 7418   4.348   0.728   5.642
 2173SOL    HW2 7419   4.481   0.697   5.552
 2174SOL     OW 7420   6.757   5.523   5.148
 2174SOL    HW1 7421   6.696   5.492   5.221
 2174SOL    HW2 7422   6.753   5.459   5.071
 2175SOL     OW 7423   1.654   2.588   4.272
 2175SOL    HW1 7424   1.678   2.522   4.343
 2175SOL    HW2 7425   1.604   2.665   4.313
 2176SOL     OW 7426   5.585   2.183   0.471
 2176SOL    HW1 7427   5.572   2.160   0.568
 2176SOL    HW2 7428   5.581   2.099   0.416
 2177SOL     OW 7429   0.009   1.622   2.541
 2177SOL    HW1 7430   0.010   1.681   2.622
 2177SOL    HW2 7431   6.941   1.638   2.489
 2178SOL     OW 7432   1.592   1.837   2.080
 2178SOL    HW1 7433   1.568   1.798   2.168
 2178SOL    HW2 7434   1.510   1.845   2.023
 2179SOL     OW 7435   1.879   5.030   5.733
 2179SOL    HW1 7436   1.885   5.095   5.809
 2179SOL    HW2 7437   1.904   5.076   5.648
 2180SOL     OW 7438   1.664   2.698   1.995
 2180SOL    HW1 7439   1.664   2.786   2.042
 2180SOL    HW2 7440   1.649   2.624   2.061
 2181SOL     OW 7441   4.570   4.887   4.457
 2181SOL    HW1 7442   4.606   4.877   4.365
 2181SOL    HW2 7443   4.620   4.958   4.506
 2182SOL     OW 7444   1.499   4.008   3.635
 2182SOL    HW1 7445   1.457   4.099   3.633
 2182SOL    HW2 7446   1.475   3.962   3.721
 2183SOL     OW 7447   2.249   4.616   6.801
 2183SOL    HW1 7448   2.195   4.608   6.885
 2183SOL    HW2 7449   2.193   4.655   6.729
 2184SOL     OW 7450   4.716   1.086   5.885
 2184SOL    HW1 7451   4.750   1.152   5.952
 2184SOL    HW2 7452   4.722   1.126   5.794
 2185SOL     OW 7453   0.727   0.452   0.876
 2185SOL    HW1 7454   0.742   0.428   0.780
 2185SOL    HW2 7455   0.650   0.515   0.883
 2186SOL     OW 7456   6.425   5.300   0.340
 2186SOL    HW1 7457   6.348   5.249   0.300
 2186SOL    HW2 7458   6.395   5.391   0.367
 2187SOL     OW 7459   6.969   5.706   2.366
 2187SOL    HW1 7460   6.877   5.729   2.333
 2187SOL    HW2 7461   0.008   5.790   2.375
 2188SOL     OW 7462   6.995   5.611   5.251
 2188SOL    HW1 7463   0.042   5.542   5.215
 2188SOL    HW2 7464   6.903   5.593   5.216
 2189SOL     OW 7465   2.181   0.198   1.624
 2189SOL    HW1 7466   2.093   0.161   1.655
 2189SOL    HW2 7467   2.228   0.240   1.702
 2190SOL     OW 7468   6.985   3.294   1.999
 2190SOL    HW1 7469   0.044   3.359   1.982
 2190SOL    HW2 7470   6.938   3.319   2.083
 2191SOL     OW 7471   2.871   1.771   6.285
 2191SOL    HW1 7472   2.938   1.837   6.320
 2191SOL    HW2 7473   2.898   1.679   6.312
 2192SOL     OW 7474   4.847   1.058   2.509
 2192SOL    HW1 7475   4.906   1.118   2.564
 2192SOL    HW2 7476   4.781   1.113   2.459
 2193SOL     OW 7477   5.872   7.012   6.800
 2193SOL    HW1 7478   5.871   6.983   6.896
 2193SOL    HW2 7479   5.964   0.022   6.773
 2194SOL     OW 7480   2.171   4.613   6.100
 2194SOL    HW1 7481   2.264   4.593   6.131
 2194SOL    HW2 7482   2.129   4.528   6.067
 2195SOL     OW 7483   6.725   0.127   5.277
 2195SOL    HW1 7484   6.649   0.115   5.341
 2195SOL    HW2 7485   6.797   0.182   5.319
 2196SOL     OW 7486   3.739   0.479   4.639
 2196SOL    HW1 7487   3.785   0.539   4.705
 2196SOL    HW2 7488   3.664   0.431   4.685
 2197SOL     OW 7489   2.881   3.347   6.803
 2197SOL    HW1 7490   2.976   3.316   6.814
 2197SOL    HW2 7491   2.830   3.328   6.887
 2198SOL     OW 7492   5.374   0.290   1.005
 2198SOL    HW1 7493   5.328   0.260   0.922
 2198SOL    HW2 7494   5.414   0.210   1.052
 2199SOL     OW 7495   5.330   6.305   3.765
 2199SOL    HW1 7496   5.300   6.394   3.800
 2199SOL    HW2 7497   5.297   6.232   3.825
 2200SOL     OW 7498   2.119   1.953   3.988
 2200SOL    HW1 7499   2.077   2.038   3.958
 2200SOL    HW2 7500   2.158   1.905   3.909
 2201SOL     OW 7501   6.408   2.895   3.513
 2201SOL    HW1 7502   6.361   2.837   3.580
 2201SOL    HW2 7503   6.493   2.930   3.553
 2202SOL     OW 7504   3.486   5.416   2.145
 2202SOL    HW1 7505   3.395   5.452   2.126
 2202SOL    HW2 7506   3.538   5.412   2.059
 2203SOL     OW 7507   2.082   3.105   1.110
 2203SOL    HW1 7508   2.143   3.157   1.171
 2203SOL    HW2 7509   2.137   3.050   1.047
 2204SOL     OW 7510   5.014   1.858   1.203
 2204SOL    HW1 7511   5.108   1.864   1.171
 2204SOL    HW2 7512   4.953   1.838   1.126
 2205SOL     OW 7513   0.674   6.508   6.454
 2205SOL    HW1 7514   0.747   6.441   6.464
 2205SOL    HW2 7515   0.673   6.569   6.533
 2206SOL     OW 7516   3.546   5.168   5.686
 2206SOL    HW1 7517   3.466   5.225   5.707
 2206SOL    HW2 7518   3.514   5.080   5.648
 2207SOL     OW 7519   2.686   5.122   6.488
 2207SOL    HW1 7520   2.695   5.221   6.485
 2207SOL    HW2 7521   2.775   5.080   6.475
 2208SOL     OW 7522   1.319   4.989   3.355
 2208SOL    HW1 7523   1.281   4.899   3.333
 2208SOL    HW2 7524   1.357   5.030   3.271
 2209SOL     OW 7525   1.450   0.051   5.697
 2209SOL    HW1 7526   1.449   6.993   5.629
 2209SOL    HW2 7527   1.396   0.024   5.777
 2210SOL     OW 7528   0.173   4.251   4.323
 2210SOL    HW1 7529   0.172   4.314   4.245
 2210SOL    HW2 7530   0.133   4.163   4.295
 2211SOL     OW 7531   6.338   0.462   0.550
 2211SOL    HW1 7532   6.278   0.443   0.627
 2211SOL    HW2 7533   6.282   0.485   0.469
 2212SOL     OW 7534   2.733   5.928   0.672
 2212SOL    HW1 7535   2.828   5.921   0.701
 2212SOL    HW2 7536   2.675   5.880   0.738
 2213SOL     OW 7537   3.478   1.362   5.138
 2213SOL    HW1 7538   3.389   1.402   5.118
 2213SOL    HW2 7539   3.550   1.426   5.111
 2214SOL     OW 7540   3.215   4.103   4.752
 2214SOL    HW1 7541   3.199   4.007   4.774
 2214SOL    HW2 7542   3.184   4.160   4.829
 2215SOL     OW 7543   5.798   1.515   0.090
 2215SOL    HW1 7544   5.751   1.603   0.083
 2215SOL    HW2 7545   5.734   1.441   0.065
 2216SOL     OW 7546   1.582   0.806   6.794
 2216SOL    HW1 7547   1.626   0.848   6.715
 2216SOL    HW2 7548   1.517   0.737   6.763
 2217SOL     OW 7549   4.059   0.050   2.406
 2217SOL    HW1 7550   3.993   0.011   2.341
 2217SOL    HW2 7551   4.152   0.027   2.377
 2218SOL     OW 7552   6.684   5.284   6.905
 2218SOL    HW1 7553   6.722   5.333   6.983
 2218SOL    HW2 7554   6.708   5.331   6.820
 2219SOL     OW 7555   5.637   1.413   0.826
 2219SOL    HW1 7556   5.714   1.350   0.837
 2219SOL    HW2 7557   5.574   1.402   0.902
 2220SOL     OW 7558   2.435   6.305   5.132
 2220SOL    HW1 7559   2.349   6.278   5.177
 2220SOL    HW2 7560   2.504   6.234   5.147
 2221SOL     OW 7561   6.037   1.685   5.418
 2221SOL    HW1 7562   6.026   1.629   5.336
 2221SOL    HW2 7563   6.120   1.740   5.410
 2222SOL     OW 7564   5.446   0.620   0.574
 2222SOL    HW1 7565   5.381   0.576   0.636
 2222SOL    HW2 7566   5.485   0.701   0.619
 2223SOL     OW 7567   5.624   1.337   5.725
 2223SOL    HW1 7568   5.657   1.290   5.807
 2223SOL    HW2 7569   5.654   1.287   5.644
 2224SOL     OW 7570   6.981   3.547   0.687
 2224SOL    HW1 7571   0.023   3.491   0.747
 2224SOL    HW2 7572   6.910   3.593   0.742
 2225SOL     OW 7573   6.220   6.769   3.842
 2225SOL    HW1 7574   6.209   6.740   3.937
 2225SOL    HW2 7575   6.187   6.698   3.781
 2226SOL     OW 7576   3.845   5.571   0.767
 2226SOL    HW1 7577   3.922   5.603   0.823
 2226SOL    HW2 7578   3.770   5.542   0.828
 2227SOL     OW 7579   5.559   2.993   0.048
 2227SOL    HW1 7580   5.525   3.080   0.084
 2227SOL    HW2 7581   5.523   2.979   6.971
 2228SOL     OW 7582   4.423   5.401   1.058
 2228SOL    HW1 7583   4.397   5.489   1.017
 2228SOL    HW2 7584   4.366   5.384   1.139
 2229SOL     OW 7585   4.473   2.476   5.461
 2229SOL    HW1 7586   4.519   2.561   5.487
 2229SOL    HW2 7587   4.376   2.482   5.485
 2230SOL     OW 7588   5.953   6.466   0.448
 2230SOL    HW1 7589   6.043   6.456   0.491
 2230SOL    HW2 7590   5.909   6.549   0.481
 2231SOL     OW 7591   0.142   1.021   1.542
 2231SOL    HW1 7592   0.091   0.982   1.466
 2231SOL    HW2 7593   0.113   1.116   1.556
 2232SOL     OW 7594   1.020   2.143   4.437
 2232SOL    HW1 7595   0.938   2.142   4.495
 2232SOL    HW2 7596   0.992   2.144   4.341
 2233SOL     OW 7597   2.190   2.627   0.259
 2233SOL    HW1 7598   2.213   2.554   0.324
 2233SOL    HW2 7599   2.126   2.690   0.302
 2234SOL     OW 7600   4.574   1.694   1.155
 2234SOL    HW1 7601   4.558   1.600   1.186
 2234SOL    HW2 7602   4.603   1.750   1.233
 2235SOL     OW 7603   2.993   0.427   1.565
 2235SOL    HW1 7604   3.040   0.341   1.541
 2235SOL    HW2 7605   3.060   0.500   1.572
 2236SOL     OW 7606   2.181   3.900   6.797
 2236SOL    HW1 7607   2.139   3.809   6.799
 2236SOL    HW2 7608   2.267   3.895   6.745
 2237SOL     OW 7609   5.957   4.450   3.718
 2237SOL    HW1 7610   5.926   4.355   3.711
 2237SOL    HW2 7611   5.884   4.506   3.757
 2238SOL     OW 7612   4.667   4.835   1.708
 2238SOL    HW1 7613   4.591   4.776   1.735
 2238SOL    HW2 7614   4.650   4.872   1.617
 2239SOL     OW 7615   3.848   5.019   4.150
 2239SOL    HW1 7616   3.846   5.004   4.248
 2239SOL    HW2 7617   3.805   5.106   4.128
 2240SOL     OW 7618   3.182   5.849   3.410
 2240SOL    HW1 7619   3.269   5.900   3.412
 2240SOL    HW2 7620   3.174   5.794   3.492
 2241SOL     OW 7621   0.919   5.574   3.663
 2241SOL    HW1 7622   0.867   5.557   3.746
 2241SOL    HW2 7623   0.863   5.551   3.583
 2242SOL     OW 7624   5.608   3.467   2.643
 2242SOL    HW1 7625   5.534   3.405   2.665
 2242SOL    HW2 7626   5.623   3.467   2.544
 2243SOL     OW 7627   1.677   6.553   6.021
 2243SOL    HW1 7628   1.631   6.465   6.007
 2243SOL    HW2 7629   1.771   6.547   5.987
 2244SOL     OW 7630   2.264   6.544   1.357
 2244SOL    HW1 7631   2.320   6.482   1.412
 2244SOL    HW2 7632   2.315   6.627   1.337
 2245SOL     OW 7633   0.596   1.910   1.266
 2245SOL    HW1 7634   0.563   1.998   1.232
 2245SOL    HW2 7635   0.548   1.836   1.219
 2246SOL     OW 7636   1.734   0.753   4.408
 2246SOL    HW1 7637   1.759   0.850   4.405
 2246SOL    HW2 7638   1.706   0.723   4.317
 2247SOL     OW 7639   3.271   3.102   3.626
 2247SOL    HW1 7640   3.258   3.176   3.560
 2247SOL    HW2 7641   3.335   3.035   3.588
 2248SOL     OW 7642   6.636   3.844   5.333
 2248SOL    HW1 7643   6.638   3.812   5.238
 2248SOL    HW2 7644   6.556   3.806   5.379
 2249SOL     OW 7645   5.511   6.534   4.071
 2249SOL    HW1 7646   5.443   6.585   4.123
 2249SOL    HW2 7647   5.489   6.538   3.974
 2250SOL     OW 7648   3.364   3.556   5.252
 2250SOL    HW1 7649   3.264   3.560   5.245
 2250SOL    HW2 7650   3.403   3.537   5.162
 2251SOL     OW 7651   5.200   0.374   6.411
 2251SOL    HW1 7652   5.283   0.431   6.408
 2251SOL    HW2 7653   5.226   0.278   6.399
 2252SOL     OW 7654   4.583   2.271   2.573
 2252SOL    HW1 7655   4.573   2.183   2.619
 2252SOL    HW2 7656   4.504   2.328   2.592
 2253SOL     OW 7657   0.105   3.873   6.772
 2253SOL    HW1 7658   0.038   3.857   6.699
 2253SOL    HW2 7659   0.172   3.940   6.741
 2254SOL     OW 7660   3.571   3.041   5.023
 2254SOL    HW1 7661   3.531   3.112   4.966
 2254SOL    HW2 7662   3.667   3.026   4.996
 2255SOL     OW 7663   3.870   3.375   5.940
 2255SOL    HW1 7664   3.794   3.348   5.880
 2255SOL    HW2 7665   3.868   3.474   5.953
 2256SOL     OW 7666   4.605   6.047   2.215
 2256SOL    HW1 7667   4.511   6.025   2.241
 2256SOL    HW2 7668   4.606   6.122   2.149
 2257SOL     OW 7669   0.336   2.458   4.238
 2257SOL    HW1 7670   0.326   2.469   4.337
 2257SOL    HW2 7671   0.390   2.535   4.201
 2258SOL     OW 7672   1.285   5.095   4.410
 2258SOL    HW1 7673   1.341   5.158   4.356
 2258SOL    HW2 7674   1.204   5.144   4.444
 2259SOL     OW 7675   5.119   3.428   6.199
 2259SOL    HW1 7676   5.164   3.473   6.276
 2259SOL    HW2 7677   5.167   3.453   6.114
 2260SOL     OW 7678   0.283   4.589   1.478
 2260SOL    HW1 7679   0.359   4.531   1.507
 2260SOL    HW2 7680   0.243   4.551   1.394
 2261SOL     OW 7681   5.882   4.638   0.386
 2261SOL    HW1 7682   5.894   4.558   0.328
 2261SOL    HW2 7683   5.971   4.673   0.415
 2262SOL     OW 7684   6.085   0.914   3.511
 2262SOL    HW1 7685   6.077   1.011   3.536
 2262SOL    HW2 7686   6.082   0.858   3.594
 2263SOL     OW 7687   3.105   5.840   6.421
 2263SOL    HW1 7688   3.069   5.855   6.329
 2263SOL    HW2 7689   3.052   5.895   6.486
 2264SOL     OW 7690   2.785   5.236   0.194
 2264SOL    HW1 7691   2.781   5.332   0.223
 2264SOL    HW2 7692   2.815   5.179   0.270
 2265SOL     OW 7693   1.295   0.540   4.253
 2265SOL    HW1 7694   1.309   0.554   4.351
 2265SOL    HW2 7695   1.231   0.608   4.218
 2266SOL     OW 7696   5.000   2.119   0.242
 2266SOL    HW1 7697   5.056   2.049   0.285
 2266SOL    HW2 7698   4.923   2.143   0.301
 2267SOL     OW 7699   4.799   2.491   4.733
 2267SOL    HW1 7700   4.894   2.471   4.708
 2267SOL    HW2 7701   4.743   2.492   4.650
 2268SOL     OW 7702   6.336   4.000   0.142
 2268SOL    HW1 7703   6.372   4.083   0.098
 2268SOL    HW2 7704   6.383   3.920   0.105
 2269SOL     OW 7705   6.772   4.862   5.438
 2269SOL    HW1 7706   6.781   4.958   5.411
 2269SOL    HW2 7707   6.710   4.856   5.516
 2270SOL     OW 7708   3.032   2.845   5.833
 2270SOL    HW1 7709   3.078   2.924   5.795
 2270SOL    HW2 7710   3.095   2.794   5.892
 2271SOL     OW 7711   5.353   4.199   0.280
 2271SOL    HW1 7712   5.342   4.258   0.200
 2271SOL    HW2 7713   5.415   4.242   0.345
 2272SOL     OW 7714   6.384   2.418   6.620
 2272SOL    HW1 7715   6.305   2.462   6.663
 2272SOL    HW2 7716   6.402   2.460   6.531
 2273SOL     OW 7717   1.655   2.105   2.215
 2273SOL    HW1 7718   1.688   2.108   2.309
 2273SOL    HW2 7719   1.723   2.061   2.157
 2274SOL     OW 7720   0.652   2.425   6.214
 2274SOL    HW1 7721   0.584   2.439   6.142
 2274SOL    HW2 7722   0.702   2.510   6.232
 2275SOL     OW 7723   6.316   6.856   4.241
 2275SOL    HW1 7724   6.240   6.818   4.187
 2275SOL    HW2 7725   6.398   6.801   4.225
 2276SOL     OW 7726   2.179   5.848   1.390
 2276SOL    HW1 7727   2.166   5.944   1.366
 2276SOL    HW2 7728   2.234   5.841   1.474
 2277SOL     OW 7729   4.155   3.442   4.529
 2277SOL    HW1 7730   4.225   3.443   4.600
 2277SOL    HW2 7731   4.088   3.371   4.550
 2278SOL     OW 7732   6.246   4.578   4.411
 2278SOL    HW1 7733   6.181   4.593   4.336
 2278SOL    HW2 7734   6.298   4.495   4.394
 2279SOL     OW 7735   5.874   6.931   5.526
 2279SOL    HW1 7736   5.896   6.834   5.520
 2279SOL    HW2 7737   5.778   6.941   5.553
 2280SOL     OW 7738   6.798   6.678   4.535
 2280SOL    HW1 7739   6.736   6.662   4.457
 2280SOL    HW2 7740   6.755   6.645   4.619
 2281SOL     OW 7741   3.286   1.417   1.797
 2281SOL    HW1 7742   3.320   1.339   1.849
 2281SOL    HW2 7743   3.239   1.480   1.859
 2282SOL     OW 7744   5.750   0.410   5.278
 2282SOL    HW1 7745   5.701   0.323   5.273
 2282SOL    HW2 7746   5.731   0.463   5.195
 2283SOL     OW 7747   0.831   4.952   1.228
 2283SOL    HW1 7748   0.903   5.018   1.249
 2283SOL    HW2 7749   0.741   4.997   1.236
 2284SOL     OW 7750   1.184   2.973   6.702
 2284SOL    HW1 7751   1.265   3.013   6.743
 2284SOL    HW2 7752   1.210   2.896   6.644
 2285SOL     OW 7753   2.058   2.399   1.247
 2285SOL    HW1 7754   2.098   2.371   1.334
 2285SOL    HW2 7755   2.123   2.455   1.196
 2286SOL     OW 7756   6.215   0.222   3.540
 2286SOL    HW1 7757   6.296   0.208   3.597
 2286SOL    HW2 7758   6.220   0.313   3.498
 2287SOL     OW 7759   1.924   0.166   3.106
 2287SOL    HW1 7760   1.840   0.162   3.052
 2287SOL    HW2 7761   1.943   0.076   3.145
 2288SOL     OW 7762   6.089   4.693   4.220
 2288SOL    HW1 7763   6.030   4.770   4.246
 2288SOL    HW2 7764   6.049   4.645   4.142
 2289SOL     OW 7765   1.150   4.753   1.308
 2289SOL    HW1 7766   1.081   4.751   1.380
 2289SOL    HW2 7767   1.152   4.665   1.261
 2290SOL     OW 7768   0.808   4.268   0.475
 2290SOL    HW1 7769   0.720   4.249   0.519
 2290SOL    HW2 7770   0.847   4.183   0.440
 2291SOL     OW 7771   2.489   2.296   5.951
 2291SOL    HW1 7772   2.456   2.285   6.045
 2291SOL    HW2 7773   2.565   2.361   5.949
 2292SOL     OW 7774   0.148   2.781   4.672
 2292SOL    HW1 7775   0.101   2.826   4.596
 2292SOL    HW2 7776   0.149   2.842   4.751
 2293SOL     OW 7777   4.518   6.242   2.064
 2293SOL    HW1 7778   4.504   6.317   2.128
 2293SOL    HW2 7779   4.435   6.186   2.060
 2294SOL     OW 7780   3.392   0.310   6.998
 2294SOL    HW1 7781   3.340   0.252   0.045
 2294SOL    HW2 7782   3.410   0.399   0.025
 2295SOL     OW 7783   0.460   2.222   2.902
 2295SOL    HW1 7784   0.445   2.123   2.898
 2295SOL    HW2 7785   0.401   2.267   2.834
 2296SOL     OW 7786   4.642   5.501   0.880
 2296SOL    HW1 7787   4.641   5.597   0.907
 2296SOL    HW2 7788   4.579   5.449   0.938
 2297SOL     OW 7789   4.021   4.174   5.218
 2297SOL    HW1 7790   3.927   4.207   5.207
 2297SOL    HW2 7791   4.082   4.250   5.237
 2298SOL     OW 7792   3.973   3.252   1.451
 2298SOL    HW1 7793   4.070   3.263   1.432
 2298SOL    HW2 7794   3.921   3.323   1.402
 2299SOL     OW 7795   4.603   6.023   4.899
 2299SOL    HW1 7796   4.678   6.088   4.904
 2299SOL    HW2 7797   4.576   6.010   4.804
 2300SOL     OW 7798   2.388   5.660   2.197
 2300SOL    HW1 7799   2.340   5.635   2.112
 2300SOL    HW2 7800   2.486   5.661   2.181
 2301SOL     OW 7801   3.300   2.965   2.815
 2301SOL    HW1 7802   3.371   2.924   2.757
 2301SOL    HW2 7803   3.247   3.030   2.762
 2302SOL     OW 7804   3.768   0.225   1.244
 2302SOL    HW1 7805   3.740   0.281   1.322
 2302SOL    HW2 7806   3.827   0.279   1.184
 2303SOL     OW 7807   2.194   2.962   6.128
 2303SOL    HW1 7808   2.252   2.956   6.209
 2303SOL    HW2 7809   2.245   2.931   6.048
 2304SOL     OW 7810   4.799   6.799   3.785
 2304SOL    HW1 7811   4.737   6.822   3.860
 2304SOL    HW2 7812   4.778   6.855   3.705
 2305SOL     OW 7813   2.331   6.782   2.921
 2305SOL    HW1 7814   2.234   6.798   2.905
 2305SOL    HW2 7815   2.373   6.867   2.954
 2306SOL     OW 7816   3.136   5.270   2.511
 2306SOL    HW1 7817   3.079   5.224   2.578
 2306SOL    HW2 7818   3.131   5.221   2.424
 2307SOL     OW 7819   6.917   4.154   2.279
 2307SOL    HW1 7820   6.821   4.147   2.250
 2307SOL    HW2 7821   6.946   4.249   2.278
 2308SOL     OW 7822   1.135   6.027   0.557
 2308SOL    HW1 7823   1.087   5.941   0.541
 2308SOL    HW2 7824   1.184   6.053   0.474
 2309SOL     OW 7825   1.368   0.251   6.420
 2309SOL    HW1 7826   1.464   0.273   6.403
 2309SOL    HW2 7827   1.315   0.336   6.425
 2310SOL     OW 7828   4.870   6.257   1.503
 2310SOL    HW1 7829   4.880   6.323   1.430
 2310SOL    HW2 7830   4.946   6.265   1.567
 2311SOL     OW 7831   2.290   5.960   2.105
 2311SOL    HW1 7832   2.310   6.053   2.135
 2311SOL    HW2 7833   2.289   5.899   2.184
 2312SOL     OW 7834   3.636   6.754   3.989
 2312SOL    HW1 7835   3.637   6.676   4.051
 2312SOL    HW2 7836   3.599   6.834   4.037
 2313SOL     OW 7837   5.033   5.501   1.770
 2313SOL    HW1 7838   5.013   5.558   1.691
 2313SOL    HW2 7839   5.062   5.411   1.740
 2314SOL     OW 7840   5.906   0.017   5.270
 2314SOL    HW1 7841   5.915   7.013   5.368
 2314SOL    HW2 7842   5.969   6.974   5.219
 2315SOL     OW 7843   4.826   3.062   5.363
 2315SOL    HW1 7844   4.859   3.033   5.273
 2315SOL    HW2 7845   4.856   2.996   5.432
 2316SOL     OW 7846   3.128   0.812   4.336
 2316SOL    HW1 7847   3.067   0.761   4.274
 2316SOL    HW2 7848   3.166   0.891   4.287
 2317SOL     OW 7849   0.507   6.335   3.850
 2317SOL    HW1 7850   0.590   6.349   3.797
 2317SOL    HW2 7851   0.470   6.244   3.832
 2318SOL     OW 7852   2.238   2.883   4.694
 2318SOL    HW1 7853   2.336   2.891   4.675
 2318SOL    HW2 7854   2.212   2.786   4.692
 2319SOL     OW 7855   2.230   5.183   4.173
 2319SOL    HW1 7856   2.227   5.208   4.077
 2319SOL    HW2 7857   2.150   5.221   4.220
 2320SOL     OW 7858   0.394   3.048   4.734
 2320SOL    HW1 7859   0.494   3.051   4.724
 2320SOL    HW2 7860   0.352   3.036   4.644
 2321SOL     OW 7861   2.353   6.658   0.146
 2321SOL    HW1 7862   2.406   6.668   0.230
 2321SOL    HW2 7863   2.289   6.735   0.138
 2322SOL     OW 7864   1.835   2.588   4.035
 2322SOL    HW1 7865   1.802   2.634   3.953
 2322SOL    HW2 7866   1.773   2.605   4.111
 2323SOL     OW 7867   3.211   5.120   1.851
 2323SOL    HW1 7868   3.150   5.167   1.914
 2323SOL    HW2 7869   3.224   5.026   1.882
 2324SOL     OW 7870   6.985   6.262   0.973
 2324SOL    HW1 7871   6.898   6.228   1.007
 2324SOL    HW2 7872   0.027   6.185   0.946
 2325SOL     OW 7873   0.763   4.466   1.416
 2325SOL    HW1 7874   0.697   4.518   1.363
 2325SOL    HW2 7875   0.841   4.524   1.439
 2326SOL     OW 7876   3.736   5.358   6.244
 2326SOL    HW1 7877   3.834   5.352   6.227
 2326SOL    HW2 7878   3.688   5.289   6.191
 2327SOL     OW 7879   6.707   2.303   3.797
 2327SOL    HW1 7880   6.739   2.397   3.791
 2327SOL    HW2 7881   6.635   2.287   3.730
 2328SOL     OW 7882   2.232   1.900   2.779
 2328SOL    HW1 7883   2.227   1.989   2.824
 2328SOL    HW2 7884   2.211   1.909   2.682
 2329SOL     OW 7885   1.529   4.586   4.480
 2329SOL    HW1 7886   1.502   4.577   4.384
 2329SOL    HW2 7887   1.576   4.673   4.494
 2330SOL     OW 7888   1.200   3.807   1.450
 2330SOL    HW1 7889   1.245   3.867   1.517
 2330SOL    HW2 7890   1.188   3.716   1.490
 2331SOL     OW 7891   3.941   5.763   6.563
 2331SOL    HW1 7892   3.983   5.801   6.481
 2331SOL    HW2 7893   3.921   5.837   6.628
 2332SOL     OW 7894   5.129   1.696   5.148
 2332SOL    HW1 7895   5.097   1.753   5.072
 2332SOL    HW2 7896   5.222   1.664   5.129
 2333SOL     OW 7897   0.081   4.785   2.772
 2333SOL    HW1 7898   0.173   4.814   2.797
 2333SOL    HW2 7899   0.083   4.739   2.683
 2334SOL     OW 7900   2.011   0.427   0.578
 2334SOL    HW1 7901   1.971   0.494   0.515
 2334SOL    HW2 7902   1.960   0.429   0.665
 2335SOL     OW 7903   6.916   0.795   2.630
 2335SOL    HW1 7904   6.831   0.793   2.684
 2335SOL    HW2 7905   6.904   0.857   2.553
 2336SOL     OW 7906   4.598   2.565   4.903
 2336SOL    HW1 7907   4.515   2.525   4.864
 2336SOL    HW2 7908   4.679   2.525   4.859
 2337SOL     OW 7909   4.668   1.268   2.001
 2337SOL    HW1 7910   4.582   1.252   1.952
 2337SOL    HW2 7911   4.745   1.251   1.940
 2338SOL     OW 7912   1.049   2.306   5.191
 2338SOL    HW1 7913   1.139   2.326   5.152
 2338SOL    HW2 7914   1.053   2.218   5.239
 2339SOL     OW 7915   3.439   3.610   4.703
 2339SOL    HW1 7916   3.478   3.690   4.657
 2339SOL    HW2 7917   3.402   3.638   4.791
 2340SOL     OW 7918   6.101   4.499   0.894
 2340SOL    HW1 7919   6.009   4.539   0.895
 2340SOL    HW2 7920   6.114   4.450   0.808
 2341SOL     OW 7921   4.502   4.774   1.274
 2341SOL    HW1 7922   4.541   4.865   1.286
 2341SOL    HW2 7923   4.556   4.708   1.326
 2342SOL     OW 7924   6.840   6.967   5.556
 2342SOL    HW1 7925   6.936   6.939   5.544
 2342SOL    HW2 7926   6.785   6.927   5.483
 2343SOL     OW 7927   2.687   5.632   2.678
 2343SOL    HW1 7928   2.779   5.671   2.688
 2343SOL    HW2 7929   2.691   5.553   2.617
 2344SOL     OW 7930   1.848   6.702   0.345
 2344SOL    HW1 7931   1.758   6.704   0.303
 2344SOL    HW2 7932   1.890   6.792   0.340
 2345SOL     OW 7933   3.240   5.575   4.398
 2345SOL    HW1 7934   3.157   5.566   4.343
 2345SOL    HW2 7935   3.277   5.668   4.387
 2346SOL     OW 7936   4.631   2.710   5.447
 2346SOL    HW1 7937   4.618   2.696   5.348
 2346SOL    HW2 7938   4.717   2.668   5.475
 2347SOL     OW 7939   2.577   3.119   1.655
 2347SOL    HW1 7940   2.628   3.192   1.700
 2347SOL    HW2 7941   2.479   3.136   1.663
 2348SOL     OW 7942   2.840   6.772   3.785
 2348SOL    HW1 7943   2.873   6.777   3.691
 2348SOL    HW2 7944   2.797   6.683   3.801
 2349SOL     OW 7945   0.870   4.041   6.136
 2349SOL    HW1 7946   0.824   4.081   6.056
 2349SOL    HW2 7947   0.950   4.096   6.159
 2350SOL     OW 7948   4.632   6.389   6.904
 2350SOL    HW1 7949   4.641   6.418   6.999
 2350SOL    HW2 7950   4.636   6.289   6.899
 2351SOL     OW 7951   2.846   5.105   3.486
 2351SOL    HW1 7952   2.929   5.101   3.541
 2351SOL    HW2 7953   2.858   5.050   3.403
 2352SOL     OW 7954   0.499   5.172   1.904
 2352SOL    HW1 7955   0.516   5.261   1.946
 2352SOL    HW2 7956   0.585   5.136   1.867
 2353SOL     OW 7957   3.215   4.351   5.575
 2353SOL    HW1 7958   3.199   4.257   5.546
 2353SOL    HW2 7959   3.245   4.352   5.670
 2354SOL     OW 7960   2.695   1.552   5.928
 2354SOL    HW1 7961   2.756   1.622   5.890
 2354SOL    HW2 7962   2.660   1.495   5.853
 2355SOL     OW 7963   2.370   5.640   0.567
 2355SOL    HW1 7964   2.443   5.577   0.540
 2355SOL    HW2 7965   2.288   5.621   0.512
 2356SOL     OW 7966   1.478   3.708   0.182
 2356SOL    HW1 7967   1.456   3.661   0.096
 2356SOL    HW2 7968   1.397   3.754   0.216
 2357SOL     OW 7969   4.672   6.004   3.538
 2357SOL    HW1 7970   4.762   6.044   3.530
 2357SOL    HW2 7971   4.609   6.047   3.474
 2358SOL     OW 7972   3.999   4.943   5.365
 2358SOL    HW1 7973   3.962   4.971   5.276
 2358SOL    HW2 7974   3.925   4.942   5.433
 2359SOL     OW 7975   0.180   0.932   6.337
 2359SOL    HW1 7976   0.261   0.893   6.293
 2359SOL    HW2 7977   0.104   0.936   6.271
 2360SOL     OW 7978   6.080   4.685   6.696
 2360SOL    HW1 7979   6.041   4.594   6.702
 2360SOL    HW2 7980   6.059   4.724   6.606
 2361SOL     OW 7981   2.192   0.807   5.061
 2361SOL    HW1 7982   2.117   0.823   5.126
 2361SOL    HW2 7983   2.164   0.736   4.996
 2362SOL     OW 7984   2.448   0.346   5.432
 2362SOL    HW1 7985   2.537   0.312   5.463
 2362SOL    HW2 7986   2.404   0.396   5.506
 2363SOL     OW 7987   4.302   2.263   5.305
 2363SOL    HW1 7988   4.212   2.226   5.281
 2363SOL    HW2 7989   4.371   2.191   5.295
 2364SOL     OW 7990   0.710   1.868   2.413
 2364SOL    HW1 7991   0.667   1.786   2.450
 2364SOL    HW2 7992   0.641   1.939   2.401
 2365SOL     OW 7993   6.599   2.956   6.481
 2365SOL    HW1 7994   6.574   3.047   6.513
 2365SOL    HW2 7995   6.567   2.887   6.547
 2366SOL     OW 7996   1.645   5.067   6.049
 2366SOL    HW1 7997   1.712   4.995   6.029
 2366SOL    HW2 7998   1.687   5.156   6.035
 2367SOL     OW 7999   3.298   4.535   0.846
 2367SOL    HW1 8000   3.232   4.482   0.900
 2367SOL    HW2 8001   3.328   4.614   0.900
 2368SOL     OW 8002   4.731   0.120   3.094
 2368SOL    HW1 8003   4.714   0.074   3.182
 2368SOL    HW2 8004   4.665   0.088   3.027
 2369SOL     OW 8005   0.944   2.876   6.100
 2369SOL    HW1 8006   1.028   2.869   6.154
 2369SOL    HW2 8007   0.950   2.814   6.022
 2370SOL     OW 8008   4.908   3.869   6.551
 2370SOL    HW1 8009   4.954   3.791   6.593
 2370SOL    HW2 8010   4.810   3.853   6.549
 2371SOL     OW 8011   0.726   6.596   1.910
 2371SOL    HW1 8012   0.774   6.636   1.988
 2371SOL    HW2 8013   0.698   6.668   1.847
 2372SOL     OW 8014   6.407   2.549   1.494
 2372SOL    HW1 8015   6.412   2.461   1.447
 2372SOL    HW2 8016   6.429   2.537   1.590
 2373SOL     OW 8017   0.394   1.118   0.442
 2373SOL    HW1 8018   0.402   1.033   0.390
 2373SOL    HW2 8019   0.462   1.119   0.515
 2374SOL     OW 8020   6.360   1.328   3.418
 2374SOL    HW1 8021   6.424   1.294   3.348
 2374SOL    HW2 8022   6.341   1.255   3.483
 2375SOL     OW 8023   2.675   0.054   4.518
 2375SOL    HW1 8024   2.682   6.969   4.518
 2375SOL    HW2 8025   2.767   0.094   4.520
 2376SOL     OW 8026   6.567   2.265   4.800
 2376SOL    HW1 8027   6.491   2.298   4.855
 2376SOL    HW2 8028   6.645   2.328   4.810
 2377SOL     OW 8029   3.445   4.148   3.004
 2377SOL    HW1 8030   3.351   4.125   3.028
 2377SOL    HW2 8031   3.450   4.170   2.906
 2378SOL     OW 8032   4.906   2.991   0.247
 2378SOL    HW1 8033   4.974   3.041   0.192
 2378SOL    HW2 8034   4.934   2.992   0.343
 2379SOL     OW 8035   5.593   2.789   6.704
 2379SOL    HW1 8036   5.577   2.737   6.789
 2379SOL    HW2 8037   5.680   2.762   6.665
 2380SOL     OW 8038   0.038   0.174   5.336
 2380SOL    HW1 8039   7.008   0.090   5.305
 2380SOL    HW2 8040   6.988   0.232   5.384
 2381SOL     OW 8041   2.141   3.649   4.339
 2381SOL    HW1 8042   2.088   3.606   4.266
 2381SOL    HW2 8043   2.218   3.591   4.363
 2382SOL     OW 8044   2.084   4.406   3.517
 2382SOL    HW1 8045   2.067   4.504   3.531
 2382SOL    HW2 8046   2.181   4.392   3.497
 2383SOL     OW 8047   6.002   6.469   0.925
 2383SOL    HW1 8048   5.996   6.402   0.851
 2383SOL    HW2 8049   5.964   6.557   0.894
 2384SOL     OW 8050   6.359   6.826   1.927
 2384SOL    HW1 8051   6.400   6.830   1.836
 2384SOL    HW2 8052   6.340   6.731   1.951
 2385SOL     OW 8053   0.508   6.460   1.011
 2385SOL    HW1 8054   0.565   6.512   0.946
 2385SOL    HW2 8055   0.429   6.423   0.963
 2386SOL     OW 8056   5.053   4.937   4.248
 2386SOL    HW1 8057   5.016   4.919   4.339
 2386SOL    HW2 8058   5.126   5.005   4.256
 2387SOL     OW 8059   0.946   1.356   3.866
 2387SOL    HW1 8060   0.959   1.258   3.879
 2387SOL    HW2 8061   1.035   1.399   3.847
 2388SOL     OW 8062   1.794   2.018   3.483
 2388SOL    HW1 8063   1.829   2.001   3.575
 2388SOL    HW2 8064   1.765   2.113   3.475
 2389SOL     OW 8065   5.313   3.599   2.931
 2389SOL    HW1 8066   5.307   3.588   3.031
 2389SOL    HW2 8067   5.261   3.526   2.887
 2390SOL     OW 8068   3.592   3.821   3.250
 2390SOL    HW1 8069   3.582   3.817   3.150
 2390SOL    HW2 8070   3.688   3.835   3.273
 2391SOL     OW 8071   5.003   4.857   6.061
 2391SOL    HW1 8072   4.943   4.850   6.140
 2391SOL    HW2 8073   5.041   4.766   6.040
 2392SOL     OW 8074   3.460   0.138   5.268
 2392SOL    HW1 8075   3.556   0.163   5.253
 2392SOL    HW2 8076   3.455   0.047   5.309
 2393SOL     OW 8077   4.538   4.187   6.102
 2393SOL    HW1 8078   4.622   4.233   6.131
 2393SOL    HW2 8079   4.561   4.099   6.061
 2394SOL     OW 8080   2.015   3.517   4.763
 2394SOL    HW1 8081   2.045   3.607   4.794
 2394SOL    HW2 8082   2.057   3.446   4.819
 2395SOL     OW 8083   6.527   2.513   6.406
 2395SOL    HW1 8084   6.621   2.506   6.439
 2395SOL    HW2 8085   6.524   2.572   6.326
 2396SOL     OW 8086   3.941   5.615   1.736
 2396SOL    HW1 8087   3.993   5.678   1.678
 2396SOL    HW2 8088   3.847   5.646   1.743
 2397SOL     OW 8089   0.304   4.025   6.690
 2397SOL    HW1 8090   0.310   4.008   6.592
 2397SOL    HW2 8091   0.386   4.073   6.721
 2398SOL     OW 8092   3.215   3.768   6.719
 2398SOL    HW1 8093   3.184   3.682   6.678
 2398SOL    HW2 8094   3.284   3.810   6.661
 2399SOL     OW 8095   4.654   1.177   2.268
 2399SOL    HW1 8096   4.566   1.142   2.298
 2399SOL    HW2 8097   4.647   1.211   2.175
 2400SOL     OW 8098   3.556   5.322   0.307
 2400SOL    HW1 8099   3.492   5.398   0.318
 2400SOL    HW2 8100   3.507   5.244   0.267
 2401SOL     OW 8101   4.286   6.682   6.530
 2401SOL    HW1 8102   4.240   6.753   6.476
 2401SOL    HW2 8103   4.291   6.711   6.626
 2402SOL     OW 8104   0.656   0.702   4.173
 2402SOL    HW1 8105   0.714   0.676   4.096
 2402SOL    HW2 8106   0.623   0.619   4.218
 2403SOL     OW 8107   2.284   2.362   0.887
 2403SOL    HW1 8108   2.226   2.443   0.887
 2403SOL    HW2 8109   2.355   2.372   0.957
 2404SOL     OW 8110   5.209   0.804   1.408
 2404SOL    HW1 8111   5.234   0.807   1.311
 2404SOL    HW2 8112   5.282   0.846   1.462
 2405SOL     OW 8113   3.667   3.555   2.782
 2405SOL    HW1 8114   3.721   3.602   2.851
 2405SOL    HW2 8115   3.726   3.528   2.706
 2406SOL     OW 8116   2.715   0.069   3.352
 2406SOL    HW1 8117   2.769   0.024   3.280
 2406SOL    HW2 8118   2.775   0.091   3.429
 2407SOL     OW 8119   5.442   2.448   2.786
 2407SOL    HW1 8120   5.520   2.390   2.809
 2407SOL    HW2 8121   5.450   2.479   2.691
 2408SOL     OW 8122   4.435   4.718   3.525
 2408SOL    HW1 8123   4.456   4.788   3.593
 2408SOL    HW2 8124   4.459   4.752   3.434
 2409SOL     OW 8125   1.000   3.172   1.887
 2409SOL    HW1 8126   1.027   3.265   1.913
 2409SOL    HW2 8127   0.940   3.134   1.957
 2410SOL     OW 8128   4.895   2.481   6.122
 2410SOL    HW1 8129   4.972   2.511   6.065
 2410SOL    HW2 8130   4.925   2.472   6.217
 2411SOL     OW 8131   4.351   5.281   5.713
 2411SOL    HW1 8132   4.365   5.208   5.645
 2411SOL    HW2 8133   4.258   5.277   5.748
 2412SOL     OW 8134   4.288   5.067   1.215
 2412SOL    HW1 8135   4.379   5.048   1.179
 2412SOL    HW2 8136   4.267   5.003   1.288
 2413SOL     OW 8137   6.414   2.099   0.205
 2413SOL    HW1 8138   6.324   2.063   0.231
 2413SOL    HW2 8139   6.419   2.196   0.230
 2414SOL     OW 8140   5.022   3.810   2.219
 2414SOL    HW1 8141   4.968   3.831   2.301
 2414SOL    HW2 8142   4.965   3.820   2.138
 2415SOL     OW 8143   0.222   0.222   2.198
 2415SOL    HW1 8144   0.178   0.177   2.120
 2415SOL    HW2 8145   0.162   0.295   2.232
 2416SOL     OW 8146   3.704   2.034   4.884
 2416SOL    HW1 8147   3.737   2.103   4.949
 2416SOL    HW2 8148   3.636   1.976   4.929
 2417SOL     OW 8149   4.298   3.634   5.597
 2417SOL    HW1 8150   4.381   3.611   5.547
 2417SOL    HW2 8151   4.252   3.710   5.553
 2418SOL     OW 8152   3.149   4.090   4.133
 2418SOL    HW1 8153   3.052   4.086   4.154
 2418SOL    HW2 8154   3.202   4.086   4.217
 2419SOL     OW 8155   0.646   5.735   4.687
 2419SOL    HW1 8156   0.723   5.680   4.720
 2419SOL    HW2 8157   0.662   5.831   4.711
 2420SOL     OW 8158   3.774   1.491   1.527
 2420SOL    HW1 8159   3.703   1.521   1.590
 2420SOL    HW2 8160   3.745   1.510   1.433
 2421SOL     OW 8161   2.981   1.421   5.187
 2421SOL    HW1 8162   2.943   1.391   5.275
 2421SOL    HW2 8163   2.998   1.519   5.189
 2422SOL     OW 8164   5.798   0.134   1.609
 2422SOL    HW1 8165   5.841   0.083   1.535
 2422SOL    HW2 8166   5.867   0.159   1.677
 2423SOL     OW 8167   1.327   6.479   3.883
 2423SOL    HW1 8168   1.406   6.443   3.932
 2423SOL    HW2 8169   1.251   6.415   3.890
 2424SOL     OW 8170   6.084   6.439   6.225
 2424SOL    HW1 8171   6.066   6.388   6.309
 2424SOL    HW2 8172   6.182   6.440   6.206
 2425SOL     OW 8173   6.334   0.430   3.839
 2425SOL    HW1 8174   6.244   0.472   3.827
 2425SOL    HW2 8175   6.324   0.332   3.850
 2426SOL     OW 8176   0.970   5.442   4.534
 2426SOL    HW1 8177   1.017   5.514   4.586
 2426SOL    HW2 8178   0.982   5.459   4.437
 2427SOL     OW 8179   5.289   5.364   6.389
 2427SOL    HW1 8180   5.304   5.376   6.291
 2427SOL    HW2 8181   5.313   5.448   6.437
 2428SOL     OW 8182   6.159   0.775   3.298
 2428SOL    HW1 8183   6.125   0.817   3.382
 2428SOL    HW2 8184   6.224   0.836   3.253
 2429SOL     OW 8185   6.443   5.238   4.228
 2429SOL    HW1 8186   6.434   5.251   4.326
 2429SOL    HW2 8187   6.513   5.300   4.192
 2430SOL     OW 8188   6.272   1.511   0.872
 2430SOL    HW1 8189   6.344   1.457   0.829
 2430SOL    HW2 8190   6.192   1.453   0.890
 2431SOL     OW 8191   4.179   0.523   2.283
 2431SOL    HW1 8192   4.182   0.424   2.297
 2431SOL    HW2 8193   4.107   0.562   2.340
 2432SOL     OW 8194   3.217   6.905   2.949
 2432SOL    HW1 8195   3.200   6.912   3.048
 2432SOL    HW2 8196   3.278   6.979   2.921
 2433SOL     OW 8197   3.113   0.393   1.211
 2433SOL    HW1 8198   3.110   0.490   1.234
 2433SOL    HW2 8199   3.209   0.363   1.206
 2434SOL     OW 8200   4.356   1.059   4.389
 2434SOL    HW1 8201   4.398   0.998   4.456
 2434SOL    HW2 8202   4.270   1.020   4.357
 2435SOL     OW 8203   4.237   5.003   5.785
 2435SOL    HW1 8204   4.183   4.920   5.769
 2435SOL    HW2 8205   4.197   5.054   5.862
 2436SOL     OW 8206   1.930   6.884   2.145
 2436SOL    HW1 8207   1.859   6.814   2.133
 2436SOL    HW2 8208   1.890   6.974   2.131
 2437SOL     OW 8209   4.427   5.945   0.683
 2437SOL    HW1 8210   4.437   5.848   0.658
 2437SOL    HW2 8211   4.335   5.975   0.661
 2438SOL     OW 8212   3.340   1.307   5.995
 2438SOL    HW1 8213   3.281   1.246   6.048
 2438SOL    HW2 8214   3.435   1.281   6.009
 2439SOL     OW 8215   0.781   4.383   6.472
 2439SOL    HW1 8216   0.778   4.301   6.529
 2439SOL    HW2 8217   0.783   4.464   6.530
 2440SOL     OW 8218   4.934   6.078   5.621
 2440SOL    HW1 8219   4.854   6.136   5.613
 2440SOL    HW2 8220   5.015   6.134   5.640
 2441SOL     OW 8221   6.768   6.930   0.373
 2441SOL    HW1 8222   6.688   6.936   0.314
 2441SOL    HW2 8223   6.849   6.914   0.317
 2442SOL     OW 8224   6.605   4.969   4.418
 2442SOL    HW1 8225   6.564   4.880   4.399
 2442SOL    HW2 8226   6.692   4.978   4.369
 2443SOL     OW 8227   4.064   6.387   5.562
 2443SOL    HW1 8228   4.071   6.441   5.478
 2443SOL    HW2 8229   4.151   6.391   5.612
 2444SOL     OW 8230   2.930   4.200   5.883
 2444SOL    HW1 8231   2.869   4.138   5.834
 2444SOL    HW2 8232   3.025   4.177   5.862
 2445SOL     OW 8233   0.485   0.650   1.875
 2445SOL    HW1 8234   0.442   0.652   1.785
 2445SOL    HW2 8235   0.567   0.707   1.874
 2446SOL     OW 8236   0.405   4.207   3.620
 2446SOL    HW1 8237   0.466   4.276   3.581
 2446SOL    HW2 8238   0.414   4.121   3.571
 2447SOL     OW 8239   2.737   1.823   0.975
 2447SOL    HW1 8240   2.767   1.728   0.964
 2447SOL    HW2 8241   2.757   1.875   0.892
 2448SOL     OW 8242   6.809   0.963   5.425
 2448SOL    HW1 8243   6.859   0.889   5.380
 2448SOL    HW2 8244   6.727   0.984   5.373
 2449SOL     OW 8245   0.566   5.029   1.162
 2449SOL    HW1 8246   0.515   5.111   1.137
 2449SOL    HW2 8247   0.502   4.955   1.184
 2450SOL     OW 8248   2.769   4.680   4.306
 2450SOL    HW1 8249   2.729   4.615   4.371
 2450SOL    HW2 8250   2.744   4.654   4.213
 2451SOL     OW 8251   0.631   0.133   3.112
 2451SOL    HW1 8252   0.622   0.231   3.090
 2451SOL    HW2 8253   0.726   0.114   3.138
 2452SOL     OW 8254   1.617   2.731   2.802
 2452SOL    HW1 8255   1.672   2.655   2.835
 2452SOL    HW2 8256   1.589   2.714   2.708
 2453SOL     OW 8257   6.605   3.795   0.687
 2453SOL    HW1 8258   6.672   3.734   0.644
 2453SOL    HW2 8259   6.558   3.848   0.617
 2454SOL     OW 8260   3.757   1.388   0.355
 2454SOL    HW1 8261   3.770   1.316   0.423
 2454SOL    HW2 8262   3.826   1.458   0.366
 2455SOL     OW 8263   5.479   6.464   0.989
 2455SOL    HW1 8264   5.477   6.382   1.046
 2455SOL    HW2 8265   5.389   6.508   0.992
 2456SOL     OW 8266   6.047   0.171   0.428
 2456SOL    HW1 8267   6.061   0.115   0.347
 2456SOL    HW2 8268   5.999   0.255   0.402
 2457SOL     OW 8269   6.785   6.110   0.638
 2457SOL    HW1 8270   6.707   6.142   0.691
 2457SOL    HW2 8271   6.809   6.017   0.664
 2458SOL     OW 8272   2.695   5.791   3.764
 2458SOL    HW1 8273   2.663   5.696   3.765
 2458SOL    HW2 8274   2.714   5.821   3.857
 2459SOL     OW 8275   2.589   6.942   0.316
 2459SOL    HW1 8276   2.648   6.965   0.394
 2459SOL    HW2 8277   2.575   0.008   0.260
 2460SOL     OW 8278   2.172   0.395   1.430
 2460SOL    HW1 8279   2.196   0.326   1.498
 2460SOL    HW2 8280   2.153   0.482   1.476
 2461SOL     OW 8281   4.897   0.565   2.533
 2461SOL    HW1 8282   4.883   0.653   2.487
 2461SOL    HW2 8283   4.990   0.561   2.568
 2462SOL     OW 8284   2.163   5.812   6.932
 2462SOL    HW1 8285   2.127   5.736   6.878
 2462SOL    HW2 8286   2.152   5.897   6.880
 2463SOL     OW 8287   5.777   2.621   3.783
 2463SOL    HW1 8288   5.838   2.576   3.848
 2463SOL    HW2 8289   5.830   2.652   3.703
 2464SOL     OW 8290   1.552   4.927   1.412
 2464SOL    HW1 8291   1.582   5.013   1.453
 2464SOL    HW2 8292   1.596   4.916   1.323
 2465SOL     OW 8293   6.756   5.599   1.035
 2465SOL    HW1 8294   6.767   5.512   0.986
 2465SOL    HW2 8295   6.675   5.595   1.093
 2466SOL     OW 8296   3.367   0.890   1.354
 2466SOL    HW1 8297   3.409   0.816   1.406
 2466SOL    HW2 8298   3.436   0.931   1.293
 2467SOL     OW 8299   5.415   1.588   5.540
 2467SOL    HW1 8300   5.493   1.573   5.600
 2467SOL    HW2 8301   5.391   1.686   5.540
 2468SOL     OW 8302   6.321   6.180   1.946
 2468SOL    HW1 8303   6.418   6.181   1.973
 2468SOL    HW2 8304   6.264   6.195   2.027
 2469SOL     OW 8305   3.512   4.757   5.251
 2469SOL    HW1 8306   3.446   4.682   5.246
 2469SOL    HW2 8307   3.555   4.757   5.342
 2470SOL     OW 8308   2.998   3.958   6.313
 2470SOL    HW1 8309   2.989   3.865   6.277
 2470SOL    HW2 8310   2.959   4.023   6.247
 2471SOL     OW 8311   2.328   6.512   1.764
 2471SOL    HW1 8312   2.381   6.481   1.686
 2471SOL    HW2 8313   2.362   6.468   1.847
 2472SOL     OW 8314   5.756   1.222   4.737
 2472SOL    HW1 8315   5.815   1.283   4.790
 2472SOL    HW2 8316   5.746   1.258   4.644
 2473SOL     OW 8317   1.906   4.009   4.459
 2473SOL    HW1 8318   1.858   4.063   4.527
 2473SOL    HW2 8319   1.986   3.966   4.500
 2474SOL     OW 8320   7.006   5.474   0.544
 2474SOL    HW1 8321   0.085   5.491   0.515
 2474SOL    HW2 8322   6.992   5.375   0.555
 2475SOL     OW 8323   4.572   1.940   1.019
 2475SOL    HW1 8324   4.581   1.865   1.085
 2475SOL    HW2 8325   4.492   1.924   0.962
 2476SOL     OW 8326   0.331   2.593   3.405
 2476SOL    HW1 8327   0.309   2.645   3.487
 2476SOL    HW2 8328   0.261   2.610   3.335
 2477SOL     OW 8329   6.233   0.464   1.951
 2477SOL    HW1 8330   6.304   0.396   1.965
 2477SOL    HW2 8331   6.262   0.552   1.988
 2478SOL     OW 8332   5.510   6.422   2.695
 2478SOL    HW1 8333   5.425   6.462   2.662
 2478SOL    HW2 8334   5.527   6.335   2.648
 2479SOL     OW 8335   0.829   3.634   1.630
 2479SOL    HW1 8336   0.828   3.614   1.728
 2479SOL    HW2 8337   0.773   3.567   1.582
 2480SOL     OW 8338   6.352   3.241   1.009
 2480SOL    HW1 8339   6.424   3.171   1.001
 2480SOL    HW2 8340   6.330   3.255   1.105
 2481SOL     OW 8341   3.680   6.297   0.137
 2481SOL    HW1 8342   3.771   6.335   0.119
 2481SOL    HW2 8343   3.648   6.251   0.054
 2482SOL     OW 8344   4.908   2.917   5.578
 2482SOL    HW1 8345   4.969   2.855   5.527
 2482SOL    HW2 8346   4.852   2.863   5.642
 2483SOL     OW 8347   2.113   1.523   0.800
 2483SOL    HW1 8348   2.064   1.609   0.789
 2483SOL    HW2 8349   2.182   1.516   0.727
 2484SOL     OW 8350   1.890   0.953   0.632
 2484SOL    HW1 8351   1.922   0.944   0.726
 2484SOL    HW2 8352   1.967   0.981   0.574
 2485SOL     OW 8353   4.637   5.174   2.790
 2485SOL    HW1 8354   4.719   5.222   2.822
 2485SOL    HW2 8355   4.640   5.163   2.691
 2486SOL     OW 8356   2.502   6.207   2.914
 2486SOL    HW1 8357   2.518   6.208   2.816
 2486SOL    HW2 8358   2.548   6.128   2.955
 2487SOL     OW 8359   3.942   5.938   0.422
 2487SOL    HW1 8360   4.006   5.865   0.396
 2487SOL    HW2 8361   3.886   5.907   0.499
 2488SOL     OW 8362   2.405   4.304   1.437
 2488SOL    HW1 8363   2.338   4.231   1.447
 2488SOL    HW2 8364   2.492   4.267   1.405
 2489SOL     OW 8365   2.520   4.854   4.502
 2489SOL    HW1 8366   2.572   4.898   4.574
 2489SOL    HW2 8367   2.511   4.915   4.424
 2490SOL     OW 8368   6.550   5.210   1.036
 2490SOL    HW1 8369   6.621   5.182   1.101
 2490SOL    HW2 8370   6.510   5.297   1.066
 2491SOL     OW 8371   2.344   5.821   3.148
 2491SOL    HW1 8372   2.316   5.733   3.186
 2491SOL    HW2 8373   2.394   5.873   3.217
 2492SOL     OW 8374   3.935   2.980   6.441
 2492SOL    HW1 8375   3.891   2.951   6.356
 2492SOL    HW2 8376   4.032   2.956   6.438
 2493SOL     OW 8377   5.775   0.018   2.829
 2493SOL    HW1 8378   5.727   7.011   2.744
 2493SOL    HW2 8379   5.873   0.028   2.811
 2494SOL     OW 8380   5.259   3.092   2.559
 2494SOL    HW1 8381   5.242   3.190   2.548
 2494SOL    HW2 8382   5.248   3.046   2.471
 2495SOL     OW 8383   5.057   0.624   5.460
 2495SOL    HW1 8384   5.098   0.706   5.499
 2495SOL    HW2 8385   5.011   0.646   5.374
 2496SOL     OW 8386   0.583   5.026   0.107
 2496SOL    HW1 8387   0.671   5.064   0.079
 2496SOL    HW2 8388   0.509   5.079   0.065
 2497SOL     OW 8389   0.482   2.126   6.601
 2497SOL    HW1 8390   0.469   2.031   6.576
 2497SOL    HW2 8391   0.397   2.177   6.589
 2498SOL     OW 8392   2.336   2.618   3.561
 2498SOL    HW1 8393   2.275   2.658   3.493
 2498SOL    HW2 8394   2.290   2.617   3.650
 2499SOL     OW 8395   5.718   0.598   4.399
 2499SOL    HW1 8396   5.703   0.599   4.498
 2499SOL    HW2 8397   5.658   0.531   4.356
 2500SOL     OW 8398   4.580   3.870   5.393
 2500SOL    HW1 8399   4.513   3.803   5.362
 2500SOL    HW2 8400   4.665   3.859   5.342
 2501SOL     OW 8401   6.328   4.607   6.789
 2501SOL    HW1 8402   6.391   4.649   6.724
 2501SOL    HW2 8403   6.235   4.612   6.753
 2502SOL     OW 8404   2.761   6.521   3.527
 2502SOL    HW1 8405   2.739   6.444   3.468
 2502SOL    HW2 8406   2.816   6.490   3.604
 2503SOL     OW 8407   3.867   6.004   5.464
 2503SOL    HW1 8408   3.776   6.017   5.503
 2503SOL    HW2 8409   3.922   5.948   5.526
 2504SOL     OW 8410   2.678   5.467   5.001
 2504SOL    HW1 8411   2.730   5.498   5.081
 2504SOL    HW2 8412   2.663   5.369   5.007
 2505SOL     OW 8413   3.359   6.369   4.679
 2505SOL    HW1 8414   3.323   6.458   4.649
 2505SOL    HW2 8415   3.333   6.299   4.612
 2506SOL     OW 8416   6.893   3.433   5.973
 2506SOL    HW1 8417   6.963   3.373   6.011
 2506SOL    HW2 8418   6.848   3.484   6.047
 2507SOL     OW 8419   6.246   5.154   0.167
 2507SOL    HW1 8420   6.188   5.200   0.099
 2507SOL    HW2 8421   6.207   5.065   0.190
 2508SOL     OW 8422   2.869   1.983   2.036
 2508SOL    HW1 8423   2.903   2.039   1.961
 2508SOL    HW2 8424   2.889   2.028   2.123
 2509SOL     OW 8425   5.304   1.694   2.371
 2509SOL    HW1 8426   5.247   1.612   2.375
 2509SOL    HW2 8427   5.390   1.676   2.420
 2510SOL     OW 8428   2.480   4.504   0.631
 2510SOL    HW1 8429   2.495   4.407   0.615
 2510SOL    HW2 8430   2.397   4.517   0.686
 2511SOL     OW 8431   1.399   1.666   4.760
 2511SOL    HW1 8432   1.479   1.716   4.726
 2511SOL    HW2 8433   1.345   1.633   4.682
 2512SOL     OW 8434   5.692   4.351   5.003
 2512SOL    HW1 8435   5.680   4.271   5.062
 2512SOL    HW2 8436   5.654   4.432   5.048
 2513SOL     OW 8437   0.900   2.319   6.074
 2513SOL    HW1 8438   0.805   2.347   6.087
 2513SOL    HW2 8439   0.958   2.369   6.140
 2514SOL     OW 8440   0.015   2.677   3.915
 2514SOL    HW1 8441   0.035   2.769   3.948
 2514SOL    HW2 8442   6.981   2.626   3.984
 2515SOL     OW 8443   1.337   6.801   1.056
 2515SOL    HW1 8444   1.246   6.764   1.034
 2515SOL    HW2 8445   1.329   6.872   1.125
 2516SOL     OW 8446   5.998   5.362   3.228
 2516SOL    HW1 8447   6.008   5.365   3.327
 2516SOL    HW2 8448   5.901   5.365   3.204
 2517SOL     OW 8449   2.261   5.099   6.246
 2517SOL    HW1 8450   2.228   5.031   6.179
 2517SOL    HW2 8451   2.237   5.069   6.338
 2518SOL     OW 8452   2.099   2.939   6.935
 2518SOL    HW1 8453   2.123   2.977   0.009
 2518SOL    HW2 8454   2.097   2.839   6.941
 2519SOL     OW 8455   4.458   4.963   4.097
 2519SOL    HW1 8456   4.541   4.978   4.150
 2519SOL    HW2 8457   4.418   4.874   4.122
 2520SOL     OW 8458   1.681   2.539   0.987
 2520SOL    HW1 8459   1.763   2.587   1.017
 2520SOL    HW2 8460   1.708   2.459   0.932
 2521SOL     OW 8461   0.858   6.982   5.727
 2521SOL    HW1 8462   0.944   6.983   5.675
 2521SOL    HW2 8463   0.809   6.897   5.708
 2522SOL     OW 8464   0.932   3.146   4.429
 2522SOL    HW1 8465   0.902   3.238   4.456
 2522SOL    HW2 8466   0.875   3.078   4.474
 2523SOL     OW 8467   6.966   3.195   0.724
 2523SOL    HW1 8468   7.015   3.109   0.738
 2523SOL    HW2 8469   0.017   3.270   0.716
 2524SOL     OW 8470   0.076   6.387   4.372
 2524SOL    HW1 8471   0.116   6.298   4.395
 2524SOL    HW2 8472   0.140   6.439   4.315
 2525SOL     OW 8473   1.551   3.215   4.432
 2525SOL    HW1 8474   1.519   3.123   4.407
 2525SOL    HW2 8475   1.621   3.207   4.503
 2526SOL     OW 8476   0.513   3.123   5.512
 2526SOL    HW1 8477   0.606   3.086   5.521
 2526SOL    HW2 8478   0.504   3.171   5.425
 2527SOL     OW 8479   6.088   6.928   5.735
 2527SOL    HW1 8480   6.033   6.923   5.651
 2527SOL    HW2 8481   6.028   6.936   5.814
 2528SOL     OW 8482   5.395   4.862   1.200
 2528SOL    HW1 8483   5.299   4.839   1.183
 2528SOL    HW2 8484   5.444   4.781   1.232
 2529SOL     OW 8485   5.334   4.661   6.260
 2529SOL    HW1 8486   5.242   4.652   6.300
 2529SOL    HW2 8487   5.396   4.697   6.329
 2530SOL     OW 8488   0.896   6.141   4.525
 2530SOL    HW1 8489   0.964   6.212   4.505
 2530SOL    HW2 8490   0.815   6.183   4.566
 2531SOL     OW 8491   5.760   6.733   4.827
 2531SOL    HW1 8492   5.789   6.649   4.872
 2531SOL    HW2 8493   5.663   6.728   4.805
 2532SOL     OW 8494   0.515   5.816   0.346
 2532SOL    HW1 8495   0.544   5.727   0.381
 2532SOL    HW2 8496   0.528   5.885   0.417
 2533SOL     OW 8497   5.375   6.514   5.128
 2533SOL    HW1 8498   5.305   6.501   5.058
 2533SOL    HW2 8499   5.369   6.607   5.165
 2534SOL     OW 8500   2.388   0.587   2.984
 2534SOL    HW1 8501   2.485   0.613   2.980
 2534SOL    HW2 8502   2.364   0.537   2.901
 2535SOL     OW 8503   1.757   1.813   6.213
 2535SOL    HW1 8504   1.810   1.794   6.131
 2535SOL    HW2 8505   1.815   1.862   6.279
 2536SOL     OW 8506   6.890   1.647   3.560
 2536SOL    HW1 8507   6.838   1.694   3.488
 2536SOL    HW2 8508   6.977   1.616   3.523
 2537SOL     OW 8509   5.104   6.311   0.717
 2537SOL    HW1 8510   5.117   6.285   0.813
 2537SOL    HW2 8511   5.192   6.317   0.672
 2538SOL     OW 8512   2.023   4.370   4.882
 2538SOL    HW1 8513   2.108   4.320   4.868
 2538SOL    HW2 8514   1.999   4.420   4.799
 2539SOL     OW 8515   4.328   0.187   5.487
 2539SOL    HW1 8516   4.276   0.207   5.570
 2539SOL    HW2 8517   4.372   0.098   5.496
 2540SOL     OW 8518   5.766   1.277   1.396
 2540SOL    HW1 8519   5.721   1.274   1.306
 2540SOL    HW2 8520   5.755   1.188   1.441
 2541SOL     OW 8521   1.463   0.390   5.486
 2541SOL    HW1 8522   1.500   0.444   5.411
 2541SOL    HW2 8523   1.375   0.428   5.514
 2542SOL     OW 8524   4.019   2.036   4.302
 2542SOL    HW1 8525   4.025   1.937   4.315
 2542SOL    HW2 8526   3.924   2.063   4.285
 2543SOL     OW 8527   1.517   0.440   2.921
 2543SOL    HW1 8528   1.557   0.475   3.005
 2543SOL    HW2 8529   1.427   0.402   2.940
 2544SOL     OW 8530   0.733   5.102   1.810
 2544SOL    HW1 8531   0.774   5.193   1.802
 2544SOL    HW2 8532   0.783   5.049   1.879
 2545SOL     OW 8533   1.884   1.480   1.477
 2545SOL    HW1 8534   1.976   1.440   1.485
 2545SOL    HW2 8535   1.824   1.414   1.431
 2546SOL     OW 8536   6.848   3.172   1.188
 2546SOL    HW1 8537   6.809   3.167   1.096
 2546SOL    HW2 8538   6.927   3.233   1.188
 2547SOL     OW 8539   5.482   5.217   0.834
 2547SOL    HW1 8540   5.447   5.272   0.757
 2547SOL    HW2 8541   5.582   5.227   0.838
 2548SOL     OW 8542   2.057   0.482   5.043
 2548SOL    HW1 8543   2.118   0.427   4.987
 2548SOL    HW2 8544   2.041   0.570   4.998
 2549SOL     OW 8545   2.313   2.787   1.450
 2549SOL    HW1 8546   2.299   2.689   1.438
 2549SOL    HW2 8547   2.361   2.824   1.371
 2550SOL     OW 8548   5.410   0.118   6.625
 2550SOL    HW1 8549   5.489   0.062   6.599
 2550SOL    HW2 8550   5.361   0.147   6.543
 2551SOL     OW 8551   3.839   5.134   0.157
 2551SOL    HW1 8552   3.881   5.211   0.206
 2551SOL    HW2 8553   3.740   5.136   0.172
 2552SOL     OW 8554   2.288   5.486   6.755
 2552SOL    HW1 8555   2.319   5.536   6.836
 2552SOL    HW2 8556   2.305   5.388   6.768
 2553SOL     OW 8557   3.577   2.763   5.937
 2553SOL    HW1 8558   3.504   2.825   5.910
 2553SOL    HW2 8559   3.539   2.692   5.997
 2554SOL     OW 8560   1.579   5.970   6.621
 2554SOL    HW1 8561   1.623   5.880   6.610
 2554SOL    HW2 8562   1.634   6.039   6.574
 2555SOL     OW 8563   6.123   6.023   6.641
 2555SOL    HW1 8564   6.024   6.010   6.651
 2555SOL    HW2 8565   6.166   5.935   6.623
 2556SOL     OW 8566   3.980   0.376   1.403
 2556SOL    HW1 8567   4.053   0.373   1.335
 2556SOL    HW2 8568   3.951   0.283   1.425
 2557SOL     OW 8569   2.757   1.113   0.149
 2557SOL    HW1 8570   2.852   1.145   0.143
 2557SOL    HW2 8571   2.724   1.092   0.057
 2558SOL     OW 8572   4.568   3.932   5.985
 2558SOL    HW1 8573   4.638   3.872   6.024
 2558SOL    HW2 8574   4.539   3.895   5.896
 2559SOL     OW 8575   6.801   3.280   3.807
 2559SOL    HW1 8576   6.720   3.318   3.762
 2559SOL    HW2 8577   6.772   3.206   3.869
 2560SOL     OW 8578   5.037   3.573   3.446
 2560SOL    HW1 8579   4.999   3.492   3.402
 2560SOL    HW2 8580   5.020   3.569   3.545
 2561SOL     OW 8581   3.892   1.367   2.978
 2561SOL    HW1 8582   3.814   1.371   3.040
 2561SOL    HW2 8583   3.894   1.449   2.921
 2562SOL     OW 8584   3.008   6.022   3.315
 2562SOL    HW1 8585   2.911   6.006   3.334
 2562SOL    HW2 8586   3.064   5.957   3.367
 2563SOL     OW 8587   3.562   1.455   6.628
 2563SOL    HW1 8588   3.564   1.465   6.728
 2563SOL    HW2 8589   3.619   1.526   6.587
 2564SOL     OW 8590   1.945   6.793   0.694
 2564SOL    HW1 8591   2.008   6.777   0.618
 2564SOL    HW2 8592   1.857   6.823   0.659
 2565SOL     OW 8593   0.133   1.109   6.827
 2565SOL    HW1 8594   0.136   1.028   6.768
 2565SOL    HW2 8595   0.090   1.086   6.914
 2566SOL     OW 8596   2.614   6.364   1.709
 2566SOL    HW1 8597   2.691   6.414   1.750
 2566SOL    HW2 8598   2.604   6.275   1.754
 2567SOL     OW 8599   1.534   1.181   1.055
 2567SOL    HW1 8600   1.486   1.099   1.024
 2567SOL    HW2 8601   1.617   1.155   1.105
 2568SOL     OW 8602   3.132   6.798   0.730
 2568SOL    HW1 8603   3.224   6.803   0.767
 2568SOL    HW2 8604   3.077   6.874   0.766
 2569SOL     OW 8605   2.888   2.176   1.791
 2569SOL    HW1 8606   2.969   2.179   1.733
 2569SOL    HW2 8607   2.900   2.240   1.868
 2570SOL     OW 8608   5.140   5.968   6.123
 2570SOL    HW1 8609   5.100   6.050   6.083
 2570SOL    HW2 8610   5.177   5.910   6.051
 2571SOL     OW 8611   3.555   3.038   4.701
 2571SOL    HW1 8612   3.459   3.011   4.707
 2571SOL    HW2 8613   3.604   2.976   4.640
 2572SOL     OW 8614   2.378   6.166   1.387
 2572SOL    HW1 8615   2.420   6.096   1.329
 2572SOL    HW2 8616   2.281   6.144   1.400
 2573SOL     OW 8617   6.554   2.302   3.559
 2573SOL    HW1 8618   6.561   2.202   3.555
 2573SOL    HW2 8619   6.622   2.343   3.498
 2574SOL     OW 8620   6.282   3.280   0.755
 2574SOL    HW1 8621   6.306   3.281   0.852
 2574SOL    HW2 8622   6.289   3.186   0.720
 2575SOL     OW 8623   5.539   3.840   1.299
 2575SOL    HW1 8624   5.511   3.745   1.313
 2575SOL    HW2 8625   5.623   3.843   1.245
 2576SOL     OW 8626   3.284   0.167   3.665
 2576SOL    HW1 8627   3.276   0.068   3.677
 2576SOL    HW2 8628   3.325   0.207   3.746
 2577SOL     OW 8629   4.624   0.547   3.612
 2577SOL    HW1 8630   4.640   0.483   3.687
 2577SOL    HW2 8631   4.574   0.627   3.646
 2578SOL     OW 8632   5.158   2.970   5.044
 2578SOL    HW1 8633   5.129   3.049   4.990
 2578SOL    HW2 8634   5.085   2.944   5.107
 2579SOL     OW 8635   0.976   1.407   5.596
 2579SOL    HW1 8636   1.059   1.371   5.554
 2579SOL    HW2 8637   0.984   1.506   5.606
 2580SOL     OW 8638   2.212   2.664   5.806
 2580SOL    HW1 8639   2.263   2.604   5.745
 2580SOL    HW2 8640   2.273   2.735   5.842
 2581SOL     OW 8641   5.667   4.558   1.823
 2581SOL    HW1 8642   5.747   4.558   1.762
 2581SOL    HW2 8643   5.672   4.636   1.885
 2582SOL     OW 8644   1.951   4.527   3.182
 2582SOL    HW1 8645   2.041   4.549   3.221
 2582SOL    HW2 8646   1.910   4.452   3.234
 2583SOL     OW 8647   1.193   0.868   1.153
 2583SOL    HW1 8648   1.141   0.784   1.135
 2583SOL    HW2 8649   1.132   0.947   1.148
 2584SOL     OW 8650   4.179   6.394   0.994
 2584SOL    HW1 8651   4.217   6.481   1.027
 2584SOL    HW2 8652   4.248   6.346   0.940
 2585SOL     OW 8653   2.923   0.621   0.369
 2585SOL    HW1 8654   2.829   0.625   0.337
 2585SOL    HW2 8655   2.950   0.710   0.404
 2586SOL     OW 8656   5.322   1.470   4.907
 2586SOL    HW1 8657   5.391   1.410   4.868
 2586SOL    HW2 8658   5.283   1.528   4.835
 2587SOL     OW 8659   6.587   0.104   4.621
 2587SOL    HW1 8660   6.599   0.185   4.678
 2587SOL    HW2 8661   6.677   0.066   4.598
 2588SOL     OW 8662   5.044   6.829   0.666
 2588SOL    HW1 8663   5.141   6.809   0.682
 2588SOL    HW2 8664   5.036   6.896   0.592
 2589SOL     OW 8665   0.006   6.976   5.116
 2589SOL    HW1 8666   0.008   6.895   5.175
 2589SOL    HW2 8667   0.098   6.996   5.084
 2590SOL     OW 8668   3.832   0.235   2.939
 2590SOL    HW1 8669   3.777   0.230   3.022
 2590SOL    HW2 8670   3.929   0.225   2.962
 2591SOL     OW 8671   5.893   5.998   2.315
 2591SOL    HW1 8672   5.977   6.010   2.263
 2591SOL    HW2 8673   5.891   5.907   2.356
 2592SOL     OW 8674   2.875   6.362   1.816
 2592SOL    HW1 8675   2.965   6.327   1.790
 2592SOL    HW2 8676   2.880   6.461   1.832
 2593SOL     OW 8677   3.700   6.689   2.134
 2593SOL    HW1 8678   3.671   6.721   2.044
 2593SOL    HW2 8679   3.676   6.592   2.144
 2594SOL     OW 8680   0.666   6.486   6.135
 2594SOL    HW1 8681   0.578   6.452   6.168
 2594SOL    HW2 8682   0.682   6.578   6.171
 2595SOL     OW 8683   0.187   2.154   5.505
 2595SOL    HW1 8684   0.234   2.112   5.426
 2595SOL    HW2 8685   0.223   2.246   5.519
 2596SOL     OW 8686   3.738   2.356   1.615
 2596SOL    HW1 8687   3.695   2.337   1.703
 2596SOL    HW2 8688   3.836   2.370   1.627
 2597SOL     OW 8689   2.135   3.854   0.936
 2597SOL    HW1 8690   2.110   3.944   0.970
 2597SOL    HW2 8691   2.191   3.864   0.854
 2598SOL     OW 8692   5.965   2.931   4.669
 2598SOL    HW1 8693   5.946   2.854   4.730
 2598SOL    HW2 8694   5.910   2.921   4.585
 2599SOL     OW 8695   3.644   5.706   6.818
 2599SOL    HW1 8696   3.743   5.703   6.824
 2599SOL    HW2 8697   3.617   5.758   6.737
 2600SOL     OW 8698   4.881   3.707   3.979
 2600SOL    HW1 8699   4.890   3.725   4.077
 2600SOL    HW2 8700   4.898   3.610   3.962
 2601SOL     OW 8701   3.569   2.231   6.629
 2601SOL    HW1 8702   3.621   2.196   6.707
 2601SOL    HW2 8703   3.588   2.329   6.617
 2602SOL     OW 8704   6.779   4.608   3.492
 2602SOL    HW1 8705   6.680   4.594   3.499
 2602SOL    HW2 8706   6.809   4.668   3.566
 2603SOL     OW 8707   2.865   2.048   1.431
 2603SOL    HW1 8708   2.918   2.030   1.515
 2603SOL    HW2 8709   2.852   2.146   1.421
 2604SOL     OW 8710   5.070   1.276   1.563
 2604SOL    HW1 8711   4.999   1.339   1.531
 2604SOL    HW2 8712   5.153   1.326   1.586
 2605SOL     OW 8713   4.048   4.903   3.348
 2605SOL    HW1 8714   4.066   4.821   3.403
 2605SOL    HW2 8715   3.980   4.960   3.394
 2606SOL     OW 8716   6.437   4.897   0.620
 2606SOL    HW1 8717   6.450   4.807   0.661
 2606SOL    HW2 8718   6.480   4.967   0.678
 2607SOL     OW 8719   0.565   1.949   5.397
 2607SOL    HW1 8720   0.629   1.873   5.393
 2607SOL    HW2 8721   0.603   2.022   5.454
 2608SOL     OW 8722   4.663   6.259   2.941
 2608SOL    HW1 8723   4.718   6.313   2.877
 2608SOL    HW2 8724   4.567   6.264   2.915
 2609SOL     OW 8725   0.779   2.184   1.012
 2609SOL    HW1 8726   0.778   2.252   0.938
 2609SOL    HW2 8727   0.836   2.218   1.087
 2610SOL     OW 8728   6.614   5.125   4.658
 2610SOL    HW1 8729   6.688   5.189   4.638
 2610SOL    HW2 8730   6.615   5.051   4.591
 2611SOL     OW 8731   6.231   6.720   0.907
 2611SOL    HW1 8732   6.149   6.700   0.854
 2611SOL    HW2 8733   6.215   6.802   0.962
 2612SOL     OW 8734   6.621   6.506   4.994
 2612SOL    HW1 8735   6.683   6.427   4.991
 2612SOL    HW2 8736   6.659   6.580   4.940
 2613SOL     OW 8737   2.993   6.725   2.089
 2613SOL    HW1 8738   2.940   6.652   2.132
 2613SOL    HW2 8739   2.931   6.793   2.050
 2614SOL     OW 8740   6.339   6.257   5.956
 2614SOL    HW1 8741   6.429   6.215   5.965
 2614SOL    HW2 8742   6.327   6.293   5.863
 2615SOL     OW 8743   5.305   5.059   3.193
 2615SOL    HW1 8744   5.205   5.049   3.195
 2615SOL    HW2 8745   5.348   4.970   3.179
 2616SOL     OW 8746   3.872   3.333   3.957
 2616SOL    HW1 8747   3.946   3.389   3.920
 2616SOL    HW2 8748   3.899   3.298   4.047
 2617SOL     OW 8749   3.337   6.127   0.970
 2617SOL    HW1 8750   3.390   6.131   0.885
 2617SOL    HW2 8751   3.251   6.176   0.957
 2618SOL     OW 8752   0.016   6.484   4.040
 2618SOL    HW1 8753   0.078   6.406   4.028
 2618SOL    HW2 8754   0.002   6.529   3.952
 2619SOL     OW 8755   3.298   1.370   2.853
 2619SOL    HW1 8756   3.330   1.280   2.884
 2619SOL    HW2 8757   3.353   1.400   2.776
 2620SOL     OW 8758   0.945   5.829   3.767
 2620SOL    HW1 8759   0.939   5.735   3.736
 2620SOL    HW2 8760   1.014   5.836   3.840
 2621SOL     OW 8761   1.683   5.819   3.702
 2621SOL    HW1 8762   1.738   5.880   3.758
 2621SOL    HW2 8763   1.611   5.778   3.759
 2622SOL     OW 8764   2.348   2.445   6.515
 2622SOL    HW1 8765   2.379   2.371   6.456
 2622SOL    HW2 8766   2.263   2.484   6.478
 2623SOL     OW 8767   3.940   1.746   4.886
 2623SOL    HW1 8768   3.877   1.717   4.958
 2623SOL    HW2 8769   3.894   1.811   4.826
 2624SOL     OW 8770   6.682   3.038   3.960
 2624SOL    HW1 8771   6.610   2.971   3.980
 2624SOL    HW2 8772   6.766   3.012   4.007
 2625SOL     OW 8773   2.382   2.905   5.361
 2625SOL    HW1 8774   2.388   2.947   5.271
 2625SOL    HW2 8775   2.419   2.812   5.357
 2626SOL     OW 8776   0.437   6.986   3.866
 2626SOL    HW1 8777   0.429   6.898   3.818
 2626SOL    HW2 8778   0.381   6.985   3.948
 2627SOL     OW 8779   0.409   0.869   4.110
 2627SOL    HW1 8780   0.451   0.816   4.036
 2627SOL    HW2 8781   0.459   0.852   4.195
 2628SOL     OW 8782   3.676   5.450   6.622
 2628SOL    HW1 8783   3.718   5.450   6.712
 2628SOL    HW2 8784   3.744   5.474   6.553
 2629SOL     OW 8785   3.485   3.821   2.045
 2629SOL    HW1 8786   3.466   3.806   2.142
 2629SOL    HW2 8787   3.461   3.739   1.993
 2630SOL     OW 8788   3.736   1.822   2.126
 2630SOL    HW1 8789   3.761   1.919   2.123
 2630SOL    HW2 8790   3.691   1.797   2.040
 2631SOL     OW 8791   4.523   6.826   3.507
 2631SOL    HW1 8792   4.522   6.911   3.559
 2631SOL    HW2 8793   4.483   6.753   3.561
 2632SOL     OW 8794   2.915   2.154   5.934
 2632SOL    HW1 8795   2.920   2.208   5.850
 2632SOL    HW2 8796   2.975   2.193   6.003
 2633SOL     OW 8797   6.500   2.456   6.078
 2633SOL    HW1 8798   6.469   2.539   6.123
 2633SOL    HW2 8799   6.423   2.412   6.032
 2634SOL     OW 8800   2.096   3.856   2.991
 2634SOL    HW1 8801   2.003   3.892   2.986
 2634SOL    HW2 8802   2.093   3.757   3.001
 2635SOL     OW 8803   5.678   5.776   4.229
 2635SOL    HW1 8804   5.657   5.828   4.312
 2635SOL    HW2 8805   5.695   5.681   4.252
 2636SOL     OW 8806   5.261   0.563   5.959
 2636SOL    HW1 8807   5.199   0.640   5.967
 2636SOL    HW2 8808   5.216   0.480   5.991
 2637SOL     OW 8809   6.401   1.013   3.517
 2637SOL    HW1 8810   6.383   1.055   3.606
 2637SOL    HW2 8811   6.442   0.923   3.530
 2638SOL     OW 8812   6.930   6.869   2.756
 2638SOL    HW1 8813   6.907   6.772   2.756
 2638SOL    HW2 8814   0.014   6.881   2.756
 2639SOL     OW 8815   0.028   6.649   1.778
 2639SOL    HW1 8816   6.957   6.691   1.750
 2639SOL    HW2 8817   0.021   6.549   1.770
 2640SOL     OW 8818   6.818   6.460   5.816
 2640SOL    HW1 8819   6.834   6.483   5.720
 2640SOL    HW2 8820   6.836   6.540   5.873
 2641SOL     OW 8821   5.341   3.331   1.558
 2641SOL    HW1 8822   5.250   3.296   1.583
 2641SOL    HW2 8823   5.411   3.272   1.596
 2642SOL     OW 8824   5.116   0.612   4.795
 2642SOL    HW1 8825   5.047   0.681   4.774
 2642SOL    HW2 8826   5.126   0.603   4.894
 2643SOL     OW 8827   1.153   4.746   3.063
 2643SOL    HW1 8828   1.200   4.832   3.043
 2643SOL    HW2 8829   1.125   4.702   2.977
 2644SOL     OW 8830   0.371   4.311   5.125
 2644SOL    HW1 8831   0.463   4.302   5.163
 2644SOL    HW2 8832   0.328   4.220   5.118
 2645SOL     OW 8833   5.044   6.617   4.814
 2645SOL    HW1 8834   5.005   6.602   4.723
 2645SOL    HW2 8835   4.975   6.655   4.875
 2646SOL     OW 8836   6.140   6.726   6.686
 2646SOL    HW1 8837   6.086   6.746   6.768
 2646SOL    HW2 8838   6.145   6.808   6.629
 2647SOL     OW 8839   5.519   0.873   0.668
 2647SOL    HW1 8840   5.588   0.912   0.607
 2647SOL    HW2 8841   5.545   0.891   0.763
 2648SOL     OW 8842   6.646   6.894   3.910
 2648SOL    HW1 8843   6.595   6.934   3.986
 2648SOL    HW2 8844   6.733   6.942   3.899
 2649SOL     OW 8845   4.403   2.017   6.210
 2649SOL    HW1 8846   4.502   2.005   6.221
 2649SOL    HW2 8847   4.359   1.927   6.212
 2650SOL     OW 8848   0.458   4.007   4.062
 2650SOL    HW1 8849   0.415   3.926   4.101
 2650SOL    HW2 8850   0.395   4.052   3.999
 2651SOL     OW 8851   1.312   1.682   0.482
 2651SOL    HW1 8852   1.329   1.725   0.393
 2651SOL    HW2 8853   1.313   1.583   0.471
 2652SOL     OW 8854   3.165   3.940   3.366
 2652SOL    HW1 8855   3.141   3.988   3.451
 2652SOL    HW2 8856   3.227   3.864   3.387
 2653SOL     OW 8857   5.240   6.975   4.873
 2653SOL    HW1 8858   5.190   0.037   4.834
 2653SOL    HW2 8859   5.211   6.962   4.968
 2654SOL     OW 8860   4.698   3.111   0.373
 2654SOL    HW1 8861   4.631   3.050   0.414
 2654SOL    HW2 8862   4.750   3.062   0.303
 2655SOL     OW 8863   4.667   4.609   4.445
 2655SOL    HW1 8864   4.765   4.593   4.456
 2655SOL    HW2 8865   4.646   4.705   4.464
 2656SOL     OW 8866   4.090   4.921   4.072
 2656SOL    HW1 8867   3.992   4.914   4.094
 2656SOL    HW2 8868   4.102   4.928   3.974
 2657SOL     OW 8869   2.629   4.489   6.522
 2657SOL    HW1 8870   2.623   4.570   6.580
 2657SOL    HW2 8871   2.538   4.450   6.508
 2658SOL     OW 8872   5.119   4.090   0.419
 2658SOL    HW1 8873   5.207   4.138   0.412
 2658SOL    HW2 8874   5.119   4.011   0.358
 2659SOL     OW 8875   6.362   2.248   4.316
 2659SOL    HW1 8876   6.438   2.268   4.379
 2659SOL    HW2 8877   6.367   2.153   4.287
 2660SOL     OW 8878   0.837   1.764   1.189
 2660SOL    HW1 8879   0.769   1.835   1.210
 2660SOL    HW2 8880   0.922   1.807   1.161
 2661SOL     OW 8881   2.314   6.365   2.030
 2661SOL    HW1 8882   2.259   6.449   2.035
 2661SOL    HW2 8883   2.382   6.366   2.103
 2662SOL     OW 8884   4.409   0.235   4.787
 2662SOL    HW1 8885   4.419   0.145   4.744
 2662SOL    HW2 8886   4.391   0.223   4.884
 2663SOL     OW 8887   2.752   4.503   1.217
 2663SOL    HW1 8888   2.732   4.600   1.214
 2663SOL    HW2 8889   2.831   4.487   1.277
 2664SOL     OW 8890   3.847   3.648   3.638
 2664SOL    HW1 8891   3.786   3.583   3.593
 2664SOL    HW2 8892   3.810   3.672   3.728
 2665SOL     OW 8893   3.262   1.769   4.496
 2665SOL    HW1 8894   3.235   1.818   4.579
 2665SOL    HW2 8895   3.181   1.726   4.455
 2666SOL     OW 8896   4.674   3.580   1.397
 2666SOL    HW1 8897   4.774   3.576   1.401
 2666SOL    HW2 8898   4.638   3.587   1.490
 2667SOL     OW 8899   1.864   5.648   4.426
 2667SOL    HW1 8900   1.802   5.723   4.451
 2667SOL    HW2 8901   1.811   5.563   4.418
 2668SOL     OW 8902   6.514   3.186   3.335
 2668SOL    HW1 8903   6.592   3.143   3.381
 2668SOL    HW2 8904   6.520   3.285   3.344
 2669SOL     OW 8905   2.686   5.044   5.233
 2669SOL    HW1 8906   2.690   5.090   5.322
 2669SOL    HW2 8907   2.735   4.957   5.239
 2670SOL     OW 8908   6.127   0.938   6.526
 2670SOL    HW1 8909   6.169   0.920   6.437
 2670SOL    HW2 8910   6.120   1.037   6.539
 2671SOL     OW 8911   3.217   5.163   0.555
 2671SOL    HW1 8912   3.189   5.090   0.493
 2671SOL    HW2 8913   3.137   5.199   0.604
 2672SOL     OW 8914   0.502   5.808   6.631
 2672SOL    HW1 8915   0.542   5.756   6.706
 2672SOL    HW2 8916   0.541   5.900   6.629
 2673SOL     OW 8917   5.344   2.269   3.776
 2673SOL    HW1 8918   5.326   2.182   3.730
 2673SOL    HW2 8919   5.267   2.331   3.762
 2674SOL     OW 8920   2.161   4.159   4.333
 2674SOL    HW1 8921   2.068   4.136   4.359
 2674SOL    HW2 8922   2.225   4.125   4.402
 2675SOL     OW 8923   0.567   4.800   5.526
 2675SOL    HW1 8924   0.595   4.895   5.512
 2675SOL    HW2 8925   0.521   4.766   5.444
 2676SOL     OW 8926   4.502   0.577   3.182
 2676SOL    HW1 8927   4.468   0.620   3.098
 2676SOL    HW2 8928   4.598   0.551   3.169
 2677SOL     OW 8929   3.040   5.308   1.020
 2677SOL    HW1 8930   2.958   5.362   1.037
 2677SOL    HW2 8931   3.092   5.349   0.944
 2678SOL     OW 8932   0.123   3.947   0.867
 2678SOL    HW1 8933   0.188   3.871   0.874
 2678SOL    HW2 8934   0.052   3.923   0.801
 2679SOL     OW 8935   4.239   5.483   1.249
 2679SOL    HW1 8936   4.164   5.460   1.187
 2679SOL    HW2 8937   4.227   5.434   1.335
 2680SOL     OW 8938   1.512   1.325   0.826
 2680SOL    HW1 8939   1.529   1.276   0.912
 2680SOL    HW2 8940   1.454   1.404   0.844
 2681SOL     OW 8941   1.365   2.392   4.221
 2681SOL    HW1 8942   1.324   2.423   4.307
 2681SOL    HW2 8943   1.434   2.323   4.239
 2682SOL     OW 8944   5.655   3.158   1.963
 2682SOL    HW1 8945   5.688   3.066   1.980
 2682SOL    HW2 8946   5.575   3.177   2.021
 2683SOL     OW 8947   1.543   3.578   0.448
 2683SOL    HW1 8948   1.615   3.515   0.418
 2683SOL    HW2 8949   1.483   3.599   0.370
 2684SOL     OW 8950   4.013   5.314   3.136
 2684SOL    HW1 8951   3.979   5.232   3.091
 2684SOL    HW2 8952   4.104   5.336   3.102
 2685SOL     OW 8953   6.762   6.891   5.801
 2685SOL    HW1 8954   6.668   6.864   5.783
 2685SOL    HW2 8955   6.811   6.901   5.714
 2686SOL     OW 8956   1.662   2.261   5.633
 2686SOL    HW1 8957   1.616   2.334   5.684
 2686SOL    HW2 8958   1.726   2.214   5.693
 2687SOL     OW 8959   4.293   4.685   3.079
 2687SOL    HW1 8960   4.321   4.761   3.137
 2687SOL    HW2 8961   4.334   4.600   3.113
 2688SOL     OW 8962   4.478   5.577   6.343
 2688SOL    HW1 8963   4.383   5.608   6.346
 2688SOL    HW2 8964   4.535   5.647   6.300
 2689SOL     OW 8965   2.114   2.365   3.406
 2689SOL    HW1 8966   2.112   2.270   3.376
 2689SOL    HW2 8967   2.135   2.370   3.503
 2690SOL     OW 8968   3.018   3.724   3.761
 2690SOL    HW1 8969   3.060   3.643   3.719
 2690SOL    HW2 8970   2.953   3.695   3.831
 2691SOL     OW 8971   1.359   5.235   2.365
 2691SOL    HW1 8972   1.441   5.178   2.371
 2691SOL    HW2 8973   1.347   5.286   2.451
 2692SOL     OW 8974   4.896   5.571   4.302
 2692SOL    HW1 8975   4.925   5.535   4.391
 2692SOL    HW2 8976   4.908   5.670   4.301
 2693SOL     OW 8977   1.810   4.237   2.900
 2693SOL    HW1 8978   1.898   4.262   2.941
 2693SOL    HW2 8979   1.810   4.263   2.804
 2694SOL     OW 8980   4.052   0.612   2.957
 2694SOL    HW1 8981   4.025   0.603   2.862
 2694SOL    HW2 8982   4.099   0.529   2.986
 2695SOL     OW 8983   5.760   1.824   2.762
 2695SOL    HW1 8984   5.778   1.738   2.714
 2695SOL    HW2 8985   5.829   1.891   2.737
 2696SOL     OW 8986   3.665   3.241   5.234
 2696SOL    HW1 8987   3.583   3.221   5.180
 2696SOL    HW2 8988   3.732   3.167   5.223
 2697SOL     OW 8989   4.399   2.107   3.341
 2697SOL    HW1 8990   4.486   2.145   3.372
 2697SOL    HW2 8991   4.326   2.137   3.402
 2698SOL     OW 8992   2.313   5.469   0.828
 2698SOL    HW1 8993   2.263   5.407   0.767
 2698SOL    HW2 8994   2.290   5.564   0.804
 2699SOL     OW 8995   3.064   5.697   0.246
 2699SOL    HW1 8996   3.034   5.792   0.241
 2699SOL    HW2 8997   2.986   5.636   0.235
 2700SOL     OW 8998   1.981   3.353   1.932
 2700SOL    HW1 8999   2.060   3.405   1.963
 2700SOL    HW2 9000   2.000   3.316   1.841
 2701SOL     OW 9001   4.118   6.864   6.426
 2701SOL    HW1 9002   4.150   6.945   6.475
 2701SOL    HW2 9003   4.028   6.838   6.460
 2702SOL     OW 9004   0.531   1.816   3.687
 2702SOL    HW1 9005   0.444   1.768   3.688
 2702SOL    HW2 9006   0.594   1.772   3.750
 2703SOL     OW 9007   2.193   1.077   2.380
 2703SOL    HW1 9008   2.211   0.998   2.439
 2703SOL    HW2 9009   2.271   1.092   2.320
 2704SOL     OW 9010   1.120   5.169   0.818
 2704SOL    HW1 9011   1.156   5.258   0.788
 2704SOL    HW2 9012   1.032   5.182   0.863
 2705SOL     OW 9013   1.050   5.458   4.256
 2705SOL    HW1 9014   0.994   5.497   4.184
 2705SOL    HW2 9015   1.118   5.526   4.286
 2706SOL     OW 9016   0.717   0.361   1.417
 2706SOL    HW1 9017   0.658   0.413   1.478
 2706SOL    HW2 9018   0.664   0.327   1.339
 2707SOL     OW 9019   2.365   0.628   5.509
 2707SOL    HW1 9020   2.437   0.664   5.569
 2707SOL    HW2 9021   2.400   0.624   5.416
 2708SOL     OW 9022   1.469   2.608   1.494
 2708SOL    HW1 9023   1.445   2.547   1.418
 2708SOL    HW2 9024   1.514   2.555   1.566
 2709SOL     OW 9025   5.518   6.389   1.288
 2709SOL    HW1 9026   5.540   6.485   1.273
 2709SOL    HW2 9027   5.570   6.355   1.366
 2710SOL     OW 9028   6.700   2.726   2.589
 2710SOL    HW1 9029   6.784   2.691   2.630
 2710SOL    HW2 9030   6.648   2.650   2.550
 2711SOL     OW 9031   3.266   1.044   3.032
 2711SOL    HW1 9032   3.360   1.009   3.032
 2711SOL    HW2 9033   3.209   0.987   2.973
 2712SOL     OW 9034   3.896   5.248   0.921
 2712SOL    HW1 9035   3.857   5.213   0.836
 2712SOL    HW2 9036   3.892   5.177   0.991
 2713SOL     OW 9037   1.858   2.241   4.601
 2713SOL    HW1 9038   1.892   2.146   4.598
 2713SOL    HW2 9039   1.788   2.249   4.672
 2714SOL     OW 9040   5.040   2.185   7.006
 2714SOL    HW1 9041   5.024   2.284   7.005
 2714SOL    HW2 9042   5.003   2.146   0.074
 2715SOL     OW 9043   5.726   0.296   0.165
 2715SOL    HW1 9044   5.822   0.319   0.145
 2715SOL    HW2 9045   5.714   0.289   0.264
 2716SOL     OW 9046   5.788   5.390   1.937
 2716SOL    HW1 9047   5.853   5.332   1.888
 2716SOL    HW2 9048   5.804   5.382   2.036
 2717SOL     OW 9049   1.293   5.508   1.808
 2717SOL    HW1 9050   1.246   5.594   1.826
 2717SOL    HW2 9051   1.251   5.463   1.730
 2718SOL     OW 9052   2.127   3.868   4.525
 2718SOL    HW1 9053   2.084   3.806   4.591
 2718SOL    HW2 9054   2.172   3.815   4.453
 2719SOL     OW 9055   5.187   4.975   1.722
 2719SOL    HW1 9056   5.119   4.908   1.692
 2719SOL    HW2 9057   5.274   4.957   1.675
 2720SOL     OW 9058   2.038   6.149   3.292
 2720SOL    HW1 9059   1.963   6.085   3.308
 2720SOL    HW2 9060   2.117   6.122   3.347
 2721SOL     OW 9061   2.893   0.347   5.048
 2721SOL    HW1 9062   2.972   0.300   5.086
 2721SOL    HW2 9063   2.825   0.279   5.018
 2722SOL     OW 9064   6.658   5.491   2.825
 2722SOL    HW1 9065   6.607   5.435   2.890
 2722SOL    HW2 9066   6.596   5.528   2.756
 2723SOL     OW 9067   1.692   6.865   5.726
 2723SOL    HW1 9068   1.621   6.834   5.663
 2723SOL    HW2 9069   1.670   6.955   5.761
 2724SOL     OW 9070   3.047   6.679   5.962
 2724SOL    HW1 9071   2.955   6.668   5.924
 2724SOL    HW2 9072   3.040   6.702   6.059
 2725SOL     OW 9073   6.078   5.295   2.945
 2725SOL    HW1 9074   6.133   5.378   2.931
 2725SOL    HW2 9075   6.025   5.304   3.029
 2726SOL     OW 9076   6.126   4.307   1.100
 2726SOL    HW1 9077   6.128   4.373   1.025
 2726SOL    HW2 9078   6.032   4.299   1.134
 2727SOL     OW 9079   0.054   4.711   2.489
 2727SOL    HW1 9080   0.099   4.623   2.505
 2727SOL    HW2 9081   0.055   4.732   2.392
 2728SOL     OW 9082   3.659   0.334   5.476
 2728SOL    HW1 9083   3.747   0.288   5.481
 2728SOL    HW2 9084   3.610   0.324   5.562
 2729SOL     OW 9085   6.780   5.786   2.121
 2729SOL    HW1 9086   6.875   5.816   2.111
 2729SOL    HW2 9087   6.770   5.692   2.089
 2730SOL     OW 9088   1.776   6.430   0.941
 2730SOL    HW1 9089   1.811   6.523   0.951
 2730SOL    HW2 9090   1.707   6.412   1.011
 2731SOL     OW 9091   3.698   3.730   1.679
 2731SOL    HW1 9092   3.787   3.740   1.635
 2731SOL    HW2 9093   3.701   3.770   1.770
 2732SOL     OW 9094   6.088   3.153   1.711
 2732SOL    HW1 9095   6.008   3.101   1.679
 2732SOL    HW2 9096   6.166   3.134   1.652
 2733SOL     OW 9097   0.272   0.035   5.027
 2733SOL    HW1 9098   0.369   0.022   5.046
 2733SOL    HW2 9099   0.245   0.127   5.054
 2734SOL     OW 9100   2.108   5.202   2.403
 2734SOL    HW1 9101   2.068   5.238   2.318
 2734SOL    HW2 9102   2.113   5.276   2.470
 2735SOL     OW 9103   0.751   3.669   2.990
 2735SOL    HW1 9104   0.819   3.660   3.063
 2735SOL    HW2 9105   0.717   3.579   2.965
 2736SOL     OW 9106   5.061   0.555   3.620
 2736SOL    HW1 9107   5.018   0.513   3.540
 2736SOL    HW2 9108   5.161   0.553   3.609
 2737SOL     OW 9109   3.309   3.296   5.674
 2737SOL    HW1 9110   3.373   3.270   5.602
 2737SOL    HW2 9111   3.360   3.329   5.754
 2738SOL     OW 9112   5.180   5.212   4.535
 2738SOL    HW1 9113   5.109   5.165   4.588
 2738SOL    HW2 9114   5.267   5.204   4.583
 2739SOL     OW 9115   6.235   4.643   0.442
 2739SOL    HW1 9116   6.271   4.673   0.530
 2739SOL    HW2 9117   6.228   4.544   0.440
 2740SOL     OW 9118   5.802   2.316   2.624
 2740SOL    HW1 9119   5.746   2.301   2.542
 2740SOL    HW2 9120   5.816   2.414   2.637
 2741SOL     OW 9121   6.892   1.494   6.172
 2741SOL    HW1 9122   6.989   1.507   6.152
 2741SOL    HW2 9123   6.847   1.452   6.093
 2742SOL     OW 9124   1.899   5.413   6.492
 2742SOL    HW1 9125   1.800   5.409   6.479
 2742SOL    HW2 9126   1.942   5.449   6.409
 2743SOL     OW 9127   6.236   5.101   1.968
 2743SOL    HW1 9128   6.323   5.096   2.017
 2743SOL    HW2 9129   6.242   5.171   1.897
 2744SOL     OW 9130   3.943   2.694   6.799
 2744SOL    HW1 9131   3.968   2.695   6.702
 2744SOL    HW2 9132   3.922   2.600   6.827
 2745SOL     OW 9133   1.217   0.316   6.673
 2745SOL    HW1 9134   1.174   0.392   6.624
 2745SOL    HW2 9135   1.213   0.234   6.617
 2746SOL     OW 9136   2.149   2.130   4.311
 2746SOL    HW1 9137   2.187   2.045   4.274
 2746SOL    HW2 9138   2.050   2.132   4.295
 2747SOL     OW 9139   5.417   4.080   5.587
 2747SOL    HW1 9140   5.337   4.036   5.627
 2747SOL    HW2 9141   5.429   4.048   5.493
 2748SOL     OW 9142   3.903   1.589   1.062
 2748SOL    HW1 9143   3.909   1.688   1.073
 2748SOL    HW2 9144   3.994   1.549   1.072
 2749SOL     OW 9145   5.851   4.193   4.190
 2749SOL    HW1 9146   5.879   4.098   4.175
 2749SOL    HW2 9147   5.752   4.196   4.207
 2750SOL     OW 9148   0.706   5.355   1.546
 2750SOL    HW1 9149   0.611   5.359   1.577
 2750SOL    HW2 9150   0.765   5.336   1.623
 2751SOL     OW 9151   1.701   6.880   0.568
 2751SOL    HW1 9152   1.661   6.941   0.637
 2751SOL    HW2 9153   1.745   6.935   0.497
 2752SOL     OW 9154   5.451   5.440   5.031
 2752SOL    HW1 9155   5.355   5.409   5.032
 2752SOL    HW2 9156   5.501   5.394   5.104
 2753SOL     OW 9157   1.414   6.678   5.959
 2753SOL    HW1 9158   1.330   6.651   6.007
 2753SOL    HW2 9159   1.481   6.604   5.964
 2754SOL     OW 9160   6.411   0.668   4.492
 2754SOL    HW1 9161   6.479   0.678   4.566
 2754SOL    HW2 9162   6.455   0.686   4.404
 2755SOL     OW 9163   2.971   6.794   2.869
 2755SOL    HW1 9164   2.917   6.871   2.905
 2755SOL    HW2 9165   3.068   6.815   2.879
 2756SOL     OW 9166   6.193   3.763   4.339
 2756SOL    HW1 9167   6.178   3.763   4.240
 2756SOL    HW2 9168   6.219   3.672   4.369
 2757SOL     OW 9169   2.514   1.492   6.750
 2757SOL    HW1 9170   2.601   1.451   6.724
 2757SOL    HW2 9171   2.529   1.562   6.820
 2758SOL     OW 9172   5.658   6.156   3.796
 2758SOL    HW1 9173   5.618   6.085   3.854
 2758SOL    HW2 9174   5.725   6.114   3.734
 2759SOL     OW 9175   3.627   5.252   5.162
 2759SOL    HW1 9176   3.627   5.224   5.066
 2759SOL    HW2 9177   3.566   5.192   5.214
 2760SOL     OW 9178   0.019   5.037   2.888
 2760SOL    HW1 9179   7.002   4.991   2.971
 2760SOL    HW2 9180   0.089   4.981   2.844
 2761SOL     OW 9181   1.712   4.161   3.776
 2761SOL    HW1 9182   1.812   4.156   3.773
 2761SOL    HW2 9183   1.683   4.253   3.750
 2762SOL     OW 9184   1.258   2.091   6.733
 2762SOL    HW1 9185   1.344   2.112   6.779
 2762SOL    HW2 9186   1.195   2.049   6.798
 2763SOL     OW 9187   5.122   2.175   5.544
 2763SOL    HW1 9188   5.033   2.136   5.566
 2763SOL    HW2 9189   5.133   2.181   5.445
 2764SOL     OW 9190   0.385   5.479   2.723
 2764SOL    HW1 9191   0.483   5.461   2.731
 2764SOL    HW2 9192   0.370   5.577   2.712
 2765SOL     OW 9193   6.894   0.237   1.264
 2765SOL    HW1 9194   6.832   0.257   1.187
 2765SOL    HW2 9195   6.896   0.138   1.279
 2766SOL     OW 9196   4.183   1.075   6.516
 2766SOL    HW1 9197   4.095   1.029   6.515
 2766SOL    HW2 9198   4.171   1.169   6.545
 2767SOL     OW 9199   5.860   5.904   6.649
 2767SOL    HW1 9200   5.831   5.892   6.744
 2767SOL    HW2 9201   5.853   5.817   6.600
 2768SOL     OW 9202   4.213   1.263   6.919
 2768SOL    HW1 9203   4.148   1.196   6.956
 2768SOL    HW2 9204   4.210   1.346   6.974
 2769SOL     OW 9205   2.471   4.572   6.192
 2769SOL    HW1 9206   2.550   4.562   6.132
 2769SOL    HW2 9207   2.474   4.661   6.238
 2770SOL     OW 9208   4.125   6.123   6.497
 2770SOL    HW1 9209   4.113   6.219   6.521
 2770SOL    HW2 9210   4.092   6.107   6.404
 2771SOL     OW 9211   5.818   0.225   4.969
 2771SOL    HW1 9212   5.904   0.273   4.955
 2771SOL    HW2 9213   5.834   0.126   4.962
 2772SOL     OW 9214   3.014   1.678   2.246
 2772SOL    HW1 9215   2.987   1.684   2.342
 2772SOL    HW2 9216   2.933   1.664   2.189
 2773SOL     OW 9217   0.086   2.929   4.070
 2773SOL    HW1 9218   0.173   2.977   4.080
 2773SOL    HW2 9219   0.020   2.965   4.136
 2774SOL     OW 9220   5.152   3.016   2.791
 2774SOL    HW1 9221   5.186   3.045   2.702
 2774SOL    HW2 9222   5.153   3.094   2.854
 2775SOL     OW 9223   6.490   3.745   3.775
 2775SOL    HW1 9224   6.401   3.732   3.731
 2775SOL    HW2 9225   6.498   3.684   3.854
 2776SOL     OW 9226   5.601   5.081   5.950
 2776SOL    HW1 9227   5.524   5.074   6.013
 2776SOL    HW2 9228   5.584   5.022   5.871
 2777SOL     OW 9229   2.265   1.512   6.631
 2777SOL    HW1 9230   2.246   1.463   6.546
 2777SOL    HW2 9231   2.351   1.479   6.670
 2778SOL     OW 9232   1.989   6.016   6.422
 2778SOL    HW1 9233   2.024   5.950   6.488
 2778SOL    HW2 9234   1.911   6.065   6.461
 2779SOL     OW 9235   5.677   6.655   2.143
 2779SOL    HW1 9236   5.675   6.724   2.070
 2779SOL    HW2 9237   5.654   6.565   2.105
 2780SOL     OW 9238   6.800   0.255   6.002
 2780SOL    HW1 9239   6.845   0.265   6.090
 2780SOL    HW2 9240   6.718   0.313   5.999
 2781SOL     OW 9241   5.990   0.367   2.921
 2781SOL    HW1 9242   6.032   0.420   2.847
 2781SOL    HW2 9243   5.954   0.281   2.884
 2782SOL     OW 9244   4.267   1.412   5.574
 2782SOL    HW1 9245   4.247   1.413   5.672
 2782SOL    HW2 9246   4.182   1.399   5.523
 2783SOL     OW 9247   6.672   3.695   1.187
 2783SOL    HW1 9248   6.608   3.619   1.195
 2783SOL    HW2 9249   6.652   3.747   1.104
 2784SOL     OW 9250   3.371   1.748   1.511
 2784SOL    HW1 9251   3.280   1.727   1.476
 2784SOL    HW2 9252   3.376   1.725   1.608
 2785SOL     OW 9253   5.541   2.219   1.033
 2785SOL    HW1 9254   5.540   2.146   0.964
 2785SOL    HW2 9255   5.458   2.214   1.088
 2786SOL     OW 9256   6.687   5.950   1.235
 2786SOL    HW1 9257   6.768   5.999   1.265
 2786SOL    HW2 9258   6.713   5.863   1.195
 2787SOL     OW 9259   6.705   5.916   5.767
 2787SOL    HW1 9260   6.652   5.998   5.746
 2787SOL    HW2 9261   6.794   5.921   5.723
 2788SOL     OW 9262   2.977   5.972   6.208
 2788SOL    HW1 9263   3.005   6.036   6.137
 2788SOL    HW2 9264   2.922   5.899   6.168
 2789SOL     OW 9265   1.719   2.270   3.464
 2789SOL    HW1 9266   1.629   2.299   3.497
 2789SOL    HW2 9267   1.772   2.350   3.436
 2790SOL     OW 9268   3.391   5.012   0.812
 2790SOL    HW1 9269   3.348   5.099   0.790
 2790SOL    HW2 9270   3.466   5.027   0.878
 2791SOL     OW 9271   0.295   4.291   2.143
 2791SOL    HW1 9272   0.293   4.383   2.183
 2791SOL    HW2 9273   0.374   4.242   2.179
 2792SOL     OW 9274   3.143   1.091   4.177
 2792SOL    HW1 9275   3.195   1.126   4.255
 2792SOL    HW2 9276   3.151   1.154   4.100
 2793SOL     OW 9277   5.173   3.959   1.788
 2793SOL    HW1 9278   5.254   3.934   1.841
 2793SOL    HW2 9279   5.162   3.895   1.712
 2794SOL     OW 9280   6.836   2.012   5.792
 2794SOL    HW1 9281   6.842   1.915   5.770
 2794SOL    HW2 9282   6.834   2.066   5.708
 2795SOL     OW 9283   0.641   4.925   0.927
 2795SOL    HW1 9284   0.692   4.843   0.953
 2795SOL    HW2 9285   0.602   4.968   1.008
 2796SOL     OW 9286   0.458   5.207   4.451
 2796SOL    HW1 9287   0.434   5.111   4.443
 2796SOL    HW2 9288   0.552   5.215   4.485
 2797SOL     OW 9289   5.181   5.844   5.891
 2797SOL    HW1 9290   5.131   5.781   5.832
 2797SOL    HW2 9291   5.254   5.888   5.839
 2798SOL     OW 9292   6.903   5.572   2.598
 2798SOL    HW1 9293   6.949   5.607   2.517
 2798SOL    HW2 9294   6.905   5.472   2.596
 2799SOL     OW 9295   4.662   5.542   5.478
 2799SOL    HW1 9296   4.696   5.459   5.434
 2799SOL    HW2 9297   4.691   5.622   5.426
 2800SOL     OW 9298   6.215   0.859   6.260
 2800SOL    HW1 9299   6.198   0.861   6.162
 2800SOL    HW2 9300   6.259   0.772   6.284
 2801SOL     OW 9301   1.830   5.551   5.543
 2801SOL    HW1 9302   1.877   5.571   5.457
 2801SOL    HW2 9303   1.736   5.584   5.538
 2802SOL     OW 9304   6.553   6.664   5.409
 2802SOL    HW1 9305   6.587   6.736   5.348
 2802SOL    HW2 9306   6.557   6.696   5.504
 2803SOL     OW 9307   3.490   4.150   5.654
 2803SOL    HW1 9308   3.482   4.069   5.596
 2803SOL    HW2 9309   3.401   4.196   5.659
 2804SOL     OW 9310   0.282   3.550   3.930
 2804SOL    HW1 9311   0.226   3.628   3.960
 2804SOL    HW2 9312   0.353   3.533   3.998
 2805SOL     OW 9313   5.977   3.861   2.457
 2805SOL    HW1 9314   5.935   3.846   2.367
 2805SOL    HW2 9315   5.911   3.839   2.529
 2806SOL     OW 9316   1.459   4.674   6.883
 2806SOL    HW1 9317   1.476   4.739   6.957
 2806SOL    HW2 9318   1.474   4.719   6.795
 2807SOL     OW 9319   4.154   0.359   3.029
 2807SOL    HW1 9320   4.197   0.269   3.043
 2807SOL    HW2 9321   4.163   0.413   3.112
 2808SOL     OW 9322   6.040   6.161   0.998
 2808SOL    HW1 9323   5.996   6.163   1.088
 2808SOL    HW2 9324   5.994   6.223   0.936
 2809SOL     OW 9325   6.179   2.585   1.774
 2809SOL    HW1 9326   6.278   2.598   1.770
 2809SOL    HW2 9327   6.143   2.628   1.856
 2810SOL     OW 9328   2.608   5.179   2.845
 2810SOL    HW1 9329   2.631   5.082   2.839
 2810SOL    HW2 9330   2.509   5.190   2.853
 2811SOL     OW 9331   0.833   1.408   2.478
 2811SOL    HW1 9332   0.867   1.383   2.387
 2811SOL    HW2 9333   0.851   1.332   2.542
 2812SOL     OW 9334   6.431   3.187   0.358
 2812SOL    HW1 9335   6.488   3.116   0.318
 2812SOL    HW2 9336   6.335   3.170   0.335
 2813SOL     OW 9337   0.662   1.716   0.652
 2813SOL    HW1 9338   0.584   1.659   0.625
 2813SOL    HW2 9339   0.690   1.692   0.745
 2814SOL     OW 9340   3.197   4.078   5.585
 2814SOL    HW1 9341   3.211   4.052   5.681
 2814SOL    HW2 9342   3.252   4.019   5.526
 2815SOL     OW 9343   0.345   6.134   5.886
 2815SOL    HW1 9344   0.387   6.156   5.974
 2815SOL    HW2 9345   0.408   6.158   5.812
 2816SOL     OW 9346   6.798   5.949   5.025
 2816SOL    HW1 9347   6.717   5.895   5.046
 2816SOL    HW2 9348   6.852   5.964   5.108
 2817SOL     OW 9349   3.584   1.708   2.353
 2817SOL    HW1 9350   3.614   1.772   2.282
 2817SOL    HW2 9351   3.533   1.633   2.311
 2818SOL     OW 9352   0.100   1.192   1.272
 2818SOL    HW1 9353   0.088   1.255   1.349
 2818SOL    HW2 9354   0.088   1.098   1.303
 2819SOL     OW 9355   1.356   0.254   1.104
 2819SOL    HW1 9356   1.271   0.273   1.055
 2819SOL    HW2 9357   1.381   0.333   1.161
 2820SOL     OW 9358   0.793   2.035   2.168
 2820SOL    HW1 9359   0.862   1.969   2.197
 2820SOL    HW2 9360   0.714   2.031   2.229
 2821SOL     OW 9361   3.098   5.043   5.895
 2821SOL    HW1 9362   3.053   5.099   5.826
 2821SOL    HW2 9363   3.128   5.102   5.970
 2822SOL     OW 9364   4.103   2.453   0.035
 2822SOL    HW1 9365   4.120   2.549   0.056
 2822SOL    HW2 9366   4.169   2.396   0.084
 2823SOL     OW 9367   5.599   0.792   0.202
 2823SOL    HW1 9368   5.609   0.702   0.161
 2823SOL    HW2 9369   5.644   0.794   0.290
 2824SOL     OW 9370   1.737   3.339   5.291
 2824SOL    HW1 9371   1.813   3.367   5.232
 2824SOL    HW2 9372   1.713   3.244   5.272
 2825SOL     OW 9373   5.420   0.544   6.529
 2825SOL    HW1 9374   5.455   0.503   6.614
 2825SOL    HW2 9375   5.389   0.638   6.547
 2826SOL     OW 9376   1.905   2.680   6.190
 2826SOL    HW1 9377   1.926   2.599   6.245
 2826SOL    HW2 9378   1.811   2.674   6.157
 2827SOL     OW 9379   0.387   1.186   6.478
 2827SOL    HW1 9380   0.362   1.127   6.555
 2827SOL    HW2 9381   0.314   1.253   6.463
 2828SOL     OW 9382   1.732   3.544   1.469
 2828SOL    HW1 9383   1.777   3.531   1.381
 2828SOL    HW2 9384   1.800   3.562   1.540
 2829SOL     OW 9385   3.638   3.419   3.043
 2829SOL    HW1 9386   3.678   3.504   3.077
 2829SOL    HW2 9387   3.587   3.437   2.959
 2830SOL     OW 9388   3.535   4.310   5.428
 2830SOL    HW1 9389   3.464   4.265   5.375
 2830SOL    HW2 9390   3.546   4.263   5.516
 2831SOL     OW 9391   0.039   2.097   2.830
 2831SOL    HW1 9392   0.125   2.059   2.795
 2831SOL    HW2 9393   6.978   2.056   2.781
 2832SOL     OW 9394   0.819   3.305   1.651
 2832SOL    HW1 9395   0.736   3.345   1.614
 2832SOL    HW2 9396   0.843   3.350   1.737
 2833SOL     OW 9397   2.135   1.472   2.244
 2833SOL    HW1 9398   2.108   1.386   2.202
 2833SOL    HW2 9399   2.137   1.544   2.174
 2834SOL     OW 9400   4.892   6.055   4.752
 2834SOL    HW1 9401   4.923   5.961   4.735
 2834SOL    HW2 9402   4.898   6.075   4.850
 2835SOL     OW 9403   0.936   6.701   0.478
 2835SOL    HW1 9404   0.913   6.770   0.410
 2835SOL    HW2 9405   1.016   6.730   0.530
 2836SOL     OW 9406   3.029   6.133   3.058
 2836SOL    HW1 9407   3.104   6.108   2.996
 2836SOL    HW2 9408   3.028   6.070   3.135
 2837SOL     OW 9409   5.548   4.522   2.279
 2837SOL    HW1 9410   5.527   4.425   2.295
 2837SOL    HW2 9411   5.628   4.528   2.219
 2838SOL     OW 9412   4.958   4.205   7.011
 2838SOL    HW1 9413   4.969   4.220   0.094
 2838SOL    HW2 9414   4.889   4.268   6.975
 2839SOL     OW 9415   6.925   2.403   3.266
 2839SOL    HW1 9416   6.951   2.314   3.302
 2839SOL    HW2 9417   6.848   2.440   3.319
 2840SOL     OW 9418   1.768   5.185   2.659
 2840SOL    HW1 9419   1.689   5.190   2.719
 2840SOL    HW2 9420   1.780   5.272   2.612
 2841SOL     OW 9421   6.142   2.587   0.370
 2841SOL    HW1 9422   6.165   2.672   0.417
 2841SOL    HW2 9423   6.111   2.608   0.277
 2842SOL     OW 9424   1.577   5.735   5.079
 2842SOL    HW1 9425   1.523   5.816   5.100
 2842SOL    HW2 9426   1.668   5.763   5.047
 2843SOL     OW 9427   2.588   2.492   2.652
 2843SOL    HW1 9428   2.590   2.546   2.736
 2843SOL    HW2 9429   2.553   2.548   2.577
 2844SOL     OW 9430   4.902   4.628   1.153
 2844SOL    HW1 9431   4.881   4.641   1.250
 2844SOL    HW2 9432   5.001   4.621   1.141
 2845SOL     OW 9433   5.166   2.894   3.670
 2845SOL    HW1 9434   5.084   2.853   3.710
 2845SOL    HW2 9435   5.245   2.836   3.690
 2846SOL     OW 9436   3.609   0.695   0.251
 2846SOL    HW1 9437   3.600   0.719   0.348
 2846SOL    HW2 9438   3.703   0.712   0.221
 2847SOL     OW 9439   4.762   4.264   2.109
 2847SOL    HW1 9440   4.671   4.282   2.073
 2847SOL    HW2 9441   4.759   4.183   2.168
 2848SOL     OW 9442   1.525   2.239   5.404
 2848SOL    HW1 9443   1.556   2.290   5.323
 2848SOL    HW2 9444   1.586   2.258   5.480
 2849SOL     OW 9445   3.962   1.256   1.390
 2849SOL    HW1 9446   3.932   1.351   1.391
 2849SOL    HW2 9447   3.994   1.231   1.481
 2850SOL     OW 9448   1.874   6.904   3.627
 2850SOL    HW1 9449   1.955   6.939   3.580
 2850SOL    HW2 9450   1.794   6.959   3.602
 2851SOL     OW 9451   4.414   3.410   6.559
 2851SOL    HW1 9452   4.430   3.444   6.651
 2851SOL    HW2 9453   4.390   3.486   6.499
 2852SOL     OW 9454   6.697   4.413   6.987
 2852SOL    HW1 9455   6.758   4.420   0.050
 2852SOL    HW2 9456   6.697   4.499   6.937
 2853SOL     OW 9457   0.646   3.419   6.967
 2853SOL    HW1 9458   0.555   3.460   6.966
 2853SOL    HW2 9459   0.715   3.491   6.980
 2854SOL     OW 9460   3.499   1.081   6.042
 2854SOL    HW1 9461   3.478   1.125   6.129
 2854SOL    HW2 9462   3.535   0.989   6.059
 2855SOL     OW 9463   0.879   2.316   3.863
 2855SOL    HW1 9464   0.823   2.383   3.813
 2855SOL    HW2 9465   0.968   2.356   3.883
 2856SOL     OW 9466   1.513   2.592   3.147
 2856SOL    HW1 9467   1.588   2.656   3.138
 2856SOL    HW2 9468   1.523   2.518   3.079
 2857SOL     OW 9469   0.338   3.416   1.130
 2857SOL    HW1 9470   0.375   3.453   1.045
 2857SOL    HW2 9471   0.402   3.348   1.167
 2858SOL     OW 9472   5.276   6.090   2.710
 2858SOL    HW1 9473   5.192   6.131   2.746
 2858SOL    HW2 9474   5.255   6.038   2.628
 2859SOL     OW 9475   5.419   5.362   0.593
 2859SOL    HW1 9476   5.471   5.440   0.629
 2859SOL    HW2 9477   5.328   5.394   0.565
 2860SOL     OW 9478   1.896   6.429   2.405
 2860SOL    HW1 9479   1.829   6.364   2.441
 2860SOL    HW2 9480   1.913   6.500   2.474
 2861SOL     OW 9481   3.141   5.231   5.472
 2861SOL    HW1 9482   3.217   5.168   5.489
 2861SOL    HW2 9483   3.177   5.316   5.433
 2862SOL     OW 9484   4.605   2.582   1.773
 2862SOL    HW1 9485   4.543   2.513   1.812
 2862SOL    HW2 9486   4.551   2.659   1.739
 2863SOL     OW 9487   5.597   1.186   6.402
 2863SOL    HW1 9488   5.625   1.218   6.312
 2863SOL    HW2 9489   5.503   1.216   6.421
 2864SOL     OW 9490   4.336   2.935   1.051
 2864SOL    HW1 9491   4.337   2.836   1.064
 2864SOL    HW2 9492   4.243   2.969   1.067
 2865SOL     OW 9493   4.572   0.004   4.264
 2865SOL    HW1 9494   4.530   0.025   4.175
 2865SOL    HW2 9495   4.671   0.000   4.254
 2866SOL     OW 9496   5.760   3.883   0.270
 2866SOL    HW1 9497   5.769   3.840   0.360
 2866SOL    HW2 9498   5.770   3.814   0.199
 2867SOL     OW 9499   6.566   6.307   2.228
 2867SOL    HW1 9500   6.473   6.342   2.214
 2867SOL    HW2 9501   6.631   6.363   2.177
 2868SOL     OW 9502   1.058   1.166   5.321
 2868SOL    HW1 9503   1.063   1.213   5.233
 2868SOL    HW2 9504   1.123   1.208   5.385
 2869SOL     OW 9505   5.812   0.449   3.877
 2869SOL    HW1 9506   5.872   0.488   3.948
 2869SOL    HW2 9507   5.833   0.352   3.865
 2870SOL     OW 9508   0.756   1.576   6.548
 2870SOL    HW1 9509   0.815   1.516   6.603
 2870SOL    HW2 9510   0.663   1.572   6.582
 2871SOL     OW 9511   6.558   0.560   0.406
 2871SOL    HW1 9512   6.512   0.523   0.486
 2871SOL    HW2 9513   6.491   0.598   0.343
 2872SOL     OW 9514   2.536   1.310   1.199
 2872SOL    HW1 9515   2.540   1.374   1.275
 2872SOL    HW2 9516   2.514   1.359   1.115
 2873SOL     OW 9517   0.126   5.614   1.713
 2873SOL    HW1 9518   0.178   5.695   1.690
 2873SOL    HW2 9519   0.036   5.618   1.669
 2874SOL     OW 9520   4.184   0.066   3.023
 2874SOL    HW1 9521   4.267   0.036   3.070
 2874SOL    HW2 9522   4.104   0.027   3.069
 2875SOL     OW 9523   3.725   6.955   3.068
 2875SOL    HW1 9524   3.731   6.941   2.969
 2875SOL    HW2 9525   3.782   0.017   3.094
 2876SOL     OW 9526   1.382   6.281   1.955
 2876SOL    HW1 9527   1.364   6.183   1.955
 2876SOL    HW2 9528   1.408   6.310   1.863
 2877SOL     OW 9529   2.110   1.262   6.666
 2877SOL    HW1 9530   2.150   1.354   6.663
 2877SOL    HW2 9531   2.027   1.263   6.721
 2878SOL     OW 9532   2.900   3.581   4.276
 2878SOL    HW1 9533   2.893   3.631   4.362
 2878SOL    HW2 9534   2.948   3.494   4.292
 2879SOL     OW 9535   4.179   5.201   5.981
 2879SOL    HW1 9536   4.106   5.220   5.916
 2879SOL    HW2 9537   4.212   5.287   6.021
 2880SOL     OW 9538   0.722   1.685   3.847
 2880SOL    HW1 9539   0.751   1.611   3.907
 2880SOL    HW2 9540   0.802   1.732   3.811
 2881SOL     OW 9541   3.325   5.720   0.162
 2881SOL    HW1 9542   3.230   5.708   0.191
 2881SOL    HW2 9543   3.328   5.737   0.064
 2882SOL     OW 9544   6.121   6.304   1.364
 2882SOL    HW1 9545   6.194   6.347   1.418
 2882SOL    HW2 9546   6.058   6.256   1.426
 2883SOL     OW 9547   6.155   6.519   3.676
 2883SOL    HW1 9548   6.115   6.443   3.727
 2883SOL    HW2 9549   6.170   6.491   3.581
 2884SOL     OW 9550   6.474   5.168   2.111
 2884SOL    HW1 9551   6.556   5.125   2.074
 2884SOL    HW2 9552   6.471   5.264   2.083
 2885SOL     OW 9553   1.478   2.025   4.151
 2885SOL    HW1 9554   1.397   2.024   4.210
 2885SOL    HW2 9555   1.517   1.933   4.147
 2886SOL     OW 9556   3.024   4.468   0.098
 2886SOL    HW1 9557   2.986   4.386   0.141
 2886SOL    HW2 9558   3.070   4.442   0.013
 2887SOL     OW 9559   6.982   6.103   4.140
 2887SOL    HW1 9560   0.059   6.136   4.122
 2887SOL    HW2 9561   6.921   6.133   4.067
 2888SOL     OW 9562   6.920   5.076   6.937
 2888SOL    HW1 9563   6.928   5.173   6.916
 2888SOL    HW2 9564   6.831   5.043   6.907
 2889SOL     OW 9565   3.152   6.578   2.961
 2889SOL    HW1 9566   3.061   6.609   2.937
 2889SOL    HW2 9567   3.220   6.624   2.904
 2890SOL     OW 9568   2.523   5.625   1.054
 2890SOL    HW1 9569   2.431   5.649   1.085
 2890SOL    HW2 9570   2.534   5.526   1.053
 2891SOL     OW 9571   0.679   3.193   3.097
 2891SOL    HW1 9572   0.714   3.283   3.121
 2891SOL    HW2 9573   0.729   3.158   3.017
 2892SOL     OW 9574   6.169   3.024   0.955
 2892SOL    HW1 9575   6.098   3.022   1.026
 2892SOL    HW2 9576   6.248   3.075   0.989
 2893SOL     OW 9577   1.651   5.452   4.706
 2893SOL    HW1 9578   1.626   5.452   4.802
 2893SOL    HW2 9579   1.697   5.366   4.683
 2894SOL     OW 9580   1.830   4.109   1.899
 2894SOL    HW1 9581   1.745   4.059   1.911
 2894SOL    HW2 9582   1.811   4.198   1.857
 2895SOL     OW 9583   3.951   0.937   6.527
 2895SOL    HW1 9584   3.869   0.933   6.585
 2895SOL    HW2 9585   3.925   0.964   6.435
 2896SOL     OW 9586   5.425   0.062   6.158
 2896SOL    HW1 9587   5.502   0.124   6.149
 2896SOL    HW2 9588   5.375   0.056   6.071
 2897SOL     OW 9589   4.275   4.686   2.805
 2897SOL    HW1 9590   4.202   4.749   2.779
 2897SOL    HW2 9591   4.275   4.673   2.904
 2898SOL     OW 9592   5.380   3.789   3.814
 2898SOL    HW1 9593   5.303   3.753   3.866
 2898SOL    HW2 9594   5.347   3.855   3.747
 2899SOL     OW 9595   6.384   2.040   0.898
 2899SOL    HW1 9596   6.421   2.121   0.944
 2899SOL    HW2 9597   6.302   2.066   0.846
 2900SOL     OW 9598   4.016   4.988   7.008
 2900SOL    HW1 9599   3.960   5.025   0.066
 2900SOL    HW2 9600   4.112   4.983   0.022
 2901SOL     OW 9601   1.485   4.722   3.691
 2901SOL    HW1 9602   1.574   4.756   3.659
 2901SOL    HW2 9603   1.428   4.800   3.717
 2902SOL     OW 9604   0.081   5.829   3.710
 2902SOL    HW1 9605   0.023   5.796   3.636
 2902SOL    HW2 9606   0.046   5.796   3.797
 2903SOL     OW 9607   4.590   6.187   1.197
 2903SOL    HW1 9608   4.671   6.246   1.198
 2903SOL    HW2 9609   4.568   6.162   1.102
 2904SOL     OW 9610   2.991   4.967   4.862
 2904SOL    HW1 9611   2.907   4.921   4.832
 2904SOL    HW2 9612   3.033   4.916   4.937
 2905SOL     OW 9613   1.224   4.032   3.918
 2905SOL    HW1 9614   1.152   4.039   3.988
 2905SOL    HW2 9615   1.183   4.043   3.828
 2906SOL     OW 9616   4.939   6.006   2.646
 2906SOL    HW1 9617   4.985   5.917   2.646
 2906SOL    HW2 9618   4.915   6.031   2.740
 2907SOL     OW 9619   0.897   1.573   4.079
 2907SOL    HW1 9620   0.922   1.504   4.011
 2907SOL    HW2 9621   0.886   1.529   4.168
 2908SOL     OW 9622   5.457   0.020   4.139
 2908SOL    HW1 9623   5.512   0.063   4.068
 2908SOL    HW2 9624   5.510   0.014   4.224
 2909SOL     OW 9625   1.423   6.446   3.203
 2909SOL    HW1 9626   1.513   6.444   3.246
 2909SOL    HW2 9627   1.416   6.373   3.135
 2910SOL     OW 9628   6.706   1.123   3.511
 2910SOL    HW1 9629   6.753   1.207   3.485
 2910SOL    HW2 9630   6.621   1.114   3.458
 2911SOL     OW 9631   1.106   4.908   3.826
 2911SOL    HW1 9632   1.123   4.837   3.758
 2911SOL    HW2 9633   1.084   4.994   3.779
 2912SOL     OW 9634   6.862   6.381   6.776
 2912SOL    HW1 9635   6.818   6.467   6.802
 2912SOL    HW2 9636   6.891   6.333   6.858
 2913SOL     OW 9637   2.603   4.561   2.643
 2913SOL    HW1 9638   2.598   4.604   2.733
 2913SOL    HW2 9639   2.690   4.585   2.600
 2914SOL     OW 9640   5.325   5.279   1.383
 2914SOL    HW1 9641   5.370   5.190   1.388
 2914SOL    HW2 9642   5.381   5.347   1.432
 2915SOL     OW 9643   2.742   2.006   3.640
 2915SOL    HW1 9644   2.722   2.041   3.549
 2915SOL    HW2 9645   2.793   2.074   3.693
 2916SOL     OW 9646   2.135   5.573   0.451
 2916SOL    HW1 9647   2.103   5.598   0.360
 2916SOL    HW2 9648   2.058   5.540   0.506
 2917SOL     OW 9649   3.032   0.650   3.797
 2917SOL    HW1 9650   3.064   0.611   3.711
 2917SOL    HW2 9651   2.950   0.601   3.828
 2918SOL     OW 9652   6.049   3.619   0.185
 2918SOL    HW1 9653   6.056   3.647   0.089
 2918SOL    HW2 9654   6.098   3.533   0.198
 2919SOL     OW 9655   6.675   6.571   3.668
 2919SOL    HW1 9656   6.719   6.526   3.590
 2919SOL    HW2 9657   6.652   6.665   3.643
 2920SOL     OW 9658   2.920   0.447   2.363
 2920SOL    HW1 9659   2.947   0.460   2.458
 2920SOL    HW2 9660   2.850   0.377   2.357
 2921SOL     OW 9661   0.050   0.143   5.891
 2921SOL    HW1 9662   6.973   0.150   5.853
 2921SOL    HW2 9663   0.117   0.155   5.818
 2922SOL     OW 9664   3.988   0.085   1.937
 2922SOL    HW1 9665   3.999   0.172   1.984
 2922SOL    HW2 9666   3.902   0.086   1.886
 2923SOL     OW 9667   6.431   5.240   4.496
 2923SOL    HW1 9668   6.489   5.195   4.564
 2923SOL    HW2 9669   6.471   5.329   4.472
 2924SOL     OW 9670   6.433   1.527   4.708
 2924SOL    HW1 9671   6.398   1.473   4.631
 2924SOL    HW2 9672   6.358   1.551   4.770
 2925SOL     OW 9673   5.630   1.624   6.912
 2925SOL    HW1 9674   5.542   1.663   6.935
 2925SOL    HW2 9675   5.617   1.545   6.852
 2926SOL     OW 9676   6.742   2.483   5.945
 2926SOL    HW1 9677   6.825   2.496   5.999
 2926SOL    HW2 9678   6.662   2.510   5.999
 2927SOL     OW 9679   1.992   3.309   0.686
 2927SOL    HW1 9680   1.919   3.272   0.630
 2927SOL    HW2 9681   2.076   3.314   0.631
 2928SOL     OW 9682   6.394   1.419   6.779
 2928SOL    HW1 9683   6.458   1.406   6.854
 2928SOL    HW2 9684   6.374   1.516   6.767
 2929SOL     OW 9685   1.363   2.592   5.039
 2929SOL    HW1 9686   1.403   2.661   5.100
 2929SOL    HW2 9687   1.273   2.566   5.074
 2930SOL     OW 9688   5.557   6.168   5.274
 2930SOL    HW1 9689   5.604   6.229   5.211
 2930SOL    HW2 9690   5.534   6.083   5.228
 2931SOL     OW 9691   4.057   4.819   0.384
 2931SOL    HW1 9692   4.047   4.896   0.448
 2931SOL    HW2 9693   3.978   4.758   0.392
 2932SOL     OW 9694   6.599   5.114   1.718
 2932SOL    HW1 9695   6.537   5.149   1.647
 2932SOL    HW2 9696   6.673   5.063   1.674
 2933SOL     OW 9697   0.649   0.039   2.083
 2933SOL    HW1 9698   0.573   0.098   2.109
 2933SOL    HW2 9699   0.638   6.965   2.125
 2934SOL     OW 9700   4.730   2.967   1.451
 2934SOL    HW1 9701   4.680   3.052   1.430
 2934SOL    HW2 9702   4.672   2.889   1.431
 2935SOL     OW 9703   1.222   2.263   6.357
 2935SOL    HW1 9704   1.204   2.352   6.315
 2935SOL    HW2 9705   1.177   2.192   6.303
 2936SOL     OW 9706   4.144   6.683   0.591
 2936SOL    HW1 9707   4.062   6.714   0.639
 2936SOL    HW2 9708   4.122   6.602   0.536
 2937SOL     OW 9709   4.584   5.022   1.191
 2937SOL    HW1 9710   4.628   5.027   1.280
 2937SOL    HW2 9711   4.634   5.078   1.125
 2938SOL     OW 9712   6.268   5.501   6.886
 2938SOL    HW1 9713   6.302   5.557   6.811
 2938SOL    HW2 9714   6.285   5.548   6.973
 2939SOL     OW 9715   0.957   0.252   1.618
 2939SOL    HW1 9716   0.906   0.337   1.605
 2939SOL    HW2 9717   1.027   0.243   1.548
 2940SOL     OW 9718   6.150   5.798   4.585
 2940SOL    HW1 9719   6.115   5.882   4.628
 2940SOL    HW2 9720   6.124   5.796   4.489
 2941SOL     OW 9721   2.379   2.354   2.930
 2941SOL    HW1 9722   2.383   2.451   2.907
 2941SOL    HW2 9723   2.445   2.334   3.003
 2942SOL     OW 9724   3.420   2.583   0.260
 2942SOL    HW1 9725   3.403   2.501   0.314
 2942SOL    HW2 9726   3.338   2.641   0.261
 2943SOL     OW 9727   6.246   4.992   3.683
 2943SOL    HW1 9728   6.182   4.964   3.755
 2943SOL    HW2 9729   6.339   4.995   3.720
 2944SOL     OW 9730   2.583   6.362   3.911
 2944SOL    HW1 9731   2.599   6.407   3.999
 2944SOL    HW2 9732   2.491   6.323   3.910
 2945SOL     OW 9733   5.201   3.514   1.773
 2945SOL    HW1 9734   5.174   3.581   1.841
 2945SOL    HW2 9735   5.206   3.424   1.815
 2946SOL     OW 9736   1.752   4.126   5.688
 2946SOL    HW1 9737   1.673   4.127   5.749
 2946SOL    HW2 9738   1.768   4.033   5.655
 2947SOL     OW 9739   0.314   5.499   0.252
 2947SOL    HW1 9740   0.411   5.500   0.228
 2947SOL    HW2 9741   0.270   5.419   0.211
 2948SOL     OW 9742   6.611   4.526   3.188
 2948SOL    HW1 9743   6.708   4.543   3.170
 2948SOL    HW2 9744   6.589   4.554   3.282
 2949SOL     OW 9745   0.512   6.216   6.413
 2949SOL    HW1 9746   0.527   6.293   6.476
 2949SOL    HW2 9747   0.600   6.188   6.374
 2950SOL     OW 9748   5.539   5.014   3.341
 2950SOL    HW1 9749   5.596   5.087   3.378
 2950SOL    HW2 9750   5.448   5.050   3.321
 2951SOL     OW 9751   5.170   1.163   1.982
 2951SOL    HW1 9752   5.150   1.127   2.073
 2951SOL    HW2 9753   5.177   1.087   1.917
 2952SOL     OW 9754   6.597   6.959   4.896
 2952SOL    HW1 9755   6.570   6.993   4.806
 2952SOL    HW2 9756   6.615   0.021   4.957
 2953SOL     OW 9757   0.129   4.597   3.131
 2953SOL    HW1 9758   0.186   4.548   3.197
 2953SOL    HW2 9759   0.159   4.574   3.038
 2954SOL     OW 9760   6.791   4.716   6.490
 2954SOL    HW1 9761   6.724   4.644   6.476
 2954SOL    HW2 9762   6.746   4.797   6.528
 2955SOL     OW 9763   1.063   4.430   0.597
 2955SOL    HW1 9764   0.990   4.498   0.602
 2955SOL    HW2 9765   1.050   4.372   0.517
 2956SOL     OW 9766   0.073   5.533   3.998
 2956SOL    HW1 9767   7.005   5.554   3.948
 2956SOL    HW2 9768   0.081   5.593   4.078
 2957SOL     OW 9769   4.237   4.857   1.496
 2957SOL    HW1 9770   4.193   4.943   1.520
 2957SOL    HW2 9771   4.170   4.796   1.453
 2958SOL     OW 9772   2.256   4.876   3.617
 2958SOL    HW1 9773   2.231   4.899   3.523
 2958SOL    HW2 9774   2.352   4.849   3.620
 2959SOL     OW 9775   5.230   2.752   2.832
 2959SOL    HW1 9776   5.207   2.695   2.753
 2959SOL    HW2 9777   5.163   2.827   2.839
 2960SOL     OW 9778   3.598   0.149   0.147
 2960SOL    HW1 9779   3.538   0.229   0.134
 2960SOL    HW2 9780   3.620   0.139   0.244
 2961SOL     OW 9781   6.499   4.915   3.439
 2961SOL    HW1 9782   6.541   4.908   3.349
 2961SOL    HW2 9783   6.419   4.854   3.444
 2962SOL     OW 9784   5.090   6.526   3.189
 2962SOL    HW1 9785   5.074   6.524   3.287
 2962SOL    HW2 9786   5.031   6.459   3.144
 2963SOL     OW 9787   1.182   0.784   6.617
 2963SOL    HW1 9788   1.235   0.832   6.687
 2963SOL    HW2 9789   1.130   0.850   6.563
 2964SOL     OW 9790   0.555   2.725   6.201
 2964SOL    HW1 9791   0.604   2.778   6.131
 2964SOL    HW2 9792   0.461   2.710   6.171
 2965SOL     OW 9793   1.227   0.213   4.334
 2965SOL    HW1 9794   1.301   0.250   4.390
 2965SOL    HW2 9795   1.266   0.169   4.253
 2966SOL     OW 9796   5.005   5.301   3.911
 2966SOL    HW1 9797   5.030   5.312   4.007
 2966SOL    HW2 9798   4.909   5.273   3.905
 2967SOL     OW 9799   6.137   1.518   5.763
 2967SOL    HW1 9800   6.165   1.501   5.857
 2967SOL    HW2 9801   6.039   1.537   5.761
 2968SOL     OW 9802   1.785   2.601   0.660
 2968SOL    HW1 9803   1.804   2.687   0.707
 2968SOL    HW2 9804   1.836   2.528   0.704
 2969SOL     OW 9805   4.798   3.886   4.489
 2969SOL    HW1 9806   4.835   3.883   4.582
 2969SOL    HW2 9807   4.760   3.976   4.472
 2970SOL     OW 9808   2.955   2.980   5.311
 2970SOL    HW1 9809   3.006   3.000   5.394
 2970SOL    HW2 9810   3.016   2.942   5.242
 2971SOL     OW 9811   5.841   4.130   0.129
 2971SOL    HW1 9812   5.928   4.121   0.177
 2971SOL    HW2 9813   5.781   4.054   0.154
 2972SOL     OW 9814   5.705   5.166   0.087
 2972SOL    HW1 9815   5.795   5.178   0.129
 2972SOL    HW2 9816   5.635   5.157   0.158
 2973SOL     OW 9817   4.829   6.865   2.287
 2973SOL    HW1 9818   4.731   6.886   2.289
 2973SOL    HW2 9819   4.881   6.950   2.280
 2974SOL     OW 9820   5.891   4.318   3.214
 2974SOL    HW1 9821   5.937   4.402   3.245
 2974SOL    HW2 9822   5.917   4.298   3.120
 2975SOL     OW 9823   4.936   4.640   4.433
 2975SOL    HW1 9824   5.006   4.619   4.501
 2975SOL    HW2 9825   4.977   4.638   4.342
 2976SOL     OW 9826   5.245   2.301   3.105
 2976SOL    HW1 9827   5.317   2.232   3.096
 2976SOL    HW2 9828   5.286   2.392   3.102
 2977SOL     OW 9829   1.012   0.494   2.379
 2977SOL    HW1 9830   1.039   0.566   2.315
 2977SOL    HW2 9831   0.945   0.434   2.335
 2978SOL     OW 9832   4.038   4.051   0.211
 2978SOL    HW1 9833   4.085   4.115   0.149
 2978SOL    HW2 9834   3.943   4.039   0.182
 2979SOL     OW 9835   3.133   1.491   4.171
 2979SOL    HW1 9836   3.118   1.427   4.096
 2979SOL    HW2 9837   3.212   1.550   4.150
 2980SOL     OW 9838   2.538   5.143   6.238
 2980SOL    HW1 9839   2.439   5.141   6.245
 2980SOL    HW2 9840   2.578   5.130   6.329
 2981SOL     OW 9841   2.541   1.747   6.985
 2981SOL    HW1 9842   2.602   1.811   0.015
 2981SOL    HW2 9843   2.448   1.784   6.984
 2982SOL     OW 9844   1.953   5.997   2.555
 2982SOL    HW1 9845   2.040   5.995   2.603
 2982SOL    HW2 9846   1.968   6.013   2.458
 2983SOL     OW 9847   6.833   2.433   0.922
 2983SOL    HW1 9848   6.789   2.497   0.859
 2983SOL    HW2 9849   6.828   2.340   0.885
 2984SOL     OW 9850   5.789   5.211   6.287
 2984SOL    HW1 9851   5.761   5.119   6.259
 2984SOL    HW2 9852   5.877   5.205   6.334
 2985SOL     OW 9853   0.609   1.130   4.375
 2985SOL    HW1 9854   0.553   1.055   4.339
 2985SOL    HW2 9855   0.626   1.197   4.302
 2986SOL     OW 9856   3.399   4.030   2.258
 2986SOL    HW1 9857   3.391   4.072   2.168
 2986SOL    HW2 9858   3.490   4.049   2.295
 2987SOL     OW 9859   1.804   1.366   4.425
 2987SOL    HW1 9860   1.707   1.388   4.423
 2987SOL    HW2 9861   1.823   1.302   4.499
 2988SOL     OW 9862   1.795   6.999   1.471
 2988SOL    HW1 9863   1.863   6.935   1.436
 2988SOL    HW2 9864   1.721   6.949   1.516
 2989SOL     OW 9865   5.250   3.847   5.102
 2989SOL    HW1 9866   5.190   3.849   5.181
 2989SOL    HW2 9867   5.233   3.928   5.045
 2990SOL     OW 9868   4.970   2.510   4.484
 2990SOL    HW1 9869   5.022   2.451   4.546
 2990SOL    HW2 9870   4.982   2.605   4.511
 2991SOL     OW 9871   6.412   3.274   6.798
 2991SOL    HW1 9872   6.424   3.226   6.711
 2991SOL    HW2 9873   6.496   3.323   6.820
 2992SOL     OW 9874   1.345   4.535   4.692
 2992SOL    HW1 9875   1.355   4.592   4.774
 2992SOL    HW2 9876   1.422   4.552   4.630
 2993SOL     OW 9877   0.151   4.876   0.375
 2993SOL    HW1 9878   0.153   4.951   0.441
 2993SOL    HW2 9879   0.090   4.900   0.299
 2994SOL     OW 9880   4.791   5.815   6.866
 2994SOL    HW1 9881   4.766   5.775   6.954
 2994SOL    HW2 9882   4.891   5.817   6.856
 2995SOL     OW 9883   4.618   0.126   0.302
 2995SOL    HW1 9884   4.521   0.111   0.317
 2995SOL    HW2 9885   4.669   0.042   0.325
 2996SOL     OW 9886   1.132   1.955   4.703
 2996SOL    HW1 9887   1.101   1.986   4.792
 2996SOL    HW2 9888   1.063   1.975   4.634
 2997SOL     OW 9889   4.761   0.468   3.101
 2997SOL    HW1 9890   4.816   0.391   3.135
 2997SOL    HW2 9891   4.821   0.539   3.065
 2998SOL     OW 9892   3.510   0.268   3.823
 2998SOL    HW1 9893   3.558   0.266   3.735
 2998SOL    HW2 9894   3.508   0.362   3.858
 2999SOL     OW 9895   3.245   4.564   5.991
 2999SOL    HW1 9896   3.190   4.641   5.957
 2999SOL    HW2 9897   3.342   4.589   5.989
 3000SOL     OW 9898   2.886   4.412   6.627
 3000SOL    HW1 9899   2.800   4.409   6.576
 3000SOL    HW2 9900   2.881   4.347   6.703
 3001SOL     OW 9901   6.170   1.980   0.220
 3001SOL    HW1 9902   6.095   1.946   0.163
 3001SOL    HW2 9903   6.150   1.962   0.316
 3002SOL     OW 9904   3.220   1.421   0.461
 3002SOL    HW1 9905   3.290   1.419   0.389
 3002SOL    HW2 9906   3.139   1.469   0.428
 3003SOL     OW 9907   0.785   6.242   1.409
 3003SOL    HW1 9908   0.761   6.332   1.373
 3003SOL    HW2 9909   0.710   6.179   1.392
 3004SOL     OW 9910   1.679   4.834   3.360
 3004SOL    HW1 9911   1.626   4.767   3.309
 3004SOL    HW2 9912   1.687   4.806   3.455
 3005SOL     OW 9913   1.290   3.081   5.971
 3005SOL    HW1 9914   1.234   3.004   5.941
 3005SOL    HW2 9915   1.232   3.148   6.017
 3006SOL     OW 9916   5.558   1.395   5.272
 3006SOL    HW1 9917   5.654   1.417   5.290
 3006SOL    HW2 9918   5.550   1.350   5.183
 3007SOL     OW 9919   4.585   5.283   0.175
 3007SOL    HW1 9920   4.680   5.297   0.148
 3007SOL    HW2 9921   4.552   5.197   0.137
 3008SOL     OW 9922   3.462   2.450   6.377
 3008SOL    HW1 9923   3.526   2.384   6.337
 3008SOL    HW2 9924   3.509   2.537   6.392
 3009SOL     OW 9925   0.087   2.293   3.038
 3009SOL    HW1 9926   0.043   2.241   2.964
 3009SOL    HW2 9927   0.060   2.389   3.033
 3010SOL     OW 9928   3.325   5.719   5.153
 3010SOL    HW1 9929   3.372   5.707   5.065
 3010SOL    HW2 9930   3.231   5.687   5.145
 3011SOL     OW 9931   6.735   6.841   1.524
 3011SOL    HW1 9932   6.677   6.815   1.446
 3011SOL    HW2 9933   6.803   6.908   1.494
 3012SOL     OW 9934   2.290   3.691   0.102
 3012SOL    HW1 9935   2.310   3.712   0.198
 3012SOL    HW2 9936   2.243   3.603   0.096
 3013SOL     OW 9937   6.246   4.796   3.454
 3013SOL    HW1 9938   6.222   4.855   3.531
 3013SOL    HW2 9939   6.194   4.711   3.459
 3014SOL     OW 9940   4.783   1.852   6.737
 3014SOL    HW1 9941   4.808   1.948   6.752
 3014SOL    HW2 9942   4.857   1.805   6.689
 3015SOL     OW 9943   2.184   1.506   0.532
 3015SOL    HW1 9944   2.127   1.426   0.551
 3015SOL    HW2 9945   2.133   1.570   0.474
 3016SOL     OW 9946   3.346   0.135   4.113
 3016SOL    HW1 9947   3.385   0.086   4.036
 3016SOL    HW2 9948   3.415   0.145   4.185
 3017SOL     OW 9949   5.949   4.701   2.385
 3017SOL    HW1 9950   6.002   4.781   2.356
 3017SOL    HW2 9951   5.932   4.706   2.483
 3018SOL     OW 9952   3.863   0.026   6.658
 3018SOL    HW1 9953   3.784   6.985   6.634
 3018SOL    HW2 9954   3.835   0.099   6.720
 3019SOL     OW 9955   0.647   6.994   0.369
 3019SOL    HW1 9956   0.599   0.047   0.314
 3019SOL    HW2 9957   0.652   0.010   0.464
 3020SOL     OW 9958   4.376   3.278   0.432
 3020SOL    HW1 9959   4.313   3.341   0.386
 3020SOL    HW2 9960   4.347   3.184   0.416
 3021SOL     OW 9961   2.363   6.733   4.377
 3021SOL    HW1 9962   2.285   6.671   4.370
 3021SOL    HW2 9963   2.333   6.826   4.353
 3022SOL     OW 9964   4.266   5.496   4.345
 3022SOL    HW1 9965   4.199   5.422   4.341
 3022SOL    HW2 9966   4.228   5.577   4.300
 3023SOL     OW 9967   4.010   0.043   2.691
 3023SOL    HW1 9968   4.064   0.124   2.716
 3023SOL    HW2 9969   4.009   0.033   2.592
 3024SOL     OW 9970   6.146   6.171   5.480
 3024SOL    HW1 9971   6.173   6.107   5.552
 3024SOL    HW2 9972   6.228   6.213   5.441
 3025SOL     OW 9973   3.811   6.043   1.782
 3025SOL    HW1 9974   3.795   6.139   1.759
 3025SOL    HW2 9975   3.799   6.030   1.880
 3026SOL     OW 9976   7.010   1.101   6.422
 3026SOL    HW1 9977   0.067   1.032   6.410
 3026SOL    HW2 9978   0.030   1.177   6.476
 3027SOL     OW 9979   4.179   1.574   2.368
 3027SOL    HW1 9980   4.237   1.543   2.294
 3027SOL    HW2 9981   4.119   1.647   2.335
 3028SOL     OW 9982   2.058   3.752   6.127
 3028SOL    HW1 9983   2.033   3.829   6.185
 3028SOL    HW2 9984   2.004   3.755   6.043
 3029SOL     OW 9985   1.089   2.238   3.427
 3029SOL    HW1 9986   1.156   2.277   3.363
 3029SOL    HW2 9987   1.137   2.189   3.500
 3030SOL     OW 9988   1.378   4.028   0.746
 3030SOL    HW1 9989   1.406   4.082   0.667
 3030SOL    HW2 9990   1.458   3.985   0.787
 3031SOL     OW 9991   1.549   4.672   0.581
 3031SOL    HW1 9992   1.463   4.631   0.614
 3031SOL    HW2 9993   1.535   4.710   0.490
 3032SOL     OW 9994   2.182   5.567   2.429
 3032SOL    HW1 9995   2.269   5.582   2.476
 3032SOL    HW2 9996   2.118   5.639   2.454
 3033SOL     OW 9997   6.086   1.928   3.232
 3033SOL    HW1 9998   5.986   1.929   3.239
 3033SOL    HW2 9999   6.113   1.968   3.145
 3034SOL     OW10000   1.147   5.753   3.951
 3034SOL    HW110001   1.099   5.782   4.034
 3034SOL    HW210002   1.232   5.707   3.976
 3035SOL     OW10003   0.866   3.212   6.247
 3035SOL    HW110004   0.961   3.212   6.278
 3035SOL    HW210005   0.862   3.213   6.147
 3036SOL     OW10006   1.324   1.785   4.994
 3036SOL    HW110007   1.348   1.733   4.912
 3036SOL    HW210008   1.296   1.878   4.967
 3037SOL     OW10009   6.778   5.143   5.362
 3037SOL    HW110010   6.808   5.156   5.268
 3037SOL    HW210011   6.803   5.223   5.417
 3038SOL     OW10012   5.276   4.669   5.999
 3038SOL    HW110013   5.294   4.695   6.094
 3038SOL    HW210014   5.353   4.698   5.942
 3039SOL     OW10015   0.047   2.980   6.867
 3039SOL    HW110016   6.982   3.038   6.853
 3039SOL    HW210017   0.093   3.007   6.951
 3040SOL     OW10018   2.937   4.579   5.709
 3040SOL    HW110019   2.995   4.558   5.630
 3040SOL    HW210020   2.884   4.497   5.733
 3041SOL     OW10021   1.292   4.502   5.837
 3041SOL    HW110022   1.388   4.491   5.809
 3041SOL    HW210023   1.281   4.590   5.884
 3042SOL     OW10024   6.195   5.611   2.510
 3042SOL    HW110025   6.099   5.594   2.532
 3042SOL    HW210026   6.218   5.568   2.423
 3043SOL     OW10027   3.156   3.352   0.495
 3043SOL    HW110028   3.084   3.410   0.457
 3043SOL    HW210029   3.211   3.405   0.559
 3044SOL     OW10030   3.061   4.874   5.390
 3044SOL    HW110031   2.993   4.862   5.318
 3044SOL    HW210032   3.068   4.972   5.412
 3045SOL     OW10033   4.408   6.774   3.082
 3045SOL    HW110034   4.504   6.747   3.082
 3045SOL    HW210035   4.401   6.874   3.084
 3046SOL     OW10036   3.321   6.005   0.021
 3046SOL    HW110037   3.302   5.933   6.970
 3046SOL    HW210038   3.420   6.016   0.031
 3047SOL     OW10039   6.199   0.172   0.671
 3047SOL    HW110040   6.177   0.169   0.573
 3047SOL    HW210041   6.136   0.234   0.717
 3048SOL     OW10042   4.784   2.221   0.948
 3048SOL    HW110043   4.749   2.186   1.035
 3048SOL    HW210044   4.873   2.179   0.929
 3049SOL     OW10045   1.236   0.893   4.028
 3049SOL    HW110046   1.198   0.946   3.952
 3049SOL    HW210047   1.302   0.827   3.993
 3050SOL     OW10048   2.437   2.491   1.589
 3050SOL    HW110049   2.490   2.407   1.599
 3050SOL    HW210050   2.488   2.555   1.531
 3051SOL     OW10051   2.614   6.926   6.437
 3051SOL    HW110052   2.560   6.842   6.446
 3051SOL    HW210053   2.578   6.980   6.360
 3052SOL     OW10054   5.502   5.539   2.276
 3052SOL    HW110055   5.496   5.446   2.238
 3052SOL    HW210056   5.448   5.543   2.361
 3053SOL     OW10057   0.757   3.985   0.825
 3053SOL    HW110058   0.662   4.015   0.832
 3053SOL    HW210059   0.815   4.063   0.804
 3054SOL     OW10060   5.469   0.943   2.401
 3054SOL    HW110061   5.467   0.927   2.500
 3054SOL    HW210062   5.542   0.887   2.360
 3055SOL     OW10063   5.501   6.670   5.753
 3055SOL    HW110064   5.489   6.604   5.679
 3055SOL    HW210065   5.597   6.696   5.759
 3056SOL     OW10066   6.290   1.873   5.598
 3056SOL    HW110067   6.300   1.779   5.632
 3056SOL    HW210068   6.220   1.920   5.652
 3057SOL     OW10069   5.296   5.987   4.357
 3057SOL    HW110070   5.304   6.015   4.262
 3057SOL    HW210071   5.255   6.061   4.410
 3058SOL     OW10072   6.545   3.895   0.991
 3058SOL    HW110073   6.588   3.851   0.911
 3058SOL    HW210074   6.457   3.852   1.009
 3059SOL     OW10075   2.267   1.643   4.067
 3059SOL    HW110076   2.272   1.611   3.972
 3059SOL    HW210077   2.172   1.665   4.090
 3060SOL     OW10078   2.522   5.212   6.848
 3060SOL    HW110079   2.599   5.151   6.828
 3060SOL    HW210080   2.440   5.157   6.863
 3061SOL     OW10081   5.854   5.733   5.872
 3061SOL    HW110082   5.902   5.712   5.958
 3061SOL    HW210083   5.779   5.796   5.891
 3062SOL     OW10084   3.589   5.323   1.169
 3062SOL    HW110085   3.606   5.238   1.220
 3062SOL    HW210086   3.554   5.392   1.232
 3063SOL     OW10087   0.938   4.507   0.964
 3063SOL    HW110088   0.971   4.421   0.926
 3063SOL    HW210089   0.842   4.497   0.992
 3064SOL     OW10090   4.344   3.081   6.917
 3064SOL    HW110091   4.372   3.127   7.001
 3064SOL    HW210092   4.342   2.982   6.932
 3065SOL     OW10093   0.983   1.522   6.373
 3065SOL    HW110094   0.917   1.545   6.444
 3065SOL    HW210095   0.973   1.426   6.349
 3066SOL     OW10096   4.976   5.371   6.166
 3066SOL    HW110097   4.913   5.293   6.170
 3066SOL    HW210098   4.938   5.447   6.219
 3067SOL     OW10099   2.411   1.450   0.687
 3067SOL    HW110100   2.414   1.544   0.721
 3067SOL    HW210101   2.353   1.446   0.606
 3068SOL     OW10102   7.005   0.923   1.350
 3068SOL    HW110103   0.003   0.833   1.308
 3068SOL    HW210104   6.908   0.935   1.372
 3069SOL     OW10105   6.443   6.403   3.168
 3069SOL    HW110106   6.385   6.334   3.124
 3069SOL    HW210107   6.395   6.491   3.166
 3070SOL     OW10108   2.761   0.821   6.858
 3070SOL    HW110109   2.729   0.915   6.847
 3070SOL    HW210110   2.708   0.761   6.799
 3071SOL     OW10111   6.912   4.747   3.700
 3071SOL    HW110112   6.847   4.732   3.775
 3071SOL    HW210113   6.959   4.834   3.713
 3072SOL     OW10114   1.864   6.229   6.926
 3072SOL    HW110115   1.802   6.155   6.901
 3072SOL    HW210116   1.882   6.227   0.009
 3073SOL     OW10117   0.098   4.090   1.282
 3073SOL    HW110118   0.171   4.040   1.328
 3073SOL    HW210119   0.122   4.104   1.186
 3074SOL     OW10120   1.414   4.234   1.424
 3074SOL    HW110121   1.402   4.327   1.457
 3074SOL    HW210122   1.368   4.171   1.486
 3075SOL     OW10123   2.402   5.455   3.878
 3075SOL    HW110124   2.323   5.441   3.817
 3075SOL    HW210125   2.407   5.551   3.904
 3076SOL     OW10126   6.323   1.478   4.409
 3076SOL    HW110127   6.389   1.410   4.378
 3076SOL    HW210128   6.275   1.516   4.331
 3077SOL     OW10129   5.968   3.623   1.817
 3077SOL    HW110130   6.000   3.552   1.754
 3077SOL    HW210131   6.017   3.708   1.799
 3078SOL     OW10132   6.783   2.968   1.941
 3078SOL    HW110133   6.756   3.015   2.026
 3078SOL    HW210134   6.868   2.918   1.957
 3079SOL     OW10135   3.109   2.186   3.717
 3079SOL    HW110136   3.029   2.193   3.776
 3079SOL    HW210137   3.190   2.166   3.773
 3080SOL     OW10138   4.961   4.355   1.880
 3080SOL    HW110139   4.932   4.327   1.972
 3080SOL    HW210140   4.948   4.454   1.869
 3081SOL     OW10141   0.559   4.641   6.193
 3081SOL    HW110142   0.605   4.556   6.167
 3081SOL    HW210143   0.608   4.719   6.154
 3082SOL     OW10144   2.643   5.750   4.162
 3082SOL    HW110145   2.688   5.830   4.122
 3082SOL    HW210146   2.638   5.761   4.261
 3083SOL     OW10147   3.276   5.576   2.790
 3083SOL    HW110148   3.184   5.544   2.769
 3083SOL    HW210149   3.278   5.676   2.785
 3084SOL     OW10150   0.149   4.069   2.253
 3084SOL    HW110151   0.052   4.094   2.253
 3084SOL    HW210152   0.202   4.141   2.210
 3085SOL     OW10153   5.141   4.764   0.857
 3085SOL    HW110154   5.086   4.847   0.861
 3085SOL    HW210155   5.147   4.723   0.948
 3086SOL     OW10156   4.577   0.871   0.029
 3086SOL    HW110157   4.644   0.937   0.062
 3086SOL    HW210158   4.620   0.811   6.977
 3087SOL     OW10159   2.744   6.160   2.680
 3087SOL    HW110160   2.773   6.119   2.767
 3087SOL    HW210161   2.676   6.230   2.697
 3088SOL     OW10162   1.345   3.136   5.631
 3088SOL    HW110163   1.398   3.080   5.694
 3088SOL    HW210164   1.394   3.221   5.612
 3089SOL     OW10165   4.627   1.599   5.307
 3089SOL    HW110166   4.537   1.631   5.335
 3089SOL    HW210167   4.695   1.671   5.320
 3090SOL     OW10168   1.528   1.333   2.024
 3090SOL    HW110169   1.558   1.244   2.060
 3090SOL    HW210170   1.570   1.347   1.934
 3091SOL     OW10171   1.169   0.982   0.554
 3091SOL    HW110172   1.256   1.014   0.591
 3091SOL    HW210173   1.186   0.925   0.474
 3092SOL     OW10174   5.032   6.479   1.453
 3092SOL    HW110175   5.061   6.486   1.548
 3092SOL    HW210176   4.998   6.568   1.422
 3093SOL     OW10177   5.271   6.489   5.586
 3093SOL    HW110178   5.365   6.475   5.555
 3093SOL    HW210179   5.208   6.468   5.511
 3094SOL     OW10180   2.931   0.715   4.150
 3094SOL    HW110181   2.838   0.732   4.184
 3094SOL    HW210182   2.940   0.619   4.124
 3095SOL     OW10183   1.912   3.279   5.756
 3095SOL    HW110184   1.988   3.306   5.815
 3095SOL    HW210185   1.913   3.334   5.673
 3096SOL     OW10186   0.409   3.517   4.975
 3096SOL    HW110187   0.343   3.443   4.978
 3096SOL    HW210188   0.395   3.577   5.054
 3097SOL     OW10189   5.457   2.918   0.448
 3097SOL    HW110190   5.537   2.865   0.473
 3097SOL    HW210191   5.484   2.992   0.386
 3098SOL     OW10192   1.621   3.154   2.149
 3098SOL    HW110193   1.715   3.123   2.136
 3098SOL    HW210194   1.616   3.253   2.138
 3099SOL     OW10195   1.016   5.814   4.166
 3099SOL    HW110196   1.082   5.855   4.228
 3099SOL    HW210197   0.947   5.883   4.141
 3100SOL     OW10198   6.972   6.325   2.052
 3100SOL    HW110199   0.017   6.363   2.122
 3100SOL    HW210200   0.010   6.300   1.971
 3101SOL     OW10201   4.593   6.248   6.094
 3101SOL    HW110202   4.497   6.253   6.067
 3101SOL    HW210203   4.635   6.338   6.086
 3102SOL     OW10204   6.770   5.539   0.638
 3102SOL    HW110205   6.747   5.622   0.589
 3102SOL    HW210206   6.865   5.514   0.618
 3103SOL     OW10207   5.162   0.906   0.846
 3103SOL    HW110208   5.077   0.857   0.864
 3103SOL    HW210209   5.205   0.870   0.763
 3104SOL     OW10210   4.292   0.019   6.981
 3104SOL    HW110211   4.277   6.969   0.039
 3104SOL    HW210212   4.225   0.093   6.987
 3105SOL     OW10213   4.770   3.561   1.130
 3105SOL    HW110214   4.732   3.583   1.220
 3105SOL    HW210215   4.769   3.642   1.073
 3106SOL     OW10216   5.433   0.031   5.190
 3106SOL    HW110217   5.464   0.057   5.099
 3106SOL    HW210218   5.384   6.959   5.184
 3107SOL     OW10219   4.281   1.653   4.202
 3107SOL    HW110220   4.290   1.752   4.203
 3107SOL    HW210221   4.199   1.627   4.150
 3108SOL     OW10222   1.843   5.249   4.629
 3108SOL    HW110223   1.917   5.312   4.605
 3108SOL    HW210224   1.878   5.155   4.629
 3109SOL     OW10225   6.609   0.459   4.335
 3109SOL    HW110226   6.689   0.514   4.360
 3109SOL    HW210227   6.558   0.506   4.263
 3110SOL     OW10228   2.130   4.184   3.206
 3110SOL    HW110229   2.042   4.206   3.248
 3110SOL    HW210230   2.173   4.108   3.255
 3111SOL     OW10231   0.181   4.838   3.405
 3111SOL    HW110232   0.172   4.937   3.411
 3111SOL    HW210233   0.143   4.806   3.319
 3112SOL     OW10234   3.138   3.314   6.854
 3112SOL    HW110235   3.170   3.407   6.835
 3112SOL    HW210236   3.210   3.262   6.901
 3113SOL     OW10237   3.243   5.831   2.808
 3113SOL    HW110238   3.231   5.841   2.709
 3113SOL    HW210239   3.266   5.920   2.848
 3114SOL     OW10240   4.086   1.630   0.176
 3114SOL    HW110241   4.030   1.625   0.258
 3114SOL    HW210242   4.177   1.665   0.199
 3115SOL     OW10243   3.753   4.504   5.413
 3115SOL    HW110244   3.738   4.601   5.433
 3115SOL    HW210245   3.666   4.461   5.390
 3116SOL     OW10246   0.458   2.055   0.215
 3116SOL    HW110247   0.448   2.080   0.311
 3116SOL    HW210248   0.549   2.017   0.199
 3117SOL     OW10249   4.922   2.437   5.279
 3117SOL    HW110250   4.931   2.466   5.184
 3117SOL    HW210251   4.978   2.356   5.295
 3118SOL     OW10252   1.272   6.903   2.126
 3118SOL    HW110253   1.339   6.890   2.200
 3118SOL    HW210254   1.264   6.818   2.073
 3119SOL     OW10255   3.019   2.593   5.593
 3119SOL    HW110256   3.048   2.560   5.503
 3119SOL    HW210257   3.084   2.661   5.626
 3120SOL     OW10258   3.240   0.820   5.773
 3120SOL    HW110259   3.324   0.793   5.726
 3120SOL    HW210260   3.176   0.744   5.773
 3121SOL     OW10261   5.499   1.966   4.568
 3121SOL    HW110262   5.578   2.000   4.517
 3121SOL    HW210263   5.526   1.949   4.663
 3122SOL     OW10264   4.479   4.803   5.061
 3122SOL    HW110265   4.482   4.827   4.964
 3122SOL    HW210266   4.404   4.851   5.105
 3123SOL     OW10267   1.530   0.813   3.549
 3123SOL    HW110268   1.548   0.855   3.639
 3123SOL    HW210269   1.544   0.881   3.478
 3124SOL     OW10270   5.257   6.546   3.819
 3124SOL    HW110271   5.223   6.576   3.908
 3124SOL    HW210272   5.218   6.603   3.747
 3125SOL     OW10273   0.913   3.029   5.317
 3125SOL    HW110274   0.827   2.981   5.298
 3125SOL    HW210275   0.958   2.987   5.396
 3126SOL     OW10276   5.437   4.408   6.289
 3126SOL    HW110277   5.470   4.356   6.210
 3126SOL    HW210278   5.395   4.493   6.257
 3127SOL     OW10279   1.533   2.770   5.178
 3127SOL    HW110280   1.623   2.763   5.133
 3127SOL    HW210281   1.546   2.771   5.277
 3128SOL     OW10282   3.882   0.724   0.212
 3128SOL    HW110283   3.964   0.692   0.164
 3128SOL    HW210284   3.894   0.713   0.311
 3129SOL     OW10285   5.075   3.534   1.167
 3129SOL    HW110286   5.018   3.608   1.132
 3129SOL    HW210287   5.055   3.519   1.264
 3130SOL     OW10288   1.694   4.481   1.241
 3130SOL    HW110289   1.726   4.396   1.199
 3130SOL    HW210290   1.748   4.500   1.323
 3131SOL     OW10291   0.270   3.306   2.572
 3131SOL    HW110292   0.302   3.342   2.485
 3131SOL    HW210293   0.237   3.213   2.560
 3132SOL     OW10294   4.320   5.044   6.441
 3132SOL    HW110295   4.393   5.096   6.485
 3132SOL    HW210296   4.267   4.995   6.511
 3133SOL     OW10297   3.707   0.967   2.904
 3133SOL    HW110298   3.730   0.983   3.000
 3133SOL    HW210299   3.781   1.001   2.846
 3134SOL     OW10300   3.988   5.361   1.723
 3134SOL    HW110301   3.962   5.457   1.729
 3134SOL    HW210302   3.907   5.304   1.733
 3135SOL     OW10303   4.724   6.842   6.274
 3135SOL    HW110304   4.646   6.846   6.337
 3135SOL    HW210305   4.763   6.750   6.275
 3136SOL     OW10306   5.455   0.582   1.656
 3136SOL    HW110307   5.479   0.484   1.659
 3136SOL    HW210308   5.476   0.624   1.745
 3137SOL     OW10309   6.424   6.758   2.867
 3137SOL    HW110310   6.340   6.781   2.915
 3137SOL    HW210311   6.418   6.790   2.772
 3138SOL     OW10312   6.079   5.357   3.479
 3138SOL    HW110313   6.161   5.300   3.471
 3138SOL    HW210314   6.035   5.340   3.567
 3139SOL     OW10315   3.446   5.179   1.592
 3139SOL    HW110316   3.355   5.164   1.555
 3139SOL    HW210317   3.447   5.153   1.689
 3140SOL     OW10318   6.550   6.432   5.260
 3140SOL    HW110319   6.565   6.462   5.166
 3140SOL    HW210320   6.549   6.511   5.320
 3141SOL     OW10321   6.993   0.124   6.602
 3141SOL    HW110322   0.058   0.100   6.657
 3141SOL    HW210323   6.929   0.177   6.658
 3142SOL     OW10324   3.547   1.182   2.877
 3142SOL    HW110325   3.601   1.098   2.887
 3142SOL    HW210326   3.570   1.245   2.951
 3143SOL     OW10327   6.136   1.969   6.567
 3143SOL    HW110328   6.154   1.946   6.663
 3143SOL    HW210329   6.043   2.006   6.559
 3144SOL     OW10330   4.456   3.588   0.480
 3144SOL    HW110331   4.418   3.670   0.522
 3144SOL    HW210332   4.455   3.513   0.546
 3145SOL     OW10333   2.171   6.434   2.373
 3145SOL    HW110334   2.192   6.518   2.423
 3145SOL    HW210335   2.074   6.412   2.383
 3146SOL     OW10336   0.514   0.818   5.030
 3146SOL    HW110337   0.513   0.811   4.931
 3146SOL    HW210338   0.547   0.908   5.057
 3147SOL     OW10339   3.131   5.114   6.645
 3147SOL    HW110340   3.046   5.168   6.645
 3147SOL    HW210341   3.118   5.032   6.589
 3148SOL     OW10342   0.074   0.424   4.018
 3148SOL    HW110343   0.020   0.385   4.092
 3148SOL    HW210344   0.026   0.504   3.981
 3149SOL     OW10345   3.450   1.257   6.961
 3149SOL    HW110346   3.543   1.294   6.963
 3149SOL    HW210347   3.449   1.167   7.004
 3150SOL     OW10348   6.434   5.819   5.499
 3150SOL    HW110349   6.371   5.830   5.422
 3150SOL    HW210350   6.400   5.746   5.558
 3151SOL     OW10351   6.927   2.172   5.518
 3151SOL    HW110352   0.008   2.155   5.501
 3151SOL    HW210353   6.917   2.237   5.594
 3152SOL     OW10354   1.126   4.274   6.941
 3152SOL    HW110355   1.043   4.330   6.946
 3152SOL    HW210356   1.205   4.332   6.920
 3153SOL     OW10357   6.045   4.939   0.170
 3153SOL    HW110358   5.984   4.910   0.096
 3153SOL    HW210359   6.104   4.862   0.195
 3154SOL     OW10360   6.114   0.863   1.295
 3154SOL    HW110361   6.091   0.788   1.357
 3154SOL    HW210362   6.100   0.951   1.341
 3155SOL     OW10363   6.186   4.328   0.427
 3155SOL    HW110364   6.091   4.299   0.411
 3155SOL    HW210365   6.205   4.324   0.526
 3156SOL     OW10366   3.058   4.050   2.061
 3156SOL    HW110367   3.048   3.980   2.132
 3156SOL    HW210368   3.022   4.137   2.096
 3157SOL     OW10369   1.723   1.806   5.311
 3157SOL    HW110370   1.726   1.808   5.411
 3157SOL    HW210371   1.629   1.823   5.280
 3158SOL     OW10372   2.502   1.571   4.722
 3158SOL    HW110373   2.486   1.668   4.703
 3158SOL    HW210374   2.505   1.521   4.635
 3159SOL     OW10375   5.919   0.153   6.533
 3159SOL    HW110376   6.001   0.096   6.529
 3159SOL    HW210377   5.865   0.129   6.614
 3160SOL     OW10378   1.507   6.341   5.913
 3160SOL    HW110379   1.412   6.326   5.883
 3160SOL    HW210380   1.568   6.332   5.835
 3161SOL     OW10381   2.256   2.608   2.624
 3161SOL    HW110382   2.302   2.635   2.540
 3161SOL    HW210383   2.322   2.610   2.700
 3162SOL     OW10384   1.300   5.706   0.710
 3162SOL    HW110385   1.368   5.717   0.783
 3162SOL    HW210386   1.212   5.743   0.740
 3163SOL     OW10387   3.794   3.559   0.001
 3163SOL    HW110388   3.844   3.524   6.937
 3163SOL    HW210389   3.728   3.628   6.987
 3164SOL     OW10390   3.658   5.743   2.270
 3164SOL    HW110391   3.743   5.691   2.258
 3164SOL    HW210392   3.583   5.679   2.288
 3165SOL     OW10393   0.842   5.685   1.053
 3165SOL    HW110394   0.929   5.637   1.051
 3165SOL    HW210395   0.850   5.767   1.111
 3166SOL     OW10396   4.734   1.613   4.270
 3166SOL    HW110397   4.704   1.616   4.366
 3166SOL    HW210398   4.675   1.550   4.219
 3167SOL     OW10399   5.454   4.556   0.600
 3167SOL    HW110400   5.468   4.486   0.671
 3167SOL    HW210401   5.534   4.616   0.597
 3168SOL     OW10402   5.806   2.601   0.327
 3168SOL    HW110403   5.883   2.635   0.273
 3168SOL    HW210404   5.781   2.669   0.396
 3169SOL     OW10405   1.508   3.539   3.444
 3169SOL    HW110406   1.480   3.585   3.528
 3169SOL    HW210407   1.502   3.604   3.368
 3170SOL     OW10408   4.258   5.863   2.682
 3170SOL    HW110409   4.235   5.831   2.774
 3170SOL    HW210410   4.234   5.792   2.615
 3171SOL     OW10411   5.831   2.122   1.555
 3171SOL    HW110412   5.926   2.149   1.541
 3171SOL    HW210413   5.825   2.023   1.564
 3172SOL     OW10414   0.315   5.528   6.862
 3172SOL    HW110415   0.374   5.489   6.790
 3172SOL    HW210416   0.225   5.546   6.824
 3173SOL     OW10417   3.384   2.611   6.634
 3173SOL    HW110418   3.476   2.578   6.614
 3173SOL    HW210419   3.349   2.663   6.555
 3174SOL     OW10420   2.682   2.963   6.128
 3174SOL    HW110421   2.763   2.964   6.187
 3174SOL    HW210422   2.600   2.979   6.184
 3175SOL     OW10423   5.984   1.457   1.907
 3175SOL    HW110424   6.041   1.457   1.825
 3175SOL    HW210425   5.927   1.374   1.909
 3176SOL     OW10426   0.906   2.891   5.710
 3176SOL    HW110427   0.980   2.893   5.643
 3176SOL    HW210428   0.857   2.978   5.710
 3177SOL     OW10429   5.249   4.375   4.070
 3177SOL    HW110430   5.245   4.277   4.048
 3177SOL    HW210431   5.317   4.390   4.141
 3178SOL     OW10432   6.250   2.370   0.009
 3178SOL    HW110433   6.151   2.369   7.011
 3178SOL    HW210434   6.293   2.301   6.966
 3179SOL     OW10435   0.886   1.552   1.612
 3179SOL    HW110436   0.799   1.503   1.604
 3179SOL    HW210437   0.891   1.622   1.540
 3180SOL     OW10438   5.698   6.548   0.820
 3180SOL    HW110439   5.755   6.613   0.870
 3180SOL    HW210440   5.615   6.529   0.873
 3181SOL     OW10441   6.699   2.409   4.265
 3181SOL    HW110442   6.605   2.440   4.279
 3181SOL    HW210443   6.711   2.378   4.171
 3182SOL     OW10444   2.533   0.347   7.014
 3182SOL    HW110445   2.440   0.384   7.013
 3182SOL    HW210446   2.534   0.261   0.049
 3183SOL     OW10447   4.315   4.639   2.055
 3183SOL    HW110448   4.394   4.700   2.060
 3183SOL    HW210449   4.237   4.682   2.100
 3184SOL     OW10450   0.520   1.890   3.331
 3184SOL    HW110451   0.609   1.874   3.373
 3184SOL    HW210452   0.524   1.973   3.276
 3185SOL     OW10453   5.012   6.458   6.615
 3185SOL    HW110454   5.102   6.414   6.618
 3185SOL    HW210455   4.974   6.462   6.708
 3186SOL     OW10456   2.855   1.393   0.216
 3186SOL    HW110457   2.866   1.330   0.293
 3186SOL    HW210458   2.944   1.429   0.190
 3187SOL     OW10459   3.687   5.084   2.144
 3187SOL    HW110460   3.738   5.168   2.128
 3187SOL    HW210461   3.589   5.105   2.152
 3188SOL     OW10462   1.748   6.129   4.588
 3188SOL    HW110463   1.698   6.199   4.537
 3188SOL    HW210464   1.843   6.157   4.598
 3189SOL     OW10465   1.537   1.600   0.613
 3189SOL    HW110466   1.447   1.556   0.615
 3189SOL    HW210467   1.531   1.684   0.559
 3190SOL     OW10468   6.911   5.909   6.951
 3190SOL    HW110469   6.902   5.932   0.033
 3190SOL    HW210470   7.006   5.888   6.930
 3191SOL     OW10471   4.538   5.101   1.799
 3191SOL    HW110472   4.576   5.014   1.767
 3191SOL    HW210473   4.491   5.147   1.723
 3192SOL     OW10474   0.653   2.720   0.781
 3192SOL    HW110475   0.656   2.820   0.773
 3192SOL    HW210476   0.604   2.682   0.703
 3193SOL     OW10477   3.912   1.480   4.670
 3193SOL    HW110478   4.011   1.495   4.678
 3193SOL    HW210479   3.866   1.567   4.655
 3194SOL     OW10480   1.092   1.706   5.573
 3194SOL    HW110481   1.029   1.764   5.522
 3194SOL    HW210482   1.138   1.760   5.644
 3195SOL     OW10483   0.661   1.373   1.542
 3195SOL    HW110484   0.654   1.399   1.446
 3195SOL    HW210485   0.588   1.310   1.565
 3196SOL     OW10486   6.749   0.312   6.775
 3196SOL    HW110487   6.778   0.243   6.842
 3196SOL    HW210488   6.808   0.392   6.781
 3197SOL     OW10489   2.338   6.725   5.239
 3197SOL    HW110490   2.342   6.675   5.152
 3197SOL    HW210491   2.386   6.812   5.229
 3198SOL     OW10492   6.445   3.107   3.089
 3198SOL    HW110493   6.462   3.152   3.177
 3198SOL    HW210494   6.418   3.175   3.021
 3199SOL     OW10495   5.230   4.405   2.790
 3199SOL    HW110496   5.322   4.396   2.829
 3199SOL    HW210497   5.238   4.422   2.692
 3200SOL     OW10498   5.816   3.126   3.016
 3200SOL    HW110499   5.774   3.105   2.927
 3200SOL    HW210500   5.821   3.225   3.028
 3201SOL     OW10501   6.610   4.890   3.182
 3201SOL    HW110502   6.592   4.814   3.120
 3201SOL    HW210503   6.554   4.969   3.155
 3202SOL     OW10504   0.966   5.154   0.437
 3202SOL    HW110505   0.963   5.148   0.338
 3202SOL    HW210506   1.048   5.202   0.466
 3203SOL     OW10507   5.595   1.491   0.575
 3203SOL    HW110508   5.687   1.495   0.537
 3203SOL    HW210509   5.600   1.477   0.674
 3204SOL     OW10510   3.626   0.209   3.578
 3204SOL    HW110511   3.683   0.145   3.527
 3204SOL    HW210512   3.561   0.254   3.517
 3205SOL     OW10513   5.050   3.013   5.973
 3205SOL    HW110514   5.101   3.071   5.909
 3205SOL    HW210515   4.955   3.044   5.979
 3206SOL     OW10516   1.782   4.278   0.874
 3206SOL    HW110517   1.852   4.263   0.805
 3206SOL    HW210518   1.745   4.370   0.864
 3207SOL     OW10519   1.293   0.915   6.835
 3207SOL    HW110520   1.311   1.009   6.805
 3207SOL    HW210521   1.351   0.893   6.912
 3208SOL     OW10522   5.346   5.976   6.610
 3208SOL    HW110523   5.322   5.976   6.513
 3208SOL    HW210524   5.268   6.008   6.664
 3209SOL     OW10525   2.918   5.315   4.379
 3209SOL    HW110526   2.887   5.220   4.369
 3209SOL    HW210527   2.898   5.365   4.295
 3210SOL     OW10528   1.259   4.960   1.019
 3210SOL    HW110529   1.223   4.906   1.095
 3210SOL    HW210530   1.193   4.959   0.943
 3211SOL     OW10531   2.094   4.107   0.640
 3211SOL    HW110532   2.127   4.071   0.552
 3211SOL    HW210533   2.160   4.087   0.711
 3212SOL     OW10534   3.059   6.803   2.423
 3212SOL    HW110535   3.018   6.770   2.338
 3212SOL    HW210536   3.031   6.744   2.499
 3213SOL     OW10537   0.983   0.581   6.658
 3213SOL    HW110538   1.059   0.646   6.661
 3213SOL    HW210539   0.937   0.580   6.747
 3214SOL     OW10540   4.885   5.665   2.284
 3214SOL    HW110541   4.861   5.587   2.226
 3214SOL    HW210542   4.825   5.667   2.364
 3215SOL     OW10543   0.412   3.863   0.673
 3215SOL    HW110544   0.462   3.786   0.631
 3215SOL    HW210545   0.329   3.881   0.620
 3216SOL     OW10546   5.939   5.398   0.694
 3216SOL    HW110547   5.881   5.357   0.623
 3216SOL    HW210548   6.021   5.341   0.706
 3217SOL     OW10549   0.658   5.410   2.767
 3217SOL    HW110550   0.714   5.441   2.844
 3217SOL    HW210551   0.669   5.311   2.756
 3218SOL     OW10552   5.760   2.621   2.980
 3218SOL    HW110553   5.724   2.557   2.912
 3218SOL    HW210554   5.806   2.697   2.933
 3219SOL     OW10555   6.797   0.733   4.359
 3219SOL    HW110556   6.882   0.683   4.341
 3219SOL    HW210557   6.750   0.749   4.272
 3220SOL     OW10558   0.039   5.887   5.972
 3220SOL    HW110559   6.976   5.830   5.950
 3220SOL    HW210560   0.019   5.982   5.946
 3221SOL     OW10561   3.578   0.210   2.432
 3221SOL    HW110562   3.480   0.189   2.435
 3221SOL    HW210563   3.625   0.144   2.374
 3222SOL     OW10564   3.074   1.385   2.451
 3222SOL    HW110565   3.083   1.312   2.519
 3222SOL    HW210566   2.983   1.425   2.457
 3223SOL     OW10567   2.568   6.500   0.020
 3223SOL    HW110568   2.631   6.531   6.965
 3223SOL    HW210569   2.475   6.497   6.998
 3224SOL     OW10570   4.731   2.803   4.940
 3224SOL    HW110571   4.712   2.860   4.859
 3224SOL    HW210572   4.708   2.708   4.920
 3225SOL     OW10573   4.498   1.605   5.594
 3225SOL    HW110574   4.568   1.536   5.612
 3225SOL    HW210575   4.407   1.565   5.609
 3226SOL     OW10576   2.547   0.757   2.402
 3226SOL    HW110577   2.533   0.820   2.478
 3226SOL    HW210578   2.474   0.768   2.335
 3227SOL     OW10579   3.789   3.483   6.668
 3227SOL    HW110580   3.840   3.403   6.636
 3227SOL    HW210581   3.757   3.536   6.589
 3228SOL     OW10582   6.791   3.608   0.899
 3228SOL    HW110583   6.820   3.575   0.989
 3228SOL    HW210584   6.704   3.565   0.875
 3229SOL     OW10585   3.715   1.056   5.527
 3229SOL    HW110586   3.796   1.041   5.583
 3229SOL    HW210587   3.742   1.074   5.433
 3230SOL     OW10588   2.228   5.292   5.997
 3230SOL    HW110589   2.301   5.325   6.057
 3230SOL    HW210590   2.212   5.358   5.924
 3231SOL     OW10591   2.561   0.354   2.673
 3231SOL    HW110592   2.654   0.369   2.705
 3231SOL    HW210593   2.550   0.391   2.581
 3232SOL     OW10594   4.110   6.228   3.981
 3232SOL    HW110595   4.101   6.163   3.905
 3232SOL    HW210596   4.019   6.251   4.016
 3233SOL     OW10597   6.791   2.476   0.562
 3233SOL    HW110598   6.889   2.496   0.565
 3233SOL    HW210599   6.775   2.399   0.500
 3234SOL     OW10600   0.673   2.560   0.087
 3234SOL    HW110601   0.631   2.632   0.143
 3234SOL    HW210602   0.616   2.543   0.007
 3235SOL     OW10603   6.545   0.249   1.650
 3235SOL    HW110604   6.628   0.251   1.594
 3235SOL    HW210605   6.553   0.313   1.726
 3236SOL     OW10606   0.774   4.286   6.921
 3236SOL    HW110607   0.784   4.276   6.822
 3236SOL    HW210608   0.829   4.364   6.952
 3237SOL     OW10609   5.852   1.668   2.557
 3237SOL    HW110610   5.887   1.577   2.580
 3237SOL    HW210611   5.895   1.700   2.473
 3238SOL     OW10612   5.979   5.219   0.198
 3238SOL    HW110613   6.010   5.124   0.195
 3238SOL    HW210614   5.985   5.253   0.291
 3239SOL     OW10615   0.481   0.958   3.015
 3239SOL    HW110616   0.495   1.028   3.085
 3239SOL    HW210617   0.383   0.942   3.003
 3240SOL     OW10618   6.896   0.231   6.276
 3240SOL    HW110619   6.953   0.149   6.285
 3240SOL    HW210620   6.840   0.242   6.358
 3241SOL     OW10621   4.996   1.452   5.895
 3241SOL    HW110622   5.018   1.355   5.897
 3241SOL    HW210623   5.017   1.490   5.805
 3242SOL     OW10624   4.447   3.925   6.213
 3242SOL    HW110625   4.456   4.020   6.241
 3242SOL    HW210626   4.461   3.918   6.114
 3243SOL     OW10627   4.345   5.395   0.403
 3243SOL    HW110628   4.363   5.301   0.373
 3243SOL    HW210629   4.371   5.459   0.331
 3244SOL     OW10630   5.407   6.124   0.195
 3244SOL    HW110631   5.380   6.214   0.228
 3244SOL    HW210632   5.482   6.088   0.251
 3245SOL     OW10633   4.704   2.086   4.378
 3245SOL    HW110634   4.709   2.186   4.373
 3245SOL    HW210635   4.710   2.057   4.474
 3246SOL     OW10636   6.544   0.172   3.032
 3246SOL    HW110637   6.581   0.195   2.942
 3246SOL    HW210638   6.604   0.107   3.077
 3247SOL     OW10639   5.953   4.267   1.935
 3247SOL    HW110640   5.943   4.247   2.032
 3247SOL    HW210641   5.863   4.279   1.894
 3248SOL     OW10642   5.716   3.217   2.339
 3248SOL    HW110643   5.687   3.138   2.285
 3248SOL    HW210644   5.810   3.241   2.315
 3249SOL     OW10645   3.581   4.079   3.384
 3249SOL    HW110646   3.641   4.002   3.360
 3249SOL    HW210647   3.498   4.075   3.328
 3250SOL     OW10648   5.488   0.202   2.466
 3250SOL    HW110649   5.565   0.195   2.401
 3250SOL    HW210650   5.457   0.110   2.489
 3251SOL     OW10651   3.494   0.879   3.807
 3251SOL    HW110652   3.483   0.790   3.853
 3251SOL    HW210653   3.445   0.949   3.858
 3252SOL     OW10654   3.167   0.914   2.466
 3252SOL    HW110655   3.075   0.910   2.427
 3252SOL    HW210656   3.204   0.822   2.474
 3253SOL     OW10657   4.638   3.473   0.824
 3253SOL    HW110658   4.570   3.433   0.761
 3253SOL    HW210659   4.717   3.412   0.829
 3254SOL     OW10660   4.873   6.439   0.154
 3254SOL    HW110661   4.927   6.364   0.190
 3254SOL    HW210662   4.776   6.414   0.156
 3255SOL     OW10663   4.599   6.553   1.389
 3255SOL    HW110664   4.542   6.522   1.312
 3255SOL    HW210665   4.585   6.492   1.467
 3256SOL     OW10666   3.669   1.528   1.180
 3256SOL    HW110667   3.616   1.613   1.192
 3256SOL    HW210668   3.756   1.550   1.136
 3257SOL     OW10669   1.184   1.761   1.494
 3257SOL    HW110670   1.102   1.725   1.449
 3257SOL    HW210671   1.251   1.790   1.426
 3258SOL     OW10672   4.078   5.674   3.409
 3258SOL    HW110673   4.165   5.713   3.378
 3258SOL    HW210674   4.096   5.588   3.456
 3259SOL     OW10675   4.814   4.685   4.769
 3259SOL    HW110676   4.908   4.718   4.780
 3259SOL    HW210677   4.807   4.592   4.804
 3260SOL     OW10678   1.776   3.021   1.818
 3260SOL    HW110679   1.751   2.939   1.766
 3260SOL    HW210680   1.701   3.088   1.812
 3261SOL     OW10681   5.599   0.700   1.221
 3261SOL    HW110682   5.515   0.650   1.240
 3261SOL    HW210683   5.625   0.686   1.125
 3262SOL     OW10684   3.887   2.065   2.101
 3262SOL    HW110685   3.961   2.130   2.115
 3262SOL    HW210686   3.803   2.115   2.077
 3263SOL     OW10687   2.691   1.363   2.947
 3263SOL    HW110688   2.726   1.270   2.937
 3263SOL    HW210689   2.598   1.367   2.911
 3264SOL     OW10690   2.309   5.396   1.104
 3264SOL    HW110691   2.293   5.428   1.011
 3264SOL    HW210692   2.266   5.459   1.169
 3265SOL     OW10693   4.902   6.888   6.544
 3265SOL    HW110694   4.867   6.931   6.460
 3265SOL    HW210695   4.915   6.790   6.529
 3266SOL     OW10696   2.855   4.889   6.916
 3266SOL    HW110697   2.920   4.832   6.866
 3266SOL    HW210698   2.822   4.839   6.996
 3267SOL     OW10699   3.255   6.690   2.028
 3267SOL    HW110700   3.285   6.596   2.009
 3267SOL    HW210701   3.163   6.688   2.067
 3268SOL     OW10702   2.099   3.801   1.399
 3268SOL    HW110703   2.148   3.722   1.362
 3268SOL    HW210704   2.156   3.882   1.391
 3269SOL     OW10705   6.223   5.683   2.135
 3269SOL    HW110706   6.240   5.617   2.208
 3269SOL    HW210707   6.192   5.769   2.175
 3270SOL     OW10708   1.795   3.915   6.826
 3270SOL    HW110709   1.859   3.877   6.893
 3270SOL    HW210710   1.806   3.866   6.739
 3271SOL     OW10711   6.863   2.953   1.378
 3271SOL    HW110712   6.858   3.044   1.336
 3271SOL    HW210713   6.852   2.961   1.477
 3272SOL     OW10714   2.862   4.137   6.158
 3272SOL    HW110715   2.839   4.221   6.209
 3272SOL    HW210716   2.864   4.158   6.060
 3273SOL     OW10717   6.394   4.829   6.974
 3273SOL    HW110718   6.366   4.749   6.920
 3273SOL    HW210719   6.357   4.912   6.931
 3274SOL     OW10720   5.871   0.547   0.639
 3274SOL    HW110721   5.886   0.597   0.724
 3274SOL    HW210722   5.942   0.478   0.628
 3275SOL     OW10723   5.096   0.834   6.980
 3275SOL    HW110724   4.999   0.857   6.988
 3275SOL    HW210725   5.134   0.815   0.055
 3276SOL     OW10726   3.759   6.193   6.641
 3276SOL    HW110727   3.671   6.150   6.622
 3276SOL    HW210728   3.820   6.127   6.685
 3277SOL     OW10729   3.633   1.071   0.919
 3277SOL    HW110730   3.671   0.979   0.912
 3277SOL    HW210731   3.614   1.107   0.828
 3278SOL     OW10732   1.113   0.775   5.804
 3278SOL    HW110733   1.067   0.694   5.769
 3278SOL    HW210734   1.069   0.857   5.768
 3279SOL     OW10735   5.500   6.873   0.463
 3279SOL    HW110736   5.424   6.816   0.432
 3279SOL    HW210737   5.522   6.849   0.558
 3280SOL     OW10738   4.923   5.047   5.080
 3280SOL    HW110739   4.838   5.006   5.113
 3280SOL    HW210740   4.902   5.123   5.018
 3281SOL     OW10741   0.830   4.764   1.018
 3281SOL    HW110742   0.885   4.681   1.012
 3281SOL    HW210743   0.870   4.826   1.086
 3282SOL     OW10744   6.534   5.176   5.108
 3282SOL    HW110745   6.455   5.158   5.050
 3282SOL    HW210746   6.505   5.180   5.204
 3283SOL     OW10747   3.209   1.239   1.153
 3283SOL    HW110748   3.281   1.224   1.084
 3283SOL    HW210749   3.155   1.156   1.162
 3284SOL     OW10750   1.236   6.050   5.864
 3284SOL    HW110751   1.324   6.016   5.831
 3284SOL    HW210752   1.164   6.020   5.801
 3285SOL     OW10753   4.322   2.096   4.618
 3285SOL    HW110754   4.281   2.095   4.526
 3285SOL    HW210755   4.415   2.133   4.612
 3286SOL     OW10756   3.668   2.825   1.943
 3286SOL    HW110757   3.615   2.752   1.900
 3286SOL    HW210758   3.694   2.893   1.874
 3287SOL     OW10759   0.289   6.842   0.088
 3287SOL    HW110760   0.223   6.797   0.028
 3287SOL    HW210761   0.278   6.808   0.182
 3288SOL     OW10762   2.042   6.531   0.490
 3288SOL    HW110763   2.100   6.611   0.502
 3288SOL    HW210764   1.974   6.549   0.419
 3289SOL     OW10765   2.864   1.230   6.347
 3289SOL    HW110766   2.963   1.227   6.335
 3289SOL    HW210767   2.840   1.200   6.439
 3290SOL     OW10768   6.759   4.568   0.801
 3290SOL    HW110769   6.722   4.587   0.710
 3290SOL    HW210770   6.722   4.634   0.867
 3291SOL     OW10771   2.252   1.040   6.092
 3291SOL    HW110772   2.277   0.982   6.014
 3291SOL    HW210773   2.255   0.987   6.176
 3292SOL     OW10774   6.933   0.863   0.544
 3292SOL    HW110775   6.838   0.837   0.561
 3292SOL    HW210776   6.937   0.960   0.520
 3293SOL     OW10777   6.548   4.619   1.620
 3293SOL    HW110778   6.633   4.637   1.669
 3293SOL    HW210779   6.472   4.615   1.685
 3294SOL     OW10780   5.127   2.914   6.386
 3294SOL    HW110781   5.186   2.975   6.333
 3294SOL    HW210782   5.182   2.853   6.442
 3295SOL     OW10783   0.846   2.893   2.388
 3295SOL    HW110784   0.771   2.897   2.455
 3295SOL    HW210785   0.823   2.828   2.316
 3296SOL     OW10786   1.580   0.763   3.239
 3296SOL    HW110787   1.511   0.818   3.191
 3296SOL    HW210788   1.635   0.821   3.298
 3297SOL     OW10789   2.928   1.709   5.183
 3297SOL    HW110790   2.901   1.758   5.265
 3297SOL    HW210791   2.980   1.770   5.123
 3298SOL     OW10792   6.240   2.694   5.872
 3298SOL    HW110793   6.287   2.763   5.926
 3298SOL    HW210794   6.148   2.679   5.909
 3299SOL     OW10795   3.770   6.225   2.725
 3299SOL    HW110796   3.838   6.292   2.695
 3299SOL    HW210797   3.783   6.140   2.674
 3300SOL     OW10798   0.936   0.682   6.001
 3300SOL    HW110799   0.974   0.593   6.024
 3300SOL    HW210800   1.008   0.742   5.967
 3301SOL     OW10801   1.699   2.898   3.500
 3301SOL    HW110802   1.663   2.887   3.593
 3301SOL    HW210803   1.774   2.965   3.502
 3302SOL     OW10804   0.439   4.729   5.305
 3302SOL    HW110805   0.401   4.819   5.282
 3302SOL    HW210806   0.377   4.657   5.273
 3303SOL     OW10807   3.265   3.449   0.237
 3303SOL    HW110808   3.240   3.471   0.143
 3303SOL    HW210809   3.315   3.526   0.278
 3304SOL     OW10810   1.721   5.382   5.947
 3304SOL    HW110811   1.694   5.464   5.998
 3304SOL    HW210812   1.806   5.401   5.896
 3305SOL     OW10813   2.453   1.916   2.426
 3305SOL    HW110814   2.505   1.967   2.495
 3305SOL    HW210815   2.359   1.905   2.457
 3306SOL     OW10816   1.395   5.233   4.912
 3306SOL    HW110817   1.319   5.297   4.896
 3306SOL    HW210818   1.482   5.282   4.899
 3307SOL     OW10819   0.638   6.964   6.026
 3307SOL    HW110820   0.693   6.895   5.980
 3307SOL    HW210821   0.672   6.978   6.119
 3308SOL     OW10822   3.188   5.699   1.542
 3308SOL    HW110823   3.235   5.776   1.586
 3308SOL    HW210824   3.211   5.615   1.590
 3309SOL     OW10825   6.902   5.233   3.857
 3309SOL    HW110826   6.806   5.215   3.836
 3309SOL    HW210827   6.923   5.329   3.839
 3310SOL     OW10828   0.154   4.031   4.886
 3310SOL    HW110829   0.222   3.994   4.823
 3310SOL    HW210830   0.135   4.126   4.862
 3311SOL     OW10831   3.474   4.168   0.699
 3311SOL    HW110832   3.500   4.142   0.606
 3311SOL    HW210833   3.522   4.252   0.725
 3312SOL     OW10834   4.145   3.810   5.816
 3312SOL    HW110835   4.216   3.740   5.830
 3312SOL    HW210836   4.140   3.868   5.898
 3313SOL     OW10837   0.884   6.341   4.093
 3313SOL    HW110838   0.915   6.432   4.119
 3313SOL    HW210839   0.838   6.345   4.004
 3314SOL     OW10840   2.435   1.410   2.245
 3314SOL    HW110841   2.338   1.437   2.248
 3314SOL    HW210842   2.492   1.492   2.250
 3315SOL     OW10843   0.378   3.965   4.715
 3315SOL    HW110844   0.471   3.967   4.679
 3315SOL    HW210845   0.316   4.007   4.648
 3316SOL     OW10846   4.729   0.890   5.174
 3316SOL    HW110847   4.744   0.978   5.128
 3316SOL    HW210848   4.654   0.841   5.129
 3317SOL     OW10849   5.288   2.668   2.020
 3317SOL    HW110850   5.337   2.753   2.036
 3317SOL    HW210851   5.286   2.614   2.104
 3318SOL     OW10852   1.653   1.613   0.859
 3318SOL    HW110853   1.615   1.622   0.767
 3318SOL    HW210854   1.591   1.655   0.925
 3319SOL     OW10855   5.442   1.374   3.799
 3319SOL    HW110856   5.512   1.349   3.866
 3319SOL    HW210857   5.361   1.316   3.813
 3320SOL     OW10858   6.326   0.603   7.005
 3320SOL    HW110859   6.246   0.626   0.046
 3320SOL    HW210860   6.296   0.588   6.911
 3321SOL     OW10861   5.578   1.923   0.431
 3321SOL    HW110862   5.553   1.871   0.350
 3321SOL    HW210863   5.667   1.893   0.464
 3322SOL     OW10864   7.000   2.723   1.263
 3322SOL    HW110865   6.948   2.799   1.301
 3322SOL    HW210866   0.036   2.755   1.183
 3323SOL     OW10867   2.796   2.975   0.058
 3323SOL    HW110868   2.775   2.953   6.978
 3323SOL    HW210869   2.741   2.918   0.118
 3324SOL     OW10870   4.006   5.056   6.313
 3324SOL    HW110871   3.955   4.983   6.358
 3324SOL    HW210872   4.097   5.023   6.289
 3325SOL     OW10873   0.167   3.978   0.164
 3325SOL    HW110874   0.208   4.056   0.116
 3325SOL    HW210875   0.079   4.005   0.202
 3326SOL     OW10876   5.052   2.023   1.810
 3326SOL    HW110877   4.988   2.032   1.886
 3326SOL    HW210878   5.065   1.926   1.788
 3327SOL     OW10879   3.053   5.300   1.993
 3327SOL    HW110880   3.117   5.372   1.967
 3327SOL    HW210881   2.959   5.330   1.976
 3328SOL     OW10882   4.150   2.092   0.635
 3328SOL    HW110883   4.094   2.091   0.718
 3328SOL    HW210884   4.230   2.033   0.648
 3329SOL     OW10885   6.012   0.302   5.259
 3329SOL    HW110886   5.920   0.340   5.251
 3329SOL    HW210887   6.007   0.202   5.264
 3330SOL     OW10888   6.338   3.604   1.446
 3330SOL    HW110889   6.404   3.529   1.441
 3330SOL    HW210890   6.331   3.647   1.356
 3331SOL     OW10891   2.164   2.967   1.612
 3331SOL    HW110892   2.216   2.910   1.550
 3331SOL    HW210893   2.076   2.992   1.570
 3332SOL     OW10894   5.934   5.843   0.268
 3332SOL    HW110895   5.911   5.758   0.220
 3332SOL    HW210896   5.939   5.918   0.202
 3333SOL     OW10897   4.014   5.882   6.313
 3333SOL    HW110898   4.102   5.927   6.297
 3333SOL    HW210899   3.946   5.916   6.248
 3334SOL     OW10900   3.362   3.721   1.351
 3334SOL    HW110901   3.349   3.626   1.380
 3334SOL    HW210902   3.303   3.740   1.272
 3335SOL     OW10903   4.766   5.166   6.080
 3335SOL    HW110904   4.688   5.199   6.028
 3335SOL    HW210905   4.743   5.076   6.120
 3336SOL     OW10906   3.076   5.490   4.754
 3336SOL    HW110907   3.098   5.429   4.679
 3336SOL    HW210908   3.107   5.450   4.840
 3337SOL     OW10909   3.057   3.218   1.839
 3337SOL    HW110910   3.007   3.292   1.795
 3337SOL    HW210911   2.997   3.171   1.904
 3338SOL     OW10912   5.951   2.790   1.249
 3338SOL    HW110913   5.860   2.776   1.211
 3338SOL    HW210914   6.000   2.703   1.254
 3339SOL     OW10915   6.563   0.015   6.937
 3339SOL    HW110916   6.501   0.094   6.931
 3339SOL    HW210917   6.554   6.976   6.853
 3340SOL     OW10918   3.734   0.589   0.855
 3340SOL    HW110919   3.706   0.515   0.794
 3340SOL    HW210920   3.745   0.554   0.948
 3341SOL     OW10921   0.707   5.886   4.231
 3341SOL    HW110922   0.647   5.934   4.167
 3341SOL    HW210923   0.790   5.940   4.246
 3342SOL     OW10924   2.557   6.946   4.257
 3342SOL    HW110925   2.565   6.902   4.346
 3342SOL    HW210926   2.629   7.015   4.247
 3343SOL     OW10927   4.802   3.022   0.909
 3343SOL    HW110928   4.722   2.998   0.964
 3343SOL    HW210929   4.821   2.950   0.843
 3344SOL     OW10930   6.335   3.309   4.649
 3344SOL    HW110931   6.305   3.307   4.745
 3344SOL    HW210932   6.255   3.316   4.590
 3345SOL     OW10933   1.544   3.860   5.471
 3345SOL    HW110934   1.641   3.883   5.478
 3345SOL    HW210935   1.495   3.895   5.550
 3346SOL     OW10936   1.627   0.770   1.122
 3346SOL    HW110937   1.690   0.736   1.052
 3346SOL    HW210938   1.562   0.833   1.081
 3347SOL     OW10939   0.643   4.551   4.096
 3347SOL    HW110940   0.720   4.598   4.137
 3347SOL    HW210941   0.650   4.556   3.996
 3348SOL     OW10942   3.146   3.321   3.291
 3348SOL    HW110943   3.132   3.244   3.353
 3348SOL    HW210944   3.078   3.392   3.309
 3349SOL     OW10945   0.450   4.918   4.412
 3349SOL    HW110946   0.429   4.924   4.314
 3349SOL    HW210947   0.438   4.823   4.442
 3350SOL     OW10948   1.004   2.187   5.838
 3350SOL    HW110949   0.967   2.228   5.921
 3350SOL    HW210950   1.104   2.200   5.836
 3351SOL     OW10951   5.418   6.983   2.683
 3351SOL    HW110952   5.337   6.958   2.630
 3351SOL    HW210953   5.389   0.003   2.773
 3352SOL     OW10954   0.273   3.276   0.523
 3352SOL    HW110955   0.281   3.375   0.519
 3352SOL    HW210956   0.363   3.235   0.536
 3353SOL     OW10957   1.413   6.442   2.359
 3353SOL    HW110958   1.444   6.446   2.265
 3353SOL    HW210959   1.341   6.373   2.368
 3354SOL     OW10960   5.341   2.495   4.143
 3354SOL    HW110961   5.390   2.438   4.208
 3354SOL    HW210962   5.330   2.446   4.056
 3355SOL     OW10963   1.639   1.493   0.127
 3355SOL    HW110964   1.658   1.560   0.199
 3355SOL    HW210965   1.595   1.538   0.049
 3356SOL     OW10966   2.219   3.553   6.501
 3356SOL    HW110967   2.198   3.479   6.437
 3356SOL    HW210968   2.288   3.614   6.461
 3357SOL     OW10969   2.795   4.729   1.703
 3357SOL    HW110970   2.822   4.674   1.782
 3357SOL    HW210971   2.699   4.756   1.713
 3358SOL     OW10972   4.848   0.251   1.329
 3358SOL    HW110973   4.774   0.259   1.261
 3358SOL    HW210974   4.935   0.234   1.282
 3359SOL     OW10975   6.704   0.205   3.784
 3359SOL    HW110976   6.617   0.166   3.755
 3359SOL    HW210977   6.708   0.206   3.884
 3360SOL     OW10978   0.516   1.133   0.154
 3360SOL    HW110979   0.532   1.044   0.198
 3360SOL    HW210980   0.446   1.123   0.083
 3361SOL     OW10981   0.485   4.399   2.595
 3361SOL    HW110982   0.549   4.342   2.645
 3361SOL    HW210983   0.465   4.481   2.648
 3362SOL     OW10984   4.031   1.592   4.055
 3362SOL    HW110985   3.974   1.607   4.136
 3362SOL    HW210986   3.982   1.536   3.989
 3363SOL     OW10987   0.832   0.290   0.156
 3363SOL    HW110988   0.821   0.234   0.238
 3363SOL    HW210989   0.905   0.252   0.100
 3364SOL     OW10990   1.174   4.295   4.425
 3364SOL    HW110991   1.268   4.276   4.454
 3364SOL    HW210992   1.119   4.212   4.435
 3365SOL     OW10993   0.496   2.695   5.006
 3365SOL    HW110994   0.585   2.739   5.016
 3365SOL    HW210995   0.425   2.765   4.996
 3366SOL     OW10996   6.226   0.447   6.067
 3366SOL    HW110997   6.128   0.432   6.076
 3366SOL    HW210998   6.244   0.506   5.989
 3367SOL     OW10999   2.603   2.936   1.306
 3367SOL    HW111000   2.606   3.029   1.343
 3367SOL    HW211001   2.693   2.913   1.268
 3368SOL     OW11002   0.519   5.922   6.159
 3368SOL    HW111003   0.445   5.980   6.194
 3368SOL    HW211004   0.568   5.970   6.087
 3369SOL     OW11005   3.570   2.401   5.868
 3369SOL    HW111006   3.597   2.336   5.796
 3369SOL    HW211007   3.589   2.494   5.836
 3370SOL     OW11008   6.928   6.218   5.771
 3370SOL    HW111009   6.884   6.297   5.815
 3370SOL    HW211010   6.889   6.206   5.680
 3371SOL     OW11011   0.615   3.938   2.445
 3371SOL    HW111012   0.709   3.906   2.433
 3371SOL    HW211013   0.616   4.030   2.484
 3372SOL     OW11014   0.525   0.889   1.695
 3372SOL    HW111015   0.555   0.877   1.790
 3372SOL    HW211016   0.596   0.855   1.633
 3373SOL     OW11017   6.532   1.132   2.770
 3373SOL    HW111018   6.462   1.141   2.841
 3373SOL    HW211019   6.618   1.170   2.802
 3374SOL     OW11020   2.672   5.867   4.787
 3374SOL    HW111021   2.573   5.857   4.775
 3374SOL    HW211022   2.719   5.799   4.731
 3375SOL     OW11023   4.705   4.956   6.246
 3375SOL    HW111024   4.745   4.872   6.284
 3375SOL    HW211025   4.690   5.022   6.319
 3376SOL     OW11026   3.750   3.706   2.959
 3376SOL    HW111027   3.838   3.733   2.999
 3376SOL    HW211028   3.684   3.780   2.972
 3377SOL     OW11029   6.881   6.354   4.566
 3377SOL    HW111030   6.900   6.375   4.662
 3377SOL    HW211031   6.953   6.394   4.509
 3378SOL     OW11032   6.338   0.714   0.780
 3378SOL    HW111033   6.251   0.758   0.799
 3378SOL    HW211034   6.382   0.757   0.701
 3379SOL     OW11035   6.958   5.220   6.089
 3379SOL    HW111036   6.990   5.254   6.000
 3379SOL    HW211037   6.874   5.168   6.077
 3380SOL     OW11038   5.665   6.461   6.198
 3380SOL    HW111039   5.667   6.524   6.276
 3380SOL    HW211040   5.620   6.505   6.121
 3381SOL     OW11041   1.359   2.649   1.108
 3381SOL    HW111042   1.416   2.573   1.137
 3381SOL    HW211043   1.416   2.720   1.066
 3382SOL     OW11044   0.843   0.757   0.555
 3382SOL    HW111045   0.933   0.751   0.513
 3382SOL    HW211046   0.852   0.792   0.649
 3383SOL     OW11047   4.243   5.768   2.938
 3383SOL    HW111048   4.174   5.739   3.004
 3383SOL    HW211049   4.327   5.716   2.953
 3384SOL     OW11050   2.797   3.479   5.336
 3384SOL    HW111051   2.704   3.517   5.341
 3384SOL    HW211052   2.794   3.389   5.292
 3385SOL     OW11053   0.040   3.911   3.762
 3385SOL    HW111054   0.084   3.825   3.732
 3385SOL    HW211055   0.109   3.971   3.802
 3386SOL     OW11056   6.496   3.654   6.246
 3386SOL    HW111057   6.463   3.749   6.243
 3386SOL    HW211058   6.589   3.652   6.282
 3387SOL     OW11059   2.795   1.103   2.913
 3387SOL    HW111060   2.842   1.060   2.835
 3387SOL    HW211061   2.854   1.100   2.994
 3388SOL     OW11062   5.741   3.338   1.788
 3388SOL    HW111063   5.717   3.265   1.853
 3388SOL    HW211064   5.838   3.360   1.797
 3389SOL     OW11065   4.872   5.201   4.814
 3389SOL    HW111066   4.777   5.212   4.843
 3389SOL    HW211067   4.925   5.281   4.840
 3390SOL     OW11068   5.523   4.735   5.875
 3390SOL    HW111069   5.621   4.755   5.864
 3390SOL    HW211070   5.469   4.813   5.843
 3391SOL     OW11071   5.484   2.760   4.510
 3391SOL    HW111072   5.394   2.718   4.526
 3391SOL    HW211073   5.555   2.689   4.510
 3392SOL     OW11074   2.580   0.413   3.872
 3392SOL    HW111075   2.500   0.470   3.857
 3392SOL    HW211076   2.573   0.369   3.962
 3393SOL     OW11077   0.224   6.499   0.376
 3393SOL    HW111078   0.258   6.423   0.431
 3393SOL    HW211079   0.263   6.493   0.284
 3394SOL     OW11080   5.829   3.072   0.880
 3394SOL    HW111081   5.880   3.062   0.966
 3394SOL    HW211082   5.779   2.988   0.862
 3395SOL     OW11083   6.031   3.393   3.553
 3395SOL    HW111084   5.951   3.336   3.534
 3395SOL    HW211085   6.009   3.459   3.625
 3396SOL     OW11086   6.105   2.012   3.502
 3396SOL    HW111087   6.037   1.952   3.544
 3396SOL    HW211088   6.107   1.995   3.404
 3397SOL     OW11089   2.865   1.336   5.443
 3397SOL    HW111090   2.788   1.281   5.413
 3397SOL    HW211091   2.917   1.285   5.512
 3398SOL     OW11092   1.326   6.702   4.040
 3398SOL    HW111093   1.242   6.753   4.058
 3398SOL    HW211094   1.312   6.644   3.959
 3399SOL     OW11095   5.378   4.505   5.122
 3399SOL    HW111096   5.382   4.424   5.179
 3399SOL    HW211097   5.329   4.484   5.037
 3400SOL     OW11098   4.728   1.745   6.044
 3400SOL    HW111099   4.681   1.781   5.964
 3400SOL    HW211100   4.826   1.736   6.025
 3401SOL     OW11101   6.764   3.238   0.920
 3401SOL    HW111102   6.699   3.310   0.894
 3401SOL    HW211103   6.842   3.240   0.858
 3402SOL     OW11104   4.231   5.990   0.480
 3402SOL    HW111105   4.235   5.997   0.381
 3402SOL    HW211106   4.223   6.081   0.521
 3403SOL     OW11107   4.164   0.218   5.064
 3403SOL    HW111108   4.202   0.305   5.094
 3403SOL    HW211109   4.098   0.234   4.990
 3404SOL     OW11110   5.644   1.740   6.509
 3404SOL    HW111111   5.702   1.722   6.588
 3404SOL    HW211112   5.697   1.731   6.425
 3405SOL     OW11113   6.414   4.357   4.475
 3405SOL    HW111114   6.316   4.334   4.475
 3405SOL    HW211115   6.467   4.278   4.443
 3406SOL     OW11116   0.914   4.282   2.497
 3406SOL    HW111117   1.010   4.312   2.494
 3406SOL    HW211118   0.898   4.216   2.424
 3407SOL     OW11119   1.461   5.315   0.057
 3407SOL    HW111120   1.467   5.220   0.086
 3407SOL    HW211121   1.535   5.336   7.008
 3408SOL     OW11122   5.143   3.904   4.752
 3408SOL    HW111123   5.217   3.841   4.773
 3408SOL    HW211124   5.060   3.852   4.732
 3409SOL     OW11125   3.397   6.223   6.333
 3409SOL    HW111126   3.467   6.292   6.311
 3409SOL    HW211127   3.360   6.186   6.248
 3410SOL     OW11128   6.813   5.952   0.169
 3410SOL    HW111129   6.798   5.901   0.254
 3410SOL    HW211130   6.735   6.012   0.152
 3411SOL     OW11131   0.653   2.575   2.373
 3411SOL    HW111132   0.692   2.644   2.312
 3411SOL    HW211133   0.707   2.569   2.456
 3412SOL     OW11134   4.491   2.428   6.129
 3412SOL    HW111135   4.518   2.371   6.206
 3412SOL    HW211136   4.395   2.411   6.107
 3413SOL     OW11137   5.240   0.751   2.366
 3413SOL    HW111138   5.322   0.801   2.338
 3413SOL    HW211139   5.160   0.791   2.322
 3414SOL     OW11140   2.012   1.087   5.883
 3414SOL    HW111141   2.082   1.050   5.942
 3414SOL    HW211142   2.007   1.186   5.895
 3415SOL     OW11143   1.814   4.192   4.888
 3415SOL    HW111144   1.892   4.253   4.905
 3415SOL    HW211145   1.732   4.229   4.932
 3416SOL     OW11146   0.121   5.690   0.158
 3416SOL    HW111147   0.196   5.635   0.196
 3416SOL    HW211148   0.159   5.762   0.099
 3417SOL     OW11149   0.648   5.829   3.716
 3417SOL    HW111150   0.650   5.814   3.617
 3417SOL    HW211151   0.724   5.781   3.759
 3418SOL     OW11152   4.223   6.769   5.424
 3418SOL    HW111153   4.271   6.852   5.394
 3418SOL    HW211154   4.288   6.695   5.436
 3419SOL     OW11155   3.867   5.312   4.816
 3419SOL    HW111156   3.819   5.290   4.731
 3419SOL    HW211157   3.827   5.393   4.858
 3420SOL     OW11158   5.221   3.313   3.407
 3420SOL    HW111159   5.129   3.339   3.378
 3420SOL    HW211160   5.226   3.213   3.417
 3421SOL     OW11161   5.855   0.744   6.118
 3421SOL    HW111162   5.819   0.710   6.205
 3421SOL    HW211163   5.921   0.817   6.135
 3422SOL     OW11164   2.078   6.428   0.980
 3422SOL    HW111165   1.988   6.385   0.980
 3422SOL    HW211166   2.129   6.400   0.898
 3423SOL     OW11167   2.375   6.734   0.592
 3423SOL    HW111168   2.442   6.724   0.665
 3423SOL    HW211169   2.416   6.710   0.505
 3424SOL     OW11170   2.973   0.031   2.301
 3424SOL    HW111171   3.035   6.988   2.352
 3424SOL    HW211172   2.881   7.009   2.303
 3425SOL     OW11173   5.603   4.241   2.383
 3425SOL    HW111174   5.624   4.178   2.307
 3425SOL    HW211175   5.670   4.229   2.456
 3426SOL     OW11176   3.065   2.941   0.126
 3426SOL    HW111177   2.969   2.930   0.103
 3426SOL    HW211178   3.079   3.031   0.169
 3427SOL     OW11179   6.755   6.621   6.844
 3427SOL    HW111180   6.732   6.638   6.748
 3427SOL    HW211181   6.806   6.699   6.881
 3428SOL     OW11182   3.359   5.026   1.132
 3428SOL    HW111183   3.278   5.081   1.156
 3428SOL    HW211184   3.330   4.944   1.083
 3429SOL     OW11185   0.882   1.433   6.743
 3429SOL    HW111186   0.902   1.372   6.819
 3429SOL    HW211187   0.880   1.528   6.775
 3430SOL     OW11188   0.187   6.501   5.075
 3430SOL    HW111189   0.215   6.442   5.150
 3430SOL    HW211190   0.224   6.593   5.088
 3431SOL     OW11191   2.109   6.732   1.045
 3431SOL    HW111192   2.078   6.651   0.995
 3431SOL    HW211193   2.102   6.716   1.143
 3432SOL     OW11194   2.571   2.703   6.407
 3432SOL    HW111195   2.535   2.697   6.501
 3432SOL    HW211196   2.560   2.615   6.362
 3433SOL     OW11197   1.018   6.617   6.509
 3433SOL    HW111198   1.073   6.664   6.440
 3433SOL    HW211199   1.042   6.652   6.599
 3434SOL     OW11200   4.128   2.342   0.496
 3434SOL    HW111201   4.136   2.332   0.397
 3434SOL    HW211202   4.142   2.253   0.540
 3435SOL     OW11203   1.336   1.530   1.018
 3435SOL    HW111204   1.412   1.504   1.076
 3435SOL    HW211205   1.257   1.472   1.038
 3436SOL     OW11206   3.436   6.493   5.687
 3436SOL    HW111207   3.398   6.579   5.720
 3436SOL    HW211208   3.535   6.500   5.681
 3437SOL     OW11209   3.262   0.736   6.167
 3437SOL    HW111210   3.283   0.709   6.073
 3437SOL    HW211211   3.183   0.686   6.200
 3438SOL     OW11212   1.421   2.312   0.534
 3438SOL    HW111213   1.351   2.356   0.478
 3438SOL    HW211214   1.508   2.361   0.525
 3439SOL     OW11215   2.073   6.181   5.693
 3439SOL    HW111216   2.166   6.168   5.660
 3439SOL    HW211217   2.060   6.277   5.720
 3440SOL     OW11218   4.104   3.336   1.887
 3440SOL    HW111219   4.093   3.379   1.977
 3440SOL    HW211220   4.043   3.257   1.880
 3441SOL     OW11221   5.087   6.995   3.678
 3441SOL    HW111222   5.037   7.014   3.762
 3441SOL    HW211223   5.035   0.014   3.600
 3442SOL     OW11224   2.703   4.642   2.908
 3442SOL    HW111225   2.792   4.601   2.926
 3442SOL    HW211226   2.631   4.585   2.946
 3443SOL     OW11227   5.434   0.366   1.919
 3443SOL    HW111228   5.533   0.357   1.931
 3443SOL    HW211229   5.403   0.301   1.851
 3444SOL     OW11230   5.115   5.284   0.537
 3444SOL    HW111231   5.051   5.240   0.598
 3444SOL    HW211232   5.153   5.217   0.474
 3445SOL     OW11233   6.166   5.410   4.581
 3445SOL    HW111234   6.128   5.341   4.520
 3445SOL    HW211235   6.215   5.479   4.527
 3446SOL     OW11236   6.037   0.694   2.583
 3446SOL    HW111237   6.020   0.685   2.485
 3446SOL    HW211238   6.034   0.790   2.609
 3447SOL     OW11239   4.896   5.020   1.179
 3447SOL    HW111240   4.860   5.072   1.101
 3447SOL    HW211241   4.977   4.969   1.150
 3448SOL     OW11242   3.005   0.367   0.434
 3448SOL    HW111243   3.076   0.350   0.502
 3448SOL    HW211244   2.999   0.465   0.415
 3449SOL     OW11245   6.399   6.904   3.444
 3449SOL    HW111246   6.434   6.848   3.520
 3449SOL    HW211247   6.299   6.896   3.440
 3450SOL     OW11248   0.443   2.821   6.656
 3450SOL    HW111249   0.372   2.866   6.603
 3450SOL    HW211250   0.413   2.729   6.681
 3451SOL     OW11251   1.230   5.646   3.006
 3451SOL    HW111252   1.262   5.733   2.969
 3451SOL    HW211253   1.134   5.653   3.031
 3452SOL     OW11254   5.980   1.694   6.525
 3452SOL    HW111255   6.056   1.753   6.551
 3452SOL    HW211256   5.917   1.685   6.602
 3453SOL     OW11257   6.980   6.117   6.202
 3453SOL    HW111258   0.020   6.065   6.267
 3453SOL    HW211259   0.023   6.157   6.132
 3454SOL     OW11260   1.733   0.925   6.587
 3454SOL    HW111261   1.819   0.947   6.542
 3454SOL    HW211262   1.657   0.959   6.532
 3455SOL     OW11263   2.193   3.029   4.415
 3455SOL    HW111264   2.190   2.936   4.450
 3455SOL    HW211265   2.208   3.093   4.490
 3456SOL     OW11266   5.114   5.784   2.362
 3456SOL    HW111267   5.199   5.736   2.383
 3456SOL    HW211268   5.040   5.718   2.351
 3457SOL     OW11269   2.463   5.744   3.941
 3457SOL    HW111270   2.517   5.736   4.025
 3457SOL    HW211271   2.503   5.815   3.883
 3458SOL     OW11272   4.513   0.134   0.793
 3458SOL    HW111273   4.519   0.042   0.754
 3458SOL    HW211274   4.581   0.192   0.750
 3459SOL     OW11275   6.376   3.995   2.703
 3459SOL    HW111276   6.301   3.957   2.649
 3459SOL    HW211277   6.344   4.010   2.797
 3460SOL     OW11278   2.233   3.049   0.154
 3460SOL    HW111279   2.271   3.074   0.065
 3460SOL    HW211280   2.306   3.051   0.223
 3461SOL     OW11281   4.435   6.132   4.398
 3461SOL    HW111282   4.468   6.083   4.318
 3461SOL    HW211283   4.498   6.205   4.421
 3462SOL     OW11284   0.392   3.360   2.150
 3462SOL    HW111285   0.419   3.438   2.206
 3462SOL    HW211286   0.299   3.333   2.171
 3463SOL     OW11287   1.220   3.301   3.280
 3463SOL    HW111288   1.159   3.229   3.314
 3463SOL    HW211289   1.311   3.288   3.319
 3464SOL     OW11290   6.854   2.741   6.632
 3464SOL    HW111291   6.802   2.749   6.716
 3464SOL    HW211292   6.914   2.661   6.637
 3465SOL     OW11293   0.722   2.749   2.163
 3465SOL    HW111294   0.662   2.819   2.123
 3465SOL    HW211295   0.811   2.752   2.116
 3466SOL     OW11296   6.681   4.929   6.618
 3466SOL    HW111297   6.651   4.958   6.709
 3466SOL    HW211298   6.726   5.005   6.571
 3467SOL     OW11299   2.084   1.796   0.997
 3467SOL    HW111300   2.089   1.735   1.076
 3467SOL    HW211301   2.110   1.889   1.024
 3468SOL     OW11302   5.470   0.860   2.662
 3468SOL    HW111303   5.531   0.825   2.733
 3468SOL    HW211304   5.396   0.794   2.646
 3469SOL     OW11305   4.457   0.530   4.060
 3469SOL    HW111306   4.379   0.489   4.013
 3469SOL    HW211307   4.431   0.619   4.098
 3470SOL     OW11308   0.258   2.359   1.522
 3470SOL    HW111309   0.256   2.420   1.443
 3470SOL    HW211310   0.241   2.412   1.606
 3471SOL     OW11311   4.554   4.411   4.315
 3471SOL    HW111312   4.594   4.481   4.374
 3471SOL    HW211313   4.627   4.352   4.280
 3472SOL     OW11314   2.645   1.270   2.408
 3472SOL    HW111315   2.694   1.329   2.472
 3472SOL    HW211316   2.596   1.326   2.341
 3473SOL     OW11317   0.184   2.656   2.196
 3473SOL    HW111318   0.134   2.639   2.111
 3473SOL    HW211319   0.168   2.749   2.228
 3474SOL     OW11320   0.176   4.460   2.535
 3474SOL    HW111321   0.239   4.385   2.519
 3474SOL    HW211322   0.109   4.434   2.605
 3475SOL     OW11323   1.199   4.074   3.635
 3475SOL    HW111324   1.222   3.995   3.577
 3475SOL    HW211325   1.120   4.121   3.595
 3476SOL     OW11326   2.200   1.859   2.508
 3476SOL    HW111327   2.133   1.933   2.506
 3476SOL    HW211328   2.156   1.772   2.489
 3477SOL     OW11329   2.127   5.064   0.915
 3477SOL    HW111330   2.039   5.017   0.923
 3477SOL    HW211331   2.122   5.152   0.962
 3478SOL     OW11332   2.404   5.738   5.854
 3478SOL    HW111333   2.338   5.719   5.926
 3478SOL    HW211334   2.483   5.677   5.865
 3479SOL     OW11335   1.140   0.835   2.754
 3479SOL    HW111336   1.073   0.908   2.767
 3479SOL    HW211337   1.172   0.835   2.660
 3480SOL     OW11338   6.591   5.516   4.772
 3480SOL    HW111339   6.651   5.453   4.821
 3480SOL    HW211340   6.624   5.610   4.785
 3481SOL     OW11341   5.193   0.445   0.211
 3481SOL    HW111342   5.254   0.524   0.208
 3481SOL    HW211343   5.181   0.409   0.119
 3482SOL     OW11344   6.201   1.115   2.350
 3482SOL    HW111345   6.247   1.158   2.273
 3482SOL    HW211346   6.268   1.076   2.413
 3483SOL     OW11347   5.053   2.134   1.543
 3483SOL    HW111348   5.111   2.066   1.497
 3483SOL    HW211349   5.025   2.098   1.632
 3484SOL     OW11350   0.796   2.691   0.424
 3484SOL    HW111351   0.751   2.607   0.396
 3484SOL    HW211352   0.845   2.730   0.346
 3485SOL     OW11353   1.746   1.655   4.372
 3485SOL    HW111354   1.743   1.634   4.274
 3485SOL    HW211355   1.805   1.589   4.419
 3486SOL     OW11356   2.373   0.445   3.476
 3486SOL    HW111357   2.446   0.391   3.435
 3486SOL    HW211358   2.292   0.442   3.416
 3487SOL     OW11359   6.850   2.092   0.332
 3487SOL    HW111360   6.884   2.076   0.239
 3487SOL    HW211361   6.777   2.160   0.330
 3488SOL     OW11362   6.349   0.670   4.903
 3488SOL    HW111363   6.348   0.596   4.836
 3488SOL    HW211364   6.390   0.638   4.989
 3489SOL     OW11365   4.080   0.588   1.951
 3489SOL    HW111366   4.067   0.503   2.001
 3489SOL    HW211367   4.009   0.654   1.977
 3490SOL     OW11368   4.159   4.018   1.195
 3490SOL    HW111369   4.258   4.003   1.202
 3490SOL    HW211370   4.141   4.116   1.185
 3491SOL     OW11371   4.867   2.490   5.711
 3491SOL    HW111372   4.848   2.423   5.639
 3491SOL    HW211373   4.806   2.474   5.789
 3492SOL     OW11374   6.499   4.440   0.789
 3492SOL    HW111375   6.594   4.467   0.805
 3492SOL    HW211376   6.497   4.355   0.737
 3493SOL     OW11377   4.740   4.152   4.793
 3493SOL    HW111378   4.654   4.204   4.790
 3493SOL    HW211379   4.743   4.097   4.877
 3494SOL     OW11380   2.994   1.076   1.998
 3494SOL    HW111381   2.920   1.011   2.014
 3494SOL    HW211382   3.082   1.033   2.022
 3495SOL     OW11383   5.896   4.943   1.292
 3495SOL    HW111384   5.974   4.887   1.263
 3495SOL    HW211385   5.920   5.040   1.285
 3496SOL     OW11386   6.160   5.198   0.680
 3496SOL    HW111387   6.162   5.186   0.780
 3496SOL    HW211388   6.247   5.235   0.649
 3497SOL     OW11389   2.410   1.108   3.720
 3497SOL    HW111390   2.472   1.184   3.739
 3497SOL    HW211391   2.409   1.044   3.797
 3498SOL     OW11392   3.118   1.854   1.069
 3498SOL    HW111393   3.045   1.814   1.124
 3498SOL    HW211394   3.092   1.947   1.042
 3499SOL     OW11395   5.773   3.936   4.531
 3499SOL    HW111396   5.855   3.994   4.536
 3499SOL    HW211397   5.777   3.880   4.449
 3500SOL     OW11398   2.114   3.368   4.518
 3500SOL    HW111399   2.111   3.283   4.571
 3500SOL    HW211400   2.070   3.441   4.569
 3501SOL     OW11401   2.733   5.711   5.834
 3501SOL    HW111402   2.813   5.746   5.881
 3501SOL    HW211403   2.715   5.617   5.864
 3502SOL     OW11404   6.670   2.348   1.713
 3502SOL    HW111405   6.656   2.328   1.616
 3502SOL    HW211406   6.593   2.401   1.748
 3503SOL     OW11407   5.784   6.182   4.739
 3503SOL    HW111408   5.845   6.258   4.764
 3503SOL    HW211409   5.786   6.169   4.640
 3504SOL     OW11410   2.542   0.854   2.100
 3504SOL    HW111411   2.493   0.809   2.026
 3504SOL    HW211412   2.633   0.881   2.069
 3505SOL     OW11413   5.438   4.431   5.947
 3505SOL    HW111414   5.405   4.340   5.971
 3505SOL    HW211415   5.368   4.499   5.968
 3506SOL     OW11416   4.957   4.915   5.576
 3506SOL    HW111417   5.025   4.857   5.621
 3506SOL    HW211418   4.877   4.924   5.635
 3507SOL     OW11419   2.507   0.842   1.038
 3507SOL    HW111420   2.526   0.885   1.127
 3507SOL    HW211421   2.575   0.771   1.020
 3508SOL     OW11422   2.059   2.083   6.011
 3508SOL    HW111423   1.985   2.149   6.025
 3508SOL    HW211424   2.094   2.091   5.918
 3509SOL     OW11425   5.014   0.435   6.616
 3509SOL    HW111426   5.058   0.475   6.696
 3509SOL    HW211427   5.084   0.412   6.548
 3510SOL     OW11428   1.325   1.320   2.229
 3510SOL    HW111429   1.256   1.373   2.181
 3510SOL    HW211430   1.415   1.339   2.189
 3511SOL     OW11431   2.156   4.870   1.264
 3511SOL    HW111432   2.079   4.813   1.293
 3511SOL    HW211433   2.187   4.840   1.173
 3512SOL     OW11434   0.751   4.541   0.538
 3512SOL    HW111435   0.768   4.450   0.500
 3512SOL    HW211436   0.718   4.602   0.466
 3513SOL     OW11437   5.376   2.326   6.968
 3513SOL    HW111438   5.306   2.396   6.975
 3513SOL    HW211439   5.462   2.367   6.937
 3514SOL     OW11440   6.966   1.478   1.767
 3514SOL    HW111441   7.009   1.470   1.857
 3514SOL    HW211442   6.913   1.563   1.763
 3515SOL     OW11443   4.319   5.792   3.356
 3515SOL    HW111444   4.293   5.888   3.361
 3515SOL    HW211445   4.396   5.781   3.293
 3516SOL     OW11446   5.098   6.811   1.115
 3516SOL    HW111447   5.080   6.902   1.077
 3516SOL    HW211448   5.087   6.814   1.215
 3517SOL     OW11449   1.197   2.410   1.389
 3517SOL    HW111450   1.225   2.444   1.299
 3517SOL    HW211451   1.157   2.485   1.442
 3518SOL     OW11452   5.439   2.911   4.219
 3518SOL    HW111453   5.460   2.819   4.189
 3518SOL    HW211454   5.381   2.907   4.301
 3519SOL     OW11455   1.619   0.836   6.313
 3519SOL    HW111456   1.692   0.885   6.266
 3519SOL    HW211457   1.655   0.752   6.353
 3520SOL     OW11458   3.242   5.363   6.625
 3520SOL    HW111459   3.172   5.427   6.655
 3520SOL    HW211460   3.204   5.271   6.622
 3521SOL     OW11461   5.017   2.466   0.035
 3521SOL    HW111462   5.068   2.517   6.981
 3521SOL    HW211463   5.081   2.433   0.105
 3522SOL     OW11464   7.003   4.716   1.218
 3522SOL    HW111465   0.018   4.665   1.138
 3522SOL    HW211466   6.962   4.654   1.284
 3523SOL     OW11467   1.497   4.701   6.225
 3523SOL    HW111468   1.411   4.701   6.276
 3523SOL    HW211469   1.570   4.665   6.283
 3524SOL     OW11470   4.675   1.535   2.098
 3524SOL    HW111471   4.677   1.448   2.048
 3524SOL    HW211472   4.742   1.598   2.057
 3525SOL     OW11473   0.438   4.698   3.027
 3525SOL    HW111474   0.425   4.726   3.122
 3525SOL    HW211475   0.425   4.600   3.019
 3526SOL     OW11476   2.144   6.951   3.863
 3526SOL    HW111477   2.193   6.866   3.842
 3526SOL    HW211478   2.193   0.012   3.823
 3527SOL     OW11479   5.531   3.321   6.454
 3527SOL    HW111480   5.524   3.272   6.367
 3527SOL    HW211481   5.448   3.305   6.507
 3528SOL     OW11482   1.043   6.335   5.096
 3528SOL    HW111483   1.079   6.271   5.164
 3528SOL    HW211484   1.110   6.346   5.023
 3529SOL     OW11485   3.942   0.610   6.904
 3529SOL    HW111486   4.024   0.560   6.876
 3529SOL    HW211487   3.961   0.708   6.905
 3530SOL     OW11488   6.690   5.136   2.330
 3530SOL    HW111489   6.602   5.134   2.282
 3530SOL    HW211490   6.736   5.223   2.312
 3531SOL     OW11491   5.352   3.397   0.435
 3531SOL    HW111492   5.402   3.471   0.389
 3531SOL    HW211493   5.263   3.430   0.465
 3532SOL     OW11494   2.691   0.436   1.962
 3532SOL    HW111495   2.676   0.389   1.875
 3532SOL    HW211496   2.645   0.386   2.035
 3533SOL     OW11497   1.466   1.784   2.769
 3533SOL    HW111498   1.457   1.870   2.718
 3533SOL    HW211499   1.422   1.794   2.859
 3534SOL     OW11500   6.509   1.899   0.708
 3534SOL    HW111501   6.509   1.938   0.616
 3534SOL    HW211502   6.481   1.970   0.774
 3535SOL     OW11503   1.602   6.093   0.664
 3535SOL    HW111504   1.642   6.131   0.748
 3535SOL    HW211505   1.528   6.031   0.688
 3536SOL     OW11506   2.681   1.888   3.168
 3536SOL    HW111507   2.681   1.950   3.247
 3536SOL    HW211508   2.614   1.918   3.102
 3537SOL     OW11509   3.303   6.453   1.949
 3537SOL    HW111510   3.256   6.378   1.995
 3537SOL    HW211511   3.368   6.416   1.883
 3538SOL     OW11512   1.530   6.881   6.112
 3538SOL    HW111513   1.509   6.867   6.208
 3538SOL    HW211514   1.492   6.805   6.058
 3539SOL     OW11515   4.821   3.152   5.691
 3539SOL    HW111516   4.722   3.148   5.702
 3539SOL    HW211517   4.852   3.072   5.640
 3540SOL     OW11518   2.532   2.052   5.505
 3540SOL    HW111519   2.438   2.033   5.476
 3540SOL    HW211520   2.537   2.052   5.604
 3541SOL     OW11521   2.023   2.413   6.294
 3541SOL    HW111522   1.999   2.316   6.281
 3541SOL    HW211523   2.104   2.435   6.240
 3542SOL     OW11524   1.907   5.319   3.012
 3542SOL    HW111525   1.904   5.387   3.085
 3542SOL    HW211526   2.000   5.312   2.976
 3543SOL     OW11527   0.931   2.426   4.541
 3543SOL    HW111528   0.971   2.344   4.500
 3543SOL    HW211529   1.005   2.483   4.579
 3544SOL     OW11530   2.673   4.157   6.407
 3544SOL    HW111531   2.749   4.123   6.463
 3544SOL    HW211532   2.705   4.235   6.352
 3545SOL     OW11533   4.187   5.522   0.588
 3545SOL    HW111534   4.107   5.476   0.625
 3545SOL    HW211535   4.232   5.463   0.521
 3546SOL     OW11536   1.433   4.286   4.583
 3546SOL    HW111537   1.392   4.377   4.591
 3546SOL    HW211538   1.454   4.268   4.487
 3547SOL     OW11539   6.562   4.617   4.118
 3547SOL    HW111540   6.597   4.654   4.032
 3547SOL    HW211541   6.629   4.552   4.155
 3548SOL     OW11542   5.651   1.612   5.740
 3548SOL    HW111543   5.746   1.626   5.712
 3548SOL    HW211544   5.629   1.514   5.735
 3549SOL     OW11545   6.731   5.286   5.795
 3549SOL    HW111546   6.759   5.307   5.701
 3549SOL    HW211547   6.736   5.188   5.810
 3550SOL     OW11548   6.317   2.488   2.752
 3550SOL    HW111549   6.311   2.553   2.827
 3550SOL    HW211550   6.343   2.398   2.787
 3551SOL     OW11551   3.710   0.889   1.920
 3551SOL    HW111552   3.740   0.927   1.832
 3551SOL    HW211553   3.771   0.815   1.948
 3552SOL     OW11554   5.498   6.138   2.507
 3552SOL    HW111555   5.560   6.076   2.555
 3552SOL    HW211556   5.403   6.110   2.523
 3553SOL     OW11557   4.776   4.344   1.047
 3553SOL    HW111558   4.724   4.416   1.094
 3553SOL    HW211559   4.874   4.355   1.068
 3554SOL     OW11560   4.874   2.578   0.800
 3554SOL    HW111561   4.789   2.537   0.833
 3554SOL    HW211562   4.931   2.507   0.759
 3555SOL     OW11563   1.218   4.459   4.172
 3555SOL    HW111564   1.165   4.452   4.257
 3555SOL    HW211565   1.296   4.519   4.187
 3556SOL     OW11566   4.272   1.568   3.735
 3556SOL    HW111567   4.198   1.571   3.802
 3556SOL    HW211568   4.237   1.535   3.647
 3557SOL     OW11569   0.782   0.349   4.272
 3557SOL    HW111570   0.736   0.319   4.188
 3557SOL    HW211571   0.718   0.342   4.348
 3558SOL     OW11572   1.696   6.364   1.335
 3558SOL    HW111573   1.659   6.362   1.428
 3558SOL    HW211574   1.709   6.458   1.306
 3559SOL     OW11575   0.243   6.298   5.251
 3559SOL    HW111576   0.267   6.219   5.195
 3559SOL    HW211577   0.234   6.269   5.347
 3560SOL     OW11578   0.490   5.722   1.649
 3560SOL    HW111579   0.533   5.812   1.639
 3560SOL    HW211580   0.471   5.684   1.559
 3561SOL     OW11581   4.038   4.558   5.334
 3561SOL    HW111582   3.945   4.526   5.349
 3561SOL    HW211583   4.103   4.485   5.356
 3562SOL     OW11584   5.240   0.737   2.969
 3562SOL    HW111585   5.299   0.809   3.003
 3562SOL    HW211586   5.167   0.777   2.913
 3563SOL     OW11587   5.636   2.005   6.827
 3563SOL    HW111588   5.567   1.940   6.862
 3563SOL    HW211589   5.631   2.008   6.727
 3564SOL     OW11590   1.528   4.502   3.975
 3564SOL    HW111591   1.493   4.408   3.977
 3564SOL    HW211592   1.486   4.551   3.898
 3565SOL     OW11593   3.060   5.663   5.154
 3565SOL    HW111594   3.031   5.749   5.197
 3565SOL    HW211595   2.986   5.627   5.097
 3566SOL     OW11596   6.384   3.239   5.667
 3566SOL    HW111597   6.376   3.295   5.750
 3566SOL    HW211598   6.294   3.228   5.626
 3567SOL     OW11599   0.341   3.246   0.173
 3567SOL    HW111600   0.272   3.249   0.246
 3567SOL    HW211601   0.382   3.337   0.163
 3568SOL     OW11602   4.748   5.314   4.109
 3568SOL    HW111603   4.844   5.335   4.127
 3568SOL    HW211604   4.738   5.217   4.090
 3569SOL     OW11605   2.802   2.059   6.155
 3569SOL    HW111606   2.831   2.073   6.060
 3569SOL    HW211607   2.733   1.986   6.159
 3570SOL     OW11608   5.145   0.525   5.101
 3570SOL    HW111609   5.156   0.426   5.101
 3570SOL    HW211610   5.228   0.567   5.139
 3571SOL     OW11611   1.361   0.082   5.265
 3571SOL    HW111612   1.325   0.000   5.311
 3571SOL    HW211613   1.461   0.077   5.263
 3572SOL     OW11614   5.535   3.341   3.038
 3572SOL    HW111615   5.633   3.357   3.048
 3572SOL    HW211616   5.488   3.367   3.123
 3573SOL     OW11617   6.667   4.064   3.267
 3573SOL    HW111618   6.613   4.135   3.223
 3573SOL    HW211619   6.683   3.989   3.202
 3574SOL     OW11620   0.612   2.752   1.157
 3574SOL    HW111621   0.526   2.785   1.197
 3574SOL    HW211622   0.593   2.705   1.071
 3575SOL     OW11623   5.183   6.023   3.271
 3575SOL    HW111624   5.266   6.021   3.216
 3575SOL    HW211625   5.184   6.103   3.332
 3576SOL     OW11626   0.668   2.226   6.772
 3576SOL    HW111627   0.635   2.233   6.866
 3576SOL    HW211628   0.599   2.181   6.715
 3577SOL     OW11629   1.441   2.684   6.853
 3577SOL    HW111630   1.524   2.708   6.802
 3577SOL    HW211631   1.416   2.590   6.834
 3578SOL     OW11632   4.821   1.316   0.797
 3578SOL    HW111633   4.822   1.303   0.896
 3578SOL    HW211634   4.770   1.242   0.754
 3579SOL     OW11635   6.592   2.171   2.798
 3579SOL    HW111636   6.619   2.084   2.840
 3579SOL    HW211637   6.620   2.247   2.857
 3580SOL     OW11638   5.965   3.292   0.727
 3580SOL    HW111639   5.925   3.225   0.789
 3580SOL    HW211640   6.064   3.283   0.727
 3581SOL     OW11641   0.875   5.158   3.432
 3581SOL    HW111642   0.914   5.066   3.431
 3581SOL    HW211643   0.947   5.225   3.417
 3582SOL     OW11644   1.220   3.958   5.939
 3582SOL    HW111645   1.252   3.935   5.847
 3582SOL    HW211646   1.158   3.887   5.971
 3583SOL     OW11647   1.535   4.234   6.980
 3583SOL    HW111648   1.560   4.143   7.013
 3583SOL    HW211649   1.595   4.258   6.903
 3584SOL     OW11650   5.896   4.293   5.703
 3584SOL    HW111651   5.861   4.295   5.797
 3584SOL    HW211652   5.867   4.376   5.655
 3585SOL     OW11653   2.997   2.117   4.554
 3585SOL    HW111654   2.933   2.175   4.504
 3585SOL    HW211655   2.977   2.122   4.652
 3586SOL     OW11656   5.989   1.712   4.597
 3586SOL    HW111657   5.923   1.674   4.533
 3586SOL    HW211658   6.018   1.803   4.566
 3587SOL     OW11659   2.220   5.363   5.732
 3587SOL    HW111660   2.294   5.429   5.713
 3587SOL    HW211661   2.255   5.270   5.721
 3588SOL     OW11662   0.132   2.913   5.362
 3588SOL    HW111663   0.035   2.933   5.376
 3588SOL    HW211664   0.149   2.893   5.266
 3589SOL     OW11665   5.638   0.930   5.815
 3589SOL    HW111666   5.686   0.843   5.821
 3589SOL    HW211667   5.636   0.974   5.904
 3590SOL     OW11668   0.006   3.466   0.088
 3590SOL    HW111669   6.928   3.500   0.077
 3590SOL    HW211670   0.023   3.395   0.020
 3591SOL     OW11671   5.763   3.567   0.307
 3591SOL    HW111672   5.793   3.511   0.385
 3591SOL    HW211673   5.824   3.553   0.230
 3592SOL     OW11674   0.383   6.662   2.737
 3592SOL    HW111675   0.431   6.625   2.657
 3592SOL    HW211676   0.311   6.599   2.765
 3593SOL     OW11677   0.856   4.257   5.842
 3593SOL    HW111678   0.955   4.252   5.850
 3593SOL    HW211679   0.831   4.329   5.777
 3594SOL     OW11680   4.772   0.317   3.402
 3594SOL    HW111681   4.692   0.372   3.427
 3594SOL    HW211682   4.846   0.376   3.371
 3595SOL     OW11683   5.376   5.754   6.944
 3595SOL    HW111684   5.404   5.700   6.865
 3595SOL    HW211685   5.290   5.717   6.980
 3596SOL     OW11686   4.895   3.474   3.016
 3596SOL    HW111687   4.860   3.498   2.926
 3596SOL    HW211688   4.874   3.378   3.036
 3597SOL     OW11689   2.299   2.277   5.740
 3597SOL    HW111690   2.283   2.366   5.696
 3597SOL    HW211691   2.376   2.285   5.803
 3598SOL     OW11692   1.957   6.499   5.963
 3598SOL    HW111693   2.031   6.471   6.025
 3598SOL    HW211694   1.991   6.505   5.870
 3599SOL     OW11695   4.810   2.027   0.462
 3599SOL    HW111696   4.755   1.986   0.390
 3599SOL    HW211697   4.750   2.076   0.526
 3600SOL     OW11698   0.913   2.730   2.653
 3600SOL    HW111699   1.005   2.726   2.689
 3600SOL    HW211700   0.904   2.809   2.593
 3601SOL     OW11701   5.127   2.622   6.032
 3601SOL    HW111702   5.218   2.653   6.006
 3601SOL    HW211703   5.068   2.701   6.047
 3602SOL     OW11704   1.628   3.939   0.839
 3602SOL    HW111705   1.714   3.963   0.794
 3602SOL    HW211706   1.637   3.849   0.882
 3603SOL     OW11707   3.574   0.800   4.208
 3603SOL    HW111708   3.530   0.821   4.120
 3603SOL    HW211709   3.531   0.854   4.280
 3604SOL     OW11710   6.878   6.692   3.332
 3604SOL    HW111711   6.785   6.726   3.333
 3604SOL    HW211712   6.907   6.674   3.238
 3605SOL     OW11713   0.680   4.546   3.831
 3605SOL    HW111714   0.756   4.610   3.832
 3605SOL    HW211715   0.712   4.456   3.859
 3606SOL     OW11716   0.718   6.598   4.369
 3606SOL    HW111717   0.767   6.540   4.434
 3606SOL    HW211718   0.634   6.632   4.412
 3607SOL     OW11719   5.673   4.763   2.007
 3607SOL    HW111720   5.714   4.793   2.093
 3607SOL    HW211721   5.583   4.805   1.998
 3608SOL     OW11722   4.605   1.546   4.562
 3608SOL    HW111723   4.523   1.601   4.548
 3608SOL    HW211724   4.618   1.529   4.660
 3609SOL     OW11725   1.818   7.013   4.577
 3609SOL    HW111726   1.791   0.091   4.602
 3609SOL    HW211727   1.737   6.958   4.558
 3610SOL     OW11728   1.716   0.609   6.396
 3610SOL    HW111729   1.784   0.547   6.437
 3610SOL    HW211730   1.630   0.559   6.382
 3611SOL     OW11731   4.303   5.211   4.065
 3611SOL    HW111732   4.332   5.116   4.053
 3611SOL    HW211733   4.377   5.271   4.034
 3612SOL     OW11734   0.588   0.382   6.807
 3612SOL    HW111735   0.643   0.459   6.839
 3612SOL    HW211736   0.491   0.403   6.819
 3613SOL     OW11737   4.727   4.632   2.104
 3613SOL    HW111738   4.695   4.585   2.021
 3613SOL    HW211739   4.700   4.580   2.185
 3614SOL     OW11740   3.554   3.715   0.592
 3614SOL    HW111741   3.613   3.661   0.652
 3614SOL    HW211742   3.497   3.776   0.647
 3615SOL     OW11743   5.282   2.898   6.098
 3615SOL    HW111744   5.304   2.857   6.009
 3615SOL    HW211745   5.194   2.946   6.092
 3616SOL     OW11746   0.810   0.708   6.374
 3616SOL    HW111747   0.888   0.743   6.322
 3616SOL    HW211748   0.840   0.682   6.465
 3617SOL     OW11749   4.265   0.955   6.265
 3617SOL    HW111750   4.182   0.959   6.210
 3617SOL    HW211751   4.248   0.993   6.356
 3618SOL     OW11752   2.400   3.224   5.362
 3618SOL    HW111753   2.468   3.160   5.325
 3618SOL    HW211754   2.428   3.254   5.453
 3619SOL     OW11755   5.945   2.881   6.350
 3619SOL    HW111756   5.850   2.885   6.318
 3619SOL    HW211757   5.948   2.897   6.448
 3620SOL     OW11758   5.876   5.880   5.625
 3620SOL    HW111759   5.848   5.974   5.642
 3620SOL    HW211760   5.882   5.830   5.712
 3621SOL     OW11761   2.943   3.379   4.666
 3621SOL    HW111762   2.848   3.348   4.673
 3621SOL    HW211763   2.998   3.308   4.621
 3622SOL     OW11764   1.713   1.004   0.142
 3622SOL    HW111765   1.665   1.091   0.153
 3622SOL    HW211766   1.811   1.019   0.150
 3623SOL     OW11767   6.429   5.983   4.416
 3623SOL    HW111768   6.519   6.027   4.412
 3623SOL    HW211769   6.429   5.914   4.489
 3624SOL     OW11770   1.490   0.113   2.499
 3624SOL    HW111771   1.559   0.177   2.464
 3624SOL    HW211772   1.445   0.153   2.579
 3625SOL     OW11773   0.537   3.552   6.253
 3625SOL    HW111774   0.464   3.484   6.260
 3625SOL    HW211775   0.503   3.631   6.200
 3626SOL     OW11776   0.587   3.367   5.635
 3626SOL    HW111777   0.567   3.270   5.622
 3626SOL    HW211778   0.686   3.380   5.636
 3627SOL     OW11779   4.418   3.005   1.500
 3627SOL    HW111780   4.490   3.072   1.481
 3627SOL    HW211781   4.438   2.958   1.585
 3628SOL     OW11782   0.872   1.649   1.877
 3628SOL    HW111783   0.867   1.627   1.780
 3628SOL    HW211784   0.944   1.717   1.892
 3629SOL     OW11785   0.369   0.296   5.429
 3629SOL    HW111786   0.302   0.265   5.361
 3629SOL    HW211787   0.421   0.373   5.391
 3630SOL     OW11788   6.001   2.590   3.546
 3630SOL    HW111789   5.983   2.611   3.450
 3630SOL    HW211790   6.070   2.654   3.581
 3631SOL     OW11791   1.722   0.155   2.937
 3631SOL    HW111792   1.711   0.226   2.867
 3631SOL    HW211793   1.646   0.160   3.002
 3632SOL     OW11794   5.105   4.986   0.580
 3632SOL    HW111795   5.042   4.977   0.657
 3632SOL    HW211796   5.192   5.021   0.613
 3633SOL     OW11797   4.187   2.418   5.780
 3633SOL    HW111798   4.273   2.405   5.731
 3633SOL    HW211799   4.132   2.335   5.771
 3634SOL     OW11800   2.316   5.950   6.101
 3634SOL    HW111801   2.280   5.971   6.009
 3634SOL    HW211802   2.292   6.025   6.163
 3635SOL     OW11803   2.873   0.996   0.947
 3635SOL    HW111804   2.942   0.973   1.015
 3635SOL    HW211805   2.810   0.919   0.935
 3636SOL     OW11806   6.502   5.570   0.681
 3636SOL    HW111807   6.450   5.566   0.595
 3636SOL    HW211808   6.591   5.527   0.668
 3637SOL     OW11809   0.480   2.550   1.439
 3637SOL    HW111810   0.516   2.494   1.365
 3637SOL    HW211811   0.550   2.562   1.510
 3638SOL     OW11812   6.911   3.991   2.515
 3638SOL    HW111813   6.910   3.901   2.472
 3638SOL    HW211814   6.881   4.060   2.449
 3639SOL     OW11815   4.376   4.969   6.758
 3639SOL    HW111816   4.278   4.987   6.767
 3639SOL    HW211817   4.427   5.034   6.814
 3640SOL     OW11818   5.152   1.889   0.216
 3640SOL    HW111819   5.106   1.800   0.219
 3640SOL    HW211820   5.237   1.880   0.164
 3641SOL     OW11821   6.229   3.690   1.681
 3641SOL    HW111822   6.262   3.653   1.594
 3641SOL    HW211823   6.188   3.780   1.665
 3642SOL     OW11824   4.801   2.401   6.798
 3642SOL    HW111825   4.785   2.473   6.866
 3642SOL    HW211826   4.734   2.408   6.725
 3643SOL     OW11827   3.862   5.882   5.184
 3643SOL    HW111828   3.879   5.916   5.276
 3643SOL    HW211829   3.764   5.893   5.163
 3644SOL     OW11830   2.169   1.393   1.542
 3644SOL    HW111831   2.164   1.492   1.529
 3644SOL    HW211832   2.263   1.367   1.564
 3645SOL     OW11833   1.536   2.826   4.364
 3645SOL    HW111834   1.504   2.900   4.304
 3645SOL    HW211835   1.546   2.862   4.457
 3646SOL     OW11836   1.422   3.924   5.699
 3646SOL    HW111837   1.462   4.010   5.730
 3646SOL    HW211838   1.330   3.942   5.662
 3647SOL     OW11839   2.669   5.915   0.056
 3647SOL    HW111840   2.693   5.971   0.135
 3647SOL    HW211841   2.587   5.953   0.012
 3648SOL     OW11842   4.938   5.854   3.694
 3648SOL    HW111843   4.910   5.896   3.608
 3648SOL    HW211844   4.975   5.763   3.676
 3649SOL     OW11845   6.172   3.127   0.214
 3649SOL    HW111846   6.129   3.208   0.253
 3649SOL    HW211847   6.197   3.146   0.119
 3650SOL     OW11848   5.999   5.177   1.244
 3650SOL    HW111849   5.996   5.264   1.195
 3650SOL    HW211850   6.094   5.144   1.248
 3651SOL     OW11851   2.069   0.667   4.849
 3651SOL    HW111852   2.007   0.690   4.775
 3651SOL    HW211853   2.163   0.676   4.818
 3652SOL     OW11854   6.351   6.666   3.245
 3652SOL    HW111855   6.300   6.711   3.319
 3652SOL    HW211856   6.338   6.717   3.160
 3653SOL     OW11857   1.581   1.132   2.925
 3653SOL    HW111858   1.657   1.165   2.869
 3653SOL    HW211859   1.509   1.201   2.928
 3654SOL     OW11860   4.398   5.664   0.639
 3654SOL    HW111861   4.322   5.603   0.616
 3654SOL    HW211862   4.484   5.614   0.625
 3655SOL     OW11863   3.424   1.015   4.057
 3655SOL    HW111864   3.335   1.047   4.089
 3655SOL    HW211865   3.495   1.080   4.085
 3656SOL     OW11866   0.784   5.341   1.267
 3656SOL    HW111867   0.762   5.330   1.363
 3656SOL    HW211868   0.707   5.386   1.220
 3657SOL     OW11869   4.728   5.548   4.633
 3657SOL    HW111870   4.822   5.583   4.637
 3657SOL    HW211871   4.707   5.500   4.718
 3658SOL     OW11872   2.050   5.097   6.804
 3658SOL    HW111873   2.135   5.045   6.802
 3658SOL    HW211874   2.049   5.155   6.886
 3659SOL     OW11875   1.298   2.216   5.741
 3659SOL    HW111876   1.341   2.305   5.723
 3659SOL    HW211877   1.317   2.154   5.664
 3660SOL     OW11878   6.101   5.602   4.219
 3660SOL    HW111879   6.072   5.697   4.208
 3660SOL    HW211880   6.175   5.597   4.286
 3661SOL     OW11881   0.428   0.551   5.086
 3661SOL    HW111882   0.465   0.644   5.080
 3661SOL    HW211883   0.406   0.518   4.994
 3662SOL     OW11884   4.104   0.942   4.491
 3662SOL    HW111885   4.031   0.927   4.425
 3662SOL    HW211886   4.065   0.964   4.580
 3663SOL     OW11887   1.861   2.692   6.525
 3663SOL    HW111888   1.926   2.746   6.472
 3663SOL    HW211889   1.909   2.614   6.567
 3664SOL     OW11890   4.769   2.460   1.961
 3664SOL    HW111891   4.699   2.477   1.892
 3664SOL    HW211892   4.855   2.436   1.915
 3665SOL     OW11893   0.640   5.900   5.540
 3665SOL    HW111894   0.562   5.943   5.495
 3665SOL    HW211895   0.667   5.955   5.620
 3666SOL     OW11896   0.769   3.440   3.198
 3666SOL    HW111897   0.777   3.392   3.286
 3666SOL    HW211898   0.813   3.529   3.205
 3667SOL     OW11899   0.310   1.188   3.460
 3667SOL    HW111900   0.328   1.117   3.529
 3667SOL    HW211901   0.251   1.258   3.499
 3668SOL     OW11902   1.162   0.264   1.422
 3668SOL    HW111903   1.095   0.327   1.382
 3668SOL    HW211904   1.233   0.317   1.469
 3669SOL     OW11905   5.462   1.629   3.753
 3669SOL    HW111906   5.533   1.663   3.692
 3669SOL    HW211907   5.453   1.530   3.742
 3670SOL     OW11908   2.814   5.477   0.294
 3670SOL    HW111909   2.785   5.552   0.235
 3670SOL    HW211910   2.832   5.511   0.386
 3671SOL     OW11911   6.698   2.169   4.043
 3671SOL    HW111912   6.704   2.209   3.951
 3671SOL    HW211913   6.733   2.076   4.041
 3672SOL     OW11914   4.770   2.423   2.714
 3672SOL    HW111915   4.714   2.490   2.763
 3672SOL    HW211916   4.712   2.373   2.649
 3673SOL     OW11917   4.050   5.519   6.636
 3673SOL    HW111918   4.022   5.499   6.730
 3673SOL    HW211919   4.015   5.609   6.609
 3674SOL     OW11920   1.611   6.025   5.193
 3674SOL    HW111921   1.618   5.994   5.288
 3674SOL    HW211922   1.695   6.003   5.144
 3675SOL     OW11923   1.120   2.309   4.050
 3675SOL    HW111924   1.051   2.251   4.096
 3675SOL    HW211925   1.202   2.313   4.106
 3676SOL     OW11926   5.590   3.442   2.360
 3676SOL    HW111927   5.641   3.484   2.285
 3676SOL    HW211928   5.591   3.342   2.350
 3677SOL     OW11929   2.670   0.377   4.830
 3677SOL    HW111930   2.762   0.340   4.835
 3677SOL    HW211931   2.609   0.311   4.786
 3678SOL     OW11932   1.963   1.082   4.061
 3678SOL    HW111933   2.057   1.081   4.094
 3678SOL    HW211934   1.914   1.159   4.100
 3679SOL     OW11935   6.937   0.513   2.890
 3679SOL    HW111936   6.940   0.433   2.950
 3679SOL    HW211937   6.960   0.485   2.796
 3680SOL     OW11938   4.670   2.818   4.625
 3680SOL    HW111939   4.653   2.753   4.551
 3680SOL    HW211940   4.586   2.865   4.649
 3681SOL     OW11941   0.949   0.851   6.833
 3681SOL    HW111942   0.941   0.930   6.772
 3681SOL    HW211943   0.970   0.883   6.925
 3682SOL     OW11944   5.509   2.693   0.191
 3682SOL    HW111945   5.450   2.639   0.250
 3682SOL    HW211946   5.604   2.682   0.219
 3683SOL     OW11947   0.082   0.501   3.705
 3683SOL    HW111948   0.009   0.554   3.660
 3683SOL    HW211949   0.051   0.407   3.718
 3684SOL     OW11950   1.191   5.350   6.998
 3684SOL    HW111951   1.199   5.441   0.024
 3684SOL    HW211952   1.268   5.293   0.012
 3685SOL     OW11953   2.464   5.951   5.697
 3685SOL    HW111954   2.507   5.894   5.627
 3685SOL    HW211955   2.448   5.897   5.779
 3686SOL     OW11956   6.699   4.894   3.907
 3686SOL    HW111957   6.789   4.905   3.951
 3686SOL    HW211958   6.628   4.890   3.977
 3687SOL     OW11959   4.903   6.560   3.749
 3687SOL    HW111960   4.875   6.653   3.773
 3687SOL    HW211961   4.822   6.505   3.729
 3688SOL     OW11962   6.459   2.967   6.983
 3688SOL    HW111963   6.540   2.976   6.925
 3688SOL    HW211964   6.393   3.038   6.959
 3689SOL     OW11965   2.166   1.586   5.686
 3689SOL    HW111966   2.165   1.599   5.587
 3689SOL    HW211967   2.246   1.632   5.724
 3690SOL     OW11968   4.740   5.856   1.011
 3690SOL    HW111969   4.820   5.802   0.986
 3690SOL    HW211970   4.727   5.929   0.944
 3691SOL     OW11971   2.366   2.057   6.615
 3691SOL    HW111972   2.377   1.962   6.585
 3691SOL    HW211973   2.430   2.076   6.689
 3692SOL     OW11974   6.585   4.903   5.838
 3692SOL    HW111975   6.556   4.807   5.844
 3692SOL    HW211976   6.607   4.925   5.743
 3693SOL     OW11977   1.743   1.794   2.847
 3693SOL    HW111978   1.646   1.799   2.825
 3693SOL    HW211979   1.790   1.736   2.780
 3694SOL     OW11980   1.611   6.616   2.440
 3694SOL    HW111981   1.552   6.551   2.393
 3694SOL    HW211982   1.575   6.634   2.532
 3695SOL     OW11983   5.667   1.538   1.791
 3695SOL    HW111984   5.636   1.525   1.885
 3695SOL    HW211985   5.631   1.465   1.733
 3696SOL     OW11986   4.128   6.828   4.968
 3696SOL    HW111987   4.088   6.914   4.997
 3696SOL    HW211988   4.227   6.830   4.982
 3697SOL     OW11989   6.674   6.344   3.002
 3697SOL    HW111990   6.659   6.354   2.904
 3697SOL    HW211991   6.593   6.376   3.052
 3698SOL     OW11992   2.061   1.090   3.394
 3698SOL    HW111993   2.100   1.005   3.431
 3698SOL    HW211994   2.003   1.069   3.316
 3699SOL     OW11995   1.677   1.543   3.651
 3699SOL    HW111996   1.769   1.543   3.689
 3699SOL    HW211997   1.674   1.481   3.572
 3700SOL     OW11998   1.508   4.975   4.840
 3700SOL    HW111999   1.460   4.892   4.869
 3700SOL    HW212000   1.443   5.038   4.797
 3701SOL     OW12001   1.108   6.255   3.013
 3701SOL    HW112002   1.029   6.267   3.073
 3701SOL    HW212003   1.081   6.274   2.919
 3702SOL     OW12004   5.579   6.428   3.263
 3702SOL    HW112005   5.590   6.392   3.355
 3702SOL    HW212006   5.642   6.381   3.201
 3703SOL     OW12007   0.943   7.005   6.801
 3703SOL    HW112008   0.876   6.936   6.828
 3703SOL    HW212009   0.910   0.039   6.721
 3704SOL     OW12010   5.240   2.809   1.077
 3704SOL    HW112011   5.205   2.724   1.038
 3704SOL    HW212012   5.186   2.886   1.042
 3705SOL     OW12013   4.898   4.779   4.108
 3705SOL    HW112014   4.940   4.691   4.085
 3705SOL    HW212015   4.965   4.838   4.151
 3706SOL     OW12016   0.349   4.380   6.584
 3706SOL    HW112017   0.270   4.437   6.609
 3706SOL    HW212018   0.345   4.294   6.633
 3707SOL     OW12019   4.485   6.150   4.047
 3707SOL    HW112020   4.490   6.128   3.950
 3707SOL    HW212021   4.500   6.067   4.101
 3708SOL     OW12022   4.230   6.720   1.498
 3708SOL    HW112023   4.199   6.687   1.409
 3708SOL    HW212024   4.300   6.658   1.533
 3709SOL     OW12025   2.753   0.318   1.697
 3709SOL    HW112026   2.689   0.264   1.642
 3709SOL    HW212027   2.813   0.370   1.636
 3710SOL     OW12028   0.382   5.336   5.109
 3710SOL    HW112029   0.476   5.352   5.077
 3710SOL    HW212030   0.373   5.241   5.138
 3711SOL     OW12031   1.070   5.563   5.069
 3711SOL    HW112032   1.046   5.545   5.165
 3711SOL    HW212033   1.127   5.488   5.035
 3712SOL     OW12034   1.455   5.987   0.072
 3712SOL    HW112035   1.398   6.038   0.008
 3712SOL    HW212036   1.472   6.043   0.153
 3713SOL     OW12037   0.519   0.506   5.340
 3713SOL    HW112038   0.512   0.602   5.364
 3713SOL    HW212039   0.506   0.494   5.241
 3714SOL     OW12040   6.023   5.196   6.444
 3714SOL    HW112041   6.013   5.137   6.524
 3714SOL    HW212042   6.106   5.170   6.394
 3715SOL     OW12043   1.382   4.921   2.130
 3715SOL    HW112044   1.322   4.999   2.113
 3715SOL    HW212045   1.393   4.869   2.045
 3716SOL     OW12046   5.751   5.970   4.904
 3716SOL    HW112047   5.790   6.036   4.840
 3716SOL    HW212048   5.713   5.893   4.853
 3717SOL     OW12049   5.542   1.194   0.564
 3717SOL    HW112050   5.570   1.285   0.593
 3717SOL    HW212051   5.622   1.140   0.539
 3718SOL     OW12052   6.916   6.875   6.480
 3718SOL    HW112053   6.984   6.948   6.483
 3718SOL    HW212054   6.933   6.817   6.401
 3719SOL     OW12055   4.215   2.932   6.417
 3719SOL    HW112056   4.249   3.026   6.429
 3719SOL    HW212057   4.285   2.867   6.447
 3720SOL     OW12058   5.835   3.902   0.675
 3720SOL    HW112059   5.913   3.841   0.660
 3720SOL    HW212060   5.841   3.980   0.612
 3721SOL     OW12061   0.289   5.049   0.738
 3721SOL    HW112062   0.273   5.073   0.642
 3721SOL    HW212063   0.378   5.084   0.767
 3722SOL     OW12064   5.710   5.951   1.852
 3722SOL    HW112065   5.631   5.891   1.855
 3722SOL    HW212066   5.793   5.897   1.839
 3723SOL     OW12067   4.647   5.580   0.586
 3723SOL    HW112068   4.660   5.498   0.531
 3723SOL    HW212069   4.652   5.556   0.683
 3724SOL     OW12070   1.583   4.195   6.114
 3724SOL    HW112071   1.656   4.263   6.125
 3724SOL    HW212072   1.521   4.201   6.192
 3725SOL     OW12073   0.681   6.027   6.649
 3725SOL    HW112074   0.693   6.127   6.653
 3725SOL    HW212075   0.704   5.987   6.738
 3726SOL     OW12076   5.205   3.888   6.122
 3726SOL    HW112077   5.176   3.970   6.073
 3726SOL    HW212078   5.285   3.909   6.179
 3727SOL     OW12079   6.305   2.848   5.328
 3727SOL    HW112080   6.232   2.874   5.264
 3727SOL    HW212081   6.265   2.822   5.415
 3728SOL     OW12082   1.892   3.323   6.643
 3728SOL    HW112083   1.981   3.316   6.597
 3728SOL    HW212084   1.889   3.258   6.719
 3729SOL     OW12085   0.871   1.121   4.069
 3729SOL    HW112086   0.959   1.154   4.104
 3729SOL    HW212087   0.832   1.057   4.135
 3730SOL     OW12088   3.841   6.297   5.659
 3730SOL    HW112089   3.830   6.238   5.739
 3730SOL    HW212090   3.936   6.297   5.630
 3731SOL     OW12091   0.141   1.213   0.237
 3731SOL    HW112092   0.193   1.272   0.177
 3731SOL    HW212093   0.201   1.175   0.307
 3732SOL     OW12094   2.292   2.243   0.657
 3732SOL    HW112095   2.309   2.282   0.748
 3732SOL    HW212096   2.298   2.143   0.662
 3733SOL     OW12097   1.877   2.487   3.343
 3733SOL    HW112098   1.956   2.427   3.353
 3733SOL    HW212099   1.905   2.582   3.353
 3734SOL     OW12100   4.286   0.903   1.339
 3734SOL    HW112101   4.232   0.908   1.424
 3734SOL    HW212102   4.350   0.979   1.336
 3735SOL     OW12103   3.959   0.616   2.423
 3735SOL    HW112104   3.970   0.583   2.517
 3735SOL    HW212105   3.891   0.560   2.376
 3736SOL     OW12106   6.835   1.283   0.967
 3736SOL    HW112107   6.927   1.283   1.006
 3736SOL    HW212108   6.768   1.290   1.041
 3737SOL     OW12109   6.098   1.399   3.334
 3737SOL    HW112110   6.086   1.498   3.340
 3737SOL    HW212111   6.186   1.373   3.372
 3738SOL     OW12112   6.519   0.075   1.184
 3738SOL    HW112113   6.468   0.128   1.253
 3738SOL    HW212114   6.596   0.129   1.151
 3739SOL     OW12115   2.277   4.534   1.400
 3739SOL    HW112116   2.321   4.451   1.434
 3739SOL    HW212117   2.311   4.555   1.308
 3740SOL     OW12118   6.351   5.559   0.406
 3740SOL    HW112119   6.287   5.588   0.478
 3740SOL    HW212120   6.362   5.633   0.339
 3741SOL     OW12121   4.647   3.012   6.824
 3741SOL    HW112122   4.633   2.938   6.890
 3741SOL    HW212123   4.569   3.017   6.762
 3742SOL     OW12124   4.118   6.958   0.455
 3742SOL    HW112125   4.050   7.013   0.505
 3742SOL    HW212126   4.171   6.904   0.520
 3743SOL     OW12127   5.453   4.037   1.092
 3743SOL    HW112128   5.494   3.975   1.159
 3743SOL    HW212129   5.377   4.087   1.134
 3744SOL     OW12130   1.358   6.025   2.001
 3744SOL    HW112131   1.302   5.967   1.942
 3744SOL    HW212132   1.397   5.969   2.075
 3745SOL     OW12133   5.517   3.790   2.944
 3745SOL    HW112134   5.455   3.716   2.916
 3745SOL    HW212135   5.463   3.868   2.977
 3746SOL     OW12136   6.024   0.262   3.714
 3746SOL    HW112137   6.029   0.186   3.779
 3746SOL    HW212138   6.095   0.249   3.644
 3747SOL     OW12139   4.471   6.345   5.149
 3747SOL    HW112140   4.548   6.304   5.197
 3747SOL    HW212141   4.404   6.273   5.127
 3748SOL     OW12142   5.160   0.575   1.746
 3748SOL    HW112143   5.096   0.644   1.711
 3748SOL    HW212144   5.247   0.582   1.697
 3749SOL     OW12145   2.046   4.687   3.542
 3749SOL    HW112146   2.039   4.714   3.638
 3749SOL    HW212147   2.068   4.767   3.486
 3750SOL     OW12148   5.829   4.520   0.814
 3750SOL    HW112149   5.760   4.589   0.792
 3750SOL    HW212150   5.825   4.498   0.911
 3751SOL     OW12151   6.828   2.818   0.717
 3751SOL    HW112152   6.761   2.752   0.751
 3751SOL    HW212153   6.801   2.850   0.626
 3752SOL     OW12154   0.967   0.058   0.614
 3752SOL    HW112155   1.045   7.012   0.624
 3752SOL    HW212156   0.904   0.045   0.690
 3753SOL     OW12157   0.032   0.654   4.259
 3753SOL    HW112158   0.112   0.614   4.304
 3753SOL    HW212159   0.061   0.733   4.205
 3754SOL     OW12160   4.255   6.231   1.797
 3754SOL    HW112161   4.216   6.245   1.705
 3754SOL    HW212162   4.282   6.319   1.835
 3755SOL     OW12163   5.258   5.575   4.392
 3755SOL    HW112164   5.316   5.495   4.409
 3755SOL    HW212165   5.256   5.594   4.294
 3756SOL     OW12166   1.885   0.035   6.300
 3756SOL    HW112167   1.840   0.119   6.268
 3756SOL    HW212168   1.941   0.056   6.380
 3757SOL     OW12169   3.917   5.747   6.906
 3757SOL    HW112170   3.899   5.785   6.997
 3757SOL    HW212171   3.998   5.688   6.911
 3758SOL     OW12172   1.808   1.045   4.448
 3758SOL    HW112173   1.908   1.052   4.439
 3758SOL    HW212174   1.780   1.087   4.534
 3759SOL     OW12175   4.247   4.977   6.167
 3759SOL    HW112176   4.232   5.047   6.097
 3759SOL    HW212177   4.303   5.015   6.241
 3760SOL     OW12178   1.300   2.663   4.398
 3760SOL    HW112179   1.240   2.649   4.319
 3760SOL    HW212180   1.366   2.736   4.376
 3761SOL     OW12181   0.199   0.277   5.149
 3761SOL    HW112182   0.122   0.246   5.205
 3761SOL    HW212183   0.183   0.372   5.121
 3762SOL     OW12184   0.659   5.704   6.840
 3762SOL    HW112185   0.676   5.789   6.889
 3762SOL    HW212186   0.736   5.641   6.853
 3763SOL     OW12187   6.764   4.755   0.180
 3763SOL    HW112188   6.727   4.672   0.223
 3763SOL    HW212189   6.701   4.831   0.193
 3764SOL     OW12190   1.481   0.246   3.518
 3764SOL    HW112191   1.467   0.281   3.610
 3764SOL    HW212192   1.416   0.289   3.455
 3765SOL     OW12193   5.239   1.389   1.202
 3765SOL    HW112194   5.192   1.463   1.250
 3765SOL    HW212195   5.225   1.303   1.251
 3766SOL     OW12196   1.303   1.055   4.220
 3766SOL    HW112197   1.291   0.991   4.144
 3766SOL    HW212198   1.398   1.056   4.250
 3767SOL     OW12199   2.336   5.436   0.154
 3767SOL    HW112200   2.403   5.363   0.139
 3767SOL    HW212201   2.264   5.404   0.216
 3768SOL     OW12202   2.432   5.748   5.145
 3768SOL    HW112203   2.519   5.789   5.119
 3768SOL    HW212204   2.389   5.804   5.217
 3769SOL     OW12205   5.477   5.698   5.178
 3769SOL    HW112206   5.460   5.612   5.129
 3769SOL    HW212207   5.564   5.692   5.227
 3770SOL     OW12208   1.640   0.132   6.841
 3770SOL    HW112209   1.654   0.181   6.928
 3770SOL    HW212210   1.547   0.095   6.839
 3771SOL     OW12211   5.859   2.669   6.883
 3771SOL    HW112212   5.769   2.627   6.883
 3771SOL    HW212213   5.857   2.751   6.941
 3772SOL     OW12214   6.968   1.389   6.969
 3772SOL    HW112215   7.000   1.303   7.008
 3772SOL    HW212216   6.881   1.375   6.922
 3773SOL     OW12217   6.173   3.157   6.464
 3773SOL    HW112218   6.104   3.113   6.522
 3773SOL    HW212219   6.127   3.203   6.388
 3774SOL     OW12220   0.572   6.232   6.974
 3774SOL    HW112221   0.540   6.265   6.886
 3774SOL    HW212222   0.496   6.188   0.008
 3775SOL     OW12223   5.153   4.540   2.268
 3775SOL    HW112224   5.116   4.618   2.318
 3775SOL    HW212225   5.088   4.464   2.270
 3776SOL     OW12226   3.800   0.939   0.603
 3776SOL    HW112227   3.798   0.923   0.702
 3776SOL    HW212228   3.895   0.936   0.571
 3777SOL     OW12229   2.909   4.856   4.525
 3777SOL    HW112230   2.881   4.861   4.621
 3777SOL    HW212231   2.846   4.798   4.474
 3778SOL     OW12232   2.708   5.102   3.107
 3778SOL    HW112233   2.701   5.139   3.014
 3778SOL    HW212234   2.802   5.074   3.124
 3779SOL     OW12235   1.683   4.912   0.696
 3779SOL    HW112236   1.633   4.955   0.772
 3779SOL    HW212237   1.640   4.824   0.674
 3780SOL     OW12238   4.489   5.028   5.873
 3780SOL    HW112239   4.396   5.034   5.836
 3780SOL    HW212240   4.501   4.940   5.920
 3781SOL     OW12241   1.572   6.714   4.793
 3781SOL    HW112242   1.545   6.638   4.734
 3781SOL    HW212243   1.668   6.705   4.817
 3782SOL     OW12244   2.608   1.592   4.356
 3782SOL    HW112245   2.672   1.516   4.346
 3782SOL    HW212246   2.517   1.563   4.326
 3783SOL     OW12247   5.301   6.309   5.318
 3783SOL    HW112248   5.323   6.358   5.234
 3783SOL    HW212249   5.382   6.260   5.350
 3784SOL     OW12250   4.846   2.098   3.561
 3784SOL    HW112251   4.928   2.112   3.505
 3784SOL    HW212252   4.816   2.003   3.553
 3785SOL     OW12253   0.997   1.100   6.654
 3785SOL    HW112254   1.060   1.177   6.644
 3785SOL    HW212255   0.982   1.056   6.565
 3786SOL     OW12256   2.538   6.761   2.757
 3786SOL    HW112257   2.603   6.694   2.792
 3786SOL    HW212258   2.463   6.771   2.822
 3787SOL     OW12259   5.990   6.490   3.301
 3787SOL    HW112260   5.952   6.451   3.217
 3787SOL    HW212261   5.943   6.576   3.322
 3788SOL     OW12262   0.287   3.100   4.087
 3788SOL    HW112263   0.386   3.116   4.080
 3788SOL    HW212264   0.239   3.164   4.026
 3789SOL     OW12265   0.636   2.948   4.321
 3789SOL    HW112266   0.730   2.915   4.307
 3789SOL    HW212267   0.608   3.002   4.241
 3790SOL     OW12268   1.811   3.890   5.590
 3790SOL    HW112269   1.830   3.888   5.492
 3790SOL    HW212270   1.808   3.796   5.625
 3791SOL     OW12271   6.133   0.409   0.771
 3791SOL    HW112272   6.195   0.466   0.825
 3791SOL    HW212273   6.050   0.390   0.825
 3792SOL     OW12274   6.846   1.013   3.974
 3792SOL    HW112275   6.926   0.956   3.995
 3792SOL    HW212276   6.850   1.096   4.029
 3793SOL     OW12277   3.651   0.214   2.746
 3793SOL    HW112278   3.716   0.227   2.821
 3793SOL    HW212279   3.662   0.287   2.679
 3794SOL     OW12280   2.436   4.045   1.026
 3794SOL    HW112281   2.390   4.130   1.052
 3794SOL    HW212282   2.450   3.989   1.107
 3795SOL     OW12283   4.041   6.613   6.791
 3795SOL    HW112284   3.992   6.527   6.806
 3795SOL    HW212285   3.999   6.686   6.844
 3796SOL     OW12286   2.727   1.581   1.203
 3796SOL    HW112287   2.679   1.561   1.288
 3796SOL    HW212288   2.662   1.589   1.128
 3797SOL     OW12289   6.177   4.543   2.888
 3797SOL    HW112290   6.188   4.452   2.847
 3797SOL    HW212291   6.263   4.594   2.878
 3798SOL     OW12292   3.653   5.895   3.397
 3798SOL    HW112293   3.720   5.852   3.457
 3798SOL    HW212294   3.639   5.838   3.316
 3799SOL     OW12295   0.048   2.374   4.338
 3799SOL    HW112296   0.140   2.400   4.310
 3799SOL    HW212297   7.006   2.455   4.346
 3800SOL     OW12298   5.424   3.296   4.317
 3800SOL    HW112299   5.416   3.362   4.392
 3800SOL    HW212300   5.504   3.238   4.333
 3801SOL     OW12301   6.605   6.315   3.353
 3801SOL    HW112302   6.683   6.371   3.380
 3801SOL    HW212303   6.556   6.359   3.278
 3802SOL     OW12304   0.552   2.388   3.780
 3802SOL    HW112305   0.596   2.308   3.739
 3802SOL    HW212306   0.461   2.363   3.813
 3803SOL     OW12307   3.889   2.113   1.112
 3803SOL    HW112308   3.918   2.196   1.158
 3803SOL    HW212309   3.796   2.125   1.076
 3804SOL     OW12310   4.977   1.808   3.790
 3804SOL    HW112311   4.986   1.782   3.693
 3804SOL    HW212312   4.921   1.890   3.798
 3805SOL     OW12313   2.677   3.449   1.304
 3805SOL    HW112314   2.686   3.533   1.358
 3805SOL    HW212315   2.654   3.472   1.210
 3806SOL     OW12316   2.999   4.009   7.008
 3806SOL    HW112317   3.036   3.936   0.050
 3806SOL    HW212318   2.991   3.976   6.914
 3807SOL     OW12319   2.602   0.269   4.100
 3807SOL    HW112320   2.538   0.202   4.064
 3807SOL    HW212321   2.586   0.282   4.198
 3808SOL     OW12322   4.245   0.600   1.009
 3808SOL    HW112323   4.338   0.596   1.046
 3808SOL    HW212324   4.192   0.668   1.060
 3809SOL     OW12325   6.166   2.821   0.515
 3809SOL    HW112326   6.091   2.874   0.554
 3809SOL    HW212327   6.192   2.860   0.426
 3810SOL     OW12328   4.526   2.360   5.103
 3810SOL    HW112329   4.579   2.276   5.113
 3810SOL    HW212330   4.559   2.411   5.023
 3811SOL     OW12331   0.831   4.337   3.920
 3811SOL    HW112332   0.806   4.275   3.845
 3811SOL    HW212333   0.883   4.287   3.989
 3812SOL     OW12334   5.513   1.182   5.061
 3812SOL    HW112335   5.440   1.160   5.125
 3812SOL    HW212336   5.475   1.200   4.971
 3813SOL     OW12337   3.920   4.079   0.466
 3813SOL    HW112338   3.830   4.038   0.450
 3813SOL    HW212339   3.966   4.093   0.378
 3814SOL     OW12340   0.512   7.005   1.208
 3814SOL    HW112341   0.433   6.990   1.267
 3814SOL    HW212342   0.542   6.917   1.170
 3815SOL     OW12343   5.007   2.986   0.539
 3815SOL    HW112344   4.936   2.940   0.592
 3815SOL    HW212345   4.980   3.081   0.521
 3816SOL     OW12346   0.331   5.795   0.582
 3816SOL    HW112347   0.392   5.874   0.572
 3816SOL    HW212348   0.321   5.749   0.493
 3817SOL     OW12349   5.372   3.467   3.237
 3817SOL    HW112350   5.317   3.546   3.264
 3817SOL    HW212351   5.348   3.388   3.292
 3818SOL     OW12352   5.023   0.433   0.429
 3818SOL    HW112353   5.066   0.428   0.339
 3818SOL    HW212354   4.923   0.427   0.419
 3819SOL     OW12355   5.632   5.570   1.278
 3819SOL    HW112356   5.711   5.509   1.272
 3819SOL    HW212357   5.621   5.620   1.192
 3820SOL     OW12358   6.971   6.738   3.581
 3820SOL    HW112359   6.923   6.710   3.497
 3820SOL    HW212360   6.942   6.830   3.606
 3821SOL     OW12361   2.262   2.736   1.142
 3821SOL    HW112362   2.284   2.655   1.197
 3821SOL    HW212363   2.183   2.717   1.084
 3822SOL     OW12364   1.701   5.983   2.663
 3822SOL    HW112365   1.797   5.967   2.637
 3822SOL    HW212366   1.668   5.906   2.717
 3823SOL     OW12367   4.434   2.134   5.554
 3823SOL    HW112368   4.427   2.226   5.517
 3823SOL    HW212369   4.347   2.086   5.542
 3824SOL     OW12370   6.024   1.899   5.753
 3824SOL    HW112371   6.045   1.996   5.766
 3824SOL    HW212372   6.021   1.853   5.842
 3825SOL     OW12373   0.651   6.807   1.036
 3825SOL    HW112374   0.729   6.760   1.077
 3825SOL    HW212375   0.609   6.748   0.966
 3826SOL     OW12376   1.130   3.600   6.912
 3826SOL    HW112377   1.068   3.529   6.946
 3826SOL    HW212378   1.077   3.682   6.889
 3827SOL     OW12379   2.966   3.212   0.650
 3827SOL    HW112380   2.912   3.275   0.706
 3827SOL    HW212381   3.034   3.264   0.598
 3828SOL     OW12382   4.501   2.388   1.234
 3828SOL    HW112383   4.466   2.376   1.327
 3828SOL    HW212384   4.547   2.304   1.204
 3829SOL     OW12385   1.917   4.858   4.140
 3829SOL    HW112386   1.832   4.874   4.088
 3829SOL    HW212387   1.972   4.790   4.092
 3830SOL     OW12388   1.193   0.369   4.758
 3830SOL    HW112389   1.096   0.356   4.739
 3830SOL    HW212390   1.244   0.289   4.727
 3831SOL     OW12391   4.605   2.109   2.115
 3831SOL    HW112392   4.663   2.121   2.195
 3831SOL    HW212393   4.558   2.021   2.120
 3832SOL     OW12394   5.984   0.619   2.307
 3832SOL    HW112395   6.019   0.678   2.235
 3832SOL    HW212396   5.969   0.526   2.272
 3833SOL     OW12397   1.202   6.059   6.150
 3833SOL    HW112398   1.213   6.028   6.055
 3833SOL    HW212399   1.230   5.986   6.212
 3834SOL     OW12400   3.524   2.615   0.687
 3834SOL    HW112401   3.575   2.530   0.675
 3834SOL    HW212402   3.428   2.594   0.706
 3835SOL     OW12403   3.130   5.375   4.993
 3835SOL    HW112404   3.055   5.314   5.020
 3835SOL    HW212405   3.200   5.375   5.065
 3836SOL     OW12406   1.879   3.706   5.116
 3836SOL    HW112407   1.973   3.741   5.113
 3836SOL    HW212408   1.833   3.727   5.030
 3837SOL     OW12409   5.113   3.658   0.113
 3837SOL    HW112410   5.149   3.570   0.142
 3837SOL    HW212411   5.032   3.645   0.056
 3838SOL     OW12412   6.111   4.372   4.638
 3838SOL    HW112413   6.189   4.351   4.697
 3838SOL    HW212414   6.087   4.468   4.647
 3839SOL     OW12415   4.236   0.352   4.604
 3839SOL    HW112416   4.255   0.450   4.605
 3839SOL    HW212417   4.309   0.303   4.651
 3840SOL     OW12418   1.640   1.483   5.542
 3840SOL    HW112419   1.733   1.473   5.506
 3840SOL    HW212420   1.636   1.440   5.633
 3841SOL     OW12421   6.929   3.434   4.719
 3841SOL    HW112422   6.836   3.435   4.681
 3841SOL    HW212423   6.940   3.353   4.777
 3842SOL     OW12424   1.147   4.732   7.011
 3842SOL    HW112425   1.098   4.693   6.933
 3842SOL    HW212426   1.182   4.823   6.986
 3843SOL     OW12427   0.062   4.424   1.974
 3843SOL    HW112428   0.156   4.425   1.940
 3843SOL    HW212429   0.005   4.368   1.914
 3844SOL     OW12430   0.177   4.092   5.661
 3844SOL    HW112431   0.088   4.109   5.703
 3844SOL    HW212432   0.175   4.119   5.565
 3845SOL     OW12433   3.690   2.942   2.900
 3845SOL    HW112434   3.600   2.923   2.938
 3845SOL    HW212435   3.752   2.972   2.972
 3846SOL     OW12436   0.421   4.386   4.130
 3846SOL    HW112437   0.504   4.441   4.117
 3846SOL    HW212438   0.429   4.334   4.215
 3847SOL     OW12439   6.211   1.435   5.474
 3847SOL    HW112440   6.185   1.470   5.564
 3847SOL    HW212441   6.298   1.475   5.447
 3848SOL     OW12442   2.919   5.671   3.305
 3848SOL    HW112443   2.951   5.636   3.393
 3848SOL    HW212444   2.996   5.705   3.252
 3849SOL     OW12445   0.376   1.454   5.567
 3849SOL    HW112446   0.451   1.518   5.586
 3849SOL    HW212447   0.321   1.441   5.650
 3850SOL     OW12448   2.424   3.402   1.514
 3850SOL    HW112449   2.414   3.501   1.526
 3850SOL    HW212450   2.380   3.354   1.590
 3851SOL     OW12451   1.124   4.267   2.870
 3851SOL    HW112452   1.197   4.282   2.936
 3851SOL    HW212453   1.152   4.197   2.805
 3852SOL     OW12454   4.544   6.806   4.862
 3852SOL    HW112455   4.561   6.707   4.864
 3852SOL    HW212456   4.495   6.833   4.944
 3853SOL     OW12457   1.664   3.374   2.504
 3853SOL    HW112458   1.710   3.445   2.558
 3853SOL    HW212459   1.727   3.297   2.489
 3854SOL     OW12460   0.610   4.062   2.710
 3854SOL    HW112461   0.564   4.095   2.793
 3854SOL    HW212462   0.632   3.965   2.720
 3855SOL     OW12463   5.557   5.421   0.023
 3855SOL    HW112464   5.476   5.403   6.983
 3855SOL    HW212465   5.598   5.334   0.052
 3856SOL     OW12466   6.816   6.303   4.953
 3856SOL    HW112467   6.855   6.267   5.038
 3856SOL    HW212468   6.789   6.228   4.893
 3857SOL     OW12469   1.075   6.592   5.256
 3857SOL    HW112470   1.069   6.533   5.175
 3857SOL    HW212471   1.166   6.633   5.260
 3858SOL     OW12472   1.594   5.724   5.834
 3858SOL    HW112473   1.572   5.681   5.747
 3858SOL    HW212474   1.692   5.748   5.836
 3859SOL     OW12475   0.173   1.756   3.033
 3859SOL    HW112476   0.210   1.696   3.104
 3859SOL    HW212477   0.147   1.844   3.074
 3860SOL     OW12478   1.635   6.351   4.435
 3860SOL    HW112479   1.710   6.407   4.400
 3860SOL    HW212480   1.556   6.360   4.374
 3861SOL     OW12481   5.345   4.587   2.046
 3861SOL    HW112482   5.330   4.585   2.144
 3861SOL    HW212483   5.354   4.493   2.012
 3862SOL     OW12484   6.515   0.057   5.430
 3862SOL    HW112485   6.560   6.990   5.464
 3862SOL    HW212486   6.417   0.037   5.416
 3863SOL     OW12487   3.953   4.393   6.603
 3863SOL    HW112488   3.886   4.424   6.670
 3863SOL    HW212489   3.982   4.470   6.547
 3864SOL     OW12490   4.279   1.668   5.847
 3864SOL    HW112491   4.231   1.697   5.930
 3864SOL    HW212492   4.212   1.650   5.775
 3865SOL     OW12493   4.029   0.767   1.723
 3865SOL    HW112494   3.995   0.726   1.638
 3865SOL    HW212495   4.088   0.701   1.770
 3866SOL     OW12496   4.172   0.747   0.175
 3866SOL    HW112497   4.247   0.798   0.216
 3866SOL    HW212498   4.188   0.738   0.076
 3867SOL     OW12499   2.026   3.530   4.117
 3867SOL    HW112500   2.061   3.441   4.088
 3867SOL    HW212501   1.978   3.573   4.041
 3868SOL     OW12502   2.045   6.221   2.068
 3868SOL    HW112503   2.139   6.252   2.054
 3868SOL    HW212504   1.984   6.300   2.073
 3869SOL     OW12505   0.462   2.641   4.084
 3869SOL    HW112506   0.432   2.727   4.125
 3869SOL    HW212507   0.543   2.658   4.027
 3870SOL     OW12508   4.074   5.087   0.532
 3870SOL    HW112509   4.093   5.055   0.624
 3870SOL    HW212510   3.992   5.144   0.532
 3871SOL     OW12511   3.499   0.838   2.770
 3871SOL    HW112512   3.572   0.883   2.821
 3871SOL    HW212513   3.538   0.764   2.714
 3872SOL     OW12514   3.820   2.906   1.485
 3872SOL    HW112515   3.901   2.917   1.428
 3872SOL    HW212516   3.758   2.839   1.444
 3873SOL     OW12517   5.745   5.725   1.487
 3873SOL    HW112518   5.703   5.653   1.433
 3873SOL    HW212519   5.812   5.684   1.550
 3874SOL     OW12520   4.263   6.264   0.563
 3874SOL    HW112521   4.357   6.292   0.545
 3874SOL    HW212522   4.202   6.342   0.550
 3875SOL     OW12523   1.027   3.549   2.831
 3875SOL    HW112524   1.050   3.623   2.768
 3875SOL    HW212525   1.106   3.488   2.842
 3876SOL     OW12526   4.650   4.916   6.576
 3876SOL    HW112527   4.659   4.881   6.669
 3876SOL    HW212528   4.572   4.978   6.570
 3877SOL     OW12529   6.503   1.401   0.780
 3877SOL    HW112530   6.593   1.445   0.782
 3877SOL    HW212531   6.509   1.311   0.822
 3878SOL     OW12532   2.433   6.047   6.444
 3878SOL    HW112533   2.457   6.022   6.538
 3878SOL    HW212534   2.515   6.040   6.387
 3879SOL     OW12535   5.104   5.611   1.276
 3879SOL    HW112536   5.102   5.577   1.183
 3879SOL    HW212537   5.197   5.641   1.299
 3880SOL     OW12538   6.029   3.979   2.998
 3880SOL    HW112539   5.930   3.968   3.000
 3880SOL    HW212540   6.067   3.930   2.920
 3881SOL     OW12541   1.551   5.470   0.710
 3881SOL    HW112542   1.491   5.543   0.679
 3881SOL    HW212543   1.503   5.382   0.703
 3882SOL     OW12544   6.545   0.763   5.586
 3882SOL    HW112545   6.623   0.711   5.622
 3882SOL    HW212546   6.525   0.839   5.649
 3883SOL     OW12547   4.991   1.504   3.897
 3883SOL    HW112548   4.959   1.589   3.940
 3883SOL    HW212549   5.090   1.495   3.911
 3884SOL     OW12550   1.080   6.355   4.461
 3884SOL    HW112551   1.165   6.377   4.509
 3884SOL    HW212552   1.098   6.343   4.364
 3885SOL     OW12553   6.501   1.004   4.567
 3885SOL    HW112554   6.499   1.076   4.636
 3885SOL    HW212555   6.507   1.046   4.476
 3886SOL     OW12556   5.899   6.977   5.917
 3886SOL    HW112557   5.939   0.044   5.957
 3886SOL    HW212558   5.818   6.950   5.969
 3887SOL     OW12559   4.811   1.820   5.335
 3887SOL    HW112560   4.876   1.774   5.394
 3887SOL    HW212561   4.783   1.906   5.377
 3888SOL     OW12562   6.747   1.102   6.259
 3888SOL    HW112563   6.699   1.033   6.314
 3888SOL    HW212564   6.843   1.103   6.285
 3889SOL     OW12565   0.344   5.341   6.633
 3889SOL    HW112566   0.369   5.404   6.560
 3889SOL    HW212567   0.338   5.248   6.597
 3890SOL     OW12568   6.309   6.187   3.072
 3890SOL    HW112569   6.233   6.131   3.106
 3890SOL    HW212570   6.325   6.167   2.976
 3891SOL     OW12571   5.366   4.706   4.772
 3891SOL    HW112572   5.444   4.748   4.820
 3891SOL    HW212573   5.388   4.695   4.676
 3892SOL     OW12574   1.243   0.193   2.655
 3892SOL    HW112575   1.217   0.100   2.679
 3892SOL    HW212576   1.199   0.257   2.718
 3893SOL     OW12577   3.337   5.955   3.169
 3893SOL    HW112578   3.387   5.986   3.250
 3893SOL    HW212579   3.259   5.900   3.197
 3894SOL     OW12580   3.838   2.343   0.149
 3894SOL    HW112581   3.771   2.345   0.076
 3894SOL    HW212582   3.918   2.398   0.122
 3895SOL     OW12583   1.441   1.629   5.409
 3895SOL    HW112584   1.436   1.691   5.488
 3895SOL    HW212585   1.516   1.564   5.423
 3896SOL     OW12586   0.573   1.860   5.958
 3896SOL    HW112587   0.509   1.900   6.024
 3896SOL    HW212588   0.525   1.793   5.902
 3897SOL     OW12589   2.805   6.459   2.507
 3897SOL    HW112590   2.878   6.435   2.571
 3897SOL    HW212591   2.722   6.407   2.530
 3898SOL     OW12592   3.015   3.152   3.862
 3898SOL    HW112593   3.079   3.163   3.785
 3898SOL    HW212594   2.952   3.230   3.863
 3899SOL     OW12595   5.319   1.283   4.538
 3899SOL    HW112596   5.360   1.328   4.459
 3899SOL    HW212597   5.250   1.343   4.579
 3900SOL     OW12598   6.402   2.872   3.231
 3900SOL    HW112599   6.386   2.893   3.328
 3900SOL    HW212600   6.447   2.950   3.187
 3901SOL     OW12601   1.347   6.443   5.180
 3901SOL    HW112602   1.316   6.503   5.255
 3901SOL    HW212603   1.441   6.415   5.197
 3902SOL     OW12604   5.499   4.754   2.692
 3902SOL    HW112605   5.590   4.757   2.733
 3902SOL    HW212606   5.503   4.700   2.608
 3903SOL     OW12607   4.175   2.682   0.117
 3903SOL    HW112608   4.102   2.747   0.098
 3903SOL    HW212609   4.251   2.698   0.053
 3904SOL     OW12610   0.848   6.854   0.262
 3904SOL    HW112611   0.803   6.784   0.207
 3904SOL    HW212612   0.783   6.925   0.287
 3905SOL     OW12613   6.574   6.197   6.458
 3905SOL    HW112614   6.593   6.107   6.419
 3905SOL    HW212615   6.479   6.222   6.439
 3906SOL     OW12616   1.460   4.998   3.936
 3906SOL    HW112617   1.382   5.029   3.989
 3906SOL    HW212618   1.433   4.986   3.840
 3907SOL     OW12619   0.204   1.050   4.782
 3907SOL    HW112620   0.301   1.047   4.762
 3907SOL    HW212621   0.151   1.037   4.698
 3908SOL     OW12622   1.368   0.728   5.699
 3908SOL    HW112623   1.367   0.730   5.599
 3908SOL    HW212624   1.275   0.737   5.734
 3909SOL     OW12625   5.218   3.609   6.019
 3909SOL    HW112626   5.315   3.616   6.040
 3909SOL    HW212627   5.167   3.671   6.078
 3910SOL     OW12628   3.570   3.992   1.789
 3910SOL    HW112629   3.533   3.936   1.715
 3910SOL    HW212630   3.523   3.971   1.874
 3911SOL     OW12631   5.664   0.690   0.951
 3911SOL    HW112632   5.654   0.783   0.916
 3911SOL    HW212633   5.584   0.636   0.926
 3912SOL     OW12634   3.150   2.205   6.106
 3912SOL    HW112635   3.210   2.198   6.026
 3912SOL    HW212636   3.191   2.267   6.173
 3913SOL     OW12637   3.930   6.831   0.653
 3913SOL    HW112638   3.943   6.930   0.644
 3913SOL    HW212639   3.835   6.808   0.633
 3914SOL     OW12640   5.846   1.568   1.057
 3914SOL    HW112641   5.905   1.577   1.138
 3914SOL    HW212642   5.900   1.586   0.975
 3915SOL     OW12643   3.843   5.921   0.116
 3915SOL    HW112644   3.844   5.877   0.206
 3915SOL    HW212645   3.749   5.933   0.086
 3916SOL     OW12646   3.186   0.611   3.046
 3916SOL    HW112647   3.245   0.540   3.084
 3916SOL    HW212648   3.192   0.693   3.103
 3917SOL     OW12649   2.589   5.345   1.002
 3917SOL    HW112650   2.558   5.251   1.015
 3917SOL    HW212651   2.582   5.370   0.906
 3918SOL     OW12652   5.178   1.004   0.189
 3918SOL    HW112653   5.137   1.042   0.273
 3918SOL    HW212654   5.212   0.912   0.207
 3919SOL     OW12655   4.792   1.311   1.072
 3919SOL    HW112656   4.827   1.264   1.153
 3919SOL    HW212657   4.810   1.409   1.080
 3920SOL     OW12658   2.985   1.375   6.717
 3920SOL    HW112659   3.041   1.403   6.795
 3920SOL    HW212660   2.964   1.455   6.661
 3921SOL     OW12661   0.504   2.596   6.442
 3921SOL    HW112662   0.550   2.629   6.360
 3921SOL    HW212663   0.572   2.577   6.514
 3922SOL     OW12664   4.779   4.891   1.954
 3922SOL    HW112665   4.730   4.870   1.869
 3922SOL    HW212666   4.794   4.807   2.006
 3923SOL     OW12667   6.217   1.132   1.875
 3923SOL    HW112668   6.236   1.042   1.834
 3923SOL    HW212669   6.120   1.137   1.900
 3924SOL     OW12670   0.165   4.324   4.014
 3924SOL    HW112671   0.136   4.357   3.925
 3924SOL    HW212672   0.264   4.341   4.025
 3925SOL     OW12673   5.053   3.705   0.400
 3925SOL    HW112674   5.024   3.799   0.416
 3925SOL    HW212675   4.983   3.657   0.347
 3926SOL     OW12676   1.820   0.827   5.815
 3926SOL    HW112677   1.769   0.904   5.854
 3926SOL    HW212678   1.844   0.847   5.720
 3927SOL     OW12679   0.394   2.461   4.518
 3927SOL    HW112680   0.395   2.529   4.592
 3927SOL    HW212681   0.354   2.376   4.551
 3928SOL     OW12682   2.255   0.145   3.744
 3928SOL    HW112683   2.270   0.208   3.820
 3928SOL    HW212684   2.176   0.177   3.690
 3929SOL     OW12685   6.822   1.927   5.445
 3929SOL    HW112686   6.743   1.926   5.384
 3929SOL    HW212687   6.847   2.021   5.467
 3930SOL     OW12688   1.634   2.615   3.818
 3930SOL    HW112689   1.561   2.609   3.885
 3930SOL    HW212690   1.596   2.598   3.726
 3931SOL     OW12691   1.420   2.083   1.593
 3931SOL    HW112692   1.478   2.107   1.515
 3931SOL    HW212693   1.460   2.121   1.676
 3932SOL     OW12694   2.019   5.954   3.981
 3932SOL    HW112695   1.925   5.921   3.985
 3932SOL    HW212696   2.082   5.876   3.994
 3933SOL     OW12697   1.717   5.374   0.441
 3933SOL    HW112698   1.637   5.434   0.432
 3933SOL    HW212699   1.786   5.418   0.498
 3934SOL     OW12700   0.845   1.253   2.684
 3934SOL    HW112701   0.770   1.205   2.729
 3934SOL    HW212702   0.895   1.307   2.751
 3935SOL     OW12703   6.426   3.170   6.545
 3935SOL    HW112704   6.329   3.152   6.532
 3935SOL    HW212705   6.453   3.247   6.487
 3936SOL     OW12706   6.272   5.855   5.293
 3936SOL    HW112707   6.288   5.758   5.273
 3936SOL    HW212708   6.184   5.865   5.340
 3937SOL     OW12709   6.931   5.283   2.541
 3937SOL    HW112710   0.010   5.290   2.573
 3937SOL    HW212711   6.909   5.187   2.521
 3938SOL     OW12712   6.719   3.873   3.695
 3938SOL    HW112713   6.641   3.812   3.709
 3938SOL    HW212714   6.686   3.966   3.677
 3939SOL     OW12715   0.745   1.338   1.981
 3939SOL    HW112716   0.650   1.329   2.012
 3939SOL    HW212717   0.756   1.426   1.935
 3940SOL     OW12718   3.083   4.789   1.943
 3940SOL    HW112719   3.108   4.820   1.851
 3940SOL    HW212720   3.000   4.734   1.938
 3941SOL     OW12721   5.816   6.927   3.843
 3941SOL    HW112722   5.814   6.888   3.935
 3941SOL    HW212723   5.739   6.890   3.790
 3942SOL     OW12724   1.077   6.284   6.174
 3942SOL    HW112725   1.102   6.335   6.257
 3942SOL    HW212726   1.142   6.209   6.159
 3943SOL     OW12727   0.784   3.802   2.023
 3943SOL    HW112728   0.769   3.898   1.999
 3943SOL    HW212729   0.705   3.767   2.073
 3944SOL     OW12730   6.545   2.789   6.698
 3944SOL    HW112731   6.520   2.693   6.684
 3944SOL    HW212732   6.495   2.825   6.777
 3945SOL     OW12733   1.050   1.138   3.408
 3945SOL    HW112734   1.094   1.166   3.323
 3945SOL    HW212735   0.981   1.206   3.433
 3946SOL     OW12736   6.837   3.306   0.293
 3946SOL    HW112737   6.784   3.269   0.217
 3946SOL    HW212738   6.805   3.399   0.314
 3947SOL     OW12739   5.563   5.793   1.089
 3947SOL    HW112740   5.520   5.855   1.155
 3947SOL    HW212741   5.659   5.818   1.078
 3948SOL     OW12742   1.682   2.735   6.061
 3948SOL    HW112743   1.634   2.649   6.044
 3948SOL    HW212744   1.623   2.798   6.110
 3949SOL     OW12745   6.352   6.249   2.799
 3949SOL    HW112746   6.436   6.289   2.763
 3949SOL    HW212747   6.275   6.310   2.782
 3950SOL     OW12748   3.806   4.886   1.396
 3950SOL    HW112749   3.766   4.934   1.474
 3950SOL    HW212750   3.875   4.822   1.427
 3951SOL     OW12751   0.309   1.850   5.334
 3951SOL    HW112752   0.399   1.890   5.349
 3951SOL    HW212753   0.259   1.905   5.267
 3952SOL     OW12754   6.020   2.468   4.947
 3952SOL    HW112755   5.973   2.527   4.881
 3952SOL    HW212756   6.013   2.508   5.038
 3953SOL     OW12757   3.169   3.803   5.940
 3953SOL    HW112758   3.251   3.861   5.945
 3953SOL    HW212759   3.117   3.827   5.858
 3954SOL     OW12760   0.442   3.769   4.879
 3954SOL    HW112761   0.412   3.676   4.856
 3954SOL    HW212762   0.412   3.832   4.807
 3955SOL     OW12763   5.294   5.866   0.392
 3955SOL    HW112764   5.327   5.860   0.298
 3955SOL    HW212765   5.196   5.886   0.392
 3956SOL     OW12766   0.540   2.855   5.658
 3956SOL    HW112767   0.584   2.786   5.714
 3956SOL    HW212768   0.569   2.946   5.688
 3957SOL     OW12769   2.823   0.081   4.152
 3957SOL    HW112770   2.916   0.112   4.169
 3957SOL    HW212771   2.769   0.156   4.114
 3958SOL     OW12772   6.534   5.683   0.190
 3958SOL    HW112773   6.552   5.724   0.101
 3958SOL    HW212774   6.556   5.586   0.187
 3959SOL     OW12775   2.673   5.897   0.402
 3959SOL    HW112776   2.671   5.934   0.495
 3959SOL    HW212777   2.612   5.819   0.396
 3960SOL     OW12778   3.985   2.854   0.002
 3960SOL    HW112779   3.902   2.850   0.057
 3960SOL    HW212780   3.968   2.811   6.929
 3961SOL     OW12781   4.900   1.491   2.522
 3961SOL    HW112782   4.825   1.460   2.463
 3961SOL    HW212783   4.984   1.496   2.469
 3962SOL     OW12784   1.188   6.445   0.210
 3962SOL    HW112785   1.252   6.410   0.278
 3962SOL    HW212786   1.097   6.452   0.251
 3963SOL     OW12787   5.270   4.914   4.057
 3963SOL    HW112788   5.201   4.929   3.986
 3963SOL    HW212789   5.227   4.916   4.147
 3964SOL     OW12790   4.958   5.811   5.101
 3964SOL    HW112791   4.958   5.907   5.127
 3964SOL    HW212792   5.027   5.762   5.154
 3965SOL     OW12793   4.134   4.672   6.911
 3965SOL    HW112794   4.077   4.739   6.865
 3965SOL    HW212795   4.147   4.700   7.007
 3966SOL     OW12796   5.959   4.987   5.887
 3966SOL    HW112797   5.954   5.085   5.907
 3966SOL    HW212798   6.053   4.956   5.897
 3967SOL     OW12799   0.117   6.149   4.750
 3967SOL    HW112800   0.147   6.144   4.655
 3967SOL    HW212801   0.108   6.056   4.787
 3968SOL     OW12802   5.145   0.117   2.023
 3968SOL    HW112803   5.132   0.208   1.985
 3968SOL    HW212804   5.126   0.048   1.952
 3969SOL     OW12805   1.210   4.971   2.923
 3969SOL    HW112806   1.177   5.012   2.838
 3969SOL    HW212807   1.186   5.030   3.000
 3970SOL     OW12808   4.818   5.063   3.898
 3970SOL    HW112809   4.776   4.979   3.932
 3970SOL    HW212810   4.748   5.124   3.863
 3971SOL     OW12811   2.422   5.590   3.345
 3971SOL    HW112812   2.358   5.603   3.421
 3971SOL    HW212813   2.506   5.640   3.364
 3972SOL     OW12814   0.749   6.291   0.557
 3972SOL    HW112815   0.744   6.386   0.525
 3972SOL    HW212816   0.744   6.289   0.656
 3973SOL     OW12817   3.442   3.622   3.900
 3973SOL    HW112818   3.356   3.575   3.917
 3973SOL    HW212819   3.431   3.720   3.918
 3974SOL     OW12820   6.770   1.253   6.028
 3974SOL    HW112821   6.744   1.205   6.112
 3974SOL    HW212822   6.783   1.186   5.955
 3975SOL     OW12823   6.639   0.898   6.380
 3975SOL    HW112824   6.630   0.817   6.323
 3975SOL    HW212825   6.600   0.880   6.471
 3976SOL     OW12826   1.430   4.215   0.941
 3976SOL    HW112827   1.526   4.239   0.949
 3976SOL    HW212828   1.414   4.165   0.856
 3977SOL     OW12829   2.207   6.142   6.329
 3977SOL    HW112830   2.288   6.112   6.379
 3977SOL    HW212831   2.128   6.087   6.357
 3978SOL     OW12832   5.987   1.955   5.479
 3978SOL    HW112833   5.955   1.865   5.449
 3978SOL    HW212834   6.029   1.947   5.569
 3979SOL     OW12835   1.267   6.673   1.991
 3979SOL    HW112836   1.276   6.610   1.914
 3979SOL    HW212837   1.192   6.643   2.050
 3980SOL     OW12838   5.079   3.498   4.336
 3980SOL    HW112839   5.068   3.399   4.333
 3980SOL    HW212840   5.171   3.523   4.306
 3981SOL     OW12841   0.185   1.500   6.827
 3981SOL    HW112842   0.101   1.473   6.874
 3981SOL    HW212843   0.178   1.596   6.799
 3982SOL     OW12844   2.476   1.117   4.011
 3982SOL    HW112845   2.542   1.077   4.074
 3982SOL    HW212846   2.523   1.173   3.943
 3983SOL     OW12847   3.216   6.798   4.389
 3983SOL    HW112848   3.190   6.712   4.433
 3983SOL    HW212849   3.241   6.781   4.294
 3984SOL     OW12850   1.635   6.283   2.117
 3984SOL    HW112851   1.693   6.361   2.142
 3984SOL    HW212852   1.548   6.317   2.080
 3985SOL     OW12853   1.529   3.657   6.751
 3985SOL    HW112854   1.465   3.704   6.812
 3985SOL    HW212855   1.480   3.626   6.669
 3986SOL     OW12856   0.161   2.166   1.195
 3986SOL    HW112857   0.198   2.202   1.109
 3986SOL    HW212858   0.074   2.210   1.215
 3987SOL     OW12859   2.508   5.428   5.607
 3987SOL    HW112860   2.506   5.481   5.523
 3987SOL    HW212861   2.508   5.330   5.584
 3988SOL     OW12862   4.120   2.004   6.614
 3988SOL    HW112863   4.153   2.014   6.708
 3988SOL    HW212864   4.175   2.061   6.553
 3989SOL     OW12865   5.978   0.344   6.986
 3989SOL    HW112866   6.054   0.409   6.991
 3989SOL    HW212867   6.009   0.258   6.946
 3990SOL     OW12868   6.990   2.869   4.461
 3990SOL    HW112869   6.917   2.885   4.526
 3990SOL    HW212870   6.960   2.805   4.391
 3991SOL     OW12871   0.553   1.961   4.001
 3991SOL    HW112872   0.642   2.006   4.004
 3991SOL    HW212873   0.537   1.923   3.910
 3992SOL     OW12874   4.329   3.182   6.436
 3992SOL    HW112875   4.353   3.271   6.476
 3992SOL    HW212876   4.366   3.176   6.343
 3993SOL     OW12877   3.044   2.163   2.525
 3993SOL    HW112878   2.999   2.184   2.611
 3993SOL    HW212879   3.142   2.176   2.534
 3994SOL     OW12880   2.538   2.511   4.887
 3994SOL    HW112881   2.502   2.523   4.794
 3994SOL    HW212882   2.637   2.504   4.883
 3995SOL     OW12883   1.666   3.906   3.461
 3995SOL    HW112884   1.606   3.951   3.528
 3995SOL    HW212885   1.692   3.815   3.494
 3996SOL     OW12886   1.161   1.130   4.478
 3996SOL    HW112887   1.192   1.099   4.388
 3996SOL    HW212888   1.219   1.090   4.549
 3997SOL     OW12889   4.876   3.921   3.058
 3997SOL    HW112890   4.964   3.887   3.025
 3997SOL    HW212891   4.826   3.848   3.103
 3998SOL     OW12892   6.285   2.185   2.695
 3998SOL    HW112893   6.220   2.241   2.643
 3998SOL    HW212894   6.376   2.192   2.654
 3999SOL     OW12895   5.893   3.875   3.345
 3999SOL    HW112896   5.902   3.965   3.389
 3999SOL    HW212897   5.956   3.870   3.267
 4000SOL     OW12898   2.978   5.712   2.643
 4000SOL    HW112899   3.056   5.727   2.583
 4000SOL    HW212900   2.974   5.616   2.670
 4001SOL     OW12901   2.697   3.774   5.931
 4001SOL    HW112902   2.794   3.780   5.911
 4001SOL    HW212903   2.680   3.806   6.024
 4002SOL     OW12904   4.053   3.150   5.319
 4002SOL    HW112905   3.995   3.154   5.238
 4002SOL    HW212906   4.039   3.231   5.375
 4003SOL     OW12907   2.456   1.191   6.590
 4003SOL    HW112908   2.481   1.274   6.540
 4003SOL    HW212909   2.466   1.111   6.530
 4004SOL     OW12910   6.301   3.524   3.015
 4004SOL    HW112911   6.230   3.594   3.007
 4004SOL    HW212912   6.387   3.566   3.043
 4005SOL     OW12913   4.058   4.277   1.146
 4005SOL    HW112914   4.093   4.352   1.090
 4005SOL    HW212915   4.011   4.313   1.226
 4006SOL     OW12916   5.427   4.853   1.975
 4006SOL    HW112917   5.398   4.757   1.976
 4006SOL    HW212918   5.347   4.912   1.984
 4007SOL     OW12919   0.234   1.899   3.338
 4007SOL    HW112920   0.213   1.971   3.404
 4007SOL    HW212921   0.329   1.870   3.348
 4008SOL     OW12922   2.944   6.978   0.259
 4008SOL    HW112923   3.035   6.983   0.217
 4008SOL    HW212924   2.953   6.959   0.356
 4009SOL     OW12925   5.047   2.159   1.250
 4009SOL    HW112926   5.035   2.186   1.346
 4009SOL    HW212927   4.999   2.074   1.233
 4010SOL     OW12928   3.203   3.950   1.413
 4010SOL    HW112929   3.132   3.914   1.473
 4010SOL    HW212930   3.222   3.885   1.339
 4011SOL     OW12931   6.921   5.972   1.550
 4011SOL    HW112932   6.836   5.994   1.597
 4011SOL    HW212933   6.923   6.018   1.461
 4012SOL     OW12934   3.909   6.911   2.210
 4012SOL    HW112935   3.831   6.850   2.198
 4012SOL    HW212936   3.938   6.947   2.122
 4013SOL     OW12937   2.297   6.972   1.542
 4013SOL    HW112938   2.347   6.927   1.616
 4013SOL    HW212939   2.267   0.047   1.574
 4014SOL     OW12940   3.597   6.295   4.039
 4014SOL    HW112941   3.523   6.236   4.008
 4014SOL    HW212942   3.570   6.340   4.125
 4015SOL     OW12943   4.591   4.463   6.313
 4015SOL    HW112944   4.496   4.476   6.286
 4015SOL    HW212945   4.618   4.533   6.378
 4016SOL     OW12946   3.035   5.343   0.661
 4016SOL    HW112947   3.061   5.418   0.722
 4016SOL    HW212948   3.034   5.377   0.567
 4017SOL     OW12949   0.227   4.915   5.220
 4017SOL    HW112950   0.146   4.904   5.278
 4017SOL    HW212951   0.292   4.976   5.264
 4018SOL     OW12952   3.958   0.205   1.682
 4018SOL    HW112953   4.050   0.217   1.720
 4018SOL    HW212954   3.890   0.225   1.752
 4019SOL     OW12955   5.534   3.864   2.342
 4019SOL    HW112956   5.440   3.853   2.310
 4019SOL    HW212957   5.544   3.821   2.432
 4020SOL     OW12958   6.726   3.307   5.311
 4020SOL    HW112959   6.715   3.266   5.402
 4020SOL    HW212960   6.695   3.241   5.242
 4021SOL     OW12961   3.400   4.115   4.999
 4021SOL    HW112962   3.457   4.041   4.965
 4021SOL    HW212963   3.316   4.120   4.945
 4022SOL     OW12964   3.998   6.472   0.491
 4022SOL    HW112965   3.909   6.488   0.534
 4022SOL    HW212966   3.990   6.488   0.392
 4023SOL     OW12967   6.814   0.957   6.001
 4023SOL    HW112968   6.766   1.003   6.077
 4023SOL    HW212969   6.755   0.955   5.921
 4024SOL     OW12970   2.523   5.321   4.439
 4024SOL    HW112971   2.467   5.403   4.438
 4024SOL    HW212972   2.593   5.329   4.510
 4025SOL     OW12973   0.628   6.315   4.551
 4025SOL    HW112974   0.707   6.375   4.564
 4025SOL    HW212975   0.567   6.324   4.630
 4026SOL     OW12976   6.319   6.156   4.235
 4026SOL    HW112977   6.382   6.108   4.295
 4026SOL    HW212978   6.227   6.156   4.275
 4027SOL     OW12979   2.816   1.725   0.181
 4027SOL    HW112980   2.783   1.789   0.251
 4027SOL    HW212981   2.831   1.635   0.223
 4028SOL     OW12982   3.978   1.915   3.489
 4028SOL    HW112983   4.036   1.907   3.408
 4028SOL    HW212984   3.998   1.838   3.551
 4029SOL     OW12985   2.770   4.372   6.276
 4029SOL    HW112986   2.728   4.432   6.344
 4029SOL    HW212987   2.854   4.414   6.242
 4030SOL     OW12988   6.755   1.072   1.508
 4030SOL    HW112989   6.755   1.170   1.527
 4030SOL    HW212990   6.776   1.022   1.592
 4031SOL     OW12991   5.249   6.250   3.407
 4031SOL    HW112992   5.311   6.191   3.458
 4031SOL    HW212993   5.239   6.338   3.453
 4032SOL     OW12994   0.275   0.072   2.489
 4032SOL    HW112995   0.343   0.028   2.430
 4032SOL    HW212996   0.253   0.162   2.452
 4033SOL     OW12997   1.635   2.793   1.695
 4033SOL    HW112998   1.645   2.731   1.773
 4033SOL    HW212999   1.600   2.742   1.616
 4034SOL     OW13000   5.809   2.123   5.342
 4034SOL    HW113001   5.728   2.072   5.372
 4034SOL    HW213002   5.891   2.078   5.376
 4035SOL     OW13003   6.305   1.022   1.159
 4035SOL    HW113004   6.367   1.051   1.232
 4035SOL    HW213005   6.228   0.972   1.198
 4036SOL     OW13006   4.061   5.012   2.398
 4036SOL    HW113007   4.127   4.939   2.380
 4036SOL    HW213008   4.044   5.064   2.314
 4037SOL     OW13009   2.235   1.319   6.427
 4037SOL    HW113010   2.206   1.276   6.342
 4037SOL    HW213011   2.231   1.253   6.501
 4038SOL     OW13012   4.154   2.750   0.871
 4038SOL    HW113013   4.211   2.762   0.789
 4038SOL    HW213014   4.079   2.816   0.869
 4039SOL     OW13015   4.491   5.658   2.021
 4039SOL    HW113016   4.539   5.610   2.094
 4039SOL    HW213017   4.451   5.592   1.958
 4040SOL     OW13018   2.871   6.757   5.188
 4040SOL    HW113019   2.829   6.786   5.274
 4040SOL    HW213020   2.865   6.657   5.181
 4041SOL     OW13021   2.080   5.228   1.110
 4041SOL    HW113022   2.144   5.212   1.184
 4041SOL    HW213023   2.061   5.326   1.102
 4042SOL     OW13024   6.077   5.878   4.314
 4042SOL    HW113025   6.036   5.891   4.223
 4042SOL    HW213026   6.093   5.967   4.356
 4043SOL     OW13027   0.054   2.006   6.138
 4043SOL    HW113028   0.058   2.086   6.198
 4043SOL    HW213029   6.976   1.995   6.103
 4044SOL     OW13030   5.278   5.972   3.828
 4044SOL    HW113031   5.226   6.057   3.831
 4044SOL    HW213032   5.366   5.984   3.874
 4045SOL     OW13033   4.203   6.617   5.774
 4045SOL    HW113034   4.114   6.573   5.787
 4045SOL    HW213035   4.213   6.691   5.841
 4046SOL     OW13036   0.751   2.039   3.078
 4046SOL    HW113037   0.840   2.059   3.119
 4046SOL    HW213038   0.721   1.948   3.108
 4047SOL     OW13039   2.499   2.110   6.831
 4047SOL    HW113040   2.536   2.194   6.792
 4047SOL    HW213041   2.416   2.132   6.884
 4048SOL     OW13042   5.286   1.443   1.638
 4048SOL    HW113043   5.324   1.526   1.680
 4048SOL    HW213044   5.352   1.406   1.573
 4049SOL     OW13045   5.213   5.168   6.551
 4049SOL    HW113046   5.113   5.158   6.550
 4049SOL    HW213047   5.239   5.247   6.496
 4050SOL     OW13048   0.940   6.324   2.010
 4050SOL    HW113049   1.018   6.345   2.069
 4050SOL    HW213050   0.887   6.407   1.995
 4051SOL     OW13051   3.895   1.256   6.415
 4051SOL    HW113052   3.854   1.245   6.505
 4051SOL    HW213053   3.989   1.289   6.425
 4052SOL     OW13054   5.890   1.655   3.112
 4052SOL    HW113055   5.852   1.734   3.160
 4052SOL    HW213056   5.936   1.595   3.177
 4053SOL     OW13057   2.511   6.754   4.781
 4053SOL    HW113058   2.494   6.849   4.808
 4053SOL    HW213059   2.428   6.701   4.792
 4054SOL     OW13060   5.084   4.309   1.040
 4054SOL    HW113061   5.105   4.287   0.945
 4054SOL    HW213062   5.120   4.237   1.100
 4055SOL     OW13063   2.988   3.897   0.435
 4055SOL    HW113064   2.949   3.989   0.441
 4055SOL    HW213065   2.936   3.843   0.368
 4056SOL     OW13066   5.499   4.373   0.830
 4056SOL    HW113067   5.594   4.401   0.845
 4056SOL    HW213068   5.444   4.402   0.908
 4057SOL     OW13069   0.516   2.696   0.522
 4057SOL    HW113070   0.544   2.628   0.455
 4057SOL    HW213071   0.558   2.784   0.500
 4058SOL     OW13072   3.185   6.741   4.788
 4058SOL    HW113073   3.113   6.707   4.848
 4058SOL    HW213074   3.152   6.821   4.737
 4059SOL     OW13075   0.804   1.586   2.704
 4059SOL    HW113076   0.770   1.566   2.612
 4059SOL    HW213077   0.838   1.502   2.746
 4060SOL     OW13078   5.395   4.948   5.740
 4060SOL    HW113079   5.434   5.035   5.710
 4060SOL    HW213080   5.322   4.966   5.806
 4061SOL     OW13081   2.121   4.847   2.053
 4061SOL    HW113082   2.154   4.798   2.134
 4061SOL    HW213083   2.022   4.858   2.060
 4062SOL     OW13084   2.257   0.509   1.723
 4062SOL    HW113085   2.319   0.572   1.677
 4062SOL    HW213086   2.305   0.423   1.743
 4063SOL     OW13087   6.253   6.355   0.367
 4063SOL    HW113088   6.251   6.255   0.371
 4063SOL    HW213089   6.309   6.384   0.289
 4064SOL     OW13090   2.159   0.710   4.021
 4064SOL    HW113091   2.240   0.735   4.075
 4064SOL    HW213092   2.076   0.736   4.070
 4065SOL     OW13093   1.496   6.449   1.568
 4065SOL    HW113094   1.516   6.524   1.631
 4065SOL    HW213095   1.420   6.475   1.509
 4066SOL     OW13096   6.219   4.345   3.135
 4066SOL    HW113097   6.159   4.321   3.059
 4066SOL    HW213098   6.164   4.383   3.210
 4067SOL     OW13099   6.307   3.259   2.661
 4067SOL    HW113100   6.357   3.278   2.745
 4067SOL    HW213101   6.353   3.185   2.611
 4068SOL     OW13102   2.103   1.405   4.636
 4068SOL    HW113103   2.095   1.422   4.735
 4068SOL    HW213104   2.160   1.477   4.595
 4069SOL     OW13105   3.466   5.043   6.367
 4069SOL    HW113106   3.438   5.029   6.462
 4069SOL    HW213107   3.503   5.135   6.357
 4070SOL     OW13108   0.285   2.351   2.748
 4070SOL    HW113109   0.204   2.299   2.724
 4070SOL    HW213110   0.312   2.410   2.672
 4071SOL     OW13111   0.798   1.189   5.263
 4071SOL    HW113112   0.892   1.177   5.296
 4071SOL    HW213113   0.784   1.284   5.236
 4072SOL     OW13114   0.697   5.324   4.548
 4072SOL    HW113115   0.784   5.368   4.530
 4072SOL    HW213116   0.655   5.364   4.629
 4073SOL     OW13117   2.937   5.979   6.578
 4073SOL    HW113118   2.951   6.070   6.539
 4073SOL    HW213119   2.940   5.985   6.678
 4074SOL     OW13120   0.365   4.833   1.216
 4074SOL    HW113121   0.277   4.873   1.190
 4074SOL    HW213122   0.352   4.738   1.243
 4075SOL     OW13123   4.885   1.860   1.443
 4075SOL    HW113124   4.914   1.777   1.490
 4075SOL    HW213125   4.934   1.868   1.356
 4076SOL     OW13126   2.768   3.509   6.180
 4076SOL    HW113127   2.846   3.456   6.147
 4076SOL    HW213128   2.698   3.514   6.109
 4077SOL     OW13129   4.109   1.695   6.892
 4077SOL    HW113130   4.107   1.664   6.988
 4077SOL    HW213131   4.016   1.697   6.856
 4078SOL     OW13132   1.503   5.419   1.570
 4078SOL    HW113133   1.523   5.465   1.656
 4078SOL    HW213134   1.404   5.407   1.560
 4079SOL     OW13135   1.749   1.090   3.658
 4079SOL    HW113136   1.826   1.027   3.672
 4079SOL    HW213137   1.752   1.124   3.564
 4080SOL     OW13138   4.566   3.457   6.210
 4080SOL    HW113139   4.560   3.404   6.294
 4080SOL    HW213140   4.662   3.476   6.188
 4081SOL     OW13141   2.240   2.770   4.091
 4081SOL    HW113142   2.222   2.868   4.081
 4081SOL    HW213143   2.328   2.756   4.136
 4082SOL     OW13144   1.026   3.960   0.099
 4082SOL    HW113145   1.004   3.882   0.041
 4082SOL    HW213146   1.094   4.017   0.053
 4083SOL     OW13147   6.858   2.996   2.569
 4083SOL    HW113148   6.803   2.913   2.573
 4083SOL    HW213149   6.830   3.058   2.643
 4084SOL     OW13150   5.555   2.495   3.735
 4084SOL    HW113151   5.491   2.572   3.731
 4084SOL    HW213152   5.645   2.528   3.763
 4085SOL     OW13153   3.253   5.465   1.691
 4085SOL    HW113154   3.274   5.485   1.787
 4085SOL    HW213155   3.338   5.441   1.643
 4086SOL     OW13156   1.841   6.031   1.597
 4086SOL    HW113157   1.869   6.041   1.692
 4086SOL    HW213158   1.827   6.121   1.556
 4087SOL     OW13159   2.257   2.070   3.573
 4087SOL    HW113160   2.269   1.989   3.630
 4087SOL    HW213161   2.251   2.152   3.630
 4088SOL     OW13162   6.971   1.777   0.496
 4088SOL    HW113163   0.043   1.793   0.541
 4088SOL    HW213164   6.977   1.807   0.401
 4089SOL     OW13165   5.934   6.175   4.022
 4089SOL    HW113166   6.029   6.202   4.013
 4089SOL    HW213167   5.875   6.246   3.984
 4090SOL     OW13168   1.152   4.148   6.157
 4090SOL    HW113169   1.159   4.096   6.072
 4090SOL    HW213170   1.160   4.246   6.138
 4091SOL     OW13171   0.328   6.126   0.407
 4091SOL    HW113172   0.396   6.176   0.354
 4091SOL    HW213173   0.236   6.147   0.373
 4092SOL     OW13174   6.646   2.630   5.708
 4092SOL    HW113175   6.680   2.602   5.618
 4092SOL    HW213176   6.676   2.564   5.777
 4093SOL     OW13177   4.768   0.478   2.756
 4093SOL    HW113178   4.848   0.502   2.811
 4093SOL    HW213179   4.786   0.500   2.660
 4094SOL     OW13180   2.827   6.146   4.422
 4094SOL    HW113181   2.835   6.205   4.342
 4094SOL    HW213182   2.731   6.137   4.448
 4095SOL     OW13183   0.702   3.675   0.195
 4095SOL    HW113184   0.801   3.687   0.182
 4095SOL    HW213185   0.657   3.765   0.195
 4096SOL     OW13186   4.773   6.057   5.997
 4096SOL    HW113187   4.816   5.986   6.053
 4096SOL    HW213188   4.729   6.124   6.058
 4097SOL     OW13189   3.190   4.725   5.572
 4097SOL    HW113190   3.213   4.640   5.526
 4097SOL    HW213191   3.140   4.785   5.509
 4098SOL     OW13192   0.831   3.023   1.702
 4098SOL    HW113193   0.878   3.038   1.789
 4098SOL    HW213194   0.820   3.110   1.655
 4099SOL     OW13195   2.841   5.110   1.481
 4099SOL    HW113196   2.752   5.068   1.468
 4099SOL    HW213197   2.851   5.188   1.418
 4100SOL     OW13198   6.787   5.375   4.919
 4100SOL    HW113199   6.759   5.279   4.927
 4100SOL    HW213200   6.876   5.381   4.875
 4101SOL     OW13201   6.267   1.378   0.233
 4101SOL    HW113202   6.274   1.465   0.183
 4101SOL    HW213203   6.358   1.347   0.257
 4102SOL     OW13204   6.285   0.493   0.987
 4102SOL    HW113205   6.384   0.491   0.976
 4102SOL    HW213206   6.258   0.581   1.027
 4103SOL     OW13207   0.016   0.778   0.320
 4103SOL    HW113208   7.009   0.811   0.412
 4103SOL    HW213209   6.957   0.799   0.257
 4104SOL     OW13210   0.518   4.483   2.106
 4104SOL    HW113211   0.594   4.501   2.168
 4104SOL    HW213212   0.462   4.565   2.096
 4105SOL     OW13213   4.169   6.885   1.881
 4105SOL    HW113214   4.102   6.955   1.905
 4105SOL    HW213215   4.236   6.876   1.955
 4106SOL     OW13216   6.845   2.554   3.697
 4106SOL    HW113217   6.941   2.579   3.707
 4106SOL    HW213218   6.792   2.598   3.771
 4107SOL     OW13219   1.465   6.104   1.438
 4107SOL    HW113220   1.543   6.142   1.487
 4107SOL    HW213221   1.381   6.146   1.471
 4108SOL     OW13222   6.472   4.562   5.562
 4108SOL    HW113223   6.553   4.520   5.521
 4108SOL    HW213224   6.392   4.541   5.506
 4109SOL     OW13225   5.701   6.833   5.195
 4109SOL    HW113226   5.642   6.906   5.160
 4109SOL    HW213227   5.750   6.866   5.276
 4110SOL     OW13228   4.312   3.565   6.339
 4110SOL    HW113229   4.314   3.663   6.358
 4110SOL    HW213230   4.388   3.541   6.280
 4111SOL     OW13231   3.906   3.213   6.586
 4111SOL    HW113232   3.985   3.268   6.558
 4111SOL    HW213233   3.899   3.132   6.528
 4112SOL     OW13234   4.983   0.291   5.254
 4112SOL    HW113235   4.899   0.323   5.298
 4112SOL    HW213236   5.035   0.369   5.221
 4113SOL     OW13237   4.983   6.547   4.559
 4113SOL    HW113238   4.937   6.459   4.573
 4113SOL    HW213239   4.922   6.609   4.509
 4114SOL     OW13240   3.257   2.112   4.379
 4114SOL    HW113241   3.185   2.161   4.428
 4114SOL    HW213242   3.248   2.014   4.395
 4115SOL     OW13243   3.776   5.051   2.506
 4115SOL    HW113244   3.778   5.127   2.442
 4115SOL    HW213245   3.778   4.964   2.456
 4116SOL     OW13246   3.720   2.049   1.769
 4116SOL    HW113247   3.632   2.049   1.722
 4116SOL    HW213248   3.715   2.107   1.850
 4117SOL     OW13249   0.845   4.903   1.970
 4117SOL    HW113250   0.786   4.876   2.046
 4117SOL    HW213251   0.871   4.822   1.918
 4118SOL     OW13252   2.861   6.619   0.454
 4118SOL    HW113253   2.839   6.583   0.364
 4118SOL    HW213254   2.804   6.699   0.473
 4119SOL     OW13255   3.611   1.728   3.743
 4119SOL    HW113256   3.531   1.720   3.684
 4119SOL    HW213257   3.620   1.822   3.774
 4120SOL     OW13258   3.917   0.252   0.791
 4120SOL    HW113259   3.909   0.175   0.854
 4120SOL    HW213260   4.010   0.289   0.797
 4121SOL     OW13261   6.186   1.129   5.109
 4121SOL    HW113262   6.256   1.069   5.147
 4121SOL    HW213263   6.126   1.076   5.049
 4122SOL     OW13264   0.714   5.667   5.218
 4122SOL    HW113265   0.727   5.740   5.151
 4122SOL    HW213266   0.772   5.683   5.297
 4123SOL     OW13267   4.168   4.705   6.119
 4123SOL    HW113268   4.181   4.797   6.156
 4123SOL    HW213269   4.070   4.687   6.106
 4124SOL     OW13270   5.642   5.071   6.670
 4124SOL    HW113271   5.722   5.129   6.685
 4124SOL    HW213272   5.672   4.978   6.651
 4125SOL     OW13273   4.557   1.821   2.735
 4125SOL    HW113274   4.636   1.763   2.713
 4125SOL    HW213275   4.492   1.768   2.789
 4126SOL     OW13276   1.573   3.419   3.776
 4126SOL    HW113277   1.630   3.354   3.725
 4126SOL    HW213278   1.543   3.377   3.861
 4127SOL     OW13279   4.323   4.748   4.436
 4127SOL    HW113280   4.326   4.707   4.527
 4127SOL    HW213281   4.399   4.812   4.426
 4128SOL     OW13282   1.413   3.168   2.370
 4128SOL    HW113283   1.493   3.166   2.309
 4128SOL    HW213284   1.331   3.190   2.316
 4129SOL     OW13285   4.451   1.794   6.489
 4129SOL    HW113286   4.529   1.736   6.515
 4129SOL    HW213287   4.369   1.763   6.536
 4130SOL     OW13288   6.400   2.836   5.635
 4130SOL    HW113289   6.467   2.886   5.580
 4130SOL    HW213290   6.438   2.748   5.662
 4131SOL     OW13291   1.632   6.716   3.161
 4131SOL    HW113292   1.658   6.689   3.068
 4131SOL    HW213293   1.532   6.708   3.171
 4132SOL     OW13294   5.195   4.440   3.586
 4132SOL    HW113295   5.274   4.387   3.553
 4132SOL    HW213296   5.117   4.422   3.527
 4133SOL     OW13297   3.068   0.209   1.419
 4133SOL    HW113298   3.077   0.259   1.333
 4133SOL    HW213299   2.975   0.171   1.426
 4134SOL     OW13300   2.416   2.633   6.932
 4134SOL    HW113301   2.392   2.683   0.000
 4134SOL    HW213302   2.345   2.565   6.913
 4135SOL     OW13303   1.606   1.497   3.353
 4135SOL    HW113304   1.563   1.472   3.266
 4135SOL    HW213305   1.702   1.521   3.337
 4136SOL     OW13306   1.200   2.317   2.878
 4136SOL    HW113307   1.271   2.368   2.830
 4136SOL    HW213308   1.110   2.344   2.843
 4137SOL     OW13309   1.296   4.582   0.617
 4137SOL    HW113310   1.224   4.521   0.583
 4137SOL    HW213311   1.290   4.587   0.717
 4138SOL     OW13312   3.716   5.184   3.033
 4138SOL    HW113313   3.757   5.093   3.028
 4138SOL    HW213314   3.736   5.234   2.949
 4139SOL     OW13315   2.382   2.285   4.945
 4139SOL    HW113316   2.443   2.361   4.922
 4139SOL    HW213317   2.303   2.319   4.996
 4140SOL     OW13318   2.913   0.704   5.583
 4140SOL    HW113319   2.876   0.633   5.523
 4140SOL    HW213320   2.952   0.661   5.665
 4141SOL     OW13321   6.001   6.642   1.461
 4141SOL    HW113322   6.046   6.581   1.394
 4141SOL    HW213323   5.917   6.678   1.421
 4142SOL     OW13324   6.371   5.569   0.909
 4142SOL    HW113325   6.406   5.500   0.973
 4142SOL    HW213326   6.417   5.559   0.821
 4143SOL     OW13327   0.470   3.073   0.553
 4143SOL    HW113328   0.444   3.067   0.649
 4143SOL    HW213329   0.408   3.017   0.498
 4144SOL     OW13330   4.755   3.788   6.123
 4144SOL    HW113331   4.813   3.853   6.174
 4144SOL    HW213332   4.796   3.697   6.127
 4145SOL     OW13333   6.607   5.802   0.880
 4145SOL    HW113334   6.656   5.740   0.942
 4145SOL    HW213335   6.509   5.797   0.897
 4146SOL     OW13336   6.588   1.316   5.356
 4146SOL    HW113337   6.678   1.278   5.374
 4146SOL    HW213338   6.594   1.386   5.285
 4147SOL     OW13339   4.932   3.380   5.683
 4147SOL    HW113340   4.884   3.293   5.688
 4147SOL    HW213341   4.988   3.384   5.600
 4148SOL     OW13342   0.805   0.710   5.118
 4148SOL    HW113343   0.860   0.780   5.163
 4148SOL    HW213344   0.735   0.754   5.061
 4149SOL     OW13345   0.281   2.578   0.635
 4149SOL    HW113346   0.326   2.648   0.580
 4149SOL    HW213347   0.335   2.494   0.631
 4150SOL     OW13348   0.404   0.955   5.546
 4150SOL    HW113349   0.481   0.907   5.589
 4150SOL    HW213350   0.432   1.048   5.521
 4151SOL     OW13351   3.738   6.269   5.982
 4151SOL    HW113352   3.835   6.281   6.002
 4151SOL    HW213353   3.698   6.205   6.047
 4152SOL     OW13354   3.027   6.270   1.342
 4152SOL    HW113355   3.077   6.341   1.292
 4152SOL    HW213356   3.019   6.189   1.285
 4153SOL     OW13357   4.141   4.412   6.826
 4153SOL    HW113358   4.136   4.505   6.863
 4153SOL    HW213359   4.091   4.407   6.740
 4154SOL     OW13360   0.421   4.651   4.493
 4154SOL    HW113361   0.520   4.651   4.481
 4154SOL    HW213362   0.394   4.574   4.551
 4155SOL     OW13363   6.832   1.692   2.363
 4155SOL    HW113364   6.768   1.622   2.333
 4155SOL    HW213365   6.812   1.778   2.317
 4156SOL     OW13366   5.236   6.437   4.903
 4156SOL    HW113367   5.218   6.354   4.850
 4156SOL    HW213368   5.177   6.510   4.870
 4157SOL     OW13369   4.320   6.412   4.013
 4157SOL    HW113370   4.398   6.359   4.049
 4157SOL    HW213371   4.245   6.350   3.991
 4158SOL     OW13372   1.478   4.659   3.254
 4158SOL    HW113373   1.459   4.618   3.165
 4158SOL    HW213374   1.493   4.586   3.321
 4159SOL     OW13375   2.244   3.043   4.125
 4159SOL    HW113376   2.220   3.036   4.221
 4159SOL    HW213377   2.299   3.124   4.109
 4160SOL     OW13378   6.117   0.744   1.047
 4160SOL    HW113379   6.124   0.783   1.139
 4160SOL    HW213380   6.086   0.814   0.983
 4161SOL     OW13381   0.830   0.552   6.926
 4161SOL    HW113382   0.921   0.525   6.957
 4161SOL    HW213383   0.807   0.641   6.966
 4162SOL     OW13384   6.368   6.338   5.658
 4162SOL    HW113385   6.295   6.398   5.691
 4162SOL    HW213386   6.366   6.334   5.558
 4163SOL     OW13387   6.250   0.073   3.019
 4163SOL    HW113388   6.226   0.125   3.101
 4163SOL    HW213389   6.328   0.116   2.974
 4164SOL     OW13390   1.360   6.632   6.772
 4164SOL    HW113391   1.274   6.683   6.773
 4164SOL    HW213392   1.427   6.678   6.713
 4165SOL     OW13393   4.535   0.188   6.963
 4165SOL    HW113394   4.509   0.200   6.867
 4165SOL    HW213395   4.474   0.120   7.006
 4166SOL     OW13396   5.705   4.101   1.189
 4166SOL    HW113397   5.773   4.091   1.118
 4166SOL    HW213398   5.620   4.135   1.149
 4167SOL     OW13399   1.292   4.285   1.159
 4167SOL    HW113400   1.330   4.276   1.251
 4167SOL    HW213401   1.357   4.247   1.093
 4168SOL     OW13402   6.727   5.124   1.233
 4168SOL    HW113403   6.816   5.109   1.191
 4168SOL    HW213404   6.739   5.163   1.325
 4169SOL     OW13405   6.018   3.962   4.174
 4169SOL    HW113406   6.114   3.988   4.177
 4169SOL    HW213407   6.002   3.902   4.095
 4170SOL     OW13408   3.127   4.026   5.015
 4170SOL    HW113409   3.116   4.113   5.064
 4170SOL    HW213410   3.047   3.969   5.031
 4171SOL     OW13411   4.986   4.823   1.544
 4171SOL    HW113412   4.912   4.756   1.546
 4171SOL    HW213413   4.950   4.911   1.515
 4172SOL     OW13414   0.393   1.663   5.830
 4172SOL    HW113415   0.296   1.685   5.821
 4172SOL    HW213416   0.403   1.564   5.842
 4173SOL     OW13417   5.355   3.635   5.484
 4173SOL    HW113418   5.435   3.655   5.428
 4173SOL    HW213419   5.316   3.547   5.456
 4174SOL     OW13420   5.474   0.567   3.290
 4174SOL    HW113421   5.564   0.546   3.326
 4174SOL    HW213422   5.465   0.530   3.197
 4175SOL     OW13423   1.928   5.687   4.773
 4175SOL    HW113424   1.837   5.726   4.755
 4175SOL    HW213425   1.917   5.596   4.815
 4176SOL     OW13426   2.422   6.673   2.042
 4176SOL    HW113427   2.372   6.716   2.118
 4176SOL    HW213428   2.485   6.605   2.078
 4177SOL     OW13429   6.678   4.506   4.610
 4177SOL    HW113430   6.625   4.424   4.590
 4177SOL    HW213431   6.616   4.579   4.642
 4178SOL     OW13432   4.457   1.217   4.183
 4178SOL    HW113433   4.536   1.171   4.143
 4178SOL    HW213434   4.425   1.166   4.263
 4179SOL     OW13435   5.081   2.622   3.488
 4179SOL    HW113436   5.170   2.659   3.462
 4179SOL    HW213437   5.038   2.683   3.554
 4180SOL     OW13438   5.674   3.829   1.634
 4180SOL    HW113439   5.728   3.770   1.575
 4180SOL    HW213440   5.643   3.777   1.714
 4181SOL     OW13441   1.853   2.113   6.638
 4181SOL    HW113442   1.864   2.207   6.607
 4181SOL    HW213443   1.942   2.069   6.645
 4182SOL     OW13444   0.329   6.356   2.936
 4182SOL    HW113445   0.285   6.445   2.928
 4182SOL    HW213446   0.288   6.292   2.871
 4183SOL     OW13447   4.451   0.390   0.467
 4183SOL    HW113448   4.413   0.309   0.424
 4183SOL    HW213449   4.523   0.363   0.531
 4184SOL     OW13450   4.805   5.355   1.515
 4184SOL    HW113451   4.904   5.372   1.514
 4184SOL    HW213452   4.773   5.344   1.421
 4185SOL     OW13453   1.116   5.867   2.219
 4185SOL    HW113454   1.183   5.915   2.276
 4185SOL    HW213455   1.073   5.932   2.156
 4186SOL     OW13456   1.890   4.913   0.950
 4186SOL    HW113457   1.908   4.832   1.005
 4186SOL    HW213458   1.832   4.888   0.872
 4187SOL     OW13459   3.202   4.118   5.876
 4187SOL    HW113460   3.251   4.083   5.956
 4187SOL    HW213461   3.237   4.209   5.853
 4188SOL     OW13462   5.077   6.955   3.989
 4188SOL    HW113463   5.162   6.914   4.023
 4188SOL    HW213464   5.075   0.037   4.013
 4189SOL     OW13465   3.239   0.699   5.297
 4189SOL    HW113466   3.282   0.760   5.231
 4189SOL    HW213467   3.247   0.605   5.266
 4190SOL     OW13468   1.023   0.111   0.010
 4190SOL    HW113469   1.099   0.175   0.002
 4190SOL    HW213470   0.985   0.091   6.935
 4191SOL     OW13471   5.733   3.670   3.141
 4191SOL    HW113472   5.670   3.701   3.070
 4191SOL    HW213473   5.781   3.748   3.180
 4192SOL     OW13474   0.122   0.583   3.301
 4192SOL    HW113475   0.189   0.579   3.375
 4192SOL    HW213476   0.170   0.594   3.213
 4193SOL     OW13477   2.281   6.713   2.292
 4193SOL    HW113478   2.214   6.786   2.307
 4193SOL    HW213479   2.350   6.716   2.365
 4194SOL     OW13480   6.311   1.168   5.701
 4194SOL    HW113481   6.290   1.213   5.788
 4194SOL    HW213482   6.241   1.098   5.683
 4195SOL     OW13483   3.793   1.052   1.426
 4195SOL    HW113484   3.714   1.067   1.366
 4195SOL    HW213485   3.851   1.133   1.425
 4196SOL     OW13486   5.734   2.272   3.745
 4196SOL    HW113487   5.658   2.337   3.747
 4196SOL    HW213488   5.716   2.198   3.810
 4197SOL     OW13489   4.872   5.342   5.434
 4197SOL    HW113490   4.825   5.304   5.514
 4197SOL    HW213491   4.882   5.271   5.365
 4198SOL     OW13492   5.307   3.182   6.504
 4198SOL    HW113493   5.306   3.098   6.558
 4198SOL    HW213494   5.290   3.160   6.408
 4199SOL     OW13495   1.949   3.528   6.233
 4199SOL    HW113496   1.875   3.558   6.293
 4199SOL    HW213497   2.007   3.606   6.210
 4200SOL     OW13498   3.437   6.753   5.103
 4200SOL    HW113499   3.493   6.672   5.123
 4200SOL    HW213500   3.464   6.790   5.014
 4201SOL     OW13501   5.619   5.746   3.962
 4201SOL    HW113502   5.577   5.655   3.969
 4201SOL    HW213503   5.641   5.780   4.053
 4202SOL     OW13504   4.276   6.059   5.553
 4202SOL    HW113505   4.215   6.056   5.474
 4202SOL    HW213506   4.370   6.041   5.524
 4203SOL     OW13507   4.873   5.430   2.104
 4203SOL    HW113508   4.841   5.340   2.133
 4203SOL    HW213509   4.870   5.436   2.004
 4204SOL     OW13510   3.640   3.244   1.965
 4204SOL    HW113511   3.716   3.186   1.993
 4204SOL    HW213512   3.560   3.225   2.023
 4205SOL     OW13513   3.732   5.307   4.579
 4205SOL    HW113514   3.761   5.389   4.529
 4205SOL    HW213515   3.712   5.234   4.515
 4206SOL     OW13516   5.824   0.563   5.510
 4206SOL    HW113517   5.773   0.511   5.441
 4206SOL    HW213518   5.894   0.618   5.466
 4207SOL     OW13519   2.425   1.367   1.628
 4207SOL    HW113520   2.459   1.440   1.688
 4207SOL    HW213521   2.482   1.285   1.639
 4208SOL     OW13522   1.046   2.486   6.254
 4208SOL    HW113523   0.987   2.565   6.240
 4208SOL    HW213524   1.011   2.431   6.330
 4209SOL     OW13525   1.037   1.061   4.847
 4209SOL    HW113526   0.941   1.087   4.859
 4209SOL    HW213527   1.046   1.003   4.766
 4210SOL     OW13528   2.934   3.414   1.736
 4210SOL    HW113529   2.945   3.506   1.698
 4210SOL    HW213530   2.837   3.390   1.738
 4211SOL     OW13531   4.221   5.883   5.236
 4211SOL    HW113532   4.259   5.794   5.262
 4211SOL    HW213533   4.263   5.913   5.150
 4212SOL     OW13534   5.921   2.359   2.309
 4212SOL    HW113535   5.856   2.297   2.353
 4212SOL    HW213536   5.945   2.324   2.219
 4213SOL     OW13537   2.066   1.309   2.534
 4213SOL    HW113538   2.094   1.223   2.490
 4213SOL    HW213539   2.032   1.372   2.465
 4214SOL     OW13540   0.592   4.010   5.691
 4214SOL    HW113541   0.633   4.053   5.771
 4214SOL    HW213542   0.621   4.058   5.608
 4215SOL     OW13543   6.532   5.507   4.504
 4215SOL    HW113544   6.549   5.517   4.602
 4215SOL    HW213545   6.608   5.547   4.452
 4216SOL     OW13546   1.671   1.751   2.441
 4216SOL    HW113547   1.711   1.683   2.378
 4216SOL    HW213548   1.576   1.728   2.459
 4217SOL     OW13549   5.765   6.893   2.408
 4217SOL    HW113550   5.715   6.862   2.489
 4217SOL    HW213551   5.801   6.985   2.424
 4218SOL     OW13552   4.564   6.868   1.161
 4218SOL    HW113553   4.615   6.906   1.237
 4218SOL    HW213554   4.480   6.919   1.147
 4219SOL     OW13555   2.889   5.635   4.910
 4219SOL    HW113556   2.930   5.579   4.837
 4219SOL    HW213557   2.802   5.594   4.938
 4220SOL     OW13558   6.288   2.654   3.453
 4220SOL    HW113559   6.270   2.752   3.449
 4220SOL    HW213560   6.245   2.608   3.375
 4221SOL     OW13561   5.841   5.683   6.505
 4221SOL    HW113562   5.894   5.602   6.478
 4221SOL    HW213563   5.747   5.673   6.475
 4222SOL     OW13564   6.124   2.580   2.074
 4222SOL    HW113565   6.072   2.646   2.128
 4222SOL    HW213566   6.073   2.495   2.067
 4223SOL     OW13567   2.862   3.362   3.941
 4223SOL    HW113568   2.871   3.460   3.961
 4223SOL    HW213569   2.891   3.309   4.021
 4224SOL     OW13570   4.872   3.190   3.553
 4224SOL    HW113571   4.850   3.128   3.478
 4224SOL    HW213572   4.844   3.150   3.640
 4225SOL     OW13573   4.821   0.462   5.612
 4225SOL    HW113574   4.897   0.515   5.573
 4225SOL    HW213575   4.858   0.388   5.669
 4226SOL     OW13576   1.325   0.279   3.278
 4226SOL    HW113577   1.304   0.263   3.181
 4226SOL    HW213578   1.248   0.325   3.322
 4227SOL     OW13579   3.412   4.885   6.889
 4227SOL    HW113580   3.329   4.935   6.913
 4227SOL    HW213581   3.456   4.929   6.810
 4228SOL     OW13582   6.489   4.260   3.178
 4228SOL    HW113583   6.521   4.333   3.238
 4228SOL    HW213584   6.400   4.284   3.140
 4229SOL     OW13585   4.190   4.569   5.870
 4229SOL    HW113586   4.208   4.487   5.923
 4229SOL    HW213587   4.179   4.647   5.931
 4230SOL     OW13588   2.639   0.777   4.316
 4230SOL    HW113589   2.658   0.692   4.365
 4230SOL    HW213590   2.677   0.854   4.366
 4231SOL     OW13591   5.478   6.691   4.859
 4231SOL    HW113592   5.508   6.786   4.865
 4231SOL    HW213593   5.399   6.678   4.919
 4232SOL     OW13594   0.225   4.907   1.712
 4232SOL    HW113595   0.207   4.978   1.781
 4232SOL    HW213596   0.313   4.926   1.668
 4233SOL     OW13597   6.790   0.128   6.966
 4233SOL    HW113598   6.700   0.087   6.980
 4233SOL    HW213599   6.813   0.185   0.030
 4234SOL     OW13600   1.148   0.298   5.950
 4234SOL    HW113601   1.186   0.206   5.948
 4234SOL    HW213602   1.120   0.325   5.858
 4235SOL     OW13603   6.230   4.077   5.195
 4235SOL    HW113604   6.221   3.979   5.175
 4235SOL    HW213605   6.326   4.104   5.189
 4236SOL     OW13606   6.930   3.289   3.163
 4236SOL    HW113607   6.951   3.338   3.078
 4236SOL    HW213608   6.893   3.199   3.142
 4237SOL     OW13609   6.101   4.536   3.942
 4237SOL    HW113610   6.046   4.474   3.887
 4237SOL    HW213611   6.166   4.585   3.884
 4238SOL     OW13612   4.284   4.955   3.865
 4238SOL    HW113613   4.324   4.931   3.776
 4238SOL    HW213614   4.351   4.935   3.938
 4239SOL     OW13615   5.539   0.451   3.986
 4239SOL    HW113616   5.453   0.501   3.972
 4239SOL    HW213617   5.611   0.494   3.933
 4240SOL     OW13618   2.097   6.663   6.809
 4240SOL    HW113619   2.081   6.620   6.721
 4240SOL    HW213620   2.072   6.599   6.882
 4241SOL     OW13621   5.216   0.494   0.728
 4241SOL    HW113622   5.223   0.394   0.732
 4241SOL    HW213623   5.169   0.527   0.810
 4242SOL     OW13624   1.908   6.994   3.296
 4242SOL    HW113625   1.821   6.958   3.329
 4242SOL    HW213626   1.977   6.984   3.368
 4243SOL     OW13627   0.719   3.785   3.439
 4243SOL    HW113628   0.724   3.768   3.537
 4243SOL    HW213629   0.662   3.716   3.395
 4244SOL     OW13630   4.381   5.631   0.948
 4244SOL    HW113631   4.418   5.716   0.987
 4244SOL    HW213632   4.345   5.650   0.856
 4245SOL     OW13633   6.887   1.962   6.528
 4245SOL    HW113634   6.944   1.896   6.480
 4245SOL    HW213635   6.927   2.054   6.519
 4246SOL     OW13636   5.789   3.158   3.531
 4246SOL    HW113637   5.708   3.164   3.590
 4246SOL    HW213638   5.765   3.114   3.445
 4247SOL     OW13639   2.268   5.111   4.543
 4247SOL    HW113640   2.201   5.050   4.500
 4247SOL    HW213641   2.359   5.088   4.510
 4248SOL     OW13642   1.701   1.000   3.349
 4248SOL    HW113643   1.751   1.024   3.266
 4248SOL    HW213644   1.617   1.053   3.354
 4249SOL     OW13645   6.444   1.495   3.119
 4249SOL    HW113646   6.418   1.543   3.036
 4249SOL    HW213647   6.451   1.560   3.195
 4250SOL     OW13648   0.286   5.939   3.972
 4250SOL    HW113649   0.327   5.938   4.063
 4250SOL    HW213650   0.197   5.893   3.975
 4251SOL     OW13651   6.143   2.745   6.920
 4251SOL    HW113652   6.215   2.676   6.915
 4251SOL    HW213653   6.054   2.702   6.900
 4252SOL     OW13654   5.560   5.956   6.225
 4252SOL    HW113655   5.588   5.969   6.320
 4252SOL    HW213656   5.494   6.027   6.200
 4253SOL     OW13657   3.779   6.161   2.434
 4253SOL    HW113658   3.853   6.099   2.410
 4253SOL    HW213659   3.698   6.139   2.380
 4254SOL     OW13660   2.347   4.540   1.797
 4254SOL    HW113661   2.354   4.636   1.769
 4254SOL    HW213662   2.339   4.535   1.896
 4255SOL     OW13663   0.290   3.706   4.169
 4255SOL    HW113664   0.366   3.642   4.154
 4255SOL    HW213665   0.304   3.756   4.254
 4256SOL     OW13666   1.245   5.793   1.811
 4256SOL    HW113667   1.196   5.868   1.767
 4256SOL    HW213668   1.342   5.817   1.822
 4257SOL     OW13669   5.836   1.003   4.497
 4257SOL    HW113670   5.906   0.932   4.486
 4257SOL    HW213671   5.843   1.043   4.588
 4258SOL     OW13672   3.505   5.827   1.304
 4258SOL    HW113673   3.434   5.893   1.282
 4258SOL    HW213674   3.569   5.866   1.370
 4259SOL     OW13675   2.018   6.281   1.232
 4259SOL    HW113676   2.047   6.374   1.206
 4259SOL    HW213677   2.058   6.215   1.168
 4260SOL     OW13678   5.306   6.835   4.070
 4260SOL    HW113679   5.330   6.823   3.974
 4260SOL    HW213680   5.356   6.914   4.106
 4261SOL     OW13681   1.557   0.143   3.162
 4261SOL    HW113682   1.588   0.070   3.222
 4261SOL    HW213683   1.498   0.206   3.213
 4262SOL     OW13684   1.515   4.204   5.835
 4262SOL    HW113685   1.532   4.301   5.820
 4262SOL    HW213686   1.506   4.187   5.933
 4263SOL     OW13687   2.755   1.352   3.245
 4263SOL    HW113688   2.851   1.349   3.273
 4263SOL    HW213689   2.749   1.386   3.151
 4264SOL     OW13690   5.846   1.658   4.047
 4264SOL    HW113691   5.858   1.579   4.108
 4264SOL    HW213692   5.753   1.694   4.056
 4265SOL     OW13693   3.402   0.663   0.796
 4265SOL    HW113694   3.372   0.748   0.840
 4265SOL    HW213695   3.326   0.626   0.742
 4266SOL     OW13696   1.238   0.254   6.932
 4266SOL    HW113697   1.258   0.156   6.939
 4266SOL    HW213698   1.236   0.281   6.836
 4267SOL     OW13699   1.615   4.072   3.992
 4267SOL    HW113700   1.559   3.992   3.970
 4267SOL    HW213701   1.664   4.102   3.910
 4268SOL     OW13702   1.936   5.521   6.974
 4268SOL    HW113703   1.938   5.421   6.974
 4268SOL    HW213704   1.981   5.556   0.041
 4269SOL     OW13705   2.839   1.362   3.715
 4269SOL    HW113706   2.870   1.455   3.694
 4269SOL    HW213707   2.917   1.299   3.710
 4270SOL     OW13708   3.406   2.934   1.678
 4270SOL    HW113709   3.395   3.034   1.682
 4270SOL    HW213710   3.448   2.909   1.591
 4271SOL     OW13711   6.832   0.488   0.383
 4271SOL    HW113712   6.884   0.556   0.435
 4271SOL    HW213713   6.736   0.517   0.378
 4272SOL     OW13714   6.883   3.251   4.984
 4272SOL    HW113715   6.861   3.154   4.969
 4272SOL    HW213716   6.927   3.262   5.073
 4273SOL     OW13717   4.859   6.130   5.011
 4273SOL    HW113718   4.861   6.065   5.086
 4273SOL    HW213719   4.892   6.219   5.042
 4274SOL     OW13720   0.998   0.180   1.905
 4274SOL    HW113721   0.999   0.209   1.810
 4274SOL    HW213722   1.036   0.254   1.963
 4275SOL     OW13723   0.598   1.874   4.462
 4275SOL    HW113724   0.593   1.929   4.379
 4275SOL    HW213725   0.690   1.834   4.470
 4276SOL     OW13726   2.673   5.408   3.502
 4276SOL    HW113727   2.726   5.331   3.537
 4276SOL    HW213728   2.678   5.409   3.402
 4277SOL     OW13729   6.815   4.300   2.878
 4277SOL    HW113730   6.749   4.228   2.858
 4277SOL    HW213731   6.900   4.283   2.828
 4278SOL     OW13732   0.478   6.943   3.343
 4278SOL    HW113733   0.485   7.007   3.266
 4278SOL    HW213734   0.382   6.918   3.356
 4279SOL     OW13735   1.257   1.038   2.339
 4279SOL    HW113736   1.302   1.108   2.285
 4279SOL    HW213737   1.158   1.045   2.327
 4280SOL     OW13738   6.226   6.523   5.792
 4280SOL    HW113739   6.140   6.570   5.811
 4280SOL    HW213740   6.301   6.590   5.791
 4281SOL     OW13741   5.194   4.768   3.726
 4281SOL    HW113742   5.171   4.845   3.787
 4281SOL    HW213743   5.278   4.789   3.677
 4282SOL     OW13744   2.979   4.830   1.075
 4282SOL    HW113745   3.043   4.870   1.009
 4282SOL    HW213746   3.016   4.744   1.109
 4283SOL     OW13747   4.532   1.544   3.764
 4283SOL    HW113748   4.576   1.564   3.676
 4283SOL    HW213749   4.434   1.564   3.757
 4284SOL     OW13750   4.775   6.048   0.170
 4284SOL    HW113751   4.769   6.104   0.087
 4284SOL    HW213752   4.812   5.958   0.146
 4285SOL     OW13753   2.752   0.829   6.203
 4285SOL    HW113754   2.765   0.898   6.274
 4285SOL    HW213755   2.822   0.839   6.133
 4286SOL     OW13756   6.497   0.178   6.352
 4286SOL    HW113757   6.459   0.218   6.269
 4286SOL    HW213758   6.479   0.080   6.354
 4287SOL     OW13759   4.751   1.184   6.171
 4287SOL    HW113760   4.661   1.142   6.163
 4287SOL    HW213761   4.744   1.282   6.152
 4288SOL     OW13762   0.523   5.890   3.100
 4288SOL    HW113763   0.488   5.949   3.027
 4288SOL    HW213764   0.467   5.902   3.183
 4289SOL     OW13765   1.427   2.081   6.039
 4289SOL    HW113766   1.402   2.021   6.115
 4289SOL    HW213767   1.406   2.036   5.953
 4290SOL     OW13768   0.474   6.789   4.498
 4290SOL    HW113769   0.416   6.757   4.423
 4290SOL    HW213770   0.431   6.768   4.585
 4291SOL     OW13771   4.909   3.414   6.479
 4291SOL    HW113772   4.884   3.405   6.382
 4291SOL    HW213773   4.955   3.331   6.510
 4292SOL     OW13774   6.228   3.150   6.963
 4292SOL    HW113775   6.288   3.209   6.910
 4292SOL    HW213776   6.156   3.114   6.905
 4293SOL     OW13777   3.909   3.981   6.459
 4293SOL    HW113778   3.810   3.987   6.448
 4293SOL    HW213779   3.939   4.047   6.528
 4294SOL     OW13780   1.949   1.709   6.006
 4294SOL    HW113781   2.047   1.726   6.017
 4294SOL    HW213782   1.926   1.620   6.045
 4295SOL     OW13783   4.679   6.577   2.949
 4295SOL    HW113784   4.682   6.549   3.045
 4295SOL    HW213785   4.743   6.519   2.897
 4296SOL     OW13786   3.166   0.120   1.022
 4296SOL    HW113787   3.097   0.193   1.016
 4296SOL    HW213788   3.251   0.152   0.981
 4297SOL     OW13789   6.600   6.643   2.469
 4297SOL    HW113790   6.605   6.631   2.370
 4297SOL    HW213791   6.555   6.729   2.491
 4298SOL     OW13792   3.515   6.484   2.158
 4298SOL    HW113793   3.447   6.460   2.228
 4298SOL    HW213794   3.505   6.423   2.080
 4299SOL     OW13795   1.065   3.383   0.351
 4299SOL    HW113796   0.984   3.403   0.406
 4299SOL    HW213797   1.147   3.412   0.400
 4300SOL     OW13798   2.729   0.250   0.502
 4300SOL    HW113799   2.685   0.172   0.546
 4300SOL    HW213800   2.828   0.245   0.517
 4301SOL     OW13801   3.672   0.350   1.542
 4301SOL    HW113802   3.629   0.268   1.579
 4301SOL    HW213803   3.697   0.411   1.617
 4302SOL     OW13804   6.338   0.275   0.163
 4302SOL    HW113805   6.335   0.200   0.230
 4302SOL    HW213806   6.432   0.306   0.153
 4303SOL     OW13807   0.138   4.619   3.578
 4303SOL    HW113808   0.055   4.647   3.625
 4303SOL    HW213809   0.157   4.682   3.503
 4304SOL     OW13810   3.809   4.074   1.899
 4304SOL    HW113811   3.747   4.033   1.832
 4304SOL    HW213812   3.761   4.086   1.986
 4305SOL     OW13813   0.811   6.760   5.453
 4305SOL    HW113814   0.759   6.825   5.397
 4305SOL    HW213815   0.903   6.795   5.469
 4306SOL     OW13816   5.065   4.647   5.045
 4306SOL    HW113817   5.069   4.548   5.029
 4306SOL    HW213818   5.138   4.674   5.107
 4307SOL     OW13819   5.487   3.367   5.652
 4307SOL    HW113820   5.472   3.440   5.719
 4307SOL    HW213821   5.425   3.291   5.670
 4308SOL     OW13822   5.474   5.050   1.411
 4308SOL    HW113823   5.479   4.991   1.330
 4308SOL    HW213824   5.495   4.996   1.493
 4309SOL     OW13825   1.215   2.934   0.689
 4309SOL    HW113826   1.217   3.003   0.617
 4309SOL    HW213827   1.170   2.851   0.654
 4310SOL     OW13828   1.214   2.772   2.184
 4310SOL    HW113829   1.148   2.804   2.116
 4310SOL    HW213830   1.305   2.806   2.160
 4311SOL     OW13831   1.092   6.609   2.235
 4311SOL    HW113832   1.117   6.624   2.330
 4311SOL    HW213833   1.107   6.513   2.212
 4312SOL     OW13834   1.237   5.371   3.120
 4312SOL    HW113835   1.167   5.417   3.066
 4312SOL    HW213836   1.291   5.438   3.170
 4313SOL     OW13837   3.156   2.468   0.032
 4313SOL    HW113838   3.136   2.467   6.949
 4313SOL    HW213839   3.254   2.478   0.046
 4314SOL     OW13840   6.125   2.283   5.246
 4314SOL    HW113841   6.092   2.256   5.336
 4314SOL    HW213842   6.094   2.217   5.178
 4315SOL     OW13843   1.963   1.398   3.674
 4315SOL    HW113844   1.945   1.381   3.771
 4315SOL    HW213845   1.910   1.334   3.619
 4316SOL     OW13846   5.198   6.891   2.513
 4316SOL    HW113847   5.187   6.988   2.489
 4316SOL    HW213848   5.133   6.868   2.585
 4317SOL     OW13849   4.832   0.891   5.648
 4317SOL    HW113850   4.839   0.852   5.556
 4317SOL    HW213851   4.909   0.953   5.664
 4318SOL     OW13852   0.832   0.926   4.245
 4318SOL    HW113853   0.770   0.851   4.222
 4318SOL    HW213854   0.833   0.939   4.344
 4319SOL     OW13855   1.883   1.851   1.284
 4319SOL    HW113856   1.978   1.877   1.299
 4319SOL    HW213857   1.834   1.852   1.371
 4320SOL     OW13858   4.052   6.067   1.068
 4320SOL    HW113859   4.005   6.148   1.033
 4320SOL    HW213860   4.006   5.985   1.034
 4321SOL     OW13861   0.008   4.945   3.148
 4321SOL    HW113862   6.981   4.863   3.186
 4321SOL    HW213863   0.028   5.010   3.222
 4322SOL     OW13864   6.639   3.209   5.558
 4322SOL    HW113865   6.550   3.230   5.598
 4322SOL    HW213866   6.710   3.222   5.628
 4323SOL     OW13867   4.144   5.303   6.978
 4323SOL    HW113868   4.055   5.259   6.988
 4323SOL    HW213869   4.214   5.249   0.010
 4324SOL     OW13870   6.801   3.960   5.519
 4324SOL    HW113871   6.728   3.940   5.454
 4324SOL    HW213872   6.770   4.031   5.582
 4325SOL     OW13873   2.802   1.665   2.070
 4325SOL    HW113874   2.778   1.761   2.059
 4325SOL    HW213875   2.785   1.616   1.984
 4326SOL     OW13876   5.924   3.338   2.097
 4326SOL    HW113877   5.962   3.430   2.098
 4326SOL    HW213878   5.824   3.342   2.108
 4327SOL     OW13879   3.818   5.694   3.504
 4327SOL    HW113880   3.901   5.730   3.460
 4327SOL    HW213881   3.802   5.601   3.473
 4328SOL     OW13882   5.994   4.620   4.880
 4328SOL    HW113883   6.014   4.640   4.976
 4328SOL    HW213884   6.078   4.628   4.826
 4329SOL     OW13885   6.244   3.463   5.431
 4329SOL    HW113886   6.192   3.381   5.405
 4329SOL    HW213887   6.219   3.538   5.371
 4330SOL     OW13888   1.855   6.438   4.671
 4330SOL    HW113889   1.899   6.391   4.594
 4330SOL    HW213890   1.833   6.372   4.742
 4331SOL     OW13891   0.133   0.271   1.420
 4331SOL    HW113892   0.059   0.278   1.352
 4331SOL    HW213893   0.203   0.340   1.399
 4332SOL     OW13894   6.037   3.780   2.831
 4332SOL    HW113895   5.945   3.782   2.792
 4332SOL    HW213896   6.043   3.707   2.899
 4333SOL     OW13897   4.307   1.953   4.876
 4333SOL    HW113898   4.325   1.951   4.777
 4333SOL    HW213899   4.295   2.048   4.905
 4334SOL     OW13900   1.208   2.684   2.717
 4334SOL    HW113901   1.241   2.776   2.734
 4334SOL    HW213902   1.264   2.618   2.766
 4335SOL     OW13903   3.759   3.124   1.296
 4335SOL    HW113904   3.823   3.123   1.372
 4335SOL    HW213905   3.666   3.140   1.331
 4336SOL     OW13906   1.570   4.889   5.115
 4336SOL    HW113907   1.585   4.803   5.066
 4336SOL    HW213908   1.652   4.945   5.108
 4337SOL     OW13909   1.536   5.718   1.660
 4337SOL    HW113910   1.535   5.810   1.699
 4337SOL    HW213911   1.620   5.705   1.607
 4338SOL     OW13912   5.959   0.425   6.095
 4338SOL    HW113913   5.926   0.378   6.177
 4338SOL    HW213914   5.911   0.512   6.084
 4339SOL     OW13915   3.576   2.728   6.301
 4339SOL    HW113916   3.584   2.783   6.384
 4339SOL    HW213917   3.502   2.764   6.244
 4340SOL     OW13918   5.830   3.215   1.314
 4340SOL    HW113919   5.760   3.281   1.287
 4340SOL    HW213920   5.785   3.133   1.352
 4341SOL     OW13921   1.591   5.154   1.890
 4341SOL    HW113922   1.494   5.175   1.876
 4341SOL    HW213923   1.626   5.103   1.811
 4342SOL     OW13924   5.030   3.740   2.917
 4342SOL    HW113925   5.064   3.734   2.823
 4342SOL    HW213926   4.986   3.654   2.943
 4343SOL     OW13927   3.067   6.437   5.806
 4343SOL    HW113928   2.991   6.375   5.825
 4343SOL    HW213929   3.069   6.508   5.876
 4344SOL     OW13930   1.103   3.083   3.398
 4344SOL    HW113931   1.047   3.036   3.329
 4344SOL    HW213932   1.166   3.017   3.439
 4345SOL     OW13933   2.954   3.485   3.397
 4345SOL    HW113934   2.899   3.443   3.469
 4345SOL    HW213935   2.965   3.583   3.415
 4346SOL     OW13936   2.300   2.647   2.101
 4346SOL    HW113937   2.339   2.707   2.031
 4346SOL    HW213938   2.373   2.603   2.152
 4347SOL     OW13939   6.510   5.689   2.253
 4347SOL    HW113940   6.497   5.781   2.215
 4347SOL    HW213941   6.560   5.695   2.339
 4348SOL     OW13942   0.355   5.682   4.666
 4348SOL    HW113943   0.328   5.590   4.638
 4348SOL    HW213944   0.455   5.686   4.674
 4349SOL     OW13945   6.977   3.562   3.794
 4349SOL    HW113946   6.908   3.624   3.831
 4349SOL    HW213947   6.934   3.476   3.766
 4350SOL     OW13948   4.996   2.295   4.649
 4350SOL    HW113949   4.932   2.220   4.629
 4350SOL    HW213950   5.090   2.263   4.638
 4351SOL     OW13951   1.750   6.075   1.293
 4351SOL    HW113952   1.751   6.175   1.299
 4351SOL    HW213953   1.670   6.040   1.340
 4352SOL     OW13954   5.948   3.770   1.465
 4352SOL    HW113955   5.993   3.803   1.547
 4352SOL    HW213956   5.887   3.694   1.489
 4353SOL     OW13957   2.848   4.217   0.127
 4353SOL    HW113958   2.882   4.129   0.093
 4353SOL    HW213959   2.748   4.218   0.120
 4354SOL     OW13960   0.659   1.366   6.132
 4354SOL    HW113961   0.566   1.338   6.107
 4354SOL    HW213962   0.667   1.371   6.231
 4355SOL     OW13963   1.330   6.889   3.144
 4355SOL    HW113964   1.316   6.940   3.229
 4355SOL    HW213965   1.242   6.873   3.100
 4356SOL     OW13966   3.998   3.386   5.446
 4356SOL    HW113967   3.912   3.408   5.401
 4356SOL    HW213968   3.999   3.426   5.538
 4357SOL     OW13969   7.010   1.698   0.906
 4357SOL    HW113970   0.032   1.673   0.995
 4357SOL    HW213971   6.967   1.619   0.863
 4358SOL     OW13972   0.067   0.088   0.350
 4358SOL    HW113973   0.123   0.078   0.268
 4358SOL    HW213974   0.069   0.003   0.403
 4359SOL     OW13975   1.497   0.471   6.739
 4359SOL    HW113976   1.414   0.423   6.710
 4359SOL    HW213977   1.516   0.545   6.675
 4360SOL     OW13978   0.926   2.603   3.980
 4360SOL    HW113979   0.988   2.617   4.057
 4360SOL    HW213980   0.832   2.612   4.012
 4361SOL     OW13981   1.922   3.224   1.657
 4361SOL    HW113982   1.853   3.176   1.711
 4361SOL    HW213983   1.934   3.178   1.569
 4362SOL     OW13984   0.423   5.992   4.243
 4362SOL    HW113985   0.416   5.908   4.296
 4362SOL    HW213986   0.462   6.064   4.300
 4363SOL     OW13987   4.411   1.214   1.859
 4363SOL    HW113988   4.367   1.304   1.852
 4363SOL    HW213989   4.380   1.168   1.941
 4364SOL     OW13990   3.167   3.734   2.623
 4364SOL    HW113991   3.228   3.671   2.672
 4364SOL    HW213992   3.157   3.817   2.677
 4365SOL     OW13993   2.955   1.568   1.761
 4365SOL    HW113994   3.002   1.551   1.848
 4365SOL    HW213995   2.963   1.487   1.703
 4366SOL     OW13996   6.056   6.355   6.536
 4366SOL    HW113997   6.155   6.341   6.528
 4366SOL    HW213998   6.008   6.282   6.486
 4367SOL     OW13999   3.195   5.123   2.878
 4367SOL    HW114000   3.111   5.153   2.831
 4367SOL    HW214001   3.203   5.024   2.870
 4368SOL     OW14002   3.979   5.567   2.836
 4368SOL    HW114003   4.017   5.584   2.927
 4368SOL    HW214004   4.026   5.624   2.769
 4369SOL     OW14005   5.005   5.568   3.685
 4369SOL    HW114006   4.954   5.531   3.607
 4369SOL    HW214007   5.010   5.500   3.758
 4370SOL     OW14008   3.449   4.068   1.480
 4370SOL    HW114009   3.357   4.040   1.452
 4370SOL    HW214010   3.444   4.158   1.525
 4371SOL     OW14011   2.029   1.636   2.447
 4371SOL    HW114012   1.973   1.697   2.390
 4371SOL    HW214013   2.061   1.559   2.391
 4372SOL     OW14014   2.107   3.305   3.988
 4372SOL    HW114015   2.100   3.207   4.011
 4372SOL    HW214016   2.099   3.316   3.889
 4373SOL     OW14017   4.166   1.380   6.228
 4373SOL    HW114018   4.249   1.388   6.174
 4373SOL    HW214019   4.160   1.458   6.291
 4374SOL     OW14020   1.965   1.867   1.626
 4374SOL    HW114021   1.986   1.901   1.718
 4374SOL    HW214022   1.942   1.944   1.567
 4375SOL     OW14023   3.755   6.576   2.955
 4375SOL    HW114024   3.673   6.540   3.000
 4375SOL    HW214025   3.731   6.605   2.862
 4376SOL     OW14026   6.279   0.168   1.738
 4376SOL    HW114027   6.215   0.188   1.664
 4376SOL    HW214028   6.371   0.195   1.712
 4377SOL     OW14029   6.636   5.171   0.222
 4377SOL    HW114030   6.598   5.082   0.196
 4377SOL    HW214031   6.562   5.229   0.258
 4378SOL     OW14032   0.787   4.726   2.212
 4378SOL    HW114033   0.756   4.638   2.248
 4378SOL    HW214034   0.807   4.788   2.288
 4379SOL     OW14035   2.395   1.064   2.196
 4379SOL    HW114036   2.436   0.976   2.173
 4379SOL    HW214037   2.454   1.138   2.164
 4380SOL     OW14038   2.447   5.715   4.832
 4380SOL    HW114039   2.418   5.698   4.927
 4380SOL    HW214040   2.464   5.628   4.787
 4381SOL     OW14041   2.393   4.410   4.533
 4381SOL    HW114042   2.388   4.317   4.496
 4381SOL    HW214043   2.398   4.406   4.633
 4382SOL     OW14044   6.080   4.211   5.502
 4382SOL    HW114045   6.112   4.304   5.483
 4382SOL    HW214046   6.014   4.214   5.578
 4383SOL     OW14047   0.439   1.905   5.678
 4383SOL    HW114048   0.440   1.806   5.691
 4383SOL    HW214049   0.478   1.928   5.589
 4384SOL     OW14050   5.273   1.041   6.880
 4384SOL    HW114051   5.333   1.053   6.959
 4384SOL    HW214052   5.210   0.965   6.897
 4385SOL     OW14053   0.340   2.347   3.967
 4385SOL    HW114054   0.330   2.369   4.064
 4385SOL    HW214055   0.296   2.418   3.911
 4386SOL     OW14056   1.158   3.805   6.416
 4386SOL    HW114057   1.204   3.775   6.333
 4386SOL    HW214058   1.200   3.889   6.450
 4387SOL     OW14059   0.414   2.292   1.922
 4387SOL    HW114060   0.417   2.268   1.825
 4387SOL    HW214061   0.507   2.311   1.954
 4388SOL     OW14062   4.448   1.048   6.607
 4388SOL    HW114063   4.357   1.058   6.567
 4388SOL    HW214064   4.516   1.086   6.544
 4389SOL     OW14065   5.649   2.743   0.514
 4389SOL    HW114066   5.557   2.703   0.524
 4389SOL    HW214067   5.700   2.730   0.598
 4390SOL     OW14068   4.099   2.212   2.161
 4390SOL    HW114069   4.110   2.246   2.255
 4390SOL    HW214070   4.180   2.237   2.107
 4391SOL     OW14071   1.511   6.061   6.305
 4391SOL    HW114072   1.544   6.047   6.212
 4391SOL    HW214073   1.451   5.986   6.331
 4392SOL     OW14074   5.707   4.429   5.404
 4392SOL    HW114075   5.650   4.379   5.469
 4392SOL    HW214076   5.755   4.364   5.345
 4393SOL     OW14077   4.582   6.233   2.544
 4393SOL    HW114078   4.569   6.236   2.643
 4393SOL    HW214079   4.505   6.185   2.502
 4394SOL     OW14080   6.098   5.587   2.857
 4394SOL    HW114081   6.190   5.624   2.848
 4394SOL    HW214082   6.043   5.649   2.914
 4395SOL     OW14083   3.922   2.212   1.377
 4395SOL    HW114084   3.871   2.125   1.375
 4395SOL    HW214085   3.929   2.245   1.471
 4396SOL     OW14086   2.217   1.831   3.751
 4396SOL    HW114087   2.146   1.783   3.699
 4396SOL    HW214088   2.304   1.781   3.742
 4397SOL     OW14089   0.075   1.565   3.898
 4397SOL    HW114090   0.082   1.664   3.891
 4397SOL    HW214091   0.080   1.538   3.994
 4398SOL     OW14092   1.271   4.378   5.291
 4398SOL    HW114093   1.195   4.434   5.258
 4398SOL    HW214094   1.237   4.312   5.358
 4399SOL     OW14095   2.269   0.873   1.590
 4399SOL    HW114096   2.257   0.937   1.667
 4399SOL    HW214097   2.332   0.801   1.617
 4400SOL     OW14098   2.031   6.927   4.896
 4400SOL    HW114099   2.083   6.936   4.811
 4400SOL    HW214100   2.072   6.984   4.967
 4401SOL     OW14101   5.619   5.729   6.061
 4401SOL    HW114102   5.572   5.806   6.105
 4401SOL    HW214103   5.710   5.717   6.102
 4402SOL     OW14104   1.776   6.221   3.089
 4402SOL    HW114105   1.734   6.246   3.002
 4402SOL    HW214106   1.755   6.126   3.110
 4403SOL     OW14107   0.131   0.088   3.322
 4403SOL    HW114108   0.200   0.158   3.340
 4403SOL    HW214109   0.064   0.123   3.257
 4404SOL     OW14110   1.418   3.666   5.288
 4404SOL    HW114111   1.461   3.727   5.354
 4404SOL    HW214112   1.415   3.573   5.326
 4405SOL     OW14113   3.213   4.695   6.916
 4405SOL    HW114114   3.226   4.677   7.013
 4405SOL    HW214115   3.280   4.763   6.885
 4406SOL     OW14116   5.183   4.637   1.106
 4406SOL    HW114117   5.257   4.581   1.069
 4406SOL    HW214118   5.183   4.631   1.206
 4407SOL     OW14119   0.322   5.209   1.143
 4407SOL    HW114120   0.286   5.226   1.235
 4407SOL    HW214121   0.335   5.296   1.096
 4408SOL     OW14122   4.833   1.021   0.353
 4408SOL    HW114123   4.845   0.953   0.281
 4408SOL    HW214124   4.819   0.975   0.440
 4409SOL     OW14125   3.784   0.953   1.668
 4409SOL    HW114126   3.783   0.989   1.574
 4409SOL    HW214127   3.829   0.863   1.668
 4410SOL     OW14128   2.146   4.613   0.059
 4410SOL    HW114129   2.190   4.524   0.070
 4410SOL    HW214130   2.095   4.636   0.141
 4411SOL     OW14131   4.135   3.591   3.364
 4411SOL    HW114132   4.217   3.645   3.346
 4411SOL    HW214133   4.137   3.557   3.458
 4412SOL     OW14134   3.524   1.786   4.531
 4412SOL    HW114135   3.550   1.879   4.557
 4412SOL    HW214136   3.425   1.782   4.516
 4413SOL     OW14137   4.776   5.711   4.891
 4413SOL    HW114138   4.708   5.650   4.931
 4413SOL    HW214139   4.815   5.770   4.962
 4414SOL     OW14140   4.513   4.817   2.108
 4414SOL    HW114141   4.557   4.901   2.077
 4414SOL    HW214142   4.580   4.743   2.108
 4415SOL     OW14143   4.180   3.538   6.775
 4415SOL    HW114144   4.113   3.600   6.816
 4415SOL    HW214145   4.174   3.546   6.675
 4416SOL     OW14146   2.674   1.331   4.264
 4416SOL    HW114147   2.620   1.291   4.338
 4416SOL    HW214148   2.761   1.282   4.257
 4417SOL     OW14149   6.330   4.419   2.251
 4417SOL    HW114150   6.343   4.404   2.349
 4417SOL    HW214151   6.279   4.504   2.237
 4418SOL     OW14152   4.856   0.045   4.374
 4418SOL    HW114153   4.881   6.974   4.418
 4418SOL    HW214154   4.937   0.101   4.361
 4419SOL     OW14155   5.537   5.573   0.721
 4419SOL    HW114156   5.579   5.618   0.642
 4419SOL    HW214157   5.471   5.635   0.763
 4420SOL     OW14158   5.085   2.057   0.610
 4420SOL    HW114159   5.018   2.051   0.536
 4420SOL    HW214160   5.177   2.067   0.570
 4421SOL     OW14161   1.877   1.069   3.142
 4421SOL    HW114162   1.902   0.974   3.125
 4421SOL    HW214163   1.915   1.127   3.071
 4422SOL     OW14164   2.579   3.802   5.527
 4422SOL    HW114165   2.560   3.787   5.624
 4422SOL    HW214166   2.678   3.803   5.513
 4423SOL     OW14167   1.219   2.706   5.545
 4423SOL    HW114168   1.190   2.625   5.495
 4423SOL    HW214169   1.249   2.679   5.637
 4424SOL     OW14170   5.818   6.524   3.690
 4424SOL    HW114171   5.835   6.502   3.787
 4424SOL    HW214172   5.805   6.439   3.639
 4425SOL     OW14173   3.650   5.713   5.825
 4425SOL    HW114174   3.588   5.787   5.796
 4425SOL    HW214175   3.641   5.637   5.761
 4426SOL     OW14176   6.465   1.729   4.343
 4426SOL    HW114177   6.422   1.659   4.400
 4426SOL    HW214178   6.506   1.800   4.401
 4427SOL     OW14179   0.078   6.881   2.463
 4427SOL    HW114180   0.147   6.949   2.489
 4427SOL    HW214181   0.114   6.789   2.477
 4428SOL     OW14182   2.851   5.474   3.118
 4428SOL    HW114183   2.795   5.416   3.177
 4428SOL    HW214184   2.860   5.565   3.160
 4429SOL     OW14185   2.784   0.594   3.875
 4429SOL    HW114186   2.750   0.688   3.877
 4429SOL    HW214187   2.707   0.530   3.865
 4430SOL     OW14188   5.126   3.250   3.698
 4430SOL    HW114189   5.155   3.246   3.602
 4430SOL    HW214190   5.051   3.185   3.713
 4431SOL     OW14191   1.363   1.860   1.936
 4431SOL    HW114192   1.422   1.877   1.857
 4431SOL    HW214193   1.295   1.932   1.944
 4432SOL     OW14194   3.377   4.171   3.617
 4432SOL    HW114195   3.400   4.093   3.560
 4432SOL    HW214196   3.419   4.254   3.580
 4433SOL     OW14197   6.241   0.454   4.508
 4433SOL    HW114198   6.150   0.483   4.478
 4433SOL    HW214199   6.305   0.530   4.498
 4434SOL     OW14200   4.740   1.408   3.945
 4434SOL    HW114201   4.824   1.460   3.927
 4434SOL    HW214202   4.670   1.435   3.879
 4435SOL     OW14203   4.291   3.675   1.008
 4435SOL    HW114204   4.191   3.662   1.008
 4435SOL    HW214205   4.324   3.676   1.102
 4436SOL     OW14206   2.828   2.382   0.363
 4436SOL    HW114207   2.872   2.335   0.440
 4436SOL    HW214208   2.769   2.455   0.397
 4437SOL     OW14209   5.074   1.564   3.579
 4437SOL    HW114210   5.112   1.556   3.671
 4437SOL    HW214211   5.133   1.517   3.514
 4438SOL     OW14212   3.965   1.772   6.523
 4438SOL    HW114213   3.915   1.820   6.452
 4438SOL    HW214214   4.016   1.838   6.578
 4439SOL     OW14215   0.492   5.559   1.409
 4439SOL    HW114216   0.540   5.558   1.321
 4439SOL    HW214217   0.409   5.505   1.403
 4440SOL     OW14218   1.509   5.032   6.904
 4440SOL    HW114219   1.491   5.101   6.834
 4440SOL    HW214220   1.602   4.997   6.893
 4441SOL     OW14221   6.633   1.425   1.845
 4441SOL    HW114222   6.601   1.412   1.751
 4441SOL    HW214223   6.610   1.518   1.875
 4442SOL     OW14224   3.190   5.972   3.956
 4442SOL    HW114225   3.140   5.909   4.016
 4442SOL    HW214226   3.212   5.926   3.871
 4443SOL     OW14227   0.695   2.803   6.873
 4443SOL    HW114228   0.621   2.870   6.868
 4443SOL    HW214229   0.781   2.846   6.845
 4444SOL     OW14230   3.522   5.782   6.320
 4444SOL    HW114231   3.513   5.812   6.415
 4444SOL    HW214232   3.524   5.682   6.318
 4445SOL     OW14233   6.959   0.148   0.632
 4445SOL    HW114234   6.999   0.056   0.633
 4445SOL    HW214235   6.884   0.150   0.566
 4446SOL     OW14236   5.454   1.347   1.433
 4446SOL    HW114237   5.403   1.384   1.355
 4446SOL    HW214238   5.552   1.354   1.416
 4447SOL     OW14239   5.497   3.702   6.064
 4447SOL    HW114240   5.468   3.742   6.150
 4447SOL    HW214241   5.501   3.774   5.994
 4448SOL     OW14242   3.202   3.648   0.794
 4448SOL    HW114243   3.264   3.579   0.757
 4448SOL    HW214244   3.248   3.737   0.794
 4449SOL     OW14245   4.588   0.370   6.182
 4449SOL    HW114246   4.502   0.420   6.195
 4449SOL    HW214247   4.580   0.311   6.102
 4450SOL     OW14248   3.668   2.915   4.054
 4450SOL    HW114249   3.753   2.958   4.085
 4450SOL    HW214250   3.665   2.916   3.954
 4451SOL     OW14251   5.750   3.939   2.952
 4451SOL    HW114252   5.676   3.873   2.940
 4451SOL    HW214253   5.712   4.026   2.983
 4452SOL     OW14254   5.614   6.392   5.092
 4452SOL    HW114255   5.530   6.439   5.119
 4452SOL    HW214256   5.596   6.334   5.013
 4453SOL     OW14257   6.763   2.753   0.263
 4453SOL    HW114258   6.705   2.708   0.330
 4453SOL    HW214259   6.852   2.708   0.260
 4454SOL     OW14260   5.030   2.598   0.433
 4454SOL    HW114261   4.976   2.570   0.354
 4454SOL    HW214262   5.068   2.689   0.417
 4455SOL     OW14263   3.245   0.201   6.773
 4455SOL    HW114264   3.275   0.225   6.681
 4455SOL    HW214265   3.301   0.249   6.840
 4456SOL     OW14266   2.294   4.961   2.567
 4456SOL    HW114267   2.216   4.967   2.505
 4456SOL    HW214268   2.302   5.048   2.617
 4457SOL     OW14269   4.332   2.303   0.121
 4457SOL    HW114270   4.406   2.325   0.059
 4457SOL    HW214271   4.367   2.245   0.195
 4458SOL     OW14272   1.323   3.801   6.855
 4458SOL    HW114273   1.248   3.737   6.870
 4458SOL    HW214274   1.314   3.878   6.918
 4459SOL     OW14275   5.501   0.118   3.420
 4459SOL    HW114276   5.593   0.105   3.385
 4459SOL    HW214277   5.504   0.164   3.509
 4460SOL     OW14278   2.694   2.820   5.637
 4460SOL    HW114279   2.759   2.895   5.654
 4460SOL    HW214280   2.679   2.811   5.539
 4461SOL     OW14281   1.197   0.500   2.570
 4461SOL    HW114282   1.213   0.598   2.581
 4461SOL    HW214283   1.121   0.486   2.506
 4462SOL     OW14284   6.919   3.581   1.176
 4462SOL    HW114285   6.995   3.641   1.151
 4462SOL    HW214286   6.837   3.637   1.192
 4463SOL     OW14287   2.674   2.821   6.863
 4463SOL    HW114288   2.659   2.742   6.923
 4463SOL    HW214289   2.659   2.794   6.768
 4464SOL     OW14290   6.118   5.254   6.944
 4464SOL    HW114291   6.175   5.334   6.926
 4464SOL    HW214292   6.022   5.282   6.950
 4465SOL     OW14293   2.459   6.202   3.342
 4465SOL    HW114294   2.407   6.271   3.393
 4465SOL    HW214295   2.422   6.194   3.250
 4466SOL     OW14296   1.673   0.329   2.452
 4466SOL    HW114297   1.724   0.398   2.401
 4466SOL    HW214298   1.606   0.373   2.512
 4467SOL     OW14299   0.909   6.030   3.581
 4467SOL    HW114300   0.994   6.079   3.559
 4467SOL    HW214301   0.931   5.950   3.637
 4468SOL     OW14302   0.834   1.923   6.804
 4468SOL    HW114303   0.883   2.007   6.825
 4468SOL    HW214304   0.811   1.922   6.706
 4469SOL     OW14305   3.383   0.370   1.081
 4469SOL    HW114306   3.354   0.348   0.988
 4469SOL    HW214307   3.427   0.460   1.082
 4470SOL     OW14308   6.027   3.652   1.226
 4470SOL    HW114309   6.001   3.686   1.317
 4470SOL    HW214310   6.030   3.552   1.228
 4471SOL     OW14311   0.599   2.477   0.343
 4471SOL    HW114312   0.633   2.492   0.250
 4471SOL    HW214313   0.500   2.470   0.341
 4472SOL     OW14314   1.797   3.182   4.105
 4472SOL    HW114315   1.846   3.178   4.192
 4472SOL    HW214316   1.863   3.179   4.030
 4473SOL     OW14317   6.814   1.938   3.993
 4473SOL    HW114318   6.901   1.986   3.990
 4473SOL    HW214319   6.817   1.858   3.934
 4474SOL     OW14320   2.851   1.313   2.007
 4474SOL    HW114321   2.899   1.226   2.004
 4474SOL    HW214322   2.906   1.383   1.961
 4475SOL     OW14323   1.781   4.112   2.564
 4475SOL    HW114324   1.757   4.159   2.479
 4475SOL    HW214325   1.700   4.107   2.622
 4476SOL     OW14326   5.171   6.398   4.184
 4476SOL    HW114327   5.106   6.434   4.117
 4476SOL    HW214328   5.230   6.472   4.216
 4477SOL     OW14329   1.765   7.000   6.044
 4477SOL    HW114330   1.695   6.928   6.041
 4477SOL    HW214331   1.816   6.993   6.130
 4478SOL     OW14332   3.048   6.058   2.651
 4478SOL    HW114333   3.050   6.015   2.741
 4478SOL    HW214334   3.041   6.157   2.662
 4479SOL     OW14335   0.689   0.840   0.794
 4479SOL    HW114336   0.603   0.790   0.791
 4479SOL    HW214337   0.738   0.818   0.877
 4480SOL     OW14338   2.106   3.752   4.851
 4480SOL    HW114339   2.129   3.742   4.948
 4480SOL    HW214340   2.035   3.821   4.841
 4481SOL     OW14341   2.905   6.929   4.958
 4481SOL    HW114342   2.884   6.864   5.031
 4481SOL    HW214343   2.991   6.976   4.980
 4482SOL     OW14344   0.754   3.947   4.386
 4482SOL    HW114345   0.711   4.029   4.347
 4482SOL    HW214346   0.754   3.874   4.317
 4483SOL     OW14347   6.042   3.363   1.253
 4483SOL    HW114348   5.962   3.311   1.282
 4483SOL    HW214349   6.120   3.300   1.242
 4484SOL     OW14350   3.060   2.070   5.158
 4484SOL    HW114351   3.002   2.090   5.237
 4484SOL    HW214352   3.104   2.154   5.127
 4485SOL     OW14353   5.182   2.351   5.990
 4485SOL    HW114354   5.159   2.447   6.006
 4485SOL    HW214355   5.212   2.340   5.895
 4486SOL     OW14356   5.879   3.621   4.570
 4486SOL    HW114357   5.847   3.676   4.494
 4486SOL    HW214358   5.801   3.579   4.616
 4487SOL     OW14359   2.525   3.039   6.620
 4487SOL    HW114360   2.589   3.112   6.644
 4487SOL    HW214361   2.446   3.079   6.573
 4488SOL     OW14362   5.690   2.816   5.503
 4488SOL    HW114363   5.684   2.816   5.602
 4488SOL    HW214364   5.737   2.733   5.472
 4489SOL     OW14365   5.059   6.216   4.362
 4489SOL    HW114366   5.119   6.194   4.439
 4489SOL    HW214367   5.103   6.284   4.304
 4490SOL     OW14368   5.767   2.376   2.026
 4490SOL    HW114369   5.731   2.419   1.944
 4490SOL    HW214370   5.734   2.282   2.031
 4491SOL     OW14371   0.567   2.780   3.622
 4491SOL    HW114372   0.575   2.820   3.531
 4491SOL    HW214373   0.625   2.698   3.628
 4492SOL     OW14374   5.475   3.971   0.825
 4492SOL    HW114375   5.550   3.905   0.819
 4492SOL    HW214376   5.469   4.005   0.919
 4493SOL     OW14377   4.554   5.496   5.722
 4493SOL    HW114378   4.479   5.433   5.702
 4493SOL    HW214379   4.608   5.512   5.639
 4494SOL     OW14380   0.226   1.818   6.230
 4494SOL    HW114381   0.314   1.865   6.223
 4494SOL    HW214382   0.153   1.880   6.201
 4495SOL     OW14383   5.020   6.474   3.469
 4495SOL    HW114384   4.931   6.464   3.512
 4495SOL    HW214385   5.083   6.519   3.533
 4496SOL     OW14386   4.921   5.700   0.661
 4496SOL    HW114387   4.986   5.643   0.611
 4496SOL    HW214388   4.830   5.689   0.621
 4497SOL     OW14389   4.756   0.268   0.069
 4497SOL    HW114390   4.752   0.257   0.168
 4497SOL    HW214391   4.664   0.258   0.030
 4498SOL     OW14392   0.568   3.106   5.927
 4498SOL    HW114393   0.615   3.193   5.942
 4498SOL    HW214394   0.480   3.123   5.883
 4499SOL     OW14395   6.887   3.663   4.354
 4499SOL    HW114396   6.814   3.673   4.287
 4499SOL    HW214397   6.905   3.566   4.369
 4500SOL     OW14398   3.237   3.427   3.978
 4500SOL    HW114399   3.218   3.399   4.071
 4500SOL    HW214400   3.273   3.350   3.926
 4501SOL     OW14401   0.105   3.338   6.054
 4501SOL    HW114402   0.118   3.239   6.056
 4501SOL    HW214403   0.157   3.377   5.978
 4502SOL     OW14404   1.911   2.373   6.572
 4502SOL    HW114405   1.965   2.387   6.489
 4502SOL    HW214406   1.950   2.426   6.647
 4503SOL     OW14407   2.834   0.350   2.726
 4503SOL    HW114408   2.875   0.439   2.709
 4503SOL    HW214409   2.872   0.283   2.662
 4504SOL     OW14410   6.270   1.985   5.122
 4504SOL    HW114411   6.293   1.996   5.219
 4504SOL    HW214412   6.352   1.962   5.070
 4505SOL     OW14413   6.569   5.613   3.852
 4505SOL    HW114414   6.562   5.514   3.843
 4505SOL    HW214415   6.505   5.646   3.921
 4506SOL     OW14416   4.955   2.755   4.579
 4506SOL    HW114417   5.010   2.822   4.628
 4506SOL    HW214418   4.866   2.745   4.624
 4507SOL     OW14419   4.950   4.084   1.423
 4507SOL    HW114420   4.855   4.062   1.402
 4507SOL    HW214421   4.991   4.011   1.477
 4508SOL     OW14422   0.650   5.086   6.229
 4508SOL    HW114423   0.699   5.005   6.197
 4508SOL    HW214424   0.552   5.069   6.225
 4509SOL     OW14425   5.392   2.747   3.757
 4509SOL    HW114426   5.386   2.737   3.856
 4509SOL    HW214427   5.478   2.792   3.733
 4510SOL     OW14428   5.529   6.511   5.524
 4510SOL    HW114429   5.572   6.422   5.511
 4510SOL    HW214430   5.578   6.580   5.471
 4511SOL     OW14431   7.014   3.239   6.549
 4511SOL    HW114432   0.032   3.323   6.507
 4511SOL    HW214433   0.066   3.166   6.538
 4512SOL     OW14434   2.221   6.409   6.357
 4512SOL    HW114435   2.136   6.453   6.329
 4512SOL    HW214436   2.209   6.310   6.361
 4513SOL     OW14437   5.083   6.604   0.421
 4513SOL    HW114438   5.077   6.504   0.432
 4513SOL    HW214439   5.052   6.648   0.505
 4514SOL     OW14440   4.647   1.015   4.757
 4514SOL    HW114441   4.649   0.937   4.820
 4514SOL    HW214442   4.683   0.986   4.668
 4515SOL     OW14443   6.951   4.111   5.818
 4515SOL    HW114444   6.974   4.015   5.836
 4515SOL    HW214445   6.900   4.148   5.896
 4516SOL     OW14446   1.548   1.135   6.058
 4516SOL    HW114447   1.484   1.173   6.125
 4516SOL    HW214448   1.540   1.035   6.058
 4517SOL     OW14449   2.201   0.393   6.774
 4517SOL    HW114450   2.110   0.361   6.801
 4517SOL    HW214451   2.249   0.428   6.854
 4518SOL     OW14452   6.786   1.391   3.402
 4518SOL    HW114453   6.780   1.476   3.455
 4518SOL    HW214454   6.767   1.411   3.306
 4519SOL     OW14455   5.807   0.519   1.618
 4519SOL    HW114456   5.767   0.599   1.574
 4519SOL    HW214457   5.764   0.436   1.582
 4520SOL     OW14458   5.321   5.563   3.385
 4520SOL    HW114459   5.326   5.464   3.372
 4520SOL    HW214460   5.226   5.590   3.404
 4521SOL     OW14461   4.723   2.206   4.803
 4521SOL    HW114462   4.804   2.263   4.815
 4521SOL    HW214463   4.748   2.121   4.756
 4522SOL     OW14464   5.262   0.181   3.779
 4522SOL    HW114465   5.211   0.111   3.729
 4522SOL    HW214466   5.328   0.224   3.717
 4523SOL     OW14467   0.966   4.490   0.003
 4523SOL    HW114468   0.977   4.443   0.090
 4523SOL    HW214469   1.054   4.526   6.988
 4524SOL     OW14470   5.427   2.638   5.023
 4524SOL    HW114471   5.489   2.707   5.062
 4524SOL    HW214472   5.460   2.547   5.048
 4525SOL     OW14473   6.417   1.589   3.488
 4525SOL    HW114474   6.370   1.613   3.573
 4525SOL    HW214475   6.386   1.499   3.457
 4526SOL     OW14476   4.859   0.896   0.604
 4526SOL    HW114477   4.773   0.846   0.609
 4526SOL    HW214478   4.934   0.832   0.591
 4527SOL     OW14479   4.140   1.213   4.170
 4527SOL    HW114480   4.164   1.278   4.242
 4527SOL    HW214481   4.215   1.207   4.104
 4528SOL     OW14482   5.091   6.670   0.083
 4528SOL    HW114483   4.996   6.698   0.077
 4528SOL    HW214484   5.096   6.573   0.110
 4529SOL     OW14485   3.412   1.450   3.699
 4529SOL    HW114486   3.428   1.367   3.645
 4529SOL    HW214487   3.434   1.432   3.795
 4530SOL     OW14488   6.824   3.533   5.502
 4530SOL    HW114489   6.841   3.552   5.406
 4530SOL    HW214490   6.894   3.471   5.537
 4531SOL     OW14491   0.316   3.251   3.435
 4531SOL    HW114492   0.359   3.212   3.354
 4531SOL    HW214493   0.356   3.209   3.517
 4532SOL     OW14494   0.486   1.363   2.059
 4532SOL    HW114495   0.480   1.459   2.087
 4532SOL    HW214496   0.427   1.308   2.118
 4533SOL     OW14497   1.295   0.244   3.000
 4533SOL    HW114498   1.199   0.238   2.974
 4533SOL    HW214499   1.347   0.172   2.953
 4534SOL     OW14500   5.954   3.495   4.075
 4534SOL    HW114501   5.894   3.421   4.045
 4534SOL    HW214502   6.048   3.475   4.048
 4535SOL     OW14503   4.626   2.076   2.839
 4535SOL    HW114504   4.561   2.094   2.913
 4535SOL    HW214505   4.621   1.979   2.815
 4536SOL     OW14506   4.229   2.189   4.351
 4536SOL    HW114507   4.149   2.130   4.351
 4536SOL    HW214508   4.248   2.221   4.258
 4537SOL     OW14509   3.706   3.279   5.773
 4537SOL    HW114510   3.700   3.231   5.686
 4537SOL    HW214511   3.667   3.222   5.845
 4538SOL     OW14512   2.616   1.504   3.993
 4538SOL    HW114513   2.591   1.447   4.071
 4538SOL    HW214514   2.714   1.525   3.997
 4539SOL     OW14515   2.370   1.462   4.273
 4539SOL    HW114516   2.314   1.477   4.192
 4539SOL    HW214517   2.365   1.366   4.300
 4540SOL     OW14518   3.126   2.994   4.053
 4540SOL    HW114519   3.096   3.053   3.978
 4540SOL    HW214520   3.193   2.928   4.019
 4541SOL     OW14521   5.687   1.278   6.984
 4541SOL    HW114522   5.621   1.217   0.015
 4541SOL    HW214523   5.756   1.222   6.939
 4542SOL     OW14524   5.786   6.865   1.944
 4542SOL    HW114525   5.723   6.826   1.877
 4542SOL    HW214526   5.814   6.957   1.914
 4543SOL     OW14527   4.737   2.306   0.262
 4543SOL    HW114528   4.785   2.391   0.239
 4543SOL    HW214529   4.716   2.305   0.360
 4544SOL     OW14530   2.903   6.578   5.548
 4544SOL    HW114531   2.973   6.509   5.527
 4544SOL    HW214532   2.814   6.545   5.519
 4545SOL     OW14533   5.269   2.353   4.786
 4545SOL    HW114534   5.267   2.267   4.734
 4545SOL    HW214535   5.267   2.332   4.884
 4546SOL     OW14536   1.238   0.485   6.431
 4546SOL    HW114537   1.316   0.540   6.461
 4546SOL    HW214538   1.171   0.543   6.386
 4547SOL     OW14539   6.613   2.669   3.046
 4547SOL    HW114540   6.515   2.662   3.029
 4547SOL    HW214541   6.644   2.761   3.019
 4548SOL     OW14542   1.108   4.729   4.714
 4548SOL    HW114543   1.141   4.643   4.675
 4548SOL    HW214544   1.113   4.725   4.814
 4549SOL     OW14545   6.171   3.504   2.399
 4549SOL    HW114546   6.245   3.451   2.358
 4549SOL    HW214547   6.208   3.588   2.438
 4550SOL     OW14548   0.740   6.154   2.948
 4550SOL    HW114549   0.752   6.055   2.946
 4550SOL    HW214550   0.651   6.175   2.989
 4551SOL     OW14551   0.346   2.228   5.219
 4551SOL    HW114552   0.331   2.326   5.227
 4551SOL    HW214553   0.443   2.207   5.227
 4552SOL     OW14554   6.881   2.490   6.211
 4552SOL    HW114555   6.793   2.496   6.258
 4552SOL    HW214556   6.911   2.582   6.184
 4553SOL     OW14557   3.689   4.231   0.544
 4553SOL    HW114558   3.689   4.328   0.571
 4553SOL    HW214559   3.783   4.201   0.528
 4554SOL     OW14560   4.193   0.958   1.608
 4554SOL    HW114561   4.122   1.028   1.613
 4554SOL    HW214562   4.173   0.885   1.674
 4555SOL     OW14563   3.413   2.062   5.927
 4555SOL    HW114564   3.488   2.079   5.991
 4555SOL    HW214565   3.394   1.964   5.925
 4556SOL     OW14566   4.647   2.266   3.430
 4556SOL    HW114567   4.686   2.348   3.472
 4556SOL    HW214568   4.699   2.186   3.459
 4557SOL     OW14569   5.324   6.786   5.296
 4557SOL    HW114570   5.232   6.757   5.321
 4557SOL    HW214571   5.376   6.807   5.379
 4558SOL     OW14572   6.617   3.898   5.839
 4558SOL    HW114573   6.571   3.973   5.791
 4558SOL    HW214574   6.629   3.821   5.777
 4559SOL     OW14575   1.469   5.335   1.187
 4559SOL    HW114576   1.533   5.398   1.231
 4559SOL    HW214577   1.463   5.251   1.240
 4560SOL     OW14578   5.622   4.516   3.583
 4560SOL    HW114579   5.625   4.592   3.518
 4560SOL    HW214580   5.675   4.540   3.664
 4561SOL     OW14581   3.143   0.976   1.218
 4561SOL    HW114582   3.129   0.880   1.192
 4561SOL    HW214583   3.219   0.983   1.282
 4562SOL     OW14584   3.082   5.766   4.732
 4562SOL    HW114585   3.089   5.666   4.734
 4562SOL    HW214586   3.020   5.797   4.804
 4563SOL     OW14587   6.558   3.815   6.826
 4563SOL    HW114588   6.481   3.829   6.764
 4563SOL    HW214589   6.637   3.868   6.793
 4564SOL     OW14590   0.737   6.310   0.815
 4564SOL    HW114591   0.706   6.402   0.839
 4564SOL    HW214592   0.738   6.253   0.897
 4565SOL     OW14593   6.990   1.551   5.607
 4565SOL    HW114594   7.014   1.587   5.517
 4565SOL    HW214595   7.002   1.452   5.608
 4566SOL     OW14596   6.687   0.948   0.891
 4566SOL    HW114597   6.757   0.974   0.825
 4566SOL    HW214598   6.647   1.031   0.931
 4567SOL     OW14599   0.740   0.772   0.082
 4567SOL    HW114600   0.769   0.695   0.138
 4567SOL    HW214601   0.818   0.832   0.065
 4568SOL     OW14602   1.695   4.516   5.429
 4568SOL    HW114603   1.635   4.456   5.376
 4568SOL    HW214604   1.646   4.600   5.452
 4569SOL     OW14605   1.936   1.510   3.046
 4569SOL    HW114606   1.839   1.517   3.024
 4569SOL    HW214607   1.977   1.434   2.996
 4570SOL     OW14608   0.226   5.126   3.032
 4570SOL    HW114609   0.208   5.126   3.130
 4570SOL    HW214610   0.141   5.107   2.983
 4571SOL     OW14611   3.781   3.484   5.306
 4571SOL    HW114612   3.739   3.399   5.273
 4571SOL    HW214613   3.740   3.507   5.395
 4572SOL     OW14614   0.908   6.154   5.942
 4572SOL    HW114615   0.810   6.155   5.961
 4572SOL    HW214616   0.959   6.166   6.028
 4573SOL     OW14617   6.264   6.072   0.388
 4573SOL    HW114618   6.322   6.048   0.466
 4573SOL    HW214619   6.169   6.082   0.419
 4574SOL     OW14620   6.760   4.133   0.800
 4574SOL    HW114621   6.689   4.109   0.866
 4574SOL    HW214622   6.820   4.204   0.838
 4575SOL     OW14623   6.585   1.757   6.688
 4575SOL    HW114624   6.603   1.837   6.629
 4575SOL    HW214625   6.610   1.674   6.639
 4576SOL     OW14626   2.487   6.397   6.727
 4576SOL    HW114627   2.569   6.455   6.728
 4576SOL    HW214628   2.436   6.414   6.642
 4577SOL     OW14629   0.201   2.888   3.201
 4577SOL    HW114630   0.190   2.791   3.222
 4577SOL    HW214631   0.219   2.939   3.285
 4578SOL     OW14632   0.495   3.489   3.741
 4578SOL    HW114633   0.542   3.404   3.765
 4578SOL    HW214634   0.404   3.489   3.782
 4579SOL     OW14635   5.296   1.442   2.960
 4579SOL    HW114636   5.386   1.452   3.002
 4579SOL    HW214637   5.304   1.458   2.862
 4580SOL     OW14638   5.757   5.623   0.148
 4580SOL    HW114639   5.837   5.568   0.128
 4580SOL    HW214640   5.693   5.618   0.072
 4581SOL     OW14641   3.227   5.239   3.118
 4581SOL    HW114642   3.258   5.334   3.123
 4581SOL    HW214643   3.237   5.206   3.024
 4582SOL     OW14644   5.976   6.826   4.713
 4582SOL    HW114645   6.043   6.797   4.781
 4582SOL    HW214646   5.885   6.793   4.738
 4583SOL     OW14647   2.449   1.291   4.832
 4583SOL    HW114648   2.475   1.388   4.832
 4583SOL    HW214649   2.381   1.275   4.904
 4584SOL     OW14650   0.601   5.440   5.341
 4584SOL    HW114651   0.516   5.422   5.290
 4584SOL    HW214652   0.593   5.527   5.389
 4585SOL     OW14653   2.873   6.932   3.194
 4585SOL    HW114654   2.879   6.856   3.258
 4585SOL    HW214655   2.942   6.921   3.123
 4586SOL     OW14656   3.538   5.188   0.552
 4586SOL    HW114657   3.538   5.232   0.462
 4586SOL    HW214658   3.444   5.161   0.575
 4587SOL     OW14659   4.434   3.278   1.715
 4587SOL    HW114660   4.488   3.199   1.744
 4587SOL    HW214661   4.337   3.258   1.727
 4588SOL     OW14662   3.679   3.896   5.219
 4588SOL    HW114663   3.640   3.838   5.291
 4588SOL    HW214664   3.774   3.917   5.241
 4589SOL     OW14665   6.048   1.698   2.298
 4589SOL    HW114666   6.106   1.628   2.340
 4589SOL    HW214667   6.047   1.685   2.199
 4590SOL     OW14668   4.108   6.326   2.208
 4590SOL    HW114669   4.030   6.387   2.218
 4590SOL    HW214670   4.079   6.242   2.162
 4591SOL     OW14671   0.615   6.005   5.174
 4591SOL    HW114672   0.637   6.088   5.123
 4591SOL    HW214673   0.693   5.980   5.232
 4592SOL     OW14674   3.981   2.473   1.617
 4592SOL    HW114675   4.073   2.497   1.587
 4592SOL    HW214676   3.926   2.556   1.626
 4593SOL     OW14677   4.426   5.728   4.049
 4593SOL    HW114678   4.518   5.690   4.053
 4593SOL    HW214679   4.367   5.668   3.994
 4594SOL     OW14680   3.462   2.320   1.149
 4594SOL    HW114681   3.504   2.234   1.122
 4594SOL    HW214682   3.467   2.330   1.249
 4595SOL     OW14683   3.491   2.906   5.546
 4595SOL    HW114684   3.537   2.994   5.553
 4595SOL    HW214685   3.532   2.852   5.472
 4596SOL     OW14686   6.236   6.647   2.355
 4596SOL    HW114687   6.265   6.573   2.295
 4596SOL    HW214688   6.272   6.734   2.321
 4597SOL     OW14689   4.778   4.373   6.895
 4597SOL    HW114690   4.775   4.465   6.855
 4597SOL    HW214691   4.732   4.309   6.834
 4598SOL     OW14692   1.650   5.349   6.874
 4598SOL    HW114693   1.736   5.335   6.825
 4598SOL    HW214694   1.575   5.309   6.822
 4599SOL     OW14695   1.808   4.557   0.861
 4599SOL    HW114696   1.879   4.591   0.923
 4599SOL    HW214697   1.849   4.530   0.774
 4600SOL     OW14698   2.139   5.971   5.850
 4600SOL    HW114699   2.093   6.044   5.800
 4600SOL    HW214700   2.119   5.883   5.806
 4601SOL     OW14701   1.501   0.585   5.260
 4601SOL    HW114702   1.412   0.579   5.216
 4601SOL    HW214703   1.505   0.667   5.318
 4602SOL     OW14704   1.110   5.718   0.362
 4602SOL    HW114705   1.066   5.759   0.442
 4602SOL    HW214706   1.079   5.624   0.352
 4603SOL     OW14707   3.991   6.875   1.242
 4603SOL    HW114708   3.961   6.945   1.306
 4603SOL    HW214709   3.911   6.821   1.212
 4604SOL     OW14710   4.988   0.779   1.537
 4604SOL    HW114711   5.073   0.781   1.485
 4604SOL    HW214712   4.973   0.869   1.580
 4605SOL     OW14713   5.075   0.916   2.834
 4605SOL    HW114714   5.042   0.986   2.897
 4605SOL    HW214715   5.032   0.929   2.745
 4606SOL     OW14716   6.926   0.169   2.043
 4606SOL    HW114717   6.939   0.222   2.127
 4606SOL    HW214718   6.843   0.113   2.052
 4607SOL     OW14719   2.589   3.041   0.567
 4607SOL    HW114720   2.682   3.060   0.533
 4607SOL    HW214721   2.590   3.041   0.667
 4608SOL     OW14722   1.489   5.343   3.788
 4608SOL    HW114723   1.435   5.320   3.868
 4608SOL    HW214724   1.433   5.394   3.723
 4609SOL     OW14725   4.036   5.589   5.712
 4609SOL    HW114726   3.982   5.528   5.654
 4609SOL    HW214727   3.992   5.598   5.801
 4610SOL     OW14728   6.568   2.693   0.457
 4610SOL    HW114729   6.576   2.656   0.550
 4610SOL    HW214730   6.574   2.792   0.460
 4611SOL     OW14731   5.988   5.499   6.144
 4611SOL    HW114732   6.033   5.580   6.106
 4611SOL    HW214733   5.956   5.441   6.069
 4612SOL     OW14734   1.112   6.548   0.703
 4612SOL    HW114735   1.100   6.455   0.669
 4612SOL    HW214736   1.172   6.599   0.640
 4613SOL     OW14737   2.605   5.389   2.556
 4613SOL    HW114738   2.614   5.334   2.639
 4613SOL    HW214739   2.571   5.331   2.481
 4614SOL     OW14740   1.130   4.208   5.452
 4614SOL    HW114741   1.131   4.126   5.509
 4614SOL    HW214742   1.138   4.289   5.511
 4615SOL     OW14743   2.123   0.617   0.239
 4615SOL    HW114744   2.063   0.634   0.161
 4615SOL    HW214745   2.214   0.656   0.221
 4616SOL     OW14746   6.389   0.208   6.108
 4616SOL    HW114747   6.307   0.263   6.100
 4616SOL    HW214748   6.463   0.249   6.054
 4617SOL     OW14749   1.343   2.369   2.463
 4617SOL    HW114750   1.343   2.465   2.493
 4617SOL    HW214751   1.420   2.321   2.505
 4618SOL     OW14752   2.063   2.136   5.453
 4618SOL    HW114753   2.131   2.197   5.414
 4618SOL    HW214754   2.076   2.131   5.552
 4619SOL     OW14755   3.995   6.224   3.551
 4619SOL    HW114756   3.974   6.288   3.625
 4619SOL    HW214757   4.064   6.264   3.491
 4620SOL     OW14758   3.288   4.219   6.701
 4620SOL    HW114759   3.335   4.133   6.681
 4620SOL    HW214760   3.216   4.234   6.633
 4621SOL     OW14761   5.634   1.711   3.545
 4621SOL    HW114762   5.668   1.632   3.494
 4621SOL    HW214763   5.566   1.760   3.490
 4622SOL     OW14764   0.548   3.157   0.910
 4622SOL    HW114765   0.584   3.238   0.863
 4622SOL    HW214766   0.539   3.176   1.008
 4623SOL     OW14767   0.197   5.547   1.027
 4623SOL    HW114768   0.175   5.594   1.113
 4623SOL    HW214769   0.201   5.613   0.953
 4624SOL     OW14770   5.000   6.710   2.979
 4624SOL    HW114771   5.042   6.637   3.034
 4624SOL    HW214772   4.929   6.756   3.033
 4625SOL     OW14773   1.957   4.655   6.744
 4625SOL    HW114774   1.917   4.721   6.808
 4625SOL    HW214775   1.947   4.563   6.780
 4626SOL     OW14776   5.928   5.403   1.464
 4626SOL    HW114777   5.997   5.331   1.465
 4626SOL    HW214778   5.837   5.361   1.468
 4627SOL     OW14779   3.786   6.045   4.324
 4627SOL    HW114780   3.783   6.080   4.418
 4627SOL    HW214781   3.879   6.017   4.302
 4628SOL     OW14782   5.932   4.123   3.452
 4628SOL    HW114783   5.892   4.163   3.534
 4628SOL    HW214784   5.925   4.188   3.376
 4629SOL     OW14785   2.201   5.070   5.650
 4629SOL    HW114786   2.143   5.036   5.724
 4629SOL    HW214787   2.259   4.996   5.617
 4630SOL     OW14788   3.493   5.738   3.097
 4630SOL    HW114789   3.586   5.773   3.084
 4630SOL    HW214790   3.429   5.814   3.103
 4631SOL     OW14791   2.575   6.845   3.469
 4631SOL    HW114792   2.668   6.840   3.432
 4631SOL    HW214793   2.566   6.927   3.526
 4632SOL     OW14794   4.662   4.394   3.033
 4632SOL    HW114795   4.711   4.308   3.052
 4632SOL    HW214796   4.638   4.397   2.936
 4633SOL     OW14797   5.984   1.781   3.589
 4633SOL    HW114798   5.893   1.819   3.605
 4633SOL    HW214799   6.020   1.743   3.675
 4634SOL     OW14800   2.279   4.464   6.517
 4634SOL    HW114801   2.272   4.385   6.578
 4634SOL    HW214802   2.273   4.433   6.422
 4635SOL     OW14803   6.148   3.211   1.988
 4635SOL    HW114804   6.077   3.267   2.031
 4635SOL    HW214805   6.134   3.210   1.889
 4636SOL     OW14806   1.968   5.247   0.021
 4636SOL    HW114807   1.894   5.218   0.082
 4636SOL    HW214808   2.055   5.217   0.058
 4637SOL     OW14809   2.107   0.958   0.462
 4637SOL    HW114810   2.183   0.952   0.526
 4637SOL    HW214811   2.143   0.961   0.368
 4638SOL     OW14812   3.523   3.064   6.222
 4638SOL    HW114813   3.456   3.001   6.183
 4638SOL    HW214814   3.500   3.080   6.318
 4639SOL     OW14815   1.966   4.786   5.174
 4639SOL    HW114816   2.054   4.738   5.174
 4639SOL    HW214817   1.894   4.724   5.142
 4640SOL     OW14818   5.010   5.285   3.471
 4640SOL    HW114819   5.081   5.237   3.420
 4640SOL    HW214820   4.985   5.369   3.424
 4641SOL     OW14821   2.768   5.969   3.974
 4641SOL    HW114822   2.867   5.980   3.970
 4641SOL    HW214823   2.728   6.038   4.034
 4642SOL     OW14824   0.935   6.576   5.690
 4642SOL    HW114825   0.916   6.539   5.600
 4642SOL    HW214826   0.866   6.645   5.714
 4643SOL     OW14827   5.657   2.428   0.908
 4643SOL    HW114828   5.606   2.354   0.951
 4643SOL    HW214829   5.690   2.398   0.818
 4644SOL     OW14830   1.319   4.867   4.579
 4644SOL    HW114831   1.310   4.962   4.550
 4644SOL    HW214832   1.235   4.837   4.623
 4645SOL     OW14833   1.428   0.285   4.501
 4645SOL    HW114834   1.416   0.220   4.576
 4645SOL    HW214835   1.522   0.281   4.468
 4646SOL     OW14836   2.714   6.641   3.104
 4646SOL    HW114837   2.748   6.698   3.178
 4646SOL    HW214838   2.629   6.596   3.132
 4647SOL     OW14839   0.869   6.465   3.069
 4647SOL    HW114840   0.896   6.556   3.101
 4647SOL    HW214841   0.770   6.464   3.052
 4648SOL     OW14842   4.201   0.374   1.175
 4648SOL    HW114843   4.292   0.347   1.206
 4648SOL    HW214844   4.210   0.435   1.096
 4649SOL     OW14845   4.868   6.643   6.111
 4649SOL    HW114846   4.960   6.609   6.131
 4649SOL    HW214847   4.811   6.568   6.079
 4650SOL     OW14848   4.135   5.984   3.736
 4650SOL    HW114849   4.106   5.890   3.754
 4650SOL    HW214850   4.080   6.023   3.662
 4651SOL     OW14851   6.864   1.571   0.681
 4651SOL    HW114852   6.900   1.638   0.616
 4651SOL    HW214853   6.813   1.618   0.753
 4652SOL     OW14854   0.620   0.284   4.045
 4652SOL    HW114855   0.540   0.339   4.069
 4652SOL    HW214856   0.665   0.323   3.965
 4653SOL     OW14857   6.365   5.418   6.591
 4653SOL    HW114858   6.281   5.443   6.639
 4653SOL    HW214859   6.378   5.318   6.595
 4654SOL     OW14860   0.174   0.076   0.113
 4654SOL    HW114861   0.218   7.004   0.093
 4654SOL    HW214862   0.183   0.137   0.034
 4655SOL     OW14863   6.659   5.009   1.991
 4655SOL    HW114864   6.669   5.039   1.896
 4655SOL    HW214865   6.719   4.931   2.007
 4656SOL     OW14866   1.016   6.638   3.628
 4656SOL    HW114867   0.962   6.559   3.598
 4656SOL    HW214868   1.038   6.695   3.549
 4657SOL     OW14869   4.836   6.981   1.607
 4657SOL    HW114870   4.757   6.954   1.553
 4657SOL    HW214871   4.833   0.064   1.622
 4658SOL     OW14872   3.743   1.168   2.259
 4658SOL    HW114873   3.703   1.133   2.344
 4658SOL    HW214874   3.814   1.234   2.281
 4659SOL     OW14875   2.492   3.683   5.781
 4659SOL    HW114876   2.422   3.707   5.848
 4659SOL    HW214877   2.581   3.715   5.813
 4660SOL     OW14878   1.106   2.556   5.126
 4660SOL    HW114879   1.049   2.477   5.102
 4660SOL    HW214880   1.062   2.639   5.093
 4661SOL     OW14881   3.811   4.280   5.587
 4661SOL    HW114882   3.787   4.363   5.538
 4661SOL    HW214883   3.784   4.200   5.534
 4662SOL     OW14884   4.913   0.635   5.182
 4662SOL    HW114885   5.007   0.610   5.157
 4662SOL    HW214886   4.869   0.680   5.104
 4663SOL     OW14887   0.633   1.585   2.442
 4663SOL    HW114888   0.592   1.598   2.352
 4663SOL    HW214889   0.670   1.492   2.450
 4664SOL     OW14890   2.011   2.296   0.314
 4664SOL    HW114891   1.971   2.247   0.392
 4664SOL    HW214892   2.097   2.251   0.288
 4665SOL     OW14893   4.175   6.949   0.789
 4665SOL    HW114894   4.246   6.914   0.849
 4665SOL    HW214895   4.115   6.874   0.760
 4666SOL     OW14896   1.738   1.681   0.338
 4666SOL    HW114897   1.666   1.745   0.364
 4666SOL    HW214898   1.783   1.647   0.421
 4667SOL     OW14899   6.403   4.321   1.060
 4667SOL    HW114900   6.415   4.394   0.992
 4667SOL    HW214901   6.307   4.292   1.061
 4668SOL     OW14902   6.835   2.885   3.446
 4668SOL    HW114903   6.910   2.833   3.489
 4668SOL    HW214904   6.755   2.826   3.438
 4669SOL     OW14905   3.231   6.814   0.409
 4669SOL    HW114906   3.271   6.739   0.462
 4669SOL    HW214907   3.206   6.781   0.318
 4670SOL     OW14908   3.360   1.294   4.887
 4670SOL    HW114909   3.405   1.336   4.966
 4670SOL    HW214910   3.355   1.362   4.813
 4671SOL     OW14911   6.601   2.628   2.150
 4671SOL    HW114912   6.695   2.654   2.171
 4671SOL    HW214913   6.598   2.530   2.129
 4672SOL     OW14914   2.426   4.836   6.249
 4672SOL    HW114915   2.514   4.833   6.296
 4672SOL    HW214916   2.358   4.880   6.307
 4673SOL     OW14917   5.143   0.018   0.932
 4673SOL    HW114918   5.158   0.104   0.885
 4673SOL    HW214919   5.182   6.959   0.878
 4674SOL     OW14920   5.150   6.378   0.054
 4674SOL    HW114921   5.238   6.409   0.017
 4674SOL    HW214922   5.079   6.392   7.001
 4675SOL     OW14923   0.616   3.268   6.727
 4675SOL    HW114924   0.546   3.294   6.661
 4675SOL    HW214925   0.606   3.322   6.810
 4676SOL     OW14926   6.814   5.849   3.829
 4676SOL    HW114927   6.751   5.808   3.764
 4676SOL    HW214928   6.762   5.896   3.900
 4677SOL     OW14929   2.418   1.914   1.108
 4677SOL    HW114930   2.417   1.880   1.202
 4677SOL    HW214931   2.493   1.980   1.097
 4678SOL     OW14932   2.259   4.359   3.056
 4678SOL    HW114933   2.200   4.354   2.976
 4678SOL    HW214934   2.223   4.300   3.129
 4679SOL     OW14935   4.347   0.393   1.626
 4679SOL    HW114936   4.349   0.451   1.544
 4679SOL    HW214937   4.362   0.298   1.599
 4680SOL     OW14938   3.549   1.020   6.469
 4680SOL    HW114939   3.455   1.013   6.502
 4680SOL    HW214940   3.609   0.967   6.529
 4681SOL     OW14941   5.009   4.833   0.372
 4681SOL    HW114942   5.016   4.907   0.440
 4681SOL    HW214943   5.090   4.775   0.379
 4682SOL     OW14944   4.587   4.533   5.745
 4682SOL    HW114945   4.563   4.436   5.737
 4682SOL    HW214946   4.507   4.588   5.722
 4683SOL     OW14947   5.920   5.530   2.664
 4683SOL    HW114948   5.910   5.436   2.631
 4683SOL    HW214949   5.984   5.531   2.741
 4684SOL     OW14950   4.636   6.753   5.249
 4684SOL    HW114951   4.703   6.811   5.295
 4684SOL    HW214952   4.683   6.682   5.197
 4685SOL     OW14953   2.200   4.717   6.559
 4685SOL    HW114954   2.256   4.635   6.553
 4685SOL    HW214955   2.125   4.711   6.492
 4686SOL     OW14956   4.160   6.050   6.836
 4686SOL    HW114957   4.198   6.135   6.800
 4686SOL    HW214958   4.236   5.991   6.866
 4687SOL     OW14959   4.720   2.745   4.293
 4687SOL    HW114960   4.650   2.698   4.348
 4687SOL    HW214961   4.781   2.796   4.354
 4688SOL     OW14962   5.696   2.714   5.158
 4688SOL    HW114963   5.769   2.742   5.096
 4688SOL    HW214964   5.736   2.672   5.240
 4689SOL     OW14965   5.791   0.997   0.759
 4689SOL    HW114966   5.818   1.092   0.742
 4689SOL    HW214967   5.721   0.995   0.830
 4690SOL     OW14968   2.209   0.572   0.735
 4690SOL    HW114969   2.185   0.517   0.816
 4690SOL    HW214970   2.188   0.520   0.652
 4691SOL     OW14971   3.259   3.712   0.466
 4691SOL    HW114972   3.266   3.806   0.499
 4691SOL    HW214973   3.336   3.693   0.406
 4692SOL     OW14974   5.935   5.029   2.962
 4692SOL    HW114975   5.863   5.043   2.893
 4692SOL    HW214976   6.010   5.093   2.945
 4693SOL     OW14977   1.205   0.445   3.864
 4693SOL    HW114978   1.157   0.435   3.777
 4693SOL    HW214979   1.162   0.387   3.933
 4694SOL     OW14980   2.143   1.865   0.174
 4694SOL    HW114981   2.207   1.835   0.103
 4694SOL    HW214982   2.128   1.791   0.239
 4695SOL     OW14983   1.195   5.428   0.770
 4695SOL    HW114984   1.121   5.495   0.766
 4695SOL    HW214985   1.261   5.455   0.841
 4696SOL     OW14986   0.304   5.802   5.986
 4696SOL    HW114987   0.356   5.850   6.056
 4696SOL    HW214988   0.208   5.827   5.993
 4697SOL     OW14989   1.050   3.781   2.304
 4697SOL    HW114990   1.002   3.696   2.325
 4697SOL    HW214991   1.106   3.769   2.222
 4698SOL     OW14992   4.685   6.440   3.188
 4698SOL    HW114993   4.587   6.421   3.183
 4698SOL    HW214994   4.735   6.354   3.195
 4699SOL     OW14995   0.640   6.658   2.853
 4699SOL    HW114996   0.617   6.590   2.923
 4699SOL    HW214997   0.558   6.709   2.828
 4700SOL     OW14998   6.325   2.322   2.054
 4700SOL    HW114999   6.248   2.385   2.068
 4700SOL    HW215000   6.332   2.260   2.132
 4701SOL     OW15001   3.344   1.993   0.468
 4701SOL    HW115002   3.380   2.033   0.552
 4701SOL    HW215003   3.378   2.045   0.389
 4702SOL     OW15004   4.479   4.883   0.323
 4702SOL    HW115005   4.420   4.803   0.319
 4702SOL    HW215006   4.539   4.876   0.403
 4703SOL     OW15007   1.171   6.558   3.010
 4703SOL    HW115008   1.121   6.471   3.010
 4703SOL    HW215009   1.226   6.565   3.093
 4704SOL     OW15010   6.463   5.911   6.625
 4704SOL    HW115011   6.492   5.907   6.529
 4704SOL    HW215012   6.516   5.982   6.672
 4705SOL     OW15013   3.842   2.343   0.801
 4705SOL    HW115014   3.767   2.364   0.738
 4705SOL    HW215015   3.892   2.263   0.768
 4706SOL     OW15016   1.516   0.534   0.502
 4706SOL    HW115017   1.578   0.578   0.437
 4706SOL    HW215018   1.568   0.473   0.562
 4707SOL     OW15019   1.249   6.449   1.764
 4707SOL    HW115020   1.184   6.383   1.802
 4707SOL    HW215021   1.204   6.502   1.692
 4708SOL     OW15022   1.253   1.881   5.753
 4708SOL    HW115023   1.330   1.818   5.748
 4708SOL    HW215024   1.280   1.971   5.717
 4709SOL     OW15025   4.785   5.491   5.133
 4709SOL    HW115026   4.732   5.576   5.133
 4709SOL    HW215027   4.874   5.508   5.175
 4710SOL     OW15028   5.685   6.899   6.087
 4710SOL    HW115029   5.600   6.887   6.034
 4710SOL    HW215030   5.695   6.996   6.112
 4711SOL     OW15031   6.678   1.476   2.264
 4711SOL    HW115032   6.716   1.417   2.192
 4711SOL    HW215033   6.585   1.502   2.239
 4712SOL     OW15034   3.302   4.780   6.560
 4712SOL    HW115035   3.205   4.790   6.540
 4712SOL    HW215036   3.341   4.870   6.581
 4713SOL     OW15037   4.124   5.367   0.824
 4713SOL    HW115038   4.101   5.463   0.835
 4713SOL    HW215039   4.043   5.310   0.840
 4714SOL     OW15040   0.413   1.260   6.096
 4714SOL    HW115041   0.399   1.185   6.031
 4714SOL    HW215042   0.343   1.255   6.168
 4715SOL     OW15043   5.992   3.449   1.626
 4715SOL    HW115044   6.049   3.377   1.587
 4715SOL    HW215045   5.905   3.454   1.576
 4716SOL     OW15046   4.420   6.645   5.612
 4716SOL    HW115047   4.455   6.571   5.554
 4716SOL    HW215048   4.344   6.611   5.667
 4717SOL     OW15049   0.842   5.672   4.946
 4717SOL    HW115050   0.786   5.589   4.938
 4717SOL    HW215051   0.931   5.648   4.984
 4718SOL     OW15052   5.269   2.254   1.110
 4718SOL    HW115053   5.191   2.202   1.146
 4718SOL    HW215054   5.264   2.254   1.010
 4719SOL     OW15055   4.818   3.832   2.431
 4719SOL    HW115056   4.817   3.930   2.411
 4719SOL    HW215057   4.729   3.805   2.468
 4720SOL     OW15058   1.961   5.187   5.945
 4720SOL    HW115059   2.050   5.214   5.980
 4720SOL    HW215060   1.905   5.269   5.932
 4721SOL     OW15061   6.530   1.901   1.638
 4721SOL    HW115062   6.509   1.983   1.585
 4721SOL    HW215063   6.553   1.927   1.732
 4722SOL     OW15064   1.168   6.278   6.485
 4722SOL    HW115065   1.180   6.182   6.461
 4722SOL    HW215066   1.207   6.296   6.576
 4723SOL     OW15067   2.974   3.547   5.059
 4723SOL    HW115068   3.048   3.578   5.119
 4723SOL    HW215069   2.950   3.453   5.082
 4724SOL     OW15070   0.061   0.006   4.324
 4724SOL    HW115071   6.983   0.044   4.329
 4724SOL    HW215072   0.092   6.998   4.415
 4725SOL     OW15073   6.498   4.912   0.190
 4725SOL    HW115074   6.472   4.857   0.111
 4725SOL    HW215075   6.421   4.919   0.254
 4726SOL     OW15076   1.250   3.560   6.229
 4726SOL    HW115077   1.199   3.512   6.158
 4726SOL    HW215078   1.348   3.549   6.214
 4727SOL     OW15079   0.262   6.109   1.233
 4727SOL    HW115080   0.177   6.098   1.180
 4727SOL    HW215081   0.306   6.020   1.244
 4728SOL     OW15082   6.668   0.794   2.727
 4728SOL    HW115083   6.637   0.720   2.787
 4728SOL    HW215084   6.595   0.862   2.718
 4729SOL     OW15085   4.945   0.813   0.199
 4729SOL    HW115086   4.997   0.779   0.277
 4729SOL    HW215087   4.922   0.736   0.139
 4730SOL     OW15088   3.350   5.917   5.546
 4730SOL    HW115089   3.341   5.967   5.460
 4730SOL    HW215090   3.437   5.941   5.589
 4731SOL     OW15091   3.150   1.064   0.800
 4731SOL    HW115092   3.113   1.145   0.846
 4731SOL    HW215093   3.130   1.069   0.702
 4732SOL     OW15094   0.501   3.258   5.272
 4732SOL    HW115095   0.581   3.316   5.256
 4732SOL    HW215096   0.438   3.265   5.195
 4733SOL     OW15097   1.260   3.953   3.406
 4733SOL    HW115098   1.257   3.869   3.351
 4733SOL    HW215099   1.197   4.020   3.367
 4734SOL     OW15100   4.600   3.056   0.671
 4734SOL    HW115101   4.665   3.129   0.651
 4734SOL    HW215102   4.524   3.094   0.724
 4735SOL     OW15103   6.550   5.778   4.245
 4735SOL    HW115104   6.493   5.748   4.169
 4735SOL    HW215105   6.493   5.821   4.314
 4736SOL     OW15106   5.617   1.998   5.551
 4736SOL    HW115107   5.604   1.930   5.624
 4736SOL    HW215108   5.618   1.951   5.462
 4737SOL     OW15109   2.804   4.431   0.560
 4737SOL    HW115110   2.832   4.512   0.508
 4737SOL    HW215111   2.770   4.460   0.650
 4738SOL     OW15112   3.017   6.344   3.328
 4738SOL    HW115113   3.031   6.254   3.288
 4738SOL    HW215114   2.919   6.360   3.342
 4739SOL     OW15115   5.171   1.453   3.315
 4739SOL    HW115116   5.079   1.414   3.308
 4739SOL    HW215117   5.190   1.508   3.234
 4740SOL     OW15118   0.394   0.218   0.684
 4740SOL    HW115119   0.412   0.286   0.756
 4740SOL    HW215120   0.341   0.261   0.611
 4741SOL     OW15121   4.455   3.433   1.334
 4741SOL    HW115122   4.454   3.426   1.235
 4741SOL    HW215123   4.516   3.507   1.362
 4742SOL     OW15124   3.192   6.527   1.567
 4742SOL    HW115125   3.165   6.452   1.628
 4742SOL    HW215126   3.290   6.544   1.576
 4743SOL     OW15127   1.502   2.469   5.723
 4743SOL    HW115128   1.533   2.564   5.726
 4743SOL    HW215129   1.453   2.453   5.637
 4744SOL     OW15130   2.572   3.429   5.950
 4744SOL    HW115131   2.575   3.504   5.884
 4744SOL    HW215132   2.581   3.341   5.902
 4745SOL     OW15133   2.508   5.534   5.322
 4745SOL    HW115134   2.458   5.614   5.289
 4745SOL    HW215135   2.465   5.451   5.288
 4746SOL     OW15136   6.623   5.982   2.650
 4746SOL    HW115137   6.610   5.895   2.602
 4746SOL    HW215138   6.593   6.057   2.593
 4747SOL     OW15139   1.747   3.657   6.387
 4747SOL    HW115140   1.698   3.572   6.369
 4747SOL    HW215141   1.769   3.664   6.484
 4748SOL     OW15142   1.862   5.391   1.014
 4748SOL    HW115143   1.852   5.456   1.089
 4748SOL    HW215144   1.848   5.298   1.049
 4749SOL     OW15145   3.115   6.413   5.554
 4749SOL    HW115146   3.140   6.317   5.540
 4749SOL    HW215147   3.116   6.434   5.652
 4750SOL     OW15148   0.341   3.200   4.381
 4750SOL    HW115149   0.281   3.191   4.301
 4750SOL    HW215150   0.415   3.263   4.360
 4751SOL     OW15151   2.360   2.784   0.135
 4751SOL    HW115152   2.308   2.735   0.205
 4751SOL    HW215153   2.366   2.881   0.161
 4752SOL     OW15154   2.902   0.234   0.221
 4752SOL    HW115155   2.900   0.138   0.250
 4752SOL    HW215156   2.928   0.291   0.299
 4753SOL     OW15157   5.283   0.248   4.214
 4753SOL    HW115158   5.199   0.244   4.160
 4753SOL    HW215159   5.349   0.181   4.179
 4754SOL     OW15160   5.963   0.273   5.659
 4754SOL    HW115161   5.897   0.200   5.678
 4754SOL    HW215162   5.915   0.361   5.659
 4755SOL     OW15163   2.687   0.866   0.642
 4755SOL    HW115164   2.645   0.882   0.552
 4755SOL    HW215165   2.760   0.932   0.656
 4756SOL     OW15166   5.983   2.610   0.937
 4756SOL    HW115167   6.080   2.636   0.926
 4756SOL    HW215168   5.930   2.691   0.963
 4757SOL     OW15169   1.440   2.207   2.062
 4757SOL    HW115170   1.405   2.294   2.098
 4757SOL    HW215171   1.519   2.178   2.116
 4758SOL     OW15172   3.031   5.999   4.951
 4758SOL    HW115173   3.042   6.098   4.965
 4758SOL    HW215174   3.104   5.966   4.892
 4759SOL     OW15175   5.792   5.323   4.806
 4759SOL    HW115176   5.882   5.291   4.836
 4759SOL    HW215177   5.761   5.266   4.729
 4760SOL     OW15178   3.567   2.082   1.108
 4760SOL    HW115179   3.607   2.032   1.031
 4760SOL    HW215180   3.493   2.027   1.147
 4761SOL     OW15181   0.652   6.853   6.595
 4761SOL    HW115182   0.658   6.769   6.649
 4761SOL    HW215183   0.556   6.871   6.571
 4762SOL     OW15184   2.365   5.163   3.011
 4762SOL    HW115185   2.407   5.103   3.079
 4762SOL    HW215186   2.341   5.250   3.054
 4763SOL     OW15187   6.149   6.014   3.612
 4763SOL    HW115188   6.208   5.949   3.660
 4763SOL    HW215189   6.195   6.049   3.531
 4764SOL     OW15190   4.684   4.134   5.361
 4764SOL    HW115191   4.626   4.216   5.356
 4764SOL    HW215192   4.626   4.053   5.367
 4765SOL     OW15193   5.123   0.106   4.394
 4765SOL    HW115194   5.198   0.161   4.359
 4765SOL    HW215195   5.154   0.054   4.475
 4766SOL     OW15196   4.440   0.033   3.778
 4766SOL    HW115197   4.539   0.048   3.786
 4766SOL    HW215198   4.399   0.105   3.723
 4767SOL     OW15199   3.857   5.605   5.987
 4767SOL    HW115200   3.805   5.520   5.976
 4767SOL    HW215201   3.802   5.682   5.954
 4768SOL     OW15202   4.484   2.042   5.263
 4768SOL    HW115203   4.529   2.025   5.351
 4768SOL    HW215204   4.553   2.070   5.196
 4769SOL     OW15205   4.519   5.224   0.861
 4769SOL    HW115206   4.474   5.242   0.774
 4769SOL    HW215207   4.466   5.265   0.935
 4770SOL     OW15208   1.064   6.702   3.891
 4770SOL    HW115209   1.052   6.801   3.901
 4770SOL    HW215210   1.066   6.679   3.794
 4771SOL     OW15211   3.702   5.262   5.455
 4771SOL    HW115212   3.635   5.253   5.528
 4771SOL    HW215213   3.654   5.267   5.367
 4772SOL     OW15214   2.584   5.831   1.697
 4772SOL    HW115215   2.521   5.902   1.667
 4772SOL    HW215216   2.537   5.743   1.698
 4773SOL     OW15217   6.379   5.483   4.910
 4773SOL    HW115218   6.391   5.548   4.985
 4773SOL    HW215219   6.459   5.485   4.850
 4774SOL     OW15220   1.059   2.629   1.466
 4774SOL    HW115221   1.089   2.714   1.510
 4774SOL    HW215222   0.996   2.581   1.527
 4775SOL     OW15223   4.914   6.870   2.660
 4775SOL    HW115224   4.987   6.810   2.691
 4775SOL    HW215225   4.854   6.821   2.598
 4776SOL     OW15226   1.308   6.503   4.555
 4776SOL    HW115227   1.390   6.459   4.592
 4776SOL    HW215228   1.335   6.581   4.499
 4777SOL     OW15229   2.844   4.797   1.435
 4777SOL    HW115230   2.827   4.742   1.516
 4777SOL    HW215231   2.768   4.788   1.371
 4778SOL     OW15232   5.631   2.280   2.428
 4778SOL    HW115233   5.614   2.347   2.356
 4778SOL    HW215234   5.553   2.218   2.435
 4779SOL     OW15235   6.529   6.182   2.479
 4779SOL    HW115236   6.549   6.215   2.386
 4779SOL    HW215237   6.517   6.261   2.539
 4780SOL     OW15238   0.192   0.311   0.495
 4780SOL    HW115239   0.137   0.362   0.561
 4780SOL    HW215240   0.149   0.223   0.476
 4781SOL     OW15241   3.164   6.513   1.292
 4781SOL    HW115242   3.148   6.521   1.390
 4781SOL    HW215243   3.120   6.590   1.245
 4782SOL     OW15244   4.833   6.228   0.721
 4782SOL    HW115245   4.924   6.267   0.711
 4782SOL    HW215246   4.840   6.133   0.750
 4783SOL     OW15247   4.331   4.163   6.933
 4783SOL    HW115248   4.280   4.238   6.891
 4783SOL    HW215249   4.417   4.149   6.884
 4784SOL     OW15250   6.450   3.920   6.216
 4784SOL    HW115251   6.384   3.994   6.216
 4784SOL    HW215252   6.542   3.957   6.226
 4785SOL     OW15253   6.219   5.800   1.690
 4785SOL    HW115254   6.263   5.867   1.630
 4785SOL    HW215255   6.161   5.739   1.635
 4786SOL     OW15256   2.535   2.193   1.680
 4786SOL    HW115257   2.597   2.115   1.671
 4786SOL    HW215258   2.561   2.247   1.760
 4787SOL     OW15259   3.101   2.012   3.508
 4787SOL    HW115260   3.008   2.022   3.473
 4787SOL    HW215261   3.119   2.084   3.575
 4788SOL     OW15262   0.996   5.151   6.059
 4788SOL    HW115263   1.008   5.056   6.087
 4788SOL    HW215264   1.085   5.194   6.047
 4789SOL     OW15265   5.801   0.952   0.077
 4789SOL    HW115266   5.808   0.934   6.994
 4789SOL    HW215267   5.741   0.884   0.119
 4790SOL     OW15268   0.298   2.805   6.109
 4790SOL    HW115269   0.208   2.796   6.066
 4790SOL    HW215270   0.325   2.901   6.110
 4791SOL     OW15271   6.153   1.974   1.596
 4791SOL    HW115272   6.141   2.055   1.538
 4791SOL    HW215273   6.242   1.933   1.579
 4792SOL     OW15274   1.846   3.519   2.662
 4792SOL    HW115275   1.815   3.522   2.757
 4792SOL    HW215276   1.945   3.504   2.660
 4793SOL     OW15277   1.241   2.458   6.086
 4793SOL    HW115278   1.321   2.515   6.103
 4793SOL    HW215279   1.167   2.483   6.148
 4794SOL     OW15280   4.936   0.701   3.251
 4794SOL    HW115281   4.872   0.731   3.181
 4794SOL    HW215282   5.022   0.672   3.208
 4795SOL     OW15283   6.495   1.469   2.730
 4795SOL    HW115284   6.532   1.562   2.717
 4795SOL    HW215285   6.410   1.475   2.782
 4796SOL     OW15286   5.082   2.200   6.443
 4796SOL    HW115287   5.120   2.163   6.358
 4796SOL    HW215288   4.987   2.171   6.452
 4797SOL     OW15289   1.712   6.305   5.717
 4797SOL    HW115290   1.706   6.263   5.627
 4797SOL    HW215291   1.749   6.239   5.782
 4798SOL     OW15292   0.309   2.871   4.922
 4798SOL    HW115293   0.329   2.943   4.856
 4798SOL    HW215294   0.236   2.900   4.982
 4799SOL     OW15295   4.805   2.133   6.492
 4799SOL    HW115296   4.712   2.140   6.529
 4799SOL    HW215297   4.804   2.072   6.413
 4800SOL     OW15298   2.464   3.352   5.620
 4800SOL    HW115299   2.529   3.302   5.677
 4800SOL    HW215300   2.388   3.384   5.675
 4801SOL     OW15301   2.593   2.363   0.672
 4801SOL    HW115302   2.592   2.284   0.733
 4801SOL    HW215303   2.679   2.412   0.682
 4802SOL     OW15304   1.171   6.335   2.140
 4802SOL    HW115305   1.235   6.313   2.067
 4802SOL    HW215306   1.193   6.280   2.221
 4803SOL     OW15307   1.349   6.386   0.980
 4803SOL    HW115308   1.384   6.476   1.004
 4803SOL    HW215309   1.379   6.362   0.888
 4804SOL     OW15310   4.991   5.555   6.446
 4804SOL    HW115311   4.920   5.567   6.376
 4804SOL    HW215312   5.069   5.507   6.406
 4805SOL     OW15313   5.984   0.138   1.183
 4805SOL    HW115314   6.073   0.126   1.140
 4805SOL    HW215315   5.969   0.236   1.201
 4806SOL     OW15316   0.873   4.427   2.882
 4806SOL    HW115317   0.801   4.425   2.813
 4806SOL    HW215318   0.949   4.369   2.853
 4807SOL     OW15319   1.222   4.806   0.456
 4807SOL    HW115320   1.180   4.860   0.529
 4807SOL    HW215321   1.258   4.721   0.494
 4808SOL     OW15322   6.306   3.569   6.771
 4808SOL    HW115323   6.401   3.562   6.741
 4808SOL    HW215324   6.301   3.557   6.870
 4809SOL     OW15325   3.773   3.850   6.731
 4809SOL    HW115326   3.764   3.783   6.658
 4809SOL    HW215327   3.747   3.941   6.697
 4810SOL     OW15328   1.171   5.139   2.165
 4810SOL    HW115329   1.232   5.153   2.244
 4810SOL    HW215330   1.090   5.197   2.175
 4811SOL     OW15331   1.835   4.865   2.040
 4811SOL    HW115332   1.792   4.845   2.127
 4811SOL    HW215333   1.765   4.879   1.970
 4812SOL     OW15334   0.166   5.216   5.332
 4812SOL    HW115335   0.102   5.180   5.264
 4812SOL    HW215336   0.239   5.150   5.347
 4813SOL     OW15337   5.437   2.123   0.686
 4813SOL    HW115338   5.400   2.069   0.610
 4813SOL    HW215339   5.464   2.062   0.760
 4814SOL     OW15340   5.717   4.125   0.541
 4814SOL    HW115341   5.638   4.177   0.508
 4814SOL    HW215342   5.684   4.042   0.587
 4815SOL     OW15343   5.678   4.214   2.965
 4815SOL    HW115344   5.738   4.291   2.942
 4815SOL    HW215345   5.606   4.245   3.027
 4816SOL     OW15346   0.386   5.393   2.177
 4816SOL    HW115347   0.378   5.293   2.183
 4816SOL    HW215348   0.315   5.435   2.232
 4817SOL     OW15349   1.414   1.892   6.409
 4817SOL    HW115350   1.343   1.831   6.375
 4817SOL    HW215351   1.491   1.893   6.344
 4818SOL     OW15352   1.044   0.724   4.856
 4818SOL    HW115353   1.130   0.673   4.849
 4818SOL    HW215354   0.979   0.673   4.913
 4819SOL     OW15355   1.065   2.794   7.004
 4819SOL    HW115356   1.155   2.837   0.001
 4819SOL    HW215357   1.019   2.836   6.926
 4820SOL     OW15358   0.139   2.829   1.045
 4820SOL    HW115359   0.182   2.909   1.003
 4820SOL    HW215360   0.174   2.746   1.001
 4821SOL     OW15361   1.251   5.989   2.419
 4821SOL    HW115362   1.220   5.923   2.488
 4821SOL    HW215363   1.348   6.009   2.433
 4822SOL     OW15364   1.508   3.270   4.770
 4822SOL    HW115365   1.607   3.271   4.776
 4822SOL    HW215366   1.480   3.219   4.689
 4823SOL     OW15367   1.709   1.223   4.142
 4823SOL    HW115368   1.653   1.295   4.101
 4823SOL    HW215369   1.732   1.247   4.236
 4824SOL     OW15370   4.673   2.124   5.062
 4824SOL    HW115371   4.641   2.161   4.974
 4824SOL    HW215372   4.753   2.067   5.046
 4825SOL     OW15373   1.385   2.585   4.643
 4825SOL    HW115374   1.375   2.619   4.550
 4825SOL    HW215375   1.443   2.648   4.695
 4826SOL     OW15376   5.551   0.498   0.338
 4826SOL    HW115377   5.523   0.553   0.417
 4826SOL    HW215378   5.500   0.412   0.337
 4827SOL     OW15379   6.492   1.916   0.433
 4827SOL    HW115380   6.451   1.829   0.407
 4827SOL    HW215381   6.470   1.985   0.363
 4828SOL     OW15382   5.143   1.371   0.891
 4828SOL    HW115383   5.138   1.454   0.834
 4828SOL    HW215384   5.074   1.377   0.963
 4829SOL     OW15385   3.499   0.687   5.963
 4829SOL    HW115386   3.551   0.762   5.923
 4829SOL    HW215387   3.490   0.613   5.896
 4830SOL     OW15388   3.463   5.869   3.996
 4830SOL    HW115389   3.366   5.885   3.980
 4830SOL    HW215390   3.509   5.858   3.908
 4831SOL     OW15391   1.656   4.965   5.437
 4831SOL    HW115392   1.736   4.908   5.420
 4831SOL    HW215393   1.614   4.991   5.350
 4832SOL     OW15394   3.737   4.088   3.679
 4832SOL    HW115395   3.813   4.103   3.616
 4832SOL    HW215396   3.653   4.125   3.639
 4833SOL     OW15397   6.169   1.747   2.977
 4833SOL    HW115398   6.100   1.686   3.017
 4833SOL    HW215399   6.126   1.806   2.909
 4834SOL     OW15400   2.715   5.665   2.108
 4834SOL    HW115401   2.801   5.688   2.154
 4834SOL    HW215402   2.664   5.748   2.088
 4835SOL     OW15403   5.830   3.279   6.031
 4835SOL    HW115404   5.850   3.377   6.028
 4835SOL    HW215405   5.818   3.245   5.938
 4836SOL     OW15406   4.837   2.013   4.643
 4836SOL    HW115407   4.922   1.961   4.642
 4836SOL    HW215408   4.760   1.951   4.630
 4837SOL     OW15409   6.761   3.173   2.745
 4837SOL    HW115410   6.742   3.271   2.758
 4837SOL    HW215411   6.678   3.121   2.765
 4838SOL     OW15412   2.309   5.838   0.191
 4838SOL    HW115413   2.376   5.774   0.228
 4838SOL    HW215414   2.356   5.910   0.140
 4839SOL     OW15415   1.161   3.388   0.107
 4839SOL    HW115416   1.084   3.351   0.056
 4839SOL    HW215417   1.142   3.383   0.205
 4840SOL     OW15418   6.240   4.424   5.842
 4840SOL    HW115419   6.334   4.394   5.851
 4840SOL    HW215420   6.217   4.433   5.745
 4841SOL     OW15421   2.195   4.930   3.347
 4841SOL    HW115422   2.275   4.915   3.289
 4841SOL    HW215423   2.120   4.871   3.317
 4842SOL     OW15424   2.601   5.035   3.595
 4842SOL    HW115425   2.686   5.068   3.554
 4842SOL    HW215426   2.600   4.935   3.594
 4843SOL     OW15427   6.909   2.515   1.466
 4843SOL    HW115428   6.869   2.438   1.416
 4843SOL    HW215429   6.948   2.580   1.400
 4844SOL     OW15430   0.242   4.198   5.411
 4844SOL    HW115431   0.252   4.165   5.317
 4844SOL    HW215432   0.299   4.279   5.425
 4845SOL     OW15433   4.660   5.172   6.412
 4845SOL    HW115434   4.597   5.201   6.485
 4845SOL    HW215435   4.657   5.239   6.337
 4846SOL     OW15436   0.305   1.647   3.667
 4846SOL    HW115437   0.249   1.639   3.585
 4846SOL    HW215438   0.311   1.559   3.713
 4847SOL     OW15439   2.416   1.679   5.809
 4847SOL    HW115440   2.335   1.727   5.843
 4847SOL    HW215441   2.496   1.710   5.860
 4848SOL     OW15442   2.710   1.275   4.732
 4848SOL    HW115443   2.631   1.249   4.788
 4848SOL    HW215444   2.780   1.315   4.791
 4849SOL     OW15445   1.795   5.891   0.846
 4849SOL    HW115446   1.788   5.893   0.945
 4849SOL    HW215447   1.804   5.985   0.811
 4850SOL     OW15448   5.197   1.143   1.320
 4850SOL    HW115449   5.191   1.129   1.419
 4850SOL    HW215450   5.256   1.074   1.280
 4851SOL     OW15451   3.350   5.374   5.709
 4851SOL    HW115452   3.255   5.352   5.731
 4851SOL    HW215453   3.385   5.442   5.774
 4852SOL     OW15454   2.675   5.852   5.060
 4852SOL    HW115455   2.683   5.833   4.963
 4852SOL    HW215456   2.753   5.813   5.109
 4853SOL     OW15457   3.940   1.523   3.399
 4853SOL    HW115458   3.988   1.594   3.451
 4853SOL    HW215459   3.899   1.564   3.317
 4854SOL     OW15460   4.751   0.050   1.913
 4854SOL    HW115461   4.795   0.063   1.824
 4854SOL    HW215462   4.745   0.137   1.960
 4855SOL     OW15463   6.303   3.837   5.071
 4855SOL    HW115464   6.275   3.861   4.979
 4855SOL    HW215465   6.393   3.792   5.068
 4856SOL     OW15466   1.078   2.952   2.914
 4856SOL    HW115467   1.036   2.883   2.974
 4856SOL    HW215468   1.175   2.933   2.905
 4857SOL     OW15469   2.846   1.720   3.301
 4857SOL    HW115470   2.937   1.760   3.286
 4857SOL    HW215471   2.776   1.782   3.265
 4858SOL     OW15472   0.028   6.644   4.611
 4858SOL    HW115473   0.007   6.582   4.687
 4858SOL    HW215474   6.962   6.656   4.555
 4859SOL     OW15475   0.808   5.369   1.841
 4859SOL    HW115476   0.780   5.401   1.932
 4859SOL    HW215477   0.885   5.424   1.809
 4860SOL     OW15478   4.192   4.822   0.136
 4860SOL    HW115479   4.257   4.750   0.158
 4860SOL    HW215480   4.137   4.844   0.217
 4861SOL     OW15481   5.980   5.467   6.425
 4861SOL    HW115482   5.997   5.369   6.421
 4861SOL    HW215483   5.963   5.501   6.333
 4862SOL     OW15484   2.432   4.483   4.834
 4862SOL    HW115485   2.523   4.466   4.874
 4862SOL    HW215486   2.431   4.574   4.791
 4863SOL     OW15487   4.920   3.409   2.511
 4863SOL    HW115488   4.905   3.398   2.413
 4863SOL    HW215489   4.874   3.335   2.560
 4864SOL     OW15490   3.632   1.560   1.830
 4864SOL    HW115491   3.537   1.530   1.844
 4864SOL    HW215492   3.638   1.659   1.845
 4865SOL     OW15493   2.767   6.104   4.864
 4865SOL    HW115494   2.717   6.023   4.836
 4865SOL    HW215495   2.864   6.092   4.843
 4866SOL     OW15496   5.848   4.520   1.093
 4866SOL    HW115497   5.782   4.579   1.139
 4866SOL    HW215498   5.882   4.452   1.157
 4867SOL     OW15499   4.356   5.639   3.609
 4867SOL    HW115500   4.415   5.700   3.661
 4867SOL    HW215501   4.329   5.684   3.523
 4868SOL     OW15502   0.362   5.476   1.706
 4868SOL    HW115503   0.292   5.541   1.738
 4868SOL    HW215504   0.451   5.522   1.702
 4869SOL     OW15505   0.353   2.690   0.863
 4869SOL    HW115506   0.427   2.626   0.882
 4869SOL    HW215507   0.287   2.646   0.802
 4870SOL     OW15508   5.173   5.285   1.692
 4870SOL    HW115509   5.258   5.338   1.692
 4870SOL    HW215510   5.186   5.201   1.640
 4871SOL     OW15511   0.256   0.754   4.519
 4871SOL    HW115512   0.175   0.767   4.577
 4871SOL    HW215513   0.252   0.663   4.478
 4872SOL     OW15514   0.871   6.102   4.240
 4872SOL    HW115515   0.884   6.188   4.190
 4872SOL    HW215516   0.876   6.120   4.338
 4873SOL     OW15517   0.123   4.661   3.995
 4873SOL    HW115518   0.191   4.628   4.061
 4873SOL    HW215519   0.168   4.722   3.929
 4874SOL     OW15520   5.978   3.594   2.189
 4874SOL    HW115521   6.034   3.565   2.267
 4874SOL    HW215522   5.971   3.694   2.189
 4875SOL     OW15523   5.507   2.832   0.935
 4875SOL    HW115524   5.497   2.910   0.873
 4875SOL    HW215525   5.424   2.822   0.989
 4876SOL     OW15526   6.364   0.413   4.774
 4876SOL    HW115527   6.356   0.328   4.825
 4876SOL    HW215528   6.301   0.412   4.696
 4877SOL     OW15529   6.429   1.459   0.513
 4877SOL    HW115530   6.451   1.454   0.611
 4877SOL    HW215531   6.514   1.451   0.460
 4878SOL     OW15532   6.601   2.090   2.308
 4878SOL    HW115533   6.673   2.153   2.280
 4878SOL    HW215534   6.550   2.131   2.384
 4879SOL     OW15535   4.244   5.090   3.334
 4879SOL    HW115536   4.157   5.040   3.335
 4879SOL    HW215537   4.226   5.188   3.326
 4880SOL     OW15538   5.144   2.862   6.731
 4880SOL    HW115539   5.048   2.860   6.703
 4880SOL    HW215540   5.200   2.813   6.665
 4881SOL     OW15541   2.050   5.650   0.201
 4881SOL    HW115542   2.116   5.723   0.186
 4881SOL    HW215543   1.958   5.690   0.207
 4882SOL     OW15544   6.149   1.400   5.207
 4882SOL    HW115545   6.172   1.420   5.303
 4882SOL    HW215546   6.176   1.307   5.184
 4883SOL     OW15547   5.021   4.729   2.417
 4883SOL    HW115548   5.080   4.799   2.458
 4883SOL    HW215549   4.982   4.672   2.490
 4884SOL     OW15550   4.227   0.183   0.702
 4884SOL    HW115551   4.326   0.191   0.695
 4884SOL    HW215552   4.202   0.087   0.718
 4885SOL     OW15553   2.991   6.362   2.699
 4885SOL    HW115554   2.950   6.322   2.781
 4885SOL    HW215555   3.085   6.388   2.717
 4886SOL     OW15556   0.305   6.039   6.246
 4886SOL    HW115557   0.288   6.138   6.251
 4886SOL    HW215558   0.220   5.990   6.265
 4887SOL     OW15559   0.348   1.668   2.712
 4887SOL    HW115560   0.303   1.582   2.687
 4887SOL    HW215561   0.386   1.661   2.804
 4888SOL     OW15562   1.771   6.329   3.810
 4888SOL    HW115563   1.804   6.412   3.765
 4888SOL    HW215564   1.845   6.289   3.865
 4889SOL     OW15565   0.655   1.716   7.002
 4889SOL    HW115566   0.665   1.769   0.070
 4889SOL    HW215567   0.745   1.697   6.963
 4890SOL     OW15568   0.437   1.863   4.709
 4890SOL    HW115569   0.346   1.902   4.704
 4890SOL    HW215570   0.491   1.892   4.630
 4891SOL     OW15571   1.179   5.727   6.697
 4891SOL    HW115572   1.222   5.815   6.681
 4891SOL    HW215573   1.145   5.723   6.791
 4892SOL     OW15574   2.439   6.112   2.345
 4892SOL    HW115575   2.406   6.018   2.354
 4892SOL    HW215576   2.533   6.111   2.310
 4893SOL     OW15577   6.533   4.271   6.426
 4893SOL    HW115578   6.631   4.261   6.411
 4893SOL    HW215579   6.511   4.367   6.441
 4894SOL     OW15580   2.598   0.194   2.116
 4894SOL    HW115581   2.547   0.189   2.030
 4894SOL    HW215582   2.564   0.124   2.179
 4895SOL     OW15583   0.235   4.516   1.185
 4895SOL    HW115584   0.308   4.454   1.157
 4895SOL    HW215585   0.147   4.471   1.175
 4896SOL     OW15586   2.834   5.328   2.867
 4896SOL    HW115587   2.745   5.285   2.862
 4896SOL    HW215588   2.839   5.384   2.950
 4897SOL     OW15589   2.684   5.148   5.768
 4897SOL    HW115590   2.590   5.117   5.783
 4897SOL    HW215591   2.716   5.197   5.849
 4898SOL     OW15592   6.041   1.784   5.105
 4898SOL    HW115593   6.122   1.842   5.111
 4898SOL    HW215594   5.988   1.810   5.024
 4899SOL     OW15595   6.590   4.474   2.615
 4899SOL    HW115596   6.577   4.466   2.714
 4899SOL    HW215597   6.687   4.490   2.595
 4900SOL     OW15598   1.838   5.978   5.721
 4900SOL    HW115599   1.894   6.059   5.739
 4900SOL    HW215600   1.849   5.913   5.797
 4901SOL     OW15601   2.373   6.537   5.468
 4901SOL    HW115602   2.348   6.599   5.393
 4901SOL    HW215603   2.387   6.445   5.431
 4902SOL     OW15604   2.311   2.541   4.247
 4902SOL    HW115605   2.248   2.532   4.170
 4902SOL    HW215606   2.266   2.590   4.322
 4903SOL     OW15607   3.492   6.400   6.855
 4903SOL    HW115608   3.526   6.309   6.876
 4903SOL    HW215609   3.568   6.466   6.856
 4904SOL     OW15610   1.977   7.014   4.076
 4904SOL    HW115611   2.041   0.069   4.109
 4904SOL    HW215612   2.013   6.973   3.993
 4905SOL     OW15613   4.363   2.435   2.568
 4905SOL    HW115614   4.431   2.501   2.536
 4905SOL    HW215615   4.282   2.439   2.509
 4906SOL     OW15616   3.571   0.620   6.734
 4906SOL    HW115617   3.491   0.657   6.686
 4906SOL    HW215618   3.622   0.561   6.671
 4907SOL     OW15619   4.016   6.233   2.843
 4907SOL    HW115620   4.050   6.327   2.840
 4907SOL    HW215621   3.916   6.234   2.839
 4908SOL     OW15622   3.829   5.428   6.859
 4908SOL    HW115623   3.835   5.328   6.867
 4908SOL    HW215624   3.812   5.468   6.949
 4909SOL     OW15625   6.166   7.011   6.551
 4909SOL    HW115626   6.181   0.011   6.648
 4909SOL    HW215627   6.254   6.989   6.507
 4910SOL     OW15628   5.663   0.148   5.326
 4910SOL    HW115629   5.747   0.121   5.278
 4910SOL    HW215630   5.587   0.150   5.261
 4911SOL     OW15631   6.988   2.543   5.726
 4911SOL    HW115632   0.005   2.625   5.773
 4911SOL    HW215633   6.945   2.482   5.793
 4912SOL     OW15634   5.225   1.767   1.490
 4912SOL    HW115635   5.227   1.864   1.466
 4912SOL    HW215636   5.220   1.712   1.406
 4913SOL     OW15637   3.614   3.422   3.808
 4913SOL    HW115638   3.681   3.412   3.882
 4913SOL    HW215639   3.555   3.501   3.827
 4914SOL     OW15640   3.565   0.731   5.083
 4914SOL    HW115641   3.467   0.753   5.088
 4914SOL    HW215642   3.581   0.665   5.010
 4915SOL     OW15643   4.567   0.414   4.611
 4915SOL    HW115644   4.640   0.460   4.662
 4915SOL    HW215645   4.510   0.362   4.674
 4916SOL     OW15646   1.885   1.777   3.083
 4916SOL    HW115647   1.843   1.796   2.994
 4916SOL    HW215648   1.927   1.686   3.081
 4917SOL     OW15649   1.770   3.775   0.358
 4917SOL    HW115650   1.682   3.816   0.335
 4917SOL    HW215651   1.755   3.691   0.410
 4918SOL     OW15652   3.103   0.202   2.904
 4918SOL    HW115653   3.101   0.297   2.935
 4918SOL    HW215654   3.187   0.184   2.854
 4919SOL     OW15655   2.335   2.220   2.354
 4919SOL    HW115656   2.393   2.215   2.436
 4919SOL    HW215657   2.334   2.130   2.310
 4920SOL     OW15658   4.088   0.261   6.876
 4920SOL    HW115659   4.095   0.273   6.976
 4920SOL    HW215660   4.026   0.186   6.856
 4921SOL     OW15661   2.311   4.296   1.072
 4921SOL    HW115662   2.345   4.380   1.028
 4921SOL    HW215663   2.215   4.309   1.099
 4922SOL     OW15664   1.133   3.531   5.093
 4922SOL    HW115665   1.189   3.561   5.170
 4922SOL    HW215666   1.186   3.540   5.008
 4923SOL     OW15667   4.764   0.991   1.038
 4923SOL    HW115668   4.772   1.089   1.057
 4923SOL    HW215669   4.722   0.945   1.117
 4924SOL     OW15670   2.229   3.166   5.159
 4924SOL    HW115671   2.270   3.079   5.131
 4924SOL    HW215672   2.253   3.185   5.254
 4925SOL     OW15673   6.196   6.408   0.635
 4925SOL    HW115674   6.247   6.420   0.550
 4925SOL    HW215675   6.260   6.386   0.709
 4926SOL     OW15676   5.345   2.608   1.466
 4926SOL    HW115677   5.331   2.604   1.565
 4926SOL    HW215678   5.299   2.688   1.429
 4927SOL     OW15679   4.099   3.528   3.638
 4927SOL    HW115680   4.131   3.508   3.730
 4927SOL    HW215681   4.016   3.584   3.643
 4928SOL     OW15682   0.391   6.868   6.542
 4928SOL    HW115683   0.326   6.942   6.523
 4928SOL    HW215684   0.344   6.794   6.589
 4929SOL     OW15685   0.942   4.218   5.197
 4929SOL    HW115686   0.970   4.213   5.293
 4929SOL    HW215687   0.854   4.263   5.190
 4930SOL     OW15688   6.718   0.298   1.060
 4930SOL    HW115689   6.646   0.367   1.050
 4930SOL    HW215690   6.719   0.239   0.979
 4931SOL     OW15691   0.702   6.561   0.494
 4931SOL    HW115692   0.781   6.619   0.475
 4931SOL    HW215693   0.625   6.590   0.438
 4932SOL     OW15694   2.325   3.189   1.719
 4932SOL    HW115695   2.274   3.103   1.714
 4932SOL    HW215696   2.275   3.255   1.775
 4933SOL     OW15697   2.049   0.507   4.504
 4933SOL    HW115698   2.087   0.440   4.441
 4933SOL    HW215699   1.952   0.487   4.520
 4934SOL     OW15700   1.212   5.072   4.057
 4934SOL    HW115701   1.150   5.130   4.109
 4934SOL    HW215702   1.160   5.018   3.991
 4935SOL     OW15703   1.724   0.759   0.047
 4935SOL    HW115704   1.656   0.762   6.990
 4935SOL    HW215705   1.725   0.846   0.096
 4936SOL     OW15706   1.676   5.658   2.271
 4936SOL    HW115707   1.658   5.646   2.368
 4936SOL    HW215708   1.736   5.585   2.238
 4937SOL     OW15709   0.493   3.766   5.745
 4937SOL    HW115710   0.414   3.736   5.692
 4937SOL    HW215711   0.511   3.863   5.727
 4938SOL     OW15712   3.448   5.220   1.881
 4938SOL    HW115713   3.464   5.248   1.976
 4938SOL    HW215714   3.366   5.163   1.876
 4939SOL     OW15715   1.252   2.010   2.987
 4939SOL    HW115716   1.255   2.090   3.046
 4939SOL    HW215717   1.200   2.032   2.904
 4940SOL     OW15718   6.701   1.705   5.147
 4940SOL    HW115719   6.670   1.762   5.223
 4940SOL    HW215720   6.628   1.696   5.079
 4941SOL     OW15721   3.997   2.725   5.340
 4941SOL    HW115722   4.064   2.783   5.387
 4941SOL    HW215723   4.041   2.681   5.262
 4942SOL     OW15724   5.209   3.208   4.179
 4942SOL    HW115725   5.238   3.157   4.098
 4942SOL    HW215726   5.289   3.249   4.222
 4943SOL     OW15727   5.508   3.783   6.324
 4943SOL    HW115728   5.606   3.776   6.305
 4943SOL    HW215729   5.487   3.876   6.354
 4944SOL     OW15730   2.466   3.938   1.289
 4944SOL    HW115731   2.404   3.986   1.350
 4944SOL    HW215732   2.552   3.920   1.336
 4945SOL     OW15733   1.346   0.540   4.588
 4945SOL    HW115734   1.306   0.489   4.664
 4945SOL    HW215735   1.435   0.501   4.565
 4946SOL     OW15736   0.918   5.228   0.165
 4946SOL    HW115737   0.844   5.295   0.152
 4946SOL    HW215738   1.006   5.276   0.167
 4947SOL     OW15739   2.500   1.109   1.843
 4947SOL    HW115740   2.492   1.184   1.909
 4947SOL    HW215741   2.566   1.134   1.772
 4948SOL     OW15742   2.102   2.883   3.157
 4948SOL    HW115743   2.023   2.942   3.142
 4948SOL    HW215744   2.085   2.793   3.119
 4949SOL     OW15745   0.092   3.596   5.079
 4949SOL    HW115746   0.090   3.636   4.987
 4949SOL    HW215747   0.001   3.605   5.121
 4950SOL     OW15748   1.982   4.520   5.447
 4950SOL    HW115749   1.897   4.567   5.420
 4950SOL    HW215750   1.963   4.423   5.463
 4951SOL     OW15751   6.369   6.620   4.480
 4951SOL    HW115752   6.378   6.714   4.513
 4951SOL    HW215753   6.427   6.607   4.399
 4952SOL     OW15754   0.618   6.710   6.273
 4952SOL    HW115755   0.621   6.794   6.327
 4952SOL    HW215756   0.621   6.631   6.334
 4953SOL     OW15757   1.713   0.305   3.765
 4953SOL    HW115758   1.716   0.354   3.678
 4953SOL    HW215759   1.623   0.317   3.807
 4954SOL     OW15760   2.759   3.789   6.590
 4954SOL    HW115761   2.692   3.852   6.629
 4954SOL    HW215762   2.712   3.720   6.535
 4955SOL     OW15763   3.166   6.394   0.133
 4955SOL    HW115764   3.081   6.343   0.145
 4955SOL    HW215765   3.240   6.344   0.178
 4956SOL     OW15766   2.539   6.926   5.215
 4956SOL    HW115767   2.586   6.922   5.127
 4956SOL    HW215768   2.539   0.005   5.248
 4957SOL     OW15769   5.469   3.298   0.694
 4957SOL    HW115770   5.373   3.323   0.682
 4957SOL    HW215771   5.526   3.357   0.636
 4958SOL     OW15772   1.902   5.737   6.165
 4958SOL    HW115773   1.968   5.675   6.207
 4958SOL    HW215774   1.818   5.687   6.143
 4959SOL     OW15775   6.163   1.559   1.739
 4959SOL    HW115776   6.200   1.596   1.654
 4959SOL    HW215777   6.166   1.629   1.810
 4960SOL     OW15778   4.354   4.601   3.866
 4960SOL    HW115779   4.413   4.529   3.829
 4960SOL    HW215780   4.351   4.593   3.966
 4961SOL     OW15781   2.594   0.346   6.136
 4961SOL    HW115782   2.683   0.360   6.094
 4961SOL    HW215783   2.522   0.364   6.068
 4962SOL     OW15784   5.732   2.759   1.107
 4962SOL    HW115785   5.662   2.802   1.051
 4962SOL    HW215786   5.712   2.661   1.117
 4963SOL     OW15787   1.445   5.220   0.703
 4963SOL    HW115788   1.412   5.139   0.752
 4963SOL    HW215789   1.430   5.209   0.605
 4964SOL     OW15790   2.252   0.295   4.636
 4964SOL    HW115791   2.253   0.386   4.676
 4964SOL    HW215792   2.210   0.299   4.545
 4965SOL     OW15793   1.077   6.810   3.054
 4965SOL    HW115794   1.115   6.720   3.030
 4965SOL    HW215795   0.992   6.797   3.106
 4966SOL     OW15796   3.001   6.569   4.954
 4966SOL    HW115797   2.903   6.580   4.943
 4966SOL    HW215798   3.024   6.472   4.958
 4967SOL     OW15799   2.860   5.425   5.802
 4967SOL    HW115800   2.883   5.397   5.895
 4967SOL    HW215801   2.761   5.433   5.792
 4968SOL     OW15802   0.420   1.105   3.730
 4968SOL    HW115803   0.480   1.109   3.810
 4968SOL    HW215804   0.341   1.048   3.750
 4969SOL     OW15805   0.983   5.932   2.793
 4969SOL    HW115806   1.043   6.011   2.777
 4969SOL    HW215807   0.911   5.930   2.724
 4970SOL     OW15808   2.086   1.629   1.262
 4970SOL    HW115809   1.988   1.650   1.259
 4970SOL    HW215810   2.121   1.647   1.354
 4971SOL     OW15811   6.349   5.805   3.109
 4971SOL    HW115812   6.287   5.848   3.044
 4971SOL    HW215813   6.441   5.803   3.070
 4972SOL     OW15814   0.936   4.032   0.377
 4972SOL    HW115815   0.897   3.959   0.433
 4972SOL    HW215816   0.955   3.997   0.285
 4973SOL     OW15817   0.545   0.436   1.610
 4973SOL    HW115818   0.541   0.362   1.677
 4973SOL    HW215819   0.452   0.467   1.589
 4974SOL     OW15820   6.071   4.990   0.511
 4974SOL    HW115821   6.111   5.067   0.562
 4974SOL    HW215822   5.973   5.005   0.501
 4975SOL     OW15823   5.473   4.038   0.075
 4975SOL    HW115824   5.424   3.951   0.080
 4975SOL    HW215825   5.444   4.097   0.151
 4976SOL     OW15826   1.316   1.063   4.893
 4976SOL    HW115827   1.220   1.088   4.883
 4976SOL    HW215828   1.326   0.964   4.887
 4977SOL     OW15829   4.489   5.212   6.623
 4977SOL    HW115830   4.541   5.193   6.706
 4977SOL    HW215831   4.399   5.249   6.648
 4978SOL     OW15832   5.414   4.745   4.495
 4978SOL    HW115833   5.514   4.736   4.495
 4978SOL    HW215834   5.383   4.768   4.403
 4979SOL     OW15835   6.911   6.641   6.304
 4979SOL    HW115836   6.951   6.695   6.229
 4979SOL    HW215837   6.862   6.562   6.266
 4980SOL     OW15838   5.723   5.677   2.830
 4980SOL    HW115839   5.754   5.682   2.736
 4980SOL    HW215840   5.640   5.622   2.835
 4981SOL     OW15841   3.664   5.315   2.346
 4981SOL    HW115842   3.585   5.316   2.407
 4981SOL    HW215843   3.654   5.387   2.277
 4982SOL     OW15844   3.018   2.412   5.863
 4982SOL    HW115845   3.000   2.491   5.805
 4982SOL    HW215846   3.116   2.390   5.861
 4983SOL     OW15847   5.642   4.115   5.143
 4983SOL    HW115848   5.591   4.058   5.206
 4983SOL    HW215849   5.738   4.119   5.171
 4984SOL     OW15850   4.991   4.046   2.687
 4984SOL    HW115851   5.026   4.116   2.750
 4984SOL    HW215852   4.891   4.043   2.693
 4985SOL     OW15853   5.877   6.697   3.497
 4985SOL    HW115854   5.800   6.694   3.434
 4985SOL    HW215855   5.859   6.637   3.574
 4986SOL     OW15856   6.707   5.103   0.481
 4986SOL    HW115857   6.660   5.024   0.521
 4986SOL    HW215858   6.684   5.109   0.384
 4987SOL     OW15859   1.204   6.249   2.398
 4987SOL    HW115860   1.221   6.151   2.403
 4987SOL    HW215861   1.162   6.280   2.484
 4988SOL     OW15862   6.013   0.970   2.560
 4988SOL    HW115863   5.976   0.977   2.468
 4988SOL    HW215864   6.017   1.060   2.602
 4989SOL     OW15865   5.077   6.817   1.392
 4989SOL    HW115866   4.983   6.804   1.361
 4989SOL    HW215867   5.081   6.898   1.451
 4990SOL     OW15868   3.299   2.164   6.684
 4990SOL    HW115869   3.396   2.180   6.668
 4990SOL    HW215870   3.287   2.102   6.762
 4991SOL     OW15871   6.503   5.042   3.760
 4991SOL    HW115872   6.554   4.974   3.814
 4991SOL    HW215873   6.563   5.078   3.689
 4992SOL     OW15874   5.284   0.584   2.015
 4992SOL    HW115875   5.315   0.542   2.100
 4992SOL    HW215876   5.268   0.512   1.946
 4993SOL     OW15877   4.039   6.191   4.716
 4993SOL    HW115878   4.107   6.176   4.644
 4993SOL    HW215879   4.051   6.122   4.787
 4994SOL     OW15880   2.004   6.253   4.546
 4994SOL    HW115881   2.016   6.212   4.455
 4994SOL    HW215882   2.083   6.229   4.603
 4995SOL     OW15883   0.746   1.527   5.433
 4995SOL    HW115884   0.744   1.490   5.340
 4995SOL    HW215885   0.800   1.467   5.492
 4996SOL     OW15886   7.002   0.768   2.925
 4996SOL    HW115887   6.958   0.829   2.859
 4996SOL    HW215888   6.980   0.673   2.903
 4997SOL     OW15889   4.417   2.425   1.885
 4997SOL    HW115890   4.342   2.407   1.821
 4997SOL    HW215891   4.381   2.424   1.979
 4998SOL     OW15892   1.612   3.768   4.693
 4998SOL    HW115893   1.675   3.713   4.637
 4998SOL    HW215894   1.652   3.784   4.783
 4999SOL     OW15895   0.258   3.489   4.702
 4999SOL    HW115896   0.229   3.581   4.729
 4999SOL    HW215897   0.239   3.425   4.777
 5000SOL     OW15898   2.964   0.143   3.488
 5000SOL    HW115899   3.032   0.182   3.425
 5000SOL    HW215900   2.959   0.199   3.571
 5001SOL     OW15901   0.871   5.584   2.215
 5001SOL    HW115902   0.946   5.580   2.281
 5001SOL    HW215903   0.908   5.607   2.125
 5002SOL     OW15904   0.469   4.300   1.886
 5002SOL    HW115905   0.412   4.218   1.887
 5002SOL    HW215906   0.468   4.342   1.977
 5003SOL     OW15907   3.283   6.074   2.927
 5003SOL    HW115908   3.367   6.119   2.898
 5003SOL    HW215909   3.292   6.047   3.023
 5004SOL     OW15910   2.370   4.538   5.854
 5004SOL    HW115911   2.456   4.540   5.904
 5004SOL    HW215912   2.335   4.632   5.843
 5005SOL     OW15913   2.963   3.221   6.558
 5005SOL    HW115914   3.009   3.261   6.479
 5005SOL    HW215915   2.934   3.294   6.620
 5006SOL     OW15916   5.661   0.735   1.516
 5006SOL    HW115917   5.584   0.706   1.573
 5006SOL    HW215918   5.635   0.730   1.419
 5007SOL     OW15919   0.406   0.197   1.807
 5007SOL    HW115920   0.363   0.185   1.718
 5007SOL    HW215921   0.503   0.173   1.801
 5008SOL     OW15922   6.272   6.195   1.685
 5008SOL    HW115923   6.336   6.254   1.636
 5008SOL    HW215924   6.295   6.194   1.782
 5009SOL     OW15925   0.245   2.273   6.868
 5009SOL    HW115926   0.324   2.330   6.890
 5009SOL    HW215927   0.163   2.330   6.864
 5010SOL     OW15928   4.317   2.700   0.663
 5010SOL    HW115929   4.324   2.700   0.563
 5010SOL    HW215930   4.306   2.605   0.695
 5011SOL     OW15931   1.893   4.766   1.330
 5011SOL    HW115932   1.838   4.740   1.409
 5011SOL    HW215933   1.833   4.780   1.251
 5012SOL     OW15934   6.244   2.646   4.719
 5012SOL    HW115935   6.252   2.685   4.627
 5012SOL    HW215936   6.184   2.704   4.774
 5013SOL     OW15937   5.438   1.637   6.268
 5013SOL    HW115938   5.533   1.635   6.239
 5013SOL    HW215939   5.430   1.601   6.362
 5014SOL     OW15940   6.140   4.293   0.711
 5014SOL    HW115941   6.062   4.265   0.653
 5014SOL    HW215942   6.155   4.224   0.782
 5015SOL     OW15943   4.839   1.130   5.394
 5015SOL    HW115944   4.875   1.039   5.375
 5015SOL    HW215945   4.902   1.199   5.359
 5016SOL     OW15946   1.778   3.003   5.442
 5016SOL    HW115947   1.877   2.987   5.449
 5016SOL    HW215948   1.743   3.030   5.531
 5017SOL     OW15949   1.640   2.791   1.363
 5017SOL    HW115950   1.590   2.708   1.389
 5017SOL    HW215951   1.579   2.870   1.372
 5018SOL     OW15952   0.885   4.588   2.576
 5018SOL    HW115953   0.866   4.502   2.529
 5018SOL    HW215954   0.851   4.664   2.521
 5019SOL     OW15955   1.900   5.747   5.876
 5019SOL    HW115956   1.991   5.727   5.840
 5019SOL    HW215957   1.905   5.757   5.976
 5020SOL     OW15958   6.116   6.781   6.312
 5020SOL    HW115959   6.039   6.725   6.281
 5020SOL    HW215960   6.179   6.724   6.364
 5021SOL     OW15961   1.012   1.257   0.347
 5021SOL    HW115962   0.995   1.332   0.411
 5021SOL    HW215963   0.945   1.260   0.274
 5022SOL     OW15964   1.801   2.482   1.298
 5022SOL    HW115965   1.816   2.577   1.270
 5022SOL    HW215966   1.885   2.430   1.286
 5023SOL     OW15967   0.487   3.674   1.665
 5023SOL    HW115968   0.443   3.609   1.603
 5023SOL    HW215969   0.512   3.757   1.615
 5024SOL     OW15970   6.449   5.796   1.335
 5024SOL    HW115971   6.363   5.820   1.290
 5024SOL    HW215972   6.501   5.879   1.356
 5025SOL     OW15973   4.124   2.257   3.792
 5025SOL    HW115974   4.060   2.330   3.767
 5025SOL    HW215975   4.166   2.220   3.709
 5026SOL     OW15976   6.763   6.154   5.573
 5026SOL    HW115977   6.777   6.062   5.535
 5026SOL    HW215978   6.665   6.170   5.586
 5027SOL     OW15979   6.335   6.603   1.161
 5027SOL    HW115980   6.322   6.636   1.068
 5027SOL    HW215981   6.247   6.577   1.200
 5028SOL     OW15982   0.658   1.833   2.783
 5028SOL    HW115983   0.666   1.739   2.748
 5028SOL    HW215984   0.744   1.882   2.765
 5029SOL     OW15985   6.041   2.960   2.333
 5029SOL    HW115986   6.013   3.049   2.369
 5029SOL    HW215987   5.983   2.937   2.255
 5030SOL     OW15988   0.251   6.291   6.694
 5030SOL    HW115989   0.281   6.201   6.662
 5030SOL    HW215990   0.192   6.333   6.625
 5031SOL     OW15991   6.566   1.480   6.052
 5031SOL    HW115992   6.582   1.574   6.083
 5031SOL    HW215993   6.606   1.416   6.117
 5032SOL     OW15994   2.743   2.281   5.633
 5032SOL    HW115995   2.753   2.220   5.712
 5032SOL    HW215996   2.698   2.366   5.662
 5033SOL     OW15997   2.294   6.846   6.202
 5033SOL    HW115998   2.244   6.895   6.273
 5033SOL    HW215999   2.234   6.828   6.124
 5034SOL     OW16000   6.117   0.071   3.282
 5034SOL    HW116001   6.061   0.039   3.358
 5034SOL    HW216002   6.197   0.121   3.318
 5035SOL     OW16003   6.706   3.695   5.689
 5035SOL    HW116004   6.618   3.649   5.702
 5035SOL    HW216005   6.751   3.660   5.607
 5036SOL     OW16006   0.178   5.067   6.644
 5036SOL    HW116007   0.185   5.145   6.706
 5036SOL    HW216008   0.127   4.993   6.690
 5037SOL     OW16009   5.192   4.564   1.829
 5037SOL    HW116010   5.234   4.597   1.913
 5037SOL    HW216011   5.093   4.568   1.837
 5038SOL     OW16012   3.070   3.307   5.592
 5038SOL    HW116013   3.078   3.340   5.498
 5038SOL    HW216014   3.156   3.319   5.640
 5039SOL     OW16015   1.903   3.828   5.910
 5039SOL    HW116016   1.902   3.784   5.820
 5039SOL    HW216017   1.840   3.905   5.911
 5040SOL     OW16018   1.373   6.324   6.163
 5040SOL    HW116019   1.310   6.248   6.147
 5040SOL    HW216020   1.461   6.304   6.120
 5041SOL     OW16021   1.093   1.982   2.220
 5041SOL    HW116022   1.142   2.034   2.290
 5041SOL    HW216023   1.118   2.016   2.129
 5042SOL     OW16024   6.487   3.590   0.381
 5042SOL    HW116025   6.587   3.583   0.381
 5042SOL    HW216026   6.453   3.572   0.288
 5043SOL     OW16027   3.682   0.205   6.363
 5043SOL    HW116028   3.590   0.231   6.394
 5043SOL    HW216029   3.740   0.186   6.443
 5044SOL     OW16030   0.567   6.078   0.519
 5044SOL    HW116031   0.485   6.130   0.493
 5044SOL    HW216032   0.634   6.140   0.559
 5045SOL     OW16033   5.938   6.607   6.550
 5045SOL    HW116034   5.972   6.517   6.522
 5045SOL    HW216035   6.009   6.655   6.601
 5046SOL     OW16036   3.394   4.150   2.712
 5046SOL    HW116037   3.442   4.220   2.659
 5046SOL    HW216038   3.351   4.085   2.650
 5047SOL     OW16039   0.952   3.967   2.638
 5047SOL    HW116040   0.876   3.912   2.675
 5047SOL    HW216041   0.939   3.978   2.539
 5048SOL     OW16042   0.966   1.409   2.864
 5048SOL    HW116043   0.974   1.388   2.961
 5048SOL    HW216044   1.036   1.475   2.838
 5049SOL     OW16045   5.245   2.085   6.851
 5049SOL    HW116046   5.301   2.163   6.823
 5049SOL    HW216047   5.178   2.115   6.919
 5050SOL     OW16048   2.115   0.739   1.399
 5050SOL    HW116049   2.166   0.793   1.466
 5050SOL    HW216050   2.154   0.754   1.308
 5051SOL     OW16051   4.431   4.116   1.235
 5051SOL    HW116052   4.479   4.188   1.284
 5051SOL    HW216053   4.461   4.115   1.139
 5052SOL     OW16054   2.511   1.337   5.750
 5052SOL    HW116055   2.448   1.331   5.672
 5052SOL    HW216056   2.459   1.330   5.835
 5053SOL     OW16057   1.441   3.879   3.910
 5053SOL    HW116058   1.365   3.938   3.937
 5053SOL    HW216059   1.430   3.789   3.952
 5054SOL     OW16060   3.507   5.043   3.977
 5054SOL    HW116061   3.509   4.978   4.053
 5054SOL    HW216062   3.412   5.060   3.950
 5055SOL     OW16063   1.377   2.426   5.518
 5055SOL    HW116064   1.310   2.458   5.451
 5055SOL    HW216065   1.430   2.351   5.478
 5056SOL     OW16066   5.618   4.050   6.852
 5056SOL    HW116067   5.616   3.957   6.815
 5056SOL    HW216068   5.582   4.050   6.945
 5057SOL     OW16069   0.670   6.542   3.640
 5057SOL    HW116070   0.686   6.638   3.617
 5057SOL    HW216071   0.638   6.493   3.560
 5058SOL     OW16072   3.365   4.134   5.260
 5058SOL    HW116073   3.273   4.173   5.270
 5058SOL    HW216074   3.384   4.116   5.164
 5059SOL     OW16075   6.881   0.909   3.146
 5059SOL    HW116076   6.890   0.863   3.057
 5059SOL    HW216077   6.895   0.844   3.219
 5060SOL     OW16078   0.191   1.993   5.719
 5060SOL    HW116079   0.283   1.953   5.717
 5060SOL    HW216080   0.182   2.058   5.643
 5061SOL     OW16081   4.597   3.034   1.126
 5061SOL    HW116082   4.503   3.024   1.092
 5061SOL    HW216083   4.628   2.947   1.164
 5062SOL     OW16084   6.346   0.338   3.049
 5062SOL    HW116085   6.377   0.415   3.104
 5062SOL    HW216086   6.411   0.262   3.058
 5063SOL     OW16087   1.141   6.704   2.490
 5063SOL    HW116088   1.125   6.795   2.453
 5063SOL    HW216089   1.211   6.708   2.562
 5064SOL     OW16090   5.359   3.783   0.673
 5064SOL    HW116091   5.376   3.866   0.726
 5064SOL    HW216092   5.445   3.751   0.633
 5065SOL     OW16093   2.573   0.504   5.103
 5065SOL    HW116094   2.597   0.484   5.008
 5065SOL    HW216095   2.654   0.535   5.152
 5066SOL     OW16096   5.224   4.428   2.503
 5066SOL    HW116097   5.248   4.502   2.440
 5066SOL    HW216098   5.269   4.343   2.474
 5067SOL     OW16099   4.693   1.297   1.660
 5067SOL    HW116100   4.752   1.253   1.728
 5067SOL    HW216101   4.607   1.246   1.651
 5068SOL     OW16102   2.743   3.999   0.732
 5068SOL    HW116103   2.708   3.906   0.723
 5068SOL    HW216104   2.840   3.996   0.754
 5069SOL     OW16105   1.837   3.902   5.321
 5069SOL    HW116106   1.853   3.994   5.285
 5069SOL    HW216107   1.833   3.837   5.245
 5070SOL     OW16108   4.991   4.324   4.411
 5070SOL    HW116109   4.990   4.231   4.449
 5070SOL    HW216110   4.945   4.386   4.475
 5071SOL     OW16111   4.541   2.255   4.603
 5071SOL    HW116112   4.595   2.314   4.543
 5071SOL    HW216113   4.576   2.261   4.696
 5072SOL     OW16114   1.063   0.044   0.985
 5072SOL    HW116115   1.087   6.999   1.061
 5072SOL    HW216116   0.966   0.037   0.966
 5073SOL     OW16117   0.135   6.308   2.486
 5073SOL    HW116118   0.161   6.325   2.391
 5073SOL    HW216119   0.040   6.279   2.490
 5074SOL     OW16120   2.812   3.151   0.432
 5074SOL    HW116121   2.778   3.239   0.399
 5074SOL    HW216122   2.863   3.166   0.517
 5075SOL     OW16123   1.234   1.664   6.393
 5075SOL    HW116124   1.136   1.662   6.413
 5075SOL    HW216125   1.286   1.636   6.473
 5076SOL     OW16126   3.905   0.657   0.496
 5076SOL    HW116127   3.818   0.668   0.545
 5076SOL    HW216128   3.981   0.666   0.561
 5077SOL     OW16129   0.652   3.519   5.242
 5077SOL    HW116130   0.628   3.599   5.186
 5077SOL    HW216131   0.722   3.466   5.195
 5078SOL     OW16132   1.224   1.609   3.850
 5078SOL    HW116133   1.156   1.637   3.783
 5078SOL    HW216134   1.315   1.637   3.819
 5079SOL     OW16135   2.141   3.693   5.689
 5079SOL    HW116136   2.065   3.674   5.751
 5079SOL    HW216137   2.207   3.618   5.693
 5080SOL     OW16138   6.332   6.472   6.132
 5080SOL    HW116139   6.421   6.461   6.175
 5080SOL    HW216140   6.329   6.418   6.048
 5081SOL     OW16141   3.570   2.900   4.309
 5081SOL    HW116142   3.627   2.879   4.230
 5081SOL    HW216143   3.484   2.942   4.278
 5082SOL     OW16144   5.215   5.940   6.387
 5082SOL    HW116145   5.126   5.951   6.432
 5082SOL    HW216146   5.205   5.960   6.290
 5083SOL     OW16147   2.595   0.238   3.064
 5083SOL    HW116148   2.561   0.259   3.155
 5083SOL    HW216149   2.659   0.309   3.035
 5084SOL     OW16150   0.892   4.619   4.173
 5084SOL    HW116151   0.927   4.632   4.080
 5084SOL    HW216152   0.967   4.622   4.238
 5085SOL     OW16153   4.734   3.274   6.775
 5085SOL    HW116154   4.674   3.194   6.764
 5085SOL    HW216155   4.824   3.244   6.808
 5086SOL     OW16156   6.999   5.924   3.318
 5086SOL    HW116157   6.997   5.877   3.406
 5086SOL    HW216158   6.954   6.013   3.326
 5087SOL     OW16159   0.187   5.553   3.152
 5087SOL    HW116160   0.275   5.546   3.199
 5087SOL    HW216161   0.114   5.564   3.220
 5088SOL     OW16162   5.467   1.629   4.573
 5088SOL    HW116163   5.478   1.705   4.508
 5088SOL    HW216164   5.556   1.605   4.611
 5089SOL     OW16165   5.178   3.045   3.420
 5089SOL    HW116166   5.153   2.995   3.337
 5089SOL    HW216167   5.164   2.986   3.500
 5090SOL     OW16168   1.694   3.207   3.204
 5090SOL    HW116169   1.622   3.215   3.273
 5090SOL    HW216170   1.755   3.285   3.210
 5091SOL     OW16171   1.484   6.336   2.609
 5091SOL    HW116172   1.484   6.360   2.512
 5091SOL    HW216173   1.481   6.419   2.664
 5092SOL     OW16174   3.289   3.162   1.240
 5092SOL    HW116175   3.240   3.136   1.323
 5092SOL    HW216176   3.316   3.080   1.189
 5093SOL     OW16177   3.258   1.374   1.378
 5093SOL    HW116178   3.349   1.412   1.393
 5093SOL    HW216179   3.252   1.336   1.285
 5094SOL     OW16180   1.281   6.424   4.923
 5094SOL    HW116181   1.327   6.423   5.012
 5094SOL    HW216182   1.301   6.510   4.876
 5095SOL     OW16183   0.199   2.493   4.757
 5095SOL    HW116184   0.201   2.593   4.766
 5095SOL    HW216185   0.272   2.454   4.813
 5096SOL     OW16186   4.433   3.348   0.681
 5096SOL    HW116187   4.446   3.315   0.587
 5096SOL    HW216188   4.390   3.277   0.736
 5097SOL     OW16189   1.497   0.404   0.043
 5097SOL    HW116190   1.440   0.365   6.986
 5097SOL    HW216191   1.445   0.406   0.129
 5098SOL     OW16192   1.540   0.532   0.955
 5098SOL    HW116193   1.484   0.606   0.917
 5098SOL    HW216194   1.525   0.526   1.054
 5099SOL     OW16195   0.446   0.132   6.287
 5099SOL    HW116196   0.396   0.130   6.200
 5099SOL    HW216197   0.515   0.059   6.287
 5100SOL     OW16198   4.491   6.528   4.932
 5100SOL    HW116199   4.489   6.486   4.841
 5100SOL    HW216200   4.480   6.458   5.001
 5101SOL     OW16201   3.944   6.853   0.279
 5101SOL    HW116202   3.953   6.754   0.269
 5101SOL    HW216203   4.013   6.886   0.343
 5102SOL     OW16204   6.046   0.361   4.875
 5102SOL    HW116205   6.112   0.288   4.890
 5102SOL    HW216206   6.051   0.426   4.951
 5103SOL     OW16207   0.427   0.697   3.900
 5103SOL    HW116208   0.442   0.626   3.832
 5103SOL    HW216209   0.333   0.730   3.894
 5104SOL     OW16210   2.438   6.384   2.395
 5104SOL    HW116211   2.339   6.400   2.394
 5104SOL    HW216212   2.457   6.288   2.371
 5105SOL     OW16213   3.810   2.778   0.183
 5105SOL    HW116214   3.731   2.837   0.201
 5105SOL    HW216215   3.832   2.726   0.266
 5106SOL     OW16216   3.733   0.551   1.699
 5106SOL    HW116217   3.661   0.620   1.705
 5106SOL    HW216218   3.796   0.576   1.626
 5107SOL     OW16219   4.337   1.006   0.506
 5107SOL    HW116220   4.352   0.914   0.470
 5107SOL    HW216221   4.345   1.072   0.432
 5108SOL     OW16222   3.099   3.943   3.622
 5108SOL    HW116223   3.134   3.993   3.701
 5108SOL    HW216224   3.048   3.863   3.654
 5109SOL     OW16225   0.950   1.139   0.629
 5109SOL    HW116226   1.006   1.057   0.639
 5109SOL    HW216227   0.936   1.158   0.532
 5110SOL     OW16228   0.683   0.272   6.569
 5110SOL    HW116229   0.649   0.312   6.483
 5110SOL    HW216230   0.638   0.316   6.646
 5111SOL     OW16231   1.502   0.827   6.069
 5111SOL    HW116232   1.538   0.816   6.162
 5111SOL    HW216233   1.552   0.767   6.006
 5112SOL     OW16234   0.716   0.568   2.487
 5112SOL    HW116235   0.682   0.476   2.509
 5112SOL    HW216236   0.813   0.562   2.461
 5113SOL     OW16237   2.322   0.003   1.953
 5113SOL    HW116238   2.347   0.023   2.048
 5113SOL    HW216239   2.246   6.954   1.951
 5114SOL     OW16240   3.658   2.583   0.107
 5114SOL    HW116241   3.594   2.561   0.181
 5114SOL    HW216242   3.736   2.634   0.144
 5115SOL     OW16243   2.091   4.766   4.720
 5115SOL    HW116244   2.033   4.687   4.741
 5115SOL    HW216245   2.130   4.756   4.629
 5116SOL     OW16246   5.172   6.130   6.776
 5116SOL    HW116247   5.231   6.122   6.856
 5116SOL    HW216248   5.090   6.075   6.790
 5117SOL     OW16249   1.621   4.835   4.556
 5117SOL    HW116250   1.524   4.851   4.570
 5117SOL    HW216251   1.661   4.910   4.504
 5118SOL     OW16252   4.807   6.761   0.792
 5118SOL    HW116253   4.732   6.806   0.743
 5118SOL    HW216254   4.895   6.791   0.755
 5119SOL     OW16255   5.389   0.988   1.524
 5119SOL    HW116256   5.424   1.079   1.503
 5119SOL    HW216257   5.353   0.986   1.617
 5120SOL     OW16258   5.314   1.069   3.590
 5120SOL    HW116259   5.247   1.015   3.641
 5120SOL    HW216260   5.325   1.031   3.498
 5121SOL     OW16261   2.457   2.339   0.233
 5121SOL    HW116262   2.490   2.395   0.309
 5121SOL    HW216263   2.515   2.353   0.153
 5122SOL     OW16264   3.303   0.731   4.027
 5122SOL    HW116265   3.271   0.825   4.031
 5122SOL    HW216266   3.332   0.701   4.119
 5123SOL     OW16267   6.092   3.224   4.543
 5123SOL    HW116268   5.999   3.254   4.523
 5123SOL    HW216269   6.090   3.144   4.603
 5124SOL     OW16270   2.402   5.014   5.222
 5124SOL    HW116271   2.500   5.010   5.240
 5124SOL    HW216272   2.358   4.934   5.263
 5125SOL     OW16273   6.195   2.824   4.484
 5125SOL    HW116274   6.148   2.855   4.567
 5125SOL    HW216275   6.168   2.882   4.407
 5126SOL     OW16276   6.290   5.476   5.984
 5126SOL    HW116277   6.385   5.507   5.984
 5126SOL    HW216278   6.229   5.554   5.980
 5127SOL     OW16279   6.814   3.730   0.064
 5127SOL    HW116280   6.879   3.806   0.071
 5127SOL    HW216281   6.808   3.701   6.984
 5128SOL     OW16282   6.974   6.539   0.434
 5128SOL    HW116283   0.052   6.506   0.424
 5128SOL    HW216284   6.924   6.526   0.348
 5129SOL     OW16285   4.914   0.435   2.170
 5129SOL    HW116286   4.859   0.353   2.153
 5129SOL    HW216287   5.005   0.408   2.200
 5130SOL     OW16288   1.181   5.918   4.407
 5130SOL    HW116289   1.148   5.954   4.494
 5130SOL    HW216290   1.228   5.991   4.358
 5131SOL     OW16291   3.037   4.846   3.400
 5131SOL    HW116292   3.006   4.861   3.493
 5131SOL    HW216293   3.127   4.888   3.387
 5132SOL     OW16294   3.258   1.592   5.927
 5132SOL    HW116295   3.257   1.499   5.964
 5132SOL    HW216296   3.337   1.642   5.963
 5133SOL     OW16297   2.721   5.754   6.208
 5133SOL    HW116298   2.659   5.799   6.145
 5133SOL    HW216299   2.804   5.727   6.159
 5134SOL     OW16300   6.813   0.012   2.375
 5134SOL    HW116301   6.894   6.971   2.392
 5134SOL    HW216302   6.835   0.108   2.392
 5135SOL     OW16303   6.249   3.599   3.706
 5135SOL    HW116304   6.151   3.590   3.724
 5135SOL    HW216305   6.289   3.509   3.688
 5136SOL     OW16306   5.813   0.705   5.851
 5136SOL    HW116307   5.793   0.609   5.834
 5136SOL    HW216308   5.822   0.721   5.949
 5137SOL     OW16309   5.385   3.235   4.955
 5137SOL    HW116310   5.377   3.151   5.008
 5137SOL    HW216311   5.409   3.310   5.015
 5138SOL     OW16312   4.064   3.788   3.855
 5138SOL    HW116313   3.969   3.756   3.854
 5138SOL    HW216314   4.068   3.879   3.813
 5139SOL     OW16315   1.188   6.936   4.816
 5139SOL    HW116316   1.124   6.991   4.763
 5139SOL    HW216317   1.142   6.902   4.899
 5140SOL     OW16318   3.214   2.039   5.408
 5140SOL    HW116319   3.147   2.111   5.428
 5140SOL    HW216320   3.225   2.031   5.309
 5141SOL     OW16321   6.682   3.641   1.463
 5141SOL    HW116322   6.690   3.670   1.368
 5141SOL    HW216323   6.646   3.548   1.467
 5142SOL     OW16324   5.775   6.717   5.816
 5142SOL    HW116325   5.826   6.640   5.777
 5142SOL    HW216326   5.839   6.792   5.835
 5143SOL     OW16327   1.131   4.021   5.192
 5143SOL    HW116328   1.077   3.950   5.147
 5143SOL    HW216329   1.083   4.109   5.186
 5144SOL     OW16330   1.696   3.978   5.942
 5144SOL    HW116331   1.607   3.937   5.964
 5144SOL    HW216332   1.699   4.072   5.976
 5145SOL     OW16333   3.865   6.537   6.371
 5145SOL    HW116334   3.776   6.493   6.362
 5145SOL    HW216335   3.868   6.589   6.456
 5146SOL     OW16336   3.650   3.948   4.937
 5146SOL    HW116337   3.682   4.042   4.930
 5146SOL    HW216338   3.643   3.921   5.033
 5147SOL     OW16339   5.977   5.027   3.446
 5147SOL    HW116340   6.075   5.030   3.430
 5147SOL    HW216341   5.932   4.989   3.365
 5148SOL     OW16342   0.383   0.528   2.113
 5148SOL    HW116343   0.398   0.587   2.192
 5148SOL    HW216344   0.436   0.562   2.036
 5149SOL     OW16345   6.045   5.263   4.384
 5149SOL    HW116346   5.976   5.287   4.317
 5149SOL    HW216347   6.099   5.186   4.351
 5150SOL     OW16348   2.147   4.094   3.892
 5150SOL    HW116349   2.142   3.998   3.867
 5150SOL    HW216350   2.129   4.151   3.812
 5151SOL     OW16351   6.393   3.892   1.433
 5151SOL    HW116352   6.397   3.812   1.494
 5151SOL    HW216353   6.474   3.893   1.375
 5152SOL     OW16354   1.336   5.848   6.319
 5152SOL    HW116355   1.378   5.797   6.244
 5152SOL    HW216356   1.288   5.784   6.379
 5153SOL     OW16357   0.797   2.043   0.637
 5153SOL    HW116358   0.837   2.107   0.571
 5153SOL    HW216359   0.846   1.956   0.632
 5154SOL     OW16360   1.671   2.808   6.695
 5154SOL    HW116361   1.654   2.905   6.675
 5154SOL    HW216362   1.734   2.770   6.627
 5155SOL     OW16363   4.410   1.201   1.056
 5155SOL    HW116364   4.319   1.228   1.025
 5155SOL    HW216365   4.415   1.101   1.058
 5156SOL     OW16366   5.559   4.464   4.722
 5156SOL    HW116367   5.632   4.454   4.654
 5156SOL    HW216368   5.598   4.454   4.814
 5157SOL     OW16369   3.292   2.113   2.389
 5157SOL    HW116370   3.357   2.155   2.325
 5157SOL    HW216371   3.306   2.014   2.391
 5158SOL     OW16372   2.960   2.210   0.547
 5158SOL    HW116373   3.037   2.156   0.513
 5158SOL    HW216374   2.955   2.203   0.646
 5159SOL     OW16375   5.977   4.049   6.334
 5159SOL    HW116376   6.007   3.980   6.400
 5159SOL    HW216377   5.912   4.111   6.377
 5160SOL     OW16378   6.901   5.768   3.536
 5160SOL    HW116379   6.807   5.802   3.537
 5160SOL    HW216380   6.901   5.668   3.526
 5161SOL     OW16381   1.403   3.230   0.130
 5161SOL    HW116382   1.314   3.269   0.106
 5161SOL    HW216383   1.475   3.295   0.108
 5162SOL     OW16384   0.933   5.272   2.210
 5162SOL    HW116385   0.860   5.208   2.233
 5162SOL    HW216386   0.919   5.358   2.260
 5163SOL     OW16387   3.872   0.046   0.944
 5163SOL    HW116388   3.795   6.998   0.955
 5163SOL    HW216389   3.948   0.017   1.003
 5164SOL     OW16390   3.200   3.089   6.617
 5164SOL    HW116391   3.166   2.998   6.639
 5164SOL    HW216392   3.125   3.146   6.585
 5165SOL     OW16393   1.209   4.547   6.584
 5165SOL    HW116394   1.305   4.531   6.604
 5165SOL    HW216395   1.171   4.469   6.536
 5166SOL     OW16396   1.460   5.086   2.695
 5166SOL    HW116397   1.406   5.140   2.759
 5166SOL    HW216398   1.538   5.046   2.742
 5167SOL     OW16399   6.614   4.474   4.886
 5167SOL    HW116400   6.665   4.449   4.803
 5167SOL    HW216401   6.677   4.514   4.952
 5168SOL     OW16402   5.345   2.589   3.033
 5168SOL    HW116403   5.277   2.642   2.983
 5168SOL    HW216404   5.395   2.530   2.970
 5169SOL     OW16405   4.645   1.866   3.241
 5169SOL    HW116406   4.716   1.813   3.287
 5169SOL    HW216407   4.599   1.809   3.173
 5170SOL     OW16408   1.319   3.444   5.387
 5170SOL    HW116409   1.241   3.492   5.426
 5170SOL    HW216410   1.379   3.411   5.460
 5171SOL     OW16411   0.023   4.857   5.394
 5171SOL    HW116412   6.939   4.864   5.394
 5171SOL    HW216413   0.058   4.889   5.483
 5172SOL     OW16414   1.077   4.115   3.260
 5172SOL    HW116415   1.006   4.045   3.249
 5172SOL    HW216416   1.051   4.198   3.211
 5173SOL     OW16417   4.004   4.293   5.936
 5173SOL    HW116418   4.096   4.302   5.974
 5173SOL    HW216419   3.991   4.361   5.864
 5174SOL     OW16420   2.295   6.062   4.153
 5174SOL    HW116421   2.263   5.973   4.120
 5174SOL    HW216422   2.343   6.050   4.240
 5175SOL     OW16423   2.478   3.616   6.898
 5175SOL    HW116424   2.410   3.645   6.966
 5175SOL    HW216425   2.536   3.694   6.874
 5176SOL     OW16426   5.040   4.821   6.601
 5176SOL    HW116427   5.005   4.914   6.591
 5176SOL    HW216428   5.050   4.799   6.698
 5177SOL     OW16429   4.571   6.328   1.578
 5177SOL    HW116430   4.538   6.273   1.655
 5177SOL    HW216431   4.669   6.314   1.567
 5178SOL     OW16432   1.225   4.558   1.892
 5178SOL    HW116433   1.198   4.518   1.804
 5178SOL    HW216434   1.144   4.575   1.947
 5179SOL     OW16435   4.606   4.338   4.027
 5179SOL    HW116436   4.695   4.361   4.066
 5179SOL    HW216437   4.541   4.411   4.048
 5180SOL     OW16438   3.645   0.848   1.118
 5180SOL    HW116439   3.633   0.948   1.120
 5180SOL    HW216440   3.715   0.822   1.185
 5181SOL     OW16441   6.241   6.950   1.077
 5181SOL    HW116442   6.314   6.944   1.145
 5181SOL    HW216443   6.246   0.022   1.029
 5182SOL     OW16444   4.637   4.504   1.857
 5182SOL    HW116445   4.585   4.526   1.774
 5182SOL    HW216446   4.609   4.415   1.892
 5183SOL     OW16447   4.336   2.056   2.735
 5183SOL    HW116448   4.256   1.996   2.735
 5183SOL    HW216449   4.409   2.013   2.788
 5184SOL     OW16450   2.151   1.655   2.862
 5184SOL    HW116451   2.209   1.627   2.938
 5184SOL    HW216452   2.175   1.748   2.834
 5185SOL     OW16453   5.337   0.370   2.604
 5185SOL    HW116454   5.268   0.326   2.662
 5185SOL    HW216455   5.405   0.302   2.576
 5186SOL     OW16456   6.317   2.882   6.047
 5186SOL    HW116457   6.353   2.943   6.118
 5186SOL    HW216458   6.289   2.935   5.968
 5187SOL     OW16459   1.272   5.366   5.268
 5187SOL    HW116460   1.279   5.266   5.266
 5187SOL    HW216461   1.179   5.392   5.296
 5188SOL     OW16462   6.094   6.007   1.868
 5188SOL    HW116463   6.192   6.026   1.875
 5188SOL    HW216464   6.073   5.978   1.775
 5189SOL     OW16465   4.876   6.081   0.443
 5189SOL    HW116466   4.900   6.043   0.354
 5189SOL    HW216467   4.777   6.084   0.453
 5190SOL     OW16468   1.183   3.574   3.317
 5190SOL    HW116469   1.208   3.479   3.297
 5190SOL    HW216470   1.242   3.635   3.265
 5191SOL     OW16471   3.515   5.869   2.760
 5191SOL    HW116472   3.443   5.822   2.811
 5191SOL    HW216473   3.578   5.802   2.721
 5192SOL     OW16474   1.888   5.925   1.115
 5192SOL    HW116475   1.849   5.978   1.190
 5192SOL    HW216476   1.900   5.830   1.145
 5193SOL     OW16477   4.512   5.955   5.407
 5193SOL    HW116478   4.428   5.901   5.399
 5193SOL    HW216479   4.575   5.910   5.470
 5194SOL     OW16480   3.433   2.493   6.965
 5194SOL    HW116481   3.511   2.547   6.997
 5194SOL    HW216482   3.389   2.541   6.888
 5195SOL     OW16483   0.265   0.521   4.376
 5195SOL    HW116484   0.246   0.423   4.364
 5195SOL    HW216485   0.364   0.534   4.385
 5196SOL     OW16486   4.535   6.928   2.300
 5196SOL    HW116487   4.565   7.015   2.261
 5196SOL    HW216488   4.442   6.937   2.336
 5197SOL     OW16489   1.382   3.917   6.597
 5197SOL    HW116490   1.405   4.010   6.627
 5197SOL    HW216491   1.362   3.860   6.676
 5198SOL     OW16492   4.235   5.437   3.323
 5198SOL    HW116493   4.328   5.436   3.360
 5198SOL    HW216494   4.170   5.413   3.395
 5199SOL     OW16495   0.682   5.578   0.531
 5199SOL    HW116496   0.718   5.564   0.439
 5199SOL    HW216497   0.711   5.502   0.590
 5200SOL     OW16498   6.946   3.916   4.989
 5200SOL    HW116499   6.891   3.997   4.972
 5200SOL    HW216500   0.027   3.936   4.969
 5201SOL     OW16501   0.649   6.749   3.388
 5201SOL    HW116502   0.572   6.813   3.389
 5201SOL    HW216503   0.710   6.769   3.464
 5202SOL     OW16504   6.019   2.989   6.620
 5202SOL    HW116505   5.974   2.903   6.643
 5202SOL    HW216506   6.004   3.055   6.693
 5203SOL     OW16507   1.822   1.777   6.820
 5203SOL    HW116508   1.872   1.709   6.873
 5203SOL    HW216509   1.773   1.839   6.881
 5204SOL     OW16510   3.942   5.355   0.299
 5204SOL    HW116511   3.994   5.412   0.235
 5204SOL    HW216512   3.982   5.360   0.390
 5205SOL     OW16513   2.379   0.107   0.818
 5205SOL    HW116514   2.336   0.079   0.904
 5205SOL    HW216515   2.474   0.133   0.835
 5206SOL     OW16516   0.280   3.701   5.586
 5206SOL    HW116517   0.328   3.638   5.525
 5206SOL    HW216518   0.200   3.739   5.540
 5207SOL     OW16519   0.857   5.600   4.137
 5207SOL    HW116520   0.772   5.578   4.185
 5207SOL    HW216521   0.890   5.690   4.167
 5208SOL     OW16522   3.600   1.832   0.235
 5208SOL    HW116523   3.567   1.740   0.212
 5208SOL    HW216524   3.600   1.844   0.334
 5209SOL     OW16525   5.860   5.813   3.842
 5209SOL    HW116526   5.850   5.885   3.773
 5209SOL    HW216527   5.771   5.794   3.882
 5210SOL     OW16528   5.976   2.974   5.757
 5210SOL    HW116529   5.996   2.988   5.854
 5210SOL    HW216530   6.055   2.932   5.712
 5211SOL     OW16531   3.891   2.959   4.728
 5211SOL    HW116532   3.955   2.890   4.695
 5211SOL    HW216533   3.829   2.986   4.653
 5212SOL     OW16534   6.279   1.765   0.748
 5212SOL    HW116535   6.284   1.670   0.781
 5212SOL    HW216536   6.371   1.805   0.747
 5213SOL     OW16537   4.951   3.876   6.275
 5213SOL    HW116538   5.042   3.864   6.233
 5213SOL    HW216539   4.959   3.863   6.374
 5214SOL     OW16540   5.395   1.649   6.559
 5214SOL    HW116541   5.486   1.690   6.562
 5214SOL    HW216542   5.353   1.654   6.650
 5215SOL     OW16543   5.290   5.290   3.376
 5215SOL    HW116544   5.330   5.261   3.463
 5215SOL    HW216545   5.296   5.215   3.310
 5216SOL     OW16546   4.112   6.100   1.989
 5216SOL    HW116547   4.024   6.072   1.952
 5216SOL    HW216548   4.164   6.150   1.920
 5217SOL     OW16549   4.039   5.478   3.970
 5217SOL    HW116550   3.984   5.425   3.906
 5217SOL    HW216551   4.046   5.428   4.057
 5218SOL     OW16552   1.118   0.383   3.413
 5218SOL    HW116553   1.113   0.316   3.488
 5218SOL    HW216554   1.029   0.392   3.370
 5219SOL     OW16555   3.465   0.528   6.209
 5219SOL    HW116556   3.481   0.566   6.118
 5219SOL    HW216557   3.378   0.479   6.211
 5220SOL     OW16558   1.653   5.332   2.945
 5220SOL    HW116559   1.639   5.431   2.947
 5220SOL    HW216560   1.750   5.312   2.953
 5221SOL     OW16561   5.659   2.324   4.250
 5221SOL    HW116562   5.617   2.286   4.167
 5221SOL    HW216563   5.602   2.302   4.329
 5222SOL     OW16564   2.196   0.169   4.089
 5222SOL    HW116565   2.271   0.115   4.050
 5222SOL    HW216566   2.187   0.255   4.038
 5223SOL     OW16567   5.366   0.616   1.035
 5223SOL    HW116568   5.343   0.540   0.974
 5223SOL    HW216569   5.356   0.587   1.130
 5224SOL     OW16570   1.086   1.694   3.648
 5224SOL    HW116571   1.102   1.787   3.613
 5224SOL    HW216572   1.105   1.628   3.576
 5225SOL     OW16573   6.328   0.175   2.645
 5225SOL    HW116574   6.263   0.102   2.627
 5225SOL    HW216575   6.288   0.241   2.709
 5226SOL     OW16576   1.036   5.434   5.340
 5226SOL    HW116577   1.030   5.518   5.394
 5226SOL    HW216578   0.972   5.366   5.376
 5227SOL     OW16579   1.550   4.379   3.680
 5227SOL    HW116580   1.531   4.438   3.601
 5227SOL    HW216581   1.463   4.347   3.718
 5228SOL     OW16582   6.702   2.724   1.136
 5228SOL    HW116583   6.616   2.769   1.110
 5228SOL    HW216584   6.779   2.775   1.098
 5229SOL     OW16585   1.195   3.965   0.501
 5229SOL    HW116586   1.096   3.967   0.508
 5229SOL    HW216587   1.234   3.940   0.589
 5230SOL     OW16588   0.042   6.516   1.368
 5230SOL    HW116589   0.108   6.463   1.420
 5230SOL    HW216590   0.089   6.567   1.296
 5231SOL     OW16591   3.869   3.957   4.072
 5231SOL    HW116592   3.819   4.017   4.009
 5231SOL    HW216593   3.819   3.871   4.083
 5232SOL     OW16594   3.303   2.324   5.865
 5232SOL    HW116595   3.369   2.356   5.797
 5232SOL    HW216596   3.324   2.230   5.891
 5233SOL     OW16597   6.254   6.822   1.539
 5233SOL    HW116598   6.223   6.912   1.510
 5233SOL    HW216599   6.178   6.757   1.535
 5234SOL     OW16600   2.969   0.227   6.518
 5234SOL    HW116601   2.943   0.299   6.583
 5234SOL    HW216602   2.929   0.140   6.547
 5235SOL     OW16603   1.831   3.268   1.112
 5235SOL    HW116604   1.890   3.191   1.088
 5235SOL    HW216605   1.739   3.235   1.132
 5236SOL     OW16606   5.717   3.534   2.115
 5236SOL    HW116607   5.684   3.586   2.037
 5236SOL    HW216608   5.816   3.548   2.125
 5237SOL     OW16609   2.824   0.972   5.407
 5237SOL    HW116610   2.843   0.933   5.497
 5237SOL    HW216611   2.897   0.946   5.344
 5238SOL     OW16612   1.626   4.839   0.320
 5238SOL    HW116613   1.696   4.769   0.336
 5238SOL    HW216614   1.639   4.915   0.384
 5239SOL     OW16615   4.154   3.512   3.923
 5239SOL    HW116616   4.155   3.611   3.914
 5239SOL    HW216617   4.179   3.487   4.017
 5240SOL     OW16618   2.540   1.471   6.135
 5240SOL    HW116619   2.469   1.442   6.072
 5240SOL    HW216620   2.621   1.501   6.084
 5241SOL     OW16621   1.168   5.760   6.079
 5241SOL    HW116622   1.131   5.707   6.155
 5241SOL    HW216623   1.094   5.809   6.033
 5242SOL     OW16624   6.598   6.414   6.091
 5242SOL    HW116625   6.685   6.386   6.132
 5242SOL    HW216626   6.582   6.361   6.008
 5243SOL     OW16627   1.224   6.219   1.548
 5243SOL    HW116628   1.144   6.268   1.514
 5243SOL    HW216629   1.283   6.282   1.599
 5244SOL     OW16630   3.958   4.135   6.249
 5244SOL    HW116631   3.922   4.081   6.325
 5244SOL    HW216632   3.883   4.165   6.191
 5245SOL     OW16633   4.036   4.399   0.334
 5245SOL    HW116634   4.049   4.382   0.236
 5245SOL    HW216635   4.056   4.316   0.385
 5246SOL     OW16636   5.503   4.463   2.800
 5246SOL    HW116637   5.526   4.499   2.709
 5246SOL    HW216638   5.580   4.476   2.862
 5247SOL     OW16639   1.323   6.029   0.778
 5247SOL    HW116640   1.294   6.038   0.683
 5247SOL    HW216641   1.248   6.057   0.838
 5248SOL     OW16642   6.086   0.756   4.903
 5248SOL    HW116643   6.115   0.813   4.826
 5248SOL    HW216644   6.156   0.687   4.922
 5249SOL     OW16645   0.926   4.881   5.554
 5249SOL    HW116646   0.842   4.930   5.576
 5249SOL    HW216647   0.939   4.879   5.454
 5250SOL     OW16648   0.087   1.257   5.681
 5250SOL    HW116649   0.094   1.197   5.601
 5250SOL    HW216650   0.176   1.261   5.726
 5251SOL     OW16651   0.506   3.019   1.365
 5251SOL    HW116652   0.589   2.981   1.405
 5251SOL    HW216653   0.461   2.949   1.309
 5252SOL     OW16654   2.211   5.655   1.154
 5252SOL    HW116655   2.175   5.719   1.222
 5252SOL    HW216656   2.173   5.678   1.064
 5253SOL     OW16657   5.671   4.041   5.793
 5253SOL    HW116658   5.736   4.032   5.868
 5253SOL    HW216659   5.648   4.137   5.780
 5254SOL     OW16660   5.906   1.272   3.489
 5254SOL    HW116661   5.967   1.326   3.430
 5254SOL    HW216662   5.881   1.187   3.442
 5255SOL     OW16663   4.456   0.426   5.739
 5255SOL    HW116664   4.378   0.366   5.758
 5255SOL    HW216665   4.429   0.497   5.675
 5256SOL     OW16666   4.707   1.135   3.241
 5256SOL    HW116667   4.789   1.183   3.272
 5256SOL    HW216668   4.677   1.071   3.312
 5257SOL     OW16669   4.328   0.508   1.864
 5257SOL    HW116670   4.332   0.482   1.768
 5257SOL    HW216671   4.243   0.557   1.882
 5258SOL     OW16672   5.383   4.309   2.069
 5258SOL    HW116673   5.377   4.327   2.167
 5258SOL    HW216674   5.341   4.220   2.049
 5259SOL     OW16675   4.420   6.398   1.234
 5259SOL    HW116676   4.326   6.372   1.211
 5259SOL    HW216677   4.482   6.324   1.208
 5260SOL     OW16678   5.866   3.825   1.063
 5260SOL    HW116679   5.902   3.753   1.121
 5260SOL    HW216680   5.922   3.907   1.072
 5261SOL     OW16681   1.556   3.096   5.894
 5261SOL    HW116682   1.465   3.112   5.929
 5261SOL    HW216683   1.611   3.048   5.963
 5262SOL     OW16684   3.406   0.444   2.491
 5262SOL    HW116685   3.483   0.408   2.543
 5262SOL    HW216686   3.382   0.380   2.418
 5263SOL     OW16687   0.980   1.005   5.746
 5263SOL    HW116688   1.002   1.089   5.795
 5263SOL    HW216689   0.929   1.028   5.662
 5264SOL     OW16690   6.455   0.321   2.080
 5264SOL    HW116691   6.460   0.222   2.066
 5264SOL    HW216692   6.511   0.346   2.159
 5265SOL     OW16693   4.893   4.554   2.922
 5265SOL    HW116694   4.843   4.483   2.973
 5265SOL    HW216695   4.979   4.573   2.969
 5266SOL     OW16696   2.807   0.693   2.286
 5266SOL    HW116697   2.725   0.718   2.337
 5266SOL    HW216698   2.827   0.596   2.300
 5267SOL     OW16699   4.582   4.844   6.014
 5267SOL    HW116700   4.585   4.745   6.021
 5267SOL    HW216701   4.628   4.884   6.093
 5268SOL     OW16702   6.010   5.877   6.360
 5268SOL    HW116703   5.987   5.796   6.414
 5268SOL    HW216704   6.107   5.873   6.334
 5269SOL     OW16705   2.712   6.574   4.401
 5269SOL    HW116706   2.673   6.660   4.435
 5269SOL    HW216707   2.796   6.553   4.451
 5270SOL     OW16708   4.600   1.663   1.811
 5270SOL    HW116709   4.539   1.593   1.774
 5270SOL    HW216710   4.695   1.634   1.800
 5271SOL     OW16711   4.544   5.073   4.811
 5271SOL    HW116712   4.556   4.974   4.809
 5271SOL    HW216713   4.571   5.112   4.723
 5272SOL     OW16714   1.773   5.670   3.436
 5272SOL    HW116715   1.860   5.685   3.390
 5272SOL    HW216716   1.757   5.744   3.502
 5273SOL     OW16717   0.437   3.498   3.474
 5273SOL    HW116718   0.359   3.439   3.454
 5273SOL    HW216719   0.462   3.489   3.571
 5274SOL     OW16720   5.947   4.966   2.506
 5274SOL    HW116721   5.999   4.972   2.420
 5274SOL    HW216722   5.989   4.898   2.565
 5275SOL     OW16723   3.446   1.197   6.292
 5275SOL    HW116724   3.412   1.278   6.340
 5275SOL    HW216725   3.454   1.121   6.356
 5276SOL     OW16726   1.124   6.662   0.954
 5276SOL    HW116727   1.092   6.584   1.008
 5276SOL    HW216728   1.126   6.638   0.857
 5277SOL     OW16729   1.241   2.509   3.301
 5277SOL    HW116730   1.272   2.583   3.241
 5277SOL    HW216731   1.144   2.523   3.323
 5278SOL     OW16732   5.239   6.637   4.525
 5278SOL    HW116733   5.294   6.608   4.604
 5278SOL    HW216734   5.147   6.599   4.533
 5279SOL     OW16735   1.619   5.522   6.380
 5279SOL    HW116736   1.638   5.582   6.457
 5279SOL    HW216737   1.587   5.433   6.413
 5280SOL     OW16738   3.042   5.572   5.658
 5280SOL    HW116739   2.967   5.522   5.701
 5280SOL    HW216740   3.069   5.526   5.573
 5281SOL     OW16741   1.349   0.692   3.889
 5281SOL    HW116742   1.294   0.610   3.904
 5281SOL    HW216743   1.328   0.730   3.799
 5282SOL     OW16744   1.500   1.398   2.504
 5282SOL    HW116745   1.532   1.390   2.410
 5282SOL    HW216746   1.438   1.322   2.525
 5283SOL     OW16747   2.927   0.196   2.519
 5283SOL    HW116748   2.920   0.108   2.566
 5283SOL    HW216749   2.960   0.181   2.426
 5284SOL     OW16750   4.838   3.174   2.583
 5284SOL    HW116751   4.837   3.108   2.658
 5284SOL    HW216752   4.828   3.126   2.496
 5285SOL     OW16753   1.608   3.458   4.270
 5285SOL    HW116754   1.570   3.539   4.316
 5285SOL    HW216755   1.598   3.379   4.329
 5286SOL     OW16756   6.391   3.600   1.193
 5286SOL    HW116757   6.332   3.677   1.171
 5286SOL    HW216758   6.374   3.525   1.129
 5287SOL     OW16759   2.360   6.003   1.640
 5287SOL    HW116760   2.369   6.063   1.720
 5287SOL    HW216761   2.378   6.056   1.557
 5288SOL     OW16762   3.860   1.014   2.701
 5288SOL    HW116763   3.905   1.081   2.761
 5288SOL    HW216764   3.914   1.000   2.619
 5289SOL     OW16765   1.617   6.070   6.022
 5289SOL    HW116766   1.683   6.013   6.071
 5289SOL    HW216767   1.656   6.160   6.005
 5290SOL     OW16768   0.918   4.517   6.110
 5290SOL    HW116769   0.834   4.464   6.117
 5290SOL    HW216770   0.926   4.578   6.189
 5291SOL     OW16771   2.952   4.826   6.294
 5291SOL    HW116772   2.927   4.923   6.294
 5291SOL    HW216773   2.992   4.801   6.206
 5292SOL     OW16774   6.348   4.695   6.502
 5292SOL    HW116775   6.275   4.637   6.465
 5292SOL    HW216776   6.356   4.777   6.446
 5293SOL     OW16777   1.563   6.885   4.573
 5293SOL    HW116778   1.492   6.955   4.578
 5293SOL    HW216779   1.547   6.815   4.643
 5294SOL     OW16780   5.644   2.909   4.871
 5294SOL    HW116781   5.608   2.948   4.956
 5294SOL    HW216782   5.592   2.945   4.794
 5295SOL     OW16783   4.548   1.012   3.042
 5295SOL    HW116784   4.610   1.038   3.117
 5295SOL    HW216785   4.565   0.916   3.018
 5296SOL     OW16786   3.129   5.023   6.936
 5296SOL    HW116787   3.139   5.049   6.840
 5296SOL    HW216788   3.041   4.978   6.950
 5297SOL     OW16789   1.930   3.000   0.707
 5297SOL    HW116790   1.970   2.976   0.619
 5297SOL    HW216791   1.948   3.097   0.727
 5298SOL     OW16792   1.104   6.089   0.082
 5298SOL    HW116793   1.039   6.160   0.057
 5298SOL    HW216794   1.184   6.094   0.023
 5299SOL     OW16795   2.402   3.403   0.555
 5299SOL    HW116796   2.408   3.499   0.582
 5299SOL    HW216797   2.438   3.345   0.628
 5300SOL     OW16798   1.096   5.838   0.912
 5300SOL    HW116799   1.094   5.777   0.992
 5300SOL    HW216800   1.089   5.933   0.943
 5301SOL     OW16801   3.525   2.052   6.427
 5301SOL    HW116802   3.514   2.123   6.496
 5301SOL    HW216803   3.549   2.094   6.339
 5302SOL     OW16804   5.994   5.601   3.730
 5302SOL    HW116805   6.004   5.614   3.631
 5302SOL    HW216806   5.947   5.680   3.769
 5303SOL     OW16807   0.057   5.143   4.084
 5303SOL    HW116808   7.008   5.194   4.027
 5303SOL    HW216809   0.148   5.184   4.077
 5304SOL     OW16810   5.264   0.893   0.523
 5304SOL    HW116811   5.240   0.990   0.525
 5304SOL    HW216812   5.343   0.877   0.582
 5305SOL     OW16813   0.683   4.778   2.929
 5305SOL    HW116814   0.733   4.821   3.004
 5305SOL    HW216815   0.596   4.742   2.963
 5306SOL     OW16816   1.292   4.008   4.887
 5306SOL    HW116817   1.298   3.961   4.976
 5306SOL    HW216818   1.315   4.104   4.899
 5307SOL     OW16819   4.370   1.983   0.116
 5307SOL    HW116820   4.270   1.978   0.116
 5307SOL    HW216821   4.400   2.061   0.170
 5308SOL     OW16822   0.853   4.747   3.586
 5308SOL    HW116823   0.952   4.734   3.586
 5308SOL    HW216824   0.825   4.794   3.670
 5309SOL     OW16825   3.971   4.716   1.535
 5309SOL    HW116826   3.897   4.650   1.549
 5309SOL    HW216827   3.985   4.769   1.619
 5310SOL     OW16828   6.453   4.006   2.036
 5310SOL    HW116829   6.399   3.924   2.013
 5310SOL    HW216830   6.394   4.076   2.075
 5311SOL     OW16831   6.712   6.016   6.819
 5311SOL    HW116832   6.724   6.107   6.860
 5311SOL    HW216833   6.767   5.950   6.870
 5312SOL     OW16834   0.182   5.248   1.684
 5312SOL    HW116835   0.102   5.299   1.715
 5312SOL    HW216836   0.265   5.294   1.714
 5313SOL     OW16837   1.588   3.651   5.925
 5313SOL    HW116838   1.554   3.651   5.831
 5313SOL    HW216839   1.548   3.728   5.975
 5314SOL     OW16840   3.112   6.585   0.574
 5314SOL    HW116841   3.139   6.665   0.628
 5314SOL    HW216842   3.028   6.606   0.524
 5315SOL     OW16843   5.032   3.762   1.605
 5315SOL    HW116844   4.996   3.733   1.694
 5315SOL    HW216845   4.970   3.729   1.533
 5316SOL     OW16846   0.937   3.663   4.332
 5316SOL    HW116847   1.026   3.623   4.310
 5316SOL    HW216848   0.946   3.723   4.412
 5317SOL     OW16849   6.087   0.243   4.569
 5317SOL    HW116850   6.008   0.287   4.612
 5317SOL    HW216851   6.162   0.309   4.561
 5318SOL     OW16852   0.608   3.129   6.252
 5318SOL    HW116853   0.613   3.053   6.316
 5318SOL    HW216854   0.699   3.167   6.237
 5319SOL     OW16855   3.509   6.489   0.223
 5319SOL    HW116856   3.446   6.458   0.294
 5319SOL    HW216857   3.554   6.410   0.181
 5320SOL     OW16858   5.242   5.009   0.254
 5320SOL    HW116859   5.164   4.953   0.282
 5320SOL    HW216860   5.291   5.042   0.335
 5321SOL     OW16861   1.085   5.194   4.559
 5321SOL    HW116862   1.037   5.281   4.556
 5321SOL    HW216863   1.027   5.122   4.521
 5322SOL     OW16864   5.022   6.324   6.094
 5322SOL    HW116865   5.078   6.402   6.123
 5322SOL    HW216866   4.942   6.318   6.153
 5323SOL     OW16867   4.186   2.074   6.901
 5323SOL    HW116868   4.136   2.012   6.963
 5323SOL    HW216869   4.137   2.161   6.895
 5324SOL     OW16870   3.642   2.345   0.619
 5324SOL    HW116871   3.686   2.329   0.530
 5324SOL    HW216872   3.573   2.275   0.635
 5325SOL     OW16873   4.617   0.509   4.370
 5325SOL    HW116874   4.587   0.492   4.464
 5325SOL    HW216875   4.592   0.431   4.313
 5326SOL     OW16876   6.433   5.110   3.094
 5326SOL    HW116877   6.436   5.192   3.038
 5326SOL    HW216878   6.382   5.038   3.046
 5327SOL     OW16879   5.652   3.183   5.514
 5327SOL    HW116880   5.698   3.206   5.429
 5327SOL    HW216881   5.582   3.251   5.535
 5328SOL     OW16882   4.452   2.964   5.368
 5328SOL    HW116883   4.522   3.035   5.372
 5328SOL    HW216884   4.491   2.878   5.401
 5329SOL     OW16885   0.439   4.523   0.266
 5329SOL    HW116886   0.431   4.603   0.207
 5329SOL    HW216887   0.388   4.538   0.351
 5330SOL     OW16888   3.298   4.375   5.827
 5330SOL    HW116889   3.393   4.402   5.809
 5330SOL    HW216890   3.267   4.417   5.913
 5331SOL     OW16891   5.279   1.157   0.649
 5331SOL    HW116892   5.378   1.166   0.635
 5331SOL    HW216893   5.252   1.214   0.726
 5332SOL     OW16894   0.781   3.405   1.185
 5332SOL    HW116895   0.738   3.485   1.144
 5332SOL    HW216896   0.874   3.428   1.214
 5333SOL     OW16897   0.794   0.591   3.710
 5333SOL    HW116898   0.871   0.649   3.685
 5333SOL    HW216899   0.755   0.550   3.628
 5334SOL     OW16900   3.737   0.206   4.512
 5334SOL    HW116901   3.735   0.291   4.564
 5334SOL    HW216902   3.831   0.178   4.496
 5335SOL     OW16903   6.613   5.435   2.378
 5335SOL    HW116904   6.566   5.501   2.320
 5335SOL    HW216905   6.710   5.432   2.354
 5336SOL     OW16906   2.689   2.100   2.895
 5336SOL    HW116907   2.631   2.115   2.975
 5336SOL    HW216908   2.636   2.056   2.823
 5337SOL     OW16909   5.159   4.424   1.585
 5337SOL    HW116910   5.204   4.480   1.655
 5337SOL    HW216911   5.162   4.328   1.611
 5338SOL     OW16912   5.942   2.100   6.279
 5338SOL    HW116913   5.912   2.089   6.373
 5338SOL    HW216914   5.872   2.150   6.227
 5339SOL     OW16915   6.683   2.122   4.337
 5339SOL    HW116916   6.662   2.160   4.247
 5339SOL    HW216917   6.781   2.101   4.343
 5340SOL     OW16918   5.412   3.122   1.317
 5340SOL    HW116919   5.354   3.185   1.368
 5340SOL    HW216920   5.369   3.102   1.228
 5341SOL     OW16921   3.323   3.771   6.296
 5341SOL    HW116922   3.264   3.774   6.216
 5341SOL    HW216923   3.282   3.824   6.370
 5342SOL     OW16924   3.065   0.306   3.737
 5342SOL    HW116925   3.002   0.235   3.767
 5342SOL    HW216926   3.137   0.265   3.681
 5343SOL     OW16927   3.911   3.563   4.433
 5343SOL    HW116928   3.842   3.491   4.443
 5343SOL    HW216929   4.002   3.526   4.452
 5344SOL     OW16930   2.396   2.258   2.656
 5344SOL    HW116931   2.356   2.244   2.747
 5344SOL    HW216932   2.449   2.343   2.656
 5345SOL     OW16933   3.664   0.049   1.455
 5345SOL    HW116934   3.595   0.070   1.525
 5345SOL    HW216935   3.647   6.973   1.417
 5346SOL     OW16936   3.044   6.004   4.372
 5346SOL    HW116937   2.961   6.042   4.414
 5346SOL    HW216938   3.099   6.079   4.335
 5347SOL     OW16939   0.623   2.592   1.662
 5347SOL    HW116940   0.598   2.606   1.758
 5347SOL    HW216941   0.632   2.681   1.618
 5348SOL     OW16942   6.551   2.214   1.025
 5348SOL    HW116943   6.536   2.311   1.045
 5348SOL    HW216944   6.649   2.196   1.021
 5349SOL     OW16945   1.997   2.810   0.377
 5349SOL    HW116946   1.903   2.783   0.359
 5349SOL    HW216947   2.010   2.906   0.353
 5350SOL     OW16948   1.446   6.885   5.486
 5350SOL    HW116949   1.528   6.845   5.444
 5350SOL    HW216950   1.405   6.819   5.549
 5351SOL     OW16951   6.866   5.006   2.509
 5351SOL    HW116952   6.766   5.011   2.519
 5351SOL    HW216953   6.907   4.985   2.598
 5352SOL     OW16954   2.616   4.773   3.532
 5352SOL    HW116955   2.604   4.692   3.589
 5352SOL    HW216956   2.572   4.759   3.443
 5353SOL     OW16957   4.192   4.758   3.662
 5353SOL    HW116958   4.251   4.741   3.583
 5353SOL    HW216959   4.221   4.701   3.738
 5354SOL     OW16960   2.580   5.416   1.999
 5354SOL    HW116961   2.524   5.458   1.928
 5354SOL    HW216962   2.647   5.482   2.033
 5355SOL     OW16963   6.525   4.006   3.896
 5355SOL    HW116964   6.493   3.914   3.873
 5355SOL    HW216965   6.453   4.073   3.876
 5356SOL     OW16966   5.819   4.894   1.543
 5356SOL    HW116967   5.844   4.912   1.448
 5356SOL    HW216968   5.818   4.795   1.559
 5357SOL     OW16969   3.915   6.307   1.001
 5357SOL    HW116970   3.844   6.360   1.048
 5357SOL    HW216971   3.998   6.362   0.993
 5358SOL     OW16972   4.542   1.536   0.415
 5358SOL    HW116973   4.629   1.493   0.387
 5358SOL    HW216974   4.515   1.500   0.504
 5359SOL     OW16975   0.901   1.301   5.836
 5359SOL    HW116976   0.912   1.315   5.738
 5359SOL    HW216977   0.810   1.266   5.855
 5360SOL     OW16978   3.799   6.739   5.044
 5360SOL    HW116979   3.730   6.668   5.058
 5360SOL    HW216980   3.889   6.697   5.033
 5361SOL     OW16981   2.592   1.062   5.720
 5361SOL    HW116982   2.688   1.080   5.744
 5361SOL    HW216983   2.538   1.145   5.732
 5362SOL     OW16984   6.661   5.926   3.336
 5362SOL    HW116985   6.742   5.983   3.349
 5362SOL    HW216986   6.581   5.975   3.372
 5363SOL     OW16987   0.106   0.769   6.952
 5363SOL    HW116988   0.039   0.706   6.990
 5363SOL    HW216989   0.092   0.778   6.853
 5364SOL     OW16990   6.706   6.693   1.942
 5364SOL    HW116991   6.727   6.690   1.845
 5364SOL    HW216992   6.756   6.769   1.985
 5365SOL     OW16993   3.647   3.320   0.034
 5365SOL    HW116994   3.652   3.238   6.992
 5365SOL    HW216995   3.722   3.382   0.012
 5366SOL     OW16996   5.382   5.875   1.855
 5366SOL    HW116997   5.303   5.840   1.804
 5366SOL    HW216998   5.381   5.838   1.948
 5367SOL     OW16999   0.863   6.699   1.159
 5367SOL    HW117000   0.922   6.618   1.170
 5367SOL    HW217001   0.918   6.782   1.170
 5368SOL     OW17002   5.185   0.130   2.413
 5368SOL    HW117003   5.191   0.228   2.433
 5368SOL    HW217004   5.222   0.113   2.322
 5369SOL     OW17005   2.596   6.898   2.006
 5369SOL    HW117006   2.641   6.907   2.095
 5369SOL    HW217007   2.548   6.810   2.001
 5370SOL     OW17008   4.483   2.838   1.710
 5370SOL    HW117009   4.384   2.845   1.709
 5370SOL    HW217010   4.522   2.913   1.763
 5371SOL     OW17011   0.995   3.802   5.094
 5371SOL    HW117012   1.026   3.713   5.060
 5371SOL    HW217013   0.929   3.841   5.031
 5372SOL     OW17014   2.120   6.338   4.160
 5372SOL    HW117015   2.196   6.395   4.128
 5372SOL    HW217016   2.157   6.259   4.210
 5373SOL     OW17017   3.645   6.975   4.599
 5373SOL    HW117018   3.643   0.045   4.547
 5373SOL    HW217019   3.659   6.898   4.537
 5374SOL     OW17020   1.373   4.430   0.039
 5374SOL    HW117021   1.394   4.505   6.991
 5374SOL    HW217022   1.432   4.352   0.019
 5375SOL     OW17023   0.925   4.955   5.267
 5375SOL    HW117024   0.993   5.001   5.210
 5375SOL    HW217025   0.902   4.867   5.226
 5376SOL     OW17026   1.596   3.117   1.186
 5376SOL    HW117027   1.519   3.163   1.231
 5376SOL    HW217028   1.570   3.024   1.163
 5377SOL     OW17029   0.157   6.636   2.508
 5377SOL    HW117030   0.062   6.616   2.482
 5377SOL    HW217031   0.219   6.582   2.451
 5378SOL     OW17032   6.520   0.558   1.635
 5378SOL    HW117033   6.423   0.546   1.656
 5378SOL    HW217034   6.575   0.504   1.699
 5379SOL     OW17035   1.487   4.527   5.215
 5379SOL    HW117036   1.495   4.608   5.273
 5379SOL    HW217037   1.397   4.486   5.226
 5380SOL     OW17038   2.093   1.375   2.828
 5380SOL    HW117039   2.095   1.469   2.863
 5380SOL    HW217040   2.124   1.374   2.733
 5381SOL     OW17041   6.360   4.560   1.774
 5381SOL    HW117042   6.267   4.523   1.770
 5381SOL    HW217043   6.399   4.540   1.864
 5382SOL     OW17044   3.132   1.299   2.154
 5382SOL    HW117045   3.066   1.225   2.137
 5382SOL    HW217046   3.125   1.329   2.249
 5383SOL     OW17047   2.548   2.353   5.389
 5383SOL    HW117048   2.588   2.307   5.469
 5383SOL    HW217049   2.615   2.355   5.315
 5384SOL     OW17050   6.099   6.881   5.139
 5384SOL    HW117051   6.184   6.934   5.140
 5384SOL    HW217052   6.110   6.802   5.079
 5385SOL     OW17053   3.540   3.461   4.177
 5385SOL    HW117054   3.478   3.429   4.249
 5385SOL    HW217055   3.572   3.384   4.123
 5386SOL     OW17056   4.804   0.734   4.362
 5386SOL    HW117057   4.723   0.685   4.329
 5386SOL    HW217058   4.879   0.669   4.375
 5387SOL     OW17059   2.461   6.995   3.277
 5387SOL    HW117060   2.559   7.015   3.290
 5387SOL    HW217061   2.438   6.911   3.326
 5388SOL     OW17062   0.125   0.875   4.089
 5388SOL    HW117063   0.224   0.874   4.102
 5388SOL    HW217064   0.101   0.824   4.006
 5389SOL     OW17065   4.712   1.139   2.796
 5389SOL    HW117066   4.688   1.163   2.890
 5389SOL    HW217067   4.799   1.183   2.772
 5390SOL     OW17068   4.656   4.269   2.724
 5390SOL    HW117069   4.699   4.306   2.642
 5390SOL    HW217070   4.573   4.322   2.745
 5391SOL     OW17071   2.202   2.069   1.048
 5391SOL    HW117072   2.286   2.014   1.052
 5391SOL    HW217073   2.226   2.165   1.034
 5392SOL     OW17074   5.372   3.228   1.003
 5392SOL    HW117075   5.388   3.250   0.906
 5392SOL    HW217076   5.283   3.263   1.031
 5393SOL     OW17077   4.558   6.815   6.880
 5393SOL    HW117078   4.538   6.735   6.824
 5393SOL    HW217079   4.646   6.854   6.854
 5394SOL     OW17080   6.698   4.702   6.865
 5394SOL    HW117081   6.640   4.777   6.832
 5394SOL    HW217082   6.711   4.710   6.963
 5395SOL     OW17083   5.077   1.596   1.314
 5395SOL    HW117084   5.050   1.667   1.249
 5395SOL    HW217085   5.008   1.588   1.386
 5396SOL     OW17086   4.332   4.480   1.819
 5396SOL    HW117087   4.332   4.515   1.912
 5396SOL    HW217088   4.355   4.383   1.819
 5397SOL     OW17089   0.717   2.815   1.505
 5397SOL    HW117090   0.751   2.788   1.415
 5397SOL    HW217091   0.776   2.887   1.542
 5398SOL     OW17092   3.664   2.044   3.727
 5398SOL    HW117093   3.744   2.071   3.673
 5398SOL    HW217094   3.582   2.050   3.671
 5399SOL     OW17095   2.990   5.942   0.740
 5399SOL    HW117096   3.039   5.888   0.672
 5399SOL    HW217097   3.052   6.008   0.782
 5400SOL     OW17098   2.363   3.975   6.994
 5400SOL    HW117099   2.289   3.968   6.927
 5400SOL    HW217100   2.358   3.899   0.043
 5401SOL     OW17101   6.226   3.799   1.128
 5401SOL    HW117102   6.213   3.877   1.189
 5401SOL    HW217103   6.158   3.729   1.149
 5402SOL     OW17104   2.752   5.000   1.930
 5402SOL    HW117105   2.733   4.915   1.880
 5402SOL    HW217106   2.806   5.061   1.873
 5403SOL     OW17107   5.453   2.769   6.269
 5403SOL    HW117108   5.391   2.823   6.213
 5403SOL    HW217109   5.415   2.677   6.282
 5404SOL     OW17110   0.817   0.585   2.163
 5404SOL    HW117111   0.829   0.493   2.125
 5404SOL    HW217112   0.737   0.587   2.222
 5405SOL     OW17113   5.821   6.233   0.416
 5405SOL    HW117114   5.857   6.325   0.434
 5405SOL    HW217115   5.869   6.167   0.473
 5406SOL     OW17116   2.815   0.009   6.588
 5406SOL    HW117117   2.807   6.973   6.673
 5406SOL    HW217118   2.731   7.013   6.535
 5407SOL     OW17119   4.527   2.422   1.534
 5407SOL    HW117120   4.626   2.417   1.549
 5407SOL    HW217121   4.487   2.332   1.549
 5408SOL     OW17122   3.425   1.043   5.778
 5408SOL    HW117123   3.448   1.072   5.870
 5408SOL    HW217124   3.372   0.958   5.782
 5409SOL     OW17125   5.881   1.970   4.095
 5409SOL    HW117126   5.909   1.876   4.078
 5409SOL    HW217127   5.961   2.028   4.106
 5410SOL     OW17128   1.769   3.222   0.534
 5410SOL    HW117129   1.697   3.257   0.595
 5410SOL    HW217130   1.748   3.128   0.508
 5411SOL     OW17131   6.236   4.917   5.699
 5411SOL    HW117132   6.165   4.974   5.657
 5411SOL    HW217133   6.293   4.973   5.760
 5412SOL     OW17134   4.473   0.631   0.107
 5412SOL    HW117135   4.454   0.555   0.045
 5412SOL    HW217136   4.474   0.717   0.055
 5413SOL     OW17137   0.306   0.417   1.247
 5413SOL    HW117138   0.282   0.514   1.239
 5413SOL    HW217139   0.337   0.383   1.158
 5414SOL     OW17140   5.936   3.203   5.084
 5414SOL    HW117141   5.979   3.287   5.115
 5414SOL    HW217142   5.850   3.224   5.037
 5415SOL     OW17143   1.551   6.610   1.784
 5415SOL    HW117144   1.506   6.587   1.870
 5415SOL    HW217145   1.648   6.588   1.791
 5416SOL     OW17146   3.616   4.837   6.286
 5416SOL    HW117147   3.547   4.902   6.319
 5416SOL    HW217148   3.627   4.848   6.187
 5417SOL     OW17149   3.869   7.004   5.033
 5417SOL    HW117150   3.833   6.912   5.050
 5417SOL    HW217151   3.835   0.051   5.104
 5418SOL     OW17152   4.611   0.156   4.538
 5418SOL    HW117153   4.640   0.121   4.449
 5418SOL    HW217154   4.599   0.255   4.533
 5419SOL     OW17155   2.835   5.679   0.500
 5419SOL    HW117156   2.924   5.702   0.539
 5419SOL    HW217157   2.783   5.763   0.486
 5420SOL     OW17158   1.434   2.922   2.138
 5420SOL    HW117159   1.508   2.868   2.179
 5420SOL    HW217160   1.469   3.013   2.113
 5421SOL     OW17161   2.188   4.111   2.930
 5421SOL    HW117162   2.164   4.023   2.972
 5421SOL    HW217163   2.224   4.172   3.001
 5422SOL     OW17164   0.742   5.616   5.852
 5422SOL    HW117165   0.659   5.617   5.909
 5422SOL    HW217166   0.817   5.578   5.905
 5423SOL     OW17167   5.635   3.412   6.818
 5423SOL    HW117168   5.672   3.480   6.755
 5423SOL    HW217169   5.540   3.435   6.840
 5424SOL     OW17170   5.713   3.319   4.050
 5424SOL    HW117171   5.650   3.391   4.077
 5424SOL    HW217172   5.663   3.233   4.039
 5425SOL     OW17173   4.922   1.723   4.089
 5425SOL    HW117174   4.847   1.692   4.147
 5425SOL    HW217175   5.008   1.684   4.121
 5426SOL     OW17176   6.850   5.518   3.798
 5426SOL    HW117177   6.801   5.600   3.827
 5426SOL    HW217178   6.847   5.512   3.698
 5427SOL     OW17179   5.050   5.024   0.935
 5427SOL    HW117180   5.148   5.041   0.926
 5427SOL    HW217181   4.999   5.110   0.928
 5428SOL     OW17182   6.914   0.407   1.709
 5428SOL    HW117183   6.884   0.487   1.657
 5428SOL    HW217184   6.865   0.404   1.796
 5429SOL     OW17185   1.150   1.306   5.974
 5429SOL    HW117186   1.154   1.365   6.055
 5429SOL    HW217187   1.055   1.291   5.948
 5430SOL     OW17188   1.064   2.885   5.140
 5430SOL    HW117189   1.159   2.915   5.144
 5430SOL    HW217190   1.016   2.914   5.222
 5431SOL     OW17191   3.519   5.493   6.319
 5431SOL    HW117192   3.511   5.514   6.416
 5431SOL    HW217193   3.611   5.457   6.301
 5432SOL     OW17194   4.036   6.318   6.255
 5432SOL    HW117195   4.006   6.407   6.289
 5432SOL    HW217196   4.053   6.323   6.157
 5433SOL     OW17197   0.127   1.353   3.581
 5433SOL    HW117198   0.062   1.282   3.556
 5433SOL    HW217199   0.091   1.442   3.557
 5434SOL     OW17200   3.841   0.791   4.761
 5434SOL    HW117201   3.761   0.843   4.792
 5434SOL    HW217202   3.924   0.833   4.797
 5435SOL     OW17203   6.006   1.618   1.257
 5435SOL    HW117204   6.082   1.673   1.223
 5435SOL    HW217205   5.986   1.644   1.352
 5436SOL     OW17206   5.472   4.028   4.915
 5436SOL    HW117207   5.462   3.928   4.918
 5436SOL    HW217208   5.536   4.057   4.986
 5437SOL     OW17209   2.411   5.055   4.939
 5437SOL    HW117210   2.388   4.959   4.922
 5437SOL    HW217211   2.431   5.068   5.036
 5438SOL     OW17212   5.814   3.824   2.690
 5438SOL    HW117213   5.803   3.863   2.781
 5438SOL    HW217214   5.728   3.782   2.661
 5439SOL     OW17215   6.998   2.330   0.383
 5439SOL    HW117216   6.971   2.234   0.390
 5439SOL    HW217217   0.038   2.342   0.300
 5440SOL     OW17218   0.656   0.286   2.495
 5440SOL    HW117219   0.593   0.268   2.419
 5440SOL    HW217220   0.723   0.212   2.502
 5441SOL     OW17221   4.869   3.136   3.048
 5441SOL    HW117222   4.900   3.091   2.964
 5441SOL    HW217223   4.788   3.089   3.084
 5442SOL     OW17224   3.435   6.617   3.217
 5442SOL    HW117225   3.456   6.714   3.205
 5442SOL    HW217226   3.336   6.605   3.227
 5443SOL     OW17227   2.622   6.918   3.855
 5443SOL    HW117228   2.709   6.874   3.831
 5443SOL    HW217229   2.582   6.960   3.774
 5444SOL     OW17230   0.699   0.419   3.507
 5444SOL    HW117231   0.780   0.432   3.450
 5444SOL    HW217232   0.649   0.338   3.476
 5445SOL     OW17233   6.082   4.340   4.178
 5445SOL    HW117234   5.992   4.297   4.179
 5445SOL    HW217235   6.094   4.389   4.091
 5446SOL     OW17236   5.591   5.328   5.214
 5446SOL    HW117237   5.618   5.366   5.302
 5446SOL    HW217238   5.667   5.274   5.177
 5447SOL     OW17239   1.259   1.893   0.666
 5447SOL    HW117240   1.238   1.835   0.744
 5447SOL    HW217241   1.267   1.837   0.583
 5448SOL     OW17242   5.667   3.654   4.908
 5448SOL    HW117243   5.687   3.565   4.866
 5448SOL    HW217244   5.737   3.674   4.976
 5449SOL     OW17245   1.456   1.853   6.725
 5449SOL    HW117246   1.482   1.943   6.758
 5449SOL    HW217247   1.464   1.850   6.626
 5450SOL     OW17248   1.866   0.705   2.079
 5450SOL    HW117249   1.891   0.800   2.093
 5450SOL    HW217250   1.871   0.683   1.981
 5451SOL     OW17251   1.556   5.469   3.446
 5451SOL    HW117252   1.612   5.457   3.364
 5451SOL    HW217253   1.597   5.538   3.505
 5452SOL     OW17254   1.943   3.818   0.007
 5452SOL    HW117255   2.034   3.776   0.003
 5452SOL    HW217256   1.877   3.751   0.040
 5453SOL     OW17257   5.231   4.098   1.197
 5453SOL    HW117258   5.237   4.079   1.295
 5453SOL    HW217259   5.154   4.047   1.158
 5454SOL     OW17260   6.372   4.097   5.506
 5454SOL    HW117261   6.279   4.133   5.495
 5454SOL    HW217262   6.397   4.097   5.603
 5455SOL     OW17263   6.350   2.224   1.760
 5455SOL    HW117264   6.256   2.208   1.790
 5455SOL    HW217265   6.412   2.163   1.809
 5456SOL     OW17266   2.532   0.090   0.109
 5456SOL    HW117267   2.433   0.078   0.101
 5456SOL    HW217268   2.577   0.055   0.027
 5457SOL     OW17269   0.082   2.561   0.911
 5457SOL    HW117270   0.139   2.479   0.919
 5457SOL    HW217271   7.001   2.535   0.912
 5458SOL     OW17272   0.422   4.062   0.397
 5458SOL    HW117273   0.361   3.983   0.389
 5458SOL    HW217274   0.389   4.136   0.339
 5459SOL     OW17275   2.459   4.232   6.580
 5459SOL    HW117276   2.381   4.176   6.551
 5459SOL    HW217277   2.537   4.214   6.520
 5460SOL     OW17278   3.888   0.199   3.401
 5460SOL    HW117279   3.914   0.124   3.462
 5460SOL    HW217280   3.946   0.278   3.419
 5461SOL     OW17281   0.263   0.617   5.766
 5461SOL    HW117282   0.296   0.594   5.858
 5461SOL    HW217283   0.222   0.536   5.724
 5462SOL     OW17284   0.418   6.666   1.186
 5462SOL    HW117285   0.462   6.608   1.117
 5462SOL    HW217286   0.318   6.661   1.175
 5463SOL     OW17287   6.965   1.403   0.406
 5463SOL    HW117288   6.988   1.390   0.310
 5463SOL    HW217289   0.003   1.478   0.444
 5464SOL     OW17290   0.517   0.768   4.754
 5464SOL    HW117291   0.583   0.748   4.681
 5464SOL    HW217292   0.482   0.683   4.792
 5465SOL     OW17293   4.557   0.300   4.196
 5465SOL    HW117294   4.538   0.214   4.150
 5465SOL    HW217295   4.506   0.374   4.151
 5466SOL     OW17296   5.330   3.115   4.682
 5466SOL    HW117297   5.248   3.058   4.687
 5466SOL    HW217298   5.347   3.158   4.771
 5467SOL     OW17299   4.837   3.945   3.486
 5467SOL    HW117300   4.833   3.922   3.388
 5467SOL    HW217301   4.866   3.865   3.537
 5468SOL     OW17302   6.568   2.569   3.878
 5468SOL    HW117303   6.511   2.547   3.798
 5468SOL    HW217304   6.513   2.558   3.961
 5469SOL     OW17305   2.931   5.795   5.983
 5469SOL    HW117306   3.019   5.747   5.985
 5469SOL    HW217307   2.946   5.890   5.957
 5470SOL     OW17308   3.333   5.514   3.054
 5470SOL    HW117309   3.391   5.584   3.095
 5470SOL    HW217310   3.336   5.522   2.954
 5471SOL     OW17311   5.634   6.854   2.620
 5471SOL    HW117312   5.651   6.757   2.637
 5471SOL    HW217313   5.545   6.879   2.658
 5472SOL     OW17314   3.845   3.818   6.146
 5472SOL    HW117315   3.780   3.768   6.204
 5472SOL    HW217316   3.819   3.915   6.143
 5473SOL     OW17317   0.259   3.024   2.561
 5473SOL    HW117318   0.293   2.980   2.478
 5473SOL    HW217319   0.248   2.955   2.633
 5474SOL     OW17320   1.025   4.686   3.945
 5474SOL    HW117321   1.036   4.772   3.895
 5474SOL    HW217322   1.109   4.632   3.936
 5475SOL     OW17323   2.454   2.945   1.082
 5475SOL    HW117324   2.369   2.894   1.093
 5475SOL    HW217325   2.499   2.956   1.170
 5476SOL     OW17326   2.410   4.397   5.629
 5476SOL    HW117327   2.445   4.304   5.641
 5476SOL    HW217328   2.389   4.436   5.719
 5477SOL     OW17329   2.019   4.681   2.944
 5477SOL    HW117330   1.955   4.642   3.010
 5477SOL    HW217331   2.069   4.606   2.899
 5478SOL     OW17332   3.476   5.798   4.893
 5478SOL    HW117333   3.409   5.855   4.845
 5478SOL    HW217334   3.470   5.704   4.860
 5479SOL     OW17335   5.307   1.432   5.922
 5479SOL    HW117336   5.279   1.336   5.916
 5479SOL    HW217337   5.403   1.440   5.893
 5480SOL     OW17338   5.728   4.495   2.954
 5480SOL    HW117339   5.713   4.539   3.043
 5480SOL    HW217340   5.813   4.529   2.914
 5481SOL     OW17341   4.200   1.893   4.147
 5481SOL    HW117342   4.213   1.912   4.050
 5481SOL    HW217343   4.161   1.973   4.192
 5482SOL     OW17344   3.576   4.397   1.660
 5482SOL    HW117345   3.582   4.489   1.700
 5482SOL    HW217346   3.497   4.349   1.698
 5483SOL     OW17347   0.122   1.710   5.817
 5483SOL    HW117348   0.108   1.795   5.767
 5483SOL    HW217349   0.100   1.632   5.759
 5484SOL     OW17350   4.152   1.433   4.338
 5484SOL    HW117351   4.198   1.513   4.300
 5484SOL    HW217352   4.170   1.427   4.436
 5485SOL     OW17353   3.977   0.119   5.335
 5485SOL    HW117354   4.013   0.084   5.248
 5485SOL    HW217355   3.976   0.045   5.402
 5486SOL     OW17356   2.520   5.997   5.393
 5486SOL    HW117357   2.578   5.924   5.428
 5486SOL    HW217358   2.424   5.973   5.409
 5487SOL     OW17359   4.675   2.549   7.000
 5487SOL    HW117360   4.640   2.457   6.982
 5487SOL    HW217361   4.743   2.544   0.058
 5488SOL     OW17362   6.139   0.373   1.232
 5488SOL    HW117363   6.223   0.419   1.205
 5488SOL    HW217364   6.143   0.348   1.328
 5489SOL     OW17365   0.711   5.002   1.532
 5489SOL    HW117366   0.690   5.045   1.620
 5489SOL    HW217367   0.801   5.033   1.501
 5490SOL     OW17368   3.192   0.356   2.293
 5490SOL    HW117369   3.188   0.305   2.207
 5490SOL    HW217370   3.159   0.449   2.278
 5491SOL     OW17371   0.958   2.833   0.270
 5491SOL    HW117372   0.989   2.779   0.191
 5491SOL    HW217373   0.951   2.929   0.244
 5492SOL     OW17374   0.701   4.003   6.421
 5492SOL    HW117375   0.712   3.904   6.431
 5492SOL    HW217376   0.671   4.024   6.328
 5493SOL     OW17377   3.206   4.079   3.834
 5493SOL    HW117378   3.149   4.151   3.873
 5493SOL    HW217379   3.281   4.121   3.782
 5494SOL     OW17380   0.912   4.005   5.682
 5494SOL    HW117381   0.878   3.953   5.604
 5494SOL    HW217382   0.858   3.982   5.764
 5495SOL     OW17383   5.909   1.229   0.704
 5495SOL    HW117384   5.926   1.319   0.665
 5495SOL    HW217385   5.946   1.159   0.642
 5496SOL     OW17386   4.134   0.943   3.694
 5496SOL    HW117387   4.208   0.921   3.757
 5496SOL    HW217388   4.056   0.978   3.745
 5497SOL     OW17389   0.131   0.743   5.056
 5497SOL    HW117390   0.188   0.677   5.007
 5497SOL    HW217391   0.120   0.825   5.000
 5498SOL     OW17392   6.715   5.442   1.429
 5498SOL    HW117393   6.801   5.401   1.398
 5498SOL    HW217394   6.735   5.521   1.486
 5499SOL     OW17395   1.018   0.874   4.649
 5499SOL    HW117396   1.060   0.817   4.579
 5499SOL    HW217397   1.004   0.820   4.732
 5500SOL     OW17398   0.883   0.564   0.232
 5500SOL    HW117399   0.898   0.467   0.212
 5500SOL    HW217400   0.960   0.599   0.285
 5501SOL     OW17401   3.835   1.746   6.861
 5501SOL    HW117402   3.758   1.686   6.837
 5501SOL    HW217403   3.856   1.806   6.784
 5502SOL     OW17404   5.107   3.917   0.199
 5502SOL    HW117405   5.122   3.947   0.105
 5502SOL    HW217406   5.125   3.819   0.206
 5503SOL     OW17407   6.875   4.340   0.948
 5503SOL    HW117408   6.871   4.425   0.896
 5503SOL    HW217409   6.897   4.360   1.043
 5504SOL     OW17410   4.728   1.454   5.108
 5504SOL    HW117411   4.703   1.360   5.131
 5504SOL    HW217412   4.716   1.513   5.188
 5505SOL     OW17413   1.896   5.404   3.936
 5505SOL    HW117414   1.903   5.460   4.019
 5505SOL    HW217415   1.973   5.340   3.933
 5506SOL     OW17416   0.602   3.665   0.579
 5506SOL    HW117417   0.650   3.620   0.654
 5506SOL    HW217418   0.526   3.607   0.548
 5507SOL     OW17419   4.044   1.112   4.986
 5507SOL    HW117420   3.956   1.125   5.031
 5507SOL    HW217421   4.069   1.196   4.937
 5508SOL     OW17422   1.300   1.182   0.331
 5508SOL    HW117423   1.211   1.223   0.345
 5508SOL    HW217424   1.336   1.148   0.418
 5509SOL     OW17425   0.331   6.046   6.583
 5509SOL    HW117426   0.308   5.950   6.567
 5509SOL    HW217427   0.392   6.077   6.510
 5510SOL     OW17428   4.452   5.569   6.646
 5510SOL    HW117429   4.506   5.573   6.562
 5510SOL    HW217430   4.375   5.505   6.634
 5511SOL     OW17431   0.762   0.010   4.334
 5511SOL    HW117432   0.819   0.087   4.361
 5511SOL    HW217433   0.731   0.022   4.239
 5512SOL     OW17434   5.044   2.117   0.872
 5512SOL    HW117435   5.056   2.098   0.775
 5512SOL    HW217436   5.107   2.189   0.900
 5513SOL     OW17437   3.732   5.376   5.850
 5513SOL    HW117438   3.670   5.409   5.779
 5513SOL    HW217439   3.682   5.317   5.914
 5514SOL     OW17440   3.539   0.353   4.729
 5514SOL    HW117441   3.503   0.353   4.635
 5514SOL    HW217442   3.546   0.259   4.762
 5515SOL     OW17443   0.959   5.777   1.595
 5515SOL    HW117444   1.058   5.783   1.601
 5515SOL    HW217445   0.919   5.868   1.612
 5516SOL     OW17446   1.757   2.642   5.516
 5516SOL    HW117447   1.678   2.700   5.494
 5516SOL    HW217448   1.736   2.547   5.492
 5517SOL     OW17449   2.154   3.719   2.143
 5517SOL    HW117450   2.065   3.715   2.098
 5517SOL    HW217451   2.226   3.699   2.076
 5518SOL     OW17452   5.828   5.554   6.891
 5518SOL    HW117453   5.882   5.532   6.973
 5518SOL    HW217454   5.813   5.653   6.888
 5519SOL     OW17455   5.370   3.111   3.109
 5519SOL    HW117456   5.447   3.173   3.091
 5519SOL    HW217457   5.399   3.017   3.092
 5520SOL     OW17458   5.949   6.702   2.375
 5520SOL    HW117459   5.873   6.764   2.393
 5520SOL    HW217460   6.027   6.753   2.340
 5521SOL     OW17461   4.527   6.476   2.183
 5521SOL    HW117462   4.626   6.486   2.188
 5521SOL    HW217463   4.484   6.563   2.205
 5522SOL     OW17464   6.300   4.933   0.387
 5522SOL    HW117465   6.208   4.959   0.416
 5522SOL    HW217466   6.360   4.928   0.467
 5523SOL     OW17467   4.036   1.235   1.638
 5523SOL    HW117468   4.092   1.317   1.651
 5523SOL    HW217469   4.012   1.196   1.726
 5524SOL     OW17470   4.023   0.163   4.528
 5524SOL    HW117471   4.097   0.227   4.546
 5524SOL    HW217472   4.053   0.070   4.552
 5525SOL     OW17473   0.804   2.271   0.163
 5525SOL    HW117474   0.874   2.204   0.190
 5525SOL    HW217475   0.849   2.356   0.133
 5526SOL     OW17476   5.155   5.240   2.812
 5526SOL    HW117477   5.154   5.177   2.734
 5526SOL    HW217478   5.238   5.224   2.865
 5527SOL     OW17479   4.882   3.735   3.671
 5527SOL    HW117480   4.875   3.638   3.696
 5527SOL    HW217481   4.853   3.791   3.748
 5528SOL     OW17482   1.662   0.786   0.655
 5528SOL    HW117483   1.737   0.852   0.652
 5528SOL    HW217484   1.683   0.716   0.724
 5529SOL     OW17485   3.642   6.609   4.709
 5529SOL    HW117486   3.578   6.670   4.756
 5529SOL    HW217487   3.735   6.627   4.742
 5530SOL     OW17488   6.098   1.892   0.597
 5530SOL    HW117489   6.141   1.977   0.627
 5530SOL    HW217490   6.164   1.817   0.602
 5531SOL     OW17491   3.820   3.464   1.666
 5531SOL    HW117492   3.804   3.411   1.583
 5531SOL    HW217493   3.760   3.545   1.665
 5532SOL     OW17494   1.169   3.107   1.463
 5532SOL    HW117495   1.128   3.099   1.372
 5532SOL    HW217496   1.248   3.046   1.470
 5533SOL     OW17497   4.192   1.907   3.314
 5533SOL    HW117498   4.204   2.004   3.291
 5533SOL    HW217499   4.176   1.855   3.231
 5534SOL     OW17500   0.902   1.672   6.872
 5534SOL    HW117501   0.877   1.768   6.861
 5534SOL    HW217502   0.984   1.665   6.929
 5535SOL     OW17503   1.418   0.973   3.133
 5535SOL    HW117504   1.455   1.037   3.065
 5535SOL    HW217505   1.412   1.019   3.222
 5536SOL     OW17506   3.835   0.368   4.284
 5536SOL    HW117507   3.786   0.326   4.361
 5536SOL    HW217508   3.778   0.440   4.244
 5537SOL     OW17509   3.293   1.582   2.504
 5537SOL    HW117510   3.224   1.511   2.490
 5537SOL    HW217511   3.384   1.543   2.491
 5538SOL     OW17512   3.992   5.671   5.087
 5538SOL    HW117513   3.919   5.604   5.093
 5538SOL    HW217514   3.963   5.756   5.131
 5539SOL     OW17515   1.349   4.326   1.978
 5539SOL    HW117516   1.439   4.326   2.024
 5539SOL    HW217517   1.327   4.419   1.949
 5540SOL     OW17518   4.681   4.671   3.981
 5540SOL    HW117519   4.606   4.633   4.036
 5540SOL    HW217520   4.743   4.722   4.041
 5541SOL     OW17521   4.684   0.110   6.466
 5541SOL    HW117522   4.688   0.123   6.367
 5541SOL    HW217523   4.658   0.016   6.487
 5542SOL     OW17524   4.363   3.298   6.082
 5542SOL    HW117525   4.438   3.363   6.072
 5542SOL    HW217526   4.342   3.257   5.993
 5543SOL     OW17527   4.511   3.817   6.990
 5543SOL    HW117528   4.609   3.810   6.971
 5543SOL    HW217529   4.494   3.789   0.069
 5544SOL     OW17530   5.134   5.546   6.861
 5544SOL    HW117531   5.217   5.497   6.888
 5544SOL    HW217532   5.078   5.487   6.803
 5545SOL     OW17533   4.575   0.391   2.910
 5545SOL    HW117534   4.644   0.417   2.843
 5545SOL    HW217535   4.620   0.367   2.997
 5546SOL     OW17536   0.457   4.308   4.393
 5546SOL    HW117537   0.359   4.292   4.384
 5546SOL    HW217538   0.474   4.373   4.467
 5547SOL     OW17539   3.196   6.858   5.378
 5547SOL    HW117540   3.292   6.876   5.397
 5547SOL    HW217541   3.183   6.847   5.279
 5548SOL     OW17542   6.245   3.012   5.806
 5548SOL    HW117543   6.194   3.094   5.778
 5548SOL    HW217544   6.301   2.981   5.730
 5549SOL     OW17545   4.309   5.095   0.066
 5549SOL    HW117546   4.382   5.027   0.059
 5549SOL    HW217547   4.295   5.120   0.161
 5550SOL     OW17548   3.035   5.436   2.317
 5550SOL    HW117549   2.989   5.369   2.260
 5550SOL    HW217550   3.067   5.393   2.401
 5551SOL     OW17551   1.759   0.934   2.792
 5551SOL    HW117552   1.736   0.986   2.874
 5551SOL    HW217553   1.803   0.993   2.725
 5552SOL     OW17554   6.959   1.131   0.064
 5552SOL    HW117555   6.933   1.036   0.074
 5552SOL    HW217556   0.004   1.158   0.139
 5553SOL     OW17557   3.720   6.455   0.458
 5553SOL    HW117558   3.621   6.472   0.463
 5553SOL    HW217559   3.738   6.388   0.386
 5554SOL     OW17560   2.651   1.844   5.902
 5554SOL    HW117561   2.739   1.863   5.859
 5554SOL    HW217562   2.665   1.799   5.990
 5555SOL     OW17563   0.552   4.743   3.549
 5555SOL    HW117564   0.645   4.718   3.575
 5555SOL    HW217565   0.523   4.823   3.602
 5556SOL     OW17566   0.691   2.480   4.188
 5556SOL    HW117567   0.691   2.441   4.280
 5556SOL    HW217568   0.598   2.508   4.164
 5557SOL     OW17569   3.219   5.052   3.952
 5557SOL    HW117570   3.157   5.028   4.026
 5557SOL    HW217571   3.180   5.129   3.900
 5558SOL     OW17572   4.983   3.300   5.406
 5558SOL    HW117573   4.957   3.370   5.339
 5558SOL    HW217574   4.922   3.221   5.396
 5559SOL     OW17575   2.415   6.820   2.517
 5559SOL    HW117576   2.354   6.895   2.540
 5559SOL    HW217577   2.478   6.803   2.593
 5560SOL     OW17578   0.215   6.895   2.746
 5560SOL    HW117579   0.251   6.984   2.718
 5560SOL    HW217580   0.280   6.824   2.721
 5561SOL     OW17581   1.891   2.164   4.231
 5561SOL    HW117582   1.838   2.221   4.169
 5561SOL    HW217583   1.834   2.089   4.265
 5562SOL     OW17584   1.745   1.884   6.575
 5562SOL    HW117585   1.783   1.830   6.650
 5562SOL    HW217586   1.755   1.981   6.594
 5563SOL     OW17587   4.418   6.522   2.510
 5563SOL    HW117588   4.381   6.438   2.470
 5563SOL    HW217589   4.428   6.510   2.609
 5564SOL     OW17590   5.097   2.442   1.239
 5564SOL    HW117591   5.196   2.446   1.230
 5564SOL    HW217592   5.065   2.348   1.224
 5565SOL     OW17593   4.986   2.100   5.922
 5565SOL    HW117594   5.041   2.020   5.949
 5565SOL    HW217595   5.040   2.183   5.937
 5566SOL     OW17596   0.898   5.885   1.219
 5566SOL    HW117597   0.851   5.866   1.305
 5566SOL    HW217598   0.997   5.893   1.235
 5567SOL     OW17599   0.794   4.946   0.549
 5567SOL    HW117600   0.813   4.893   0.631
 5567SOL    HW217601   0.877   4.995   0.521
 5568SOL     OW17602   4.699   2.793   1.176
 5568SOL    HW117603   4.765   2.761   1.244
 5568SOL    HW217604   4.648   2.715   1.141
 5569SOL     OW17605   4.019   2.038   1.786
 5569SOL    HW117606   3.920   2.033   1.791
 5569SOL    HW217607   4.059   1.988   1.863
 5570SOL     OW17608   6.173   4.848   5.029
 5570SOL    HW117609   6.248   4.792   4.994
 5570SOL    HW217610   6.164   4.833   5.128
 5571SOL     OW17611   0.206   6.149   0.659
 5571SOL    HW117612   0.249   6.131   0.570
 5571SOL    HW217613   0.137   6.221   0.648
 5572SOL     OW17614   3.087   2.587   6.220
 5572SOL    HW117615   3.001   2.608   6.267
 5572SOL    HW217616   3.119   2.497   6.248
 5573SOL     OW17617   1.192   2.482   0.553
 5573SOL    HW117618   1.159   2.439   0.637
 5573SOL    HW217619   1.171   2.579   0.555
 5574SOL     OW17620   6.657   0.792   4.605
 5574SOL    HW117621   6.711   0.773   4.523
 5574SOL    HW217622   6.607   0.877   4.593
 5575SOL     OW17623   1.562   0.512   1.569
 5575SOL    HW117624   1.591   0.560   1.486
 5575SOL    HW217625   1.538   0.579   1.639
 5576SOL     OW17626   6.079   5.173   1.537
 5576SOL    HW117627   6.053   5.093   1.590
 5576SOL    HW217628   6.149   5.148   1.470
 5577SOL     OW17629   2.178   3.392   5.420
 5577SOL    HW117630   2.268   3.367   5.385
 5577SOL    HW217631   2.184   3.411   5.518
 5578SOL     OW17632   3.003   2.550   0.246
 5578SOL    HW117633   2.957   2.467   0.279
 5578SOL    HW217634   3.059   2.527   0.167
 5579SOL     OW17635   5.395   4.035   6.312
 5579SOL    HW117636   5.428   4.088   6.234
 5579SOL    HW217637   5.325   4.088   6.361
 5580SOL     OW17638   4.452   1.649   0.904
 5580SOL    HW117639   4.542   1.622   0.868
 5580SOL    HW217640   4.463   1.685   0.996
 5581SOL     OW17641   2.317   0.430   0.371
 5581SOL    HW117642   2.303   0.337   0.338
 5581SOL    HW217643   2.256   0.492   0.322
 5582SOL     OW17644   3.789   3.711   4.178
 5582SOL    HW117645   3.880   3.668   4.181
 5582SOL    HW217646   3.720   3.642   4.199
 5583SOL     OW17647   4.311   0.023   2.750
 5583SOL    HW117648   4.407   0.041   2.729
 5583SOL    HW217649   4.294   0.043   2.847
 5584SOL     OW17650   5.393   3.874   3.450
 5584SOL    HW117651   5.312   3.900   3.504
 5584SOL    HW217652   5.473   3.872   3.509
 5585SOL     OW17653   5.539   0.238   3.673
 5585SOL    HW117654   5.618   0.273   3.622
 5585SOL    HW217655   5.570   0.195   3.758
 5586SOL     OW17656   1.778   1.396   6.398
 5586SOL    HW117657   1.696   1.452   6.389
 5586SOL    HW217658   1.856   1.455   6.419
 5587SOL     OW17659   3.357   0.119   2.821
 5587SOL    HW117660   3.395   0.085   2.908
 5587SOL    HW217661   3.431   0.159   2.767
 5588SOL     OW17662   1.939   6.466   5.013
 5588SOL    HW117663   1.927   6.529   5.089
 5588SOL    HW217664   1.901   6.506   4.930
 5589SOL     OW17665   5.129   3.093   5.612
 5589SOL    HW117666   5.119   3.169   5.548
 5589SOL    HW217667   5.051   3.031   5.604
 5590SOL     OW17668   6.617   5.488   3.394
 5590SOL    HW117669   6.567   5.548   3.457
 5590SOL    HW217670   6.655   5.543   3.319
 5591SOL     OW17671   5.808   0.557   0.345
 5591SOL    HW117672   5.716   0.526   0.320
 5591SOL    HW217673   5.809   0.580   0.443
 5592SOL     OW17674   2.013   3.557   3.819
 5592SOL    HW117675   1.941   3.559   3.749
 5592SOL    HW217676   2.079   3.485   3.798
 5593SOL     OW17677   0.526   2.343   5.438
 5593SOL    HW117678   0.433   2.376   5.454
 5593SOL    HW217679   0.558   2.376   5.349
 5594SOL     OW17680   2.186   0.978   0.188
 5594SOL    HW117681   2.097   1.021   0.180
 5594SOL    HW217682   2.209   0.933   0.102
 5595SOL     OW17683   6.372   0.604   6.227
 5595SOL    HW117684   6.419   0.657   6.156
 5595SOL    HW217685   6.312   0.537   6.184
 5596SOL     OW17686   5.987   0.351   2.275
 5596SOL    HW117687   6.081   0.334   2.304
 5596SOL    HW217688   5.971   0.307   2.187
 5597SOL     OW17689   5.485   2.340   6.083
 5597SOL    HW117690   5.443   2.319   6.171
 5597SOL    HW217691   5.416   2.335   6.010
 5598SOL     OW17692   4.981   1.954   4.264
 5598SOL    HW117693   4.947   1.881   4.206
 5598SOL    HW217694   4.904   1.995   4.314
 5599SOL     OW17695   5.676   3.959   1.953
 5599SOL    HW117696   5.677   3.862   1.932
 5599SOL    HW217697   5.717   4.010   1.877
 5600SOL     OW17698   2.290   0.269   2.968
 5600SOL    HW117699   2.265   0.235   3.059
 5600SOL    HW217700   2.337   0.197   2.918
 5601SOL     OW17701   5.413   3.188   6.003
 5601SOL    HW117702   5.468   3.263   5.966
 5601SOL    HW217703   5.375   3.134   5.928
 5602SOL     OW17704   0.149   1.668   3.445
 5602SOL    HW117705   0.100   1.612   3.378
 5602SOL    HW217706   0.179   1.753   3.402
 5603SOL     OW17707   4.471   2.731   5.172
 5603SOL    HW117708   4.463   2.830   5.170
 5603SOL    HW217709   4.471   2.695   5.079
 5604SOL     OW17710   1.009   0.084   4.677
 5604SOL    HW117711   0.980   0.169   4.634
 5604SOL    HW217712   1.039   0.020   4.606
 5605SOL     OW17713   1.186   6.917   4.483
 5605SOL    HW117714   1.153   6.967   4.403
 5605SOL    HW217715   1.258   6.853   4.454
 5606SOL     OW17716   4.840   1.559   0.034
 5606SOL    HW117717   4.813   1.642   7.000
 5606SOL    HW217718   4.907   1.583   0.103
 5607SOL     OW17719   6.246   2.447   3.274
 5607SOL    HW117720   6.184   2.452   3.196
 5607SOL    HW217721   6.208   2.386   3.343
 5608SOL     OW17722   6.193   0.456   3.398
 5608SOL    HW117723   6.271   0.512   3.369
 5608SOL    HW217724   6.129   0.513   3.450
 5609SOL     OW17725   4.845   6.669   0.329
 5609SOL    HW117726   4.785   6.591   0.309
 5609SOL    HW217727   4.940   6.642   0.317
 5610SOL     OW17728   5.732   3.719   0.028
 5610SOL    HW117729   5.633   3.719   0.018
 5610SOL    HW217730   5.763   3.626   0.051
 5611SOL     OW17731   0.441   4.900   1.500
 5611SOL    HW117732   0.403   4.919   1.410
 5611SOL    HW217733   0.540   4.916   1.499
 5612SOL     OW17734   2.803   2.623   0.024
 5612SOL    HW117735   2.886   2.651   6.992
 5612SOL    HW217736   2.826   2.597   0.118
 5613SOL     OW17737   0.122   5.264   4.553
 5613SOL    HW117738   0.146   5.169   4.568
 5613SOL    HW217739   0.075   5.300   4.633
 5614SOL     OW17740   6.081   1.841   4.277
 5614SOL    HW117741   6.146   1.898   4.228
 5614SOL    HW217742   6.085   1.861   4.375
 5615SOL     OW17743   0.275   2.044   2.645
 5615SOL    HW117744   0.313   2.034   2.553
 5615SOL    HW217745   0.332   1.994   2.710
 5616SOL     OW17746   2.031   1.818   4.459
 5616SOL    HW117747   1.964   1.783   4.394
 5616SOL    HW217748   2.109   1.756   4.463
 5617SOL     OW17749   1.847   5.352   5.139
 5617SOL    HW117750   1.860   5.295   5.221
 5617SOL    HW217751   1.919   5.332   5.073
 5618SOL     OW17752   7.004   5.025   3.663
 5618SOL    HW117753   6.950   5.040   3.580
 5618SOL    HW217754   6.975   5.088   3.735
 5619SOL     OW17755   3.054   3.148   3.471
 5619SOL    HW117756   2.973   3.199   3.499
 5619SOL    HW217757   3.070   3.072   3.534
 5620SOL     OW17758   4.306   3.641   5.963
 5620SOL    HW117759   4.376   3.590   6.012
 5620SOL    HW217760   4.247   3.689   6.029
 5621SOL     OW17761   1.570   2.856   5.695
 5621SOL    HW117762   1.550   2.953   5.709
 5621SOL    HW217763   1.649   2.831   5.750
 5622SOL     OW17764   4.522   5.728   4.679
 5622SOL    HW117765   4.492   5.637   4.651
 5622SOL    HW217766   4.621   5.727   4.694
 5623SOL     OW17767   4.839   6.510   4.080
 5623SOL    HW117768   4.839   6.416   4.044
 5623SOL    HW217769   4.922   6.557   4.049
 5624SOL     OW17770   0.503   5.155   3.712
 5624SOL    HW117771   0.579   5.180   3.653
 5624SOL    HW217772   0.421   5.142   3.656
 5625SOL     OW17773   1.090   5.675   4.669
 5625SOL    HW117774   1.088   5.771   4.643
 5625SOL    HW217775   1.121   5.666   4.764
 5626SOL     OW17776   1.881   4.696   4.444
 5626SOL    HW117777   1.888   4.600   4.417
 5626SOL    HW217778   1.887   4.704   4.544
 5627SOL     OW17779   0.857   5.959   6.445
 5627SOL    HW117780   0.791   5.923   6.379
 5627SOL    HW217781   0.808   5.993   6.526
 5628SOL     OW17782   2.748   3.382   0.704
 5628SOL    HW117783   2.666   3.338   0.741
 5628SOL    HW217784   2.748   3.479   0.730
 5629SOL     OW17785   4.051   3.539   0.964
 5629SOL    HW117786   3.957   3.543   0.930
 5629SOL    HW217787   4.051   3.509   1.059
 5630SOL     OW17788   1.725   4.181   6.521
 5630SOL    HW117789   1.774   4.259   6.482
 5630SOL    HW217790   1.709   4.112   6.450
 5631SOL     OW17791   4.903   0.871   1.838
 5631SOL    HW117792   4.807   0.848   1.853
 5631SOL    HW217793   4.960   0.823   1.905
 5632SOL     OW17794   5.027   1.173   5.923
 5632SOL    HW117795   5.120   1.167   5.960
 5632SOL    HW217796   4.973   1.096   5.956
 5633SOL     OW17797   0.384   4.871   4.715
 5633SOL    HW117798   0.449   4.830   4.650
 5633SOL    HW217799   0.373   4.811   4.794
 5634SOL     OW17800   2.628   5.173   5.489
 5634SOL    HW117801   2.701   5.235   5.460
 5634SOL    HW217802   2.654   5.128   5.574
 5635SOL     OW17803   3.042   0.011   6.821
 5635SOL    HW117804   2.999   0.063   6.894
 5635SOL    HW217805   3.112   0.067   6.777
 5636SOL     OW17806   5.567   1.213   5.487
 5636SOL    HW117807   5.563   1.271   5.405
 5636SOL    HW217808   5.618   1.130   5.467
 5637SOL     OW17809   5.728   6.178   4.472
 5637SOL    HW117810   5.756   6.091   4.431
 5637SOL    HW217811   5.699   6.241   4.400
 5638SOL     OW17812   5.064   6.273   1.704
 5638SOL    HW117813   5.090   6.369   1.700
 5638SOL    HW217814   5.145   6.216   1.712
 5639SOL     OW17815   1.972   0.217   1.967
 5639SOL    HW117816   1.991   0.313   1.944
 5639SOL    HW217817   1.961   0.165   1.883
 5640SOL     OW17818   2.260   0.076   2.613
 5640SOL    HW117819   2.355   0.066   2.642
 5640SOL    HW217820   2.243   0.171   2.586
 5641SOL     OW17821   0.443   4.408   5.796
 5641SOL    HW117822   0.490   4.339   5.850
 5641SOL    HW217823   0.413   4.482   5.856
 5642SOL     OW17824   0.332   5.021   6.248
 5642SOL    HW117825   0.282   5.106   6.230
 5642SOL    HW217826   0.321   4.958   6.171
 5643SOL     OW17827   3.428   1.578   4.779
 5643SOL    HW117828   3.429   1.662   4.725
 5643SOL    HW217829   3.517   1.564   4.821
 5644SOL     OW17830   5.467   1.997   4.283
 5644SOL    HW117831   5.485   1.932   4.357
 5644SOL    HW217832   5.385   2.051   4.304
 5645SOL     OW17833   5.677   4.204   2.677
 5645SOL    HW117834   5.673   4.208   2.777
 5645SOL    HW217835   5.586   4.181   2.642
 5646SOL     OW17836   1.010   5.351   3.797
 5646SOL    HW117837   1.021   5.367   3.895
 5646SOL    HW217838   0.983   5.437   3.753
 5647SOL     OW17839   6.837   6.323   6.517
 5647SOL    HW117840   6.842   6.353   6.612
 5647SOL    HW217841   6.748   6.283   6.498
 5648SOL     OW17842   1.813   1.301   3.450
 5648SOL    HW117843   1.844   1.236   3.381
 5648SOL    HW217844   1.829   1.394   3.418
 5649SOL     OW17845   1.551   0.208   4.912
 5649SOL    HW117846   1.600   0.128   4.948
 5649SOL    HW217847   1.555   0.282   4.979
 5650SOL     OW17848   0.139   4.643   0.931
 5650SOL    HW117849   0.218   4.687   0.973
 5650SOL    HW217850   0.133   4.669   0.834
 5651SOL     OW17851   0.438   2.160   1.263
 5651SOL    HW117852   0.444   2.145   1.362
 5651SOL    HW217853   0.349   2.200   1.241
 5652SOL     OW17854   4.681   5.881   2.445
 5652SOL    HW117855   4.758   5.935   2.478
 5652SOL    HW217856   4.640   5.928   2.366
 5653SOL     OW17857   0.262   6.683   6.362
 5653SOL    HW117858   0.177   6.734   6.364
 5653SOL    HW217859   0.331   6.733   6.310
 5654SOL     OW17860   0.823   0.294   6.161
 5654SOL    HW117861   0.744   0.338   6.205
 5654SOL    HW217862   0.893   0.363   6.143
 5655SOL     OW17863   0.973   2.743   4.475
 5655SOL    HW117864   1.048   2.772   4.534
 5655SOL    HW217865   0.933   2.658   4.510
 5656SOL     OW17866   3.072   4.606   1.161
 5656SOL    HW117867   3.088   4.530   1.099
 5656SOL    HW217868   3.039   4.571   1.249
 5657SOL     OW17869   4.859   6.662   1.337
 5657SOL    HW117870   4.831   6.669   1.241
 5657SOL    HW217871   4.783   6.623   1.390
 5658SOL     OW17872   2.561   6.883   6.141
 5658SOL    HW117873   2.600   6.974   6.157
 5658SOL    HW217874   2.462   6.888   6.152
 5659SOL     OW17875   3.133   3.234   3.013
 5659SOL    HW117876   3.107   3.264   3.105
 5659SOL    HW217877   3.051   3.205   2.964
 5660SOL     OW17878   5.466   0.508   6.809
 5660SOL    HW117879   5.472   0.596   6.857
 5660SOL    HW217880   5.472   0.433   6.874
 5661SOL     OW17881   6.868   5.351   5.554
 5661SOL    HW117882   6.945   5.293   5.578
 5661SOL    HW217883   6.900   5.445   5.540
 5662SOL     OW17884   2.546   5.060   4.314
 5662SOL    HW117885   2.498   5.029   4.232
 5662SOL    HW217886   2.533   5.158   4.326
 5663SOL     OW17887   1.262   4.059   6.972
 5663SOL    HW117888   1.344   4.102   7.012
 5663SOL    HW217889   1.200   4.131   6.941
 5664SOL     OW17890   0.361   3.795   3.560
 5664SOL    HW117891   0.419   3.714   3.549
 5664SOL    HW217892   0.399   3.871   3.507
 5665SOL     OW17893   1.789   1.493   6.758
 5665SOL    HW117894   1.846   1.528   6.832
 5665SOL    HW217895   1.736   1.568   6.717
 5666SOL     OW17896   4.848   5.785   1.298
 5666SOL    HW117897   4.911   5.716   1.262
 5666SOL    HW217898   4.780   5.808   1.227
 5667SOL     OW17899   0.385   4.659   3.375
 5667SOL    HW117900   0.453   4.680   3.445
 5667SOL    HW217901   0.306   4.720   3.386
 5668SOL     OW17902   5.585   1.995   6.548
 5668SOL    HW117903   5.591   1.898   6.526
 5668SOL    HW217904   5.503   2.033   6.506
 5669SOL     OW17905   0.227   3.817   6.257
 5669SOL    HW117906   0.295   3.815   6.184
 5669SOL    HW217907   0.172   3.734   6.253
 5670SOL     OW17908   0.029   3.217   3.699
 5670SOL    HW117909   6.950   3.224   3.731
 5670SOL    HW217910   0.036   3.256   3.608
 5671SOL     OW17911   1.112   6.826   6.330
 5671SOL    HW117912   1.072   6.916   6.346
 5671SOL    HW217913   1.100   6.801   6.233
 5672SOL     OW17914   4.362   4.525   6.184
 5672SOL    HW117915   4.445   4.537   6.129
 5672SOL    HW217916   4.309   4.609   6.183
 5673SOL     OW17917   0.676   0.131   1.817
 5673SOL    HW117918   0.768   0.120   1.781
 5673SOL    HW217919   0.657   0.059   1.884
 5674SOL     OW17920   0.024   3.969   1.982
 5674SOL    HW117921   7.012   3.889   1.928
 5674SOL    HW217922   0.088   3.941   2.053
 5675SOL     OW17923   4.216   2.534   5.435
 5675SOL    HW117924   4.190   2.564   5.343
 5675SOL    HW217925   4.133   2.519   5.489
 5676SOL     OW17926   2.079   1.226   1.762
 5676SOL    HW117927   1.980   1.229   1.772
 5676SOL    HW217928   2.104   1.270   1.675
 5677SOL     OW17929   0.817   1.832   3.374
 5677SOL    HW117930   0.831   1.733   3.380
 5677SOL    HW217931   0.870   1.868   3.298
 5678SOL     OW17932   3.410   6.543   2.769
 5678SOL    HW117933   3.499   6.581   2.745
 5678SOL    HW217934   3.418   6.487   2.851
 5679SOL     OW17935   2.071   6.885   4.579
 5679SOL    HW117936   1.992   6.946   4.574
 5679SOL    HW217937   2.054   6.803   4.525
 5680SOL     OW17938   1.770   5.666   0.698
 5680SOL    HW117939   1.784   5.748   0.753
 5680SOL    HW217940   1.708   5.604   0.746
 5681SOL     OW17941   1.401   3.551   6.514
 5681SOL    HW117942   1.323   3.543   6.576
 5681SOL    HW217943   1.368   3.567   6.420
 5682SOL     OW17944   2.218   4.310   5.998
 5682SOL    HW117945   2.175   4.258   5.925
 5682SOL    HW217946   2.248   4.399   5.963
 5683SOL     OW17947   4.676   2.083   6.227
 5683SOL    HW117948   4.736   2.008   6.254
 5683SOL    HW217949   4.687   2.101   6.129
 5684SOL     OW17950   4.102   3.444   4.853
 5684SOL    HW117951   4.102   3.538   4.820
 5684SOL    HW217952   4.074   3.442   4.949
 5685SOL     OW17953   1.076   4.549   1.628
 5685SOL    HW117954   1.012   4.613   1.586
 5685SOL    HW217955   1.042   4.455   1.615
 5686SOL     OW17956   3.358   0.728   0.151
 5686SOL    HW117957   3.443   0.718   0.202
 5686SOL    HW217958   3.309   0.641   0.152
 5687SOL     OW17959   6.229   4.024   4.835
 5687SOL    HW117960   6.135   4.033   4.869
 5687SOL    HW217961   6.228   4.003   4.738
 5688SOL     OW17962   6.339   1.698   0.328
 5688SOL    HW117963   6.308   1.689   0.233
 5688SOL    HW217964   6.339   1.608   0.372
 5689SOL     OW17965   4.011   1.215   0.305
 5689SOL    HW117966   3.955   1.278   0.250
 5689SOL    HW217967   3.952   1.159   0.362
 5690SOL     OW17968   3.071   6.203   0.971
 5690SOL    HW117969   2.995   6.189   1.035
 5690SOL    HW217970   3.064   6.294   0.931
 5691SOL     OW17971   3.145   6.166   1.962
 5691SOL    HW117972   3.142   6.165   1.862
 5691SOL    HW217973   3.057   6.134   1.998
 5692SOL     OW17974   6.857   2.286   5.782
 5692SOL    HW117975   6.794   2.340   5.837
 5692SOL    HW217976   6.844   2.189   5.802
 5693SOL     OW17977   5.451   2.890   2.052
 5693SOL    HW117978   5.455   2.981   2.092
 5693SOL    HW217979   5.414   2.895   1.959
 5694SOL     OW17980   0.595   1.093   3.926
 5694SOL    HW117981   0.658   1.023   3.893
 5694SOL    HW217982   0.634   1.183   3.911
 5695SOL     OW17983   1.258   2.279   3.137
 5695SOL    HW117984   1.268   2.364   3.189
 5695SOL    HW217985   1.217   2.298   3.048
 5696SOL     OW17986   2.129   0.487   3.254
 5696SOL    HW117987   2.091   0.442   3.174
 5696SOL    HW217988   2.166   0.576   3.228
 5697SOL     OW17989   6.174   1.776   1.125
 5697SOL    HW117990   6.105   1.818   1.066
 5697SOL    HW217991   6.259   1.764   1.074
 5698SOL     OW17992   0.591   2.286   2.320
 5698SOL    HW117993   0.672   2.295   2.378
 5698SOL    HW217994   0.532   2.365   2.333
 5699SOL     OW17995   6.563   2.025   3.584
 5699SOL    HW117996   6.647   2.002   3.535
 5699SOL    HW217997   6.484   1.991   3.533
 5700SOL     OW17998   6.709   6.110   4.825
 5700SOL    HW117999   6.753   6.043   4.885
 5700SOL    HW218000   6.610   6.096   4.826
 5701SOL     OW18001   1.161   5.654   3.524
 5701SOL    HW118002   1.078   5.613   3.563
 5701SOL    HW218003   1.136   5.716   3.450
 5702SOL     OW18004   1.918   6.864   5.855
 5702SOL    HW118005   1.829   6.850   5.813
 5702SOL    HW218006   1.907   6.912   5.943
 5703SOL     OW18007   4.824   4.608   0.303
 5703SOL    HW118008   4.918   4.581   0.327
 5703SOL    HW218009   4.784   4.660   0.378
 5704SOL     OW18010   4.062   5.605   2.568
 5704SOL    HW118011   4.144   5.568   2.611
 5704SOL    HW218012   4.081   5.630   2.473
 5705SOL     OW18013   6.246   1.063   0.279
 5705SOL    HW118014   6.238   1.155   0.240
 5705SOL    HW218015   6.196   0.998   0.221
 5706SOL     OW18016   1.282   1.423   0.500
 5706SOL    HW118017   1.321   1.336   0.531
 5706SOL    HW218018   1.182   1.417   0.504
 5707SOL     OW18019   1.070   6.883   0.119
 5707SOL    HW118020   1.039   6.963   0.068
 5707SOL    HW218021   1.005   6.861   0.191
 5708SOL     OW18022   5.531   6.594   1.567
 5708SOL    HW118023   5.479   6.526   1.619
 5708SOL    HW218024   5.481   6.619   1.484
 5709SOL     OW18025   0.919   6.360   3.600
 5709SOL    HW118026   0.916   6.373   3.501
 5709SOL    HW218027   0.828   6.340   3.634
 5710SOL     OW18028   2.543   3.526   5.380
 5710SOL    HW118029   2.552   3.526   5.480
 5710SOL    HW218030   2.490   3.447   5.351
 5711SOL     OW18031   5.476   0.254   2.912
 5711SOL    HW118032   5.515   0.261   2.820
 5711SOL    HW218033   5.550   0.249   2.979
 5712SOL     OW18034   0.481   6.662   5.665
 5712SOL    HW118035   0.404   6.725   5.675
 5712SOL    HW218036   0.496   6.644   5.568
 5713SOL     OW18037   1.238   2.142   1.082
 5713SOL    HW118038   1.337   2.125   1.084
 5713SOL    HW218039   1.221   2.236   1.056
 5714SOL     OW18040   1.459   6.477   6.956
 5714SOL    HW118041   1.391   6.461   0.012
 5714SOL    HW218042   1.421   6.538   6.887
 5715SOL     OW18043   1.371   5.873   3.311
 5715SOL    HW118044   1.361   5.864   3.410
 5715SOL    HW218045   1.359   5.968   3.285
 5716SOL     OW18046   1.118   3.575   5.529
 5716SOL    HW118047   1.052   3.607   5.462
 5716SOL    HW218048   1.120   3.638   5.607
 5717SOL     OW18049   1.330   5.507   0.188
 5717SOL    HW118050   1.387   5.434   0.151
 5717SOL    HW218051   1.355   5.594   0.146
 5718SOL     OW18052   1.381   4.141   6.319
 5718SOL    HW118053   1.298   4.127   6.264
 5718SOL    HW218054   1.362   4.208   6.390
 5719SOL     OW18055   2.501   1.415   6.417
 5719SOL    HW118056   2.552   1.421   6.331
 5719SOL    HW218057   2.404   1.401   6.397
 5720SOL     OW18058   0.687   4.537   5.007
 5720SOL    HW118059   0.754   4.502   4.943
 5720SOL    HW218060   0.598   4.546   4.962
 5721SOL     OW18061   0.833   3.864   0.574
 5721SOL    HW118062   0.761   3.795   0.568
 5721SOL    HW218063   0.830   3.907   0.664
 5722SOL     OW18064   5.639   1.902   5.302
 5722SOL    HW118065   5.710   1.831   5.297
 5722SOL    HW218066   5.577   1.892   5.224
 5723SOL     OW18067   4.352   3.837   0.565
 5723SOL    HW118068   4.261   3.860   0.530
 5723SOL    HW218069   4.414   3.914   0.551
 5724SOL     OW18070   3.965   2.222   5.323
 5724SOL    HW118071   3.984   2.139   5.377
 5724SOL    HW218072   3.907   2.198   5.246
 5725SOL     OW18073   5.366   6.001   3.574
 5725SOL    HW118074   5.332   5.989   3.668
 5725SOL    HW218075   5.453   5.953   3.564
 5726SOL     OW18076   6.393   3.071   3.774
 5726SOL    HW118077   6.327   2.999   3.753
 5726SOL    HW218078   6.476   3.059   3.719
 5727SOL     OW18079   6.518   3.529   3.296
 5727SOL    HW118080   6.597   3.520   3.356
 5727SOL    HW218081   6.484   3.623   3.299
 5728SOL     OW18082   4.990   1.661   6.134
 5728SOL    HW118083   4.915   1.595   6.141
 5728SOL    HW218084   5.077   1.612   6.133
 5729SOL     OW18085   1.187   1.728   0.918
 5729SOL    HW118086   1.128   1.705   0.841
 5729SOL    HW218087   1.240   1.648   0.945
 5730SOL     OW18088   4.401   5.668   5.359
 5730SOL    HW118089   4.360   5.618   5.435
 5730SOL    HW218090   4.496   5.640   5.347
 5731SOL     OW18091   2.211   6.678   3.802
 5731SOL    HW118092   2.249   6.676   3.710
 5731SOL    HW218093   2.120   6.637   3.802
 5732SOL     OW18094   6.380   4.594   5.239
 5732SOL    HW118095   6.401   4.600   5.141
 5732SOL    HW218096   6.384   4.498   5.268
 5733SOL     OW18097   3.475   0.781   5.644
 5733SOL    HW118098   3.514   0.794   5.735
 5733SOL    HW218099   3.464   0.870   5.599
 5734SOL     OW18100   1.329   6.536   6.313
 5734SOL    HW118101   1.321   6.495   6.404
 5734SOL    HW218102   1.364   6.469   6.249
 5735SOL     OW18103   3.396   1.550   2.201
 5735SOL    HW118104   3.300   1.524   2.209
 5735SOL    HW218105   3.444   1.482   2.145
 5736SOL     OW18106   5.312   4.575   0.308
 5736SOL    HW118107   5.397   4.585   0.359
 5736SOL    HW218108   5.331   4.535   0.218
 5737SOL     OW18109   5.431   6.230   0.811
 5737SOL    HW118110   5.394   6.304   0.866
 5737SOL    HW218111   5.382   6.145   0.831
 5738SOL     OW18112   3.580   1.543   6.930
 5738SOL    HW118113   3.485   1.574   6.925
 5738SOL    HW218114   3.601   1.514   0.008
 5739SOL     OW18115   1.343   6.739   5.718
 5739SOL    HW118116   1.380   6.739   5.811
 5739SOL    HW218117   1.334   6.645   5.686
 5740SOL     OW18118   4.461   3.459   1.040
 5740SOL    HW118119   4.378   3.508   1.015
 5740SOL    HW218120   4.524   3.458   0.962
 5741SOL     OW18121   0.042   3.710   4.038
 5741SOL    HW118122   0.127   3.728   4.086
 5741SOL    HW218123   0.008   3.619   4.064
 5742SOL     OW18124   4.325   6.715   3.322
 5742SOL    HW118125   4.400   6.741   3.382
 5742SOL    HW218126   4.340   6.754   3.231
 5743SOL     OW18127   3.371   5.409   5.432
 5743SOL    HW118128   3.368   5.420   5.532
 5743SOL    HW218129   3.455   5.451   5.397
 5744SOL     OW18130   5.603   1.333   2.512
 5744SOL    HW118131   5.646   1.246   2.487
 5744SOL    HW218132   5.504   1.323   2.509
 5745SOL     OW18133   2.425   0.733   4.149
 5745SOL    HW118134   2.484   0.701   4.223
 5745SOL    HW218135   2.481   0.762   4.071
 5746SOL     OW18136   4.763   6.807   2.009
 5746SOL    HW118137   4.757   6.899   1.969
 5746SOL    HW218138   4.801   6.813   2.102
 5747SOL     OW18139   0.664   5.687   1.886
 5747SOL    HW118140   0.642   5.611   1.947
 5747SOL    HW218141   0.634   5.665   1.793
 5748SOL     OW18142   1.965   6.968   1.045
 5748SOL    HW118143   1.961   7.007   0.953
 5748SOL    HW218144   2.029   6.892   1.047
 5749SOL     OW18145   1.620   6.370   5.190
 5749SOL    HW118146   1.708   6.410   5.164
 5749SOL    HW218147   1.588   6.310   5.117
 5750SOL     OW18148   6.227   5.987   5.696
 5750SOL    HW118149   6.273   5.899   5.704
 5750SOL    HW218150   6.162   5.998   5.771
 5751SOL     OW18151   2.094   2.641   5.107
 5751SOL    HW118152   2.156   2.719   5.100
 5751SOL    HW218153   2.046   2.643   5.195
 5752SOL     OW18154   5.426   0.110   0.635
 5752SOL    HW118155   5.506   0.057   0.664
 5752SOL    HW218156   5.452   0.171   0.561
 5753SOL     OW18157   2.919   3.698   4.509
 5753SOL    HW118158   3.014   3.719   4.531
 5753SOL    HW218159   2.871   3.672   4.593
 5754SOL     OW18160   1.118   5.666   1.360
 5754SOL    HW118161   1.055   5.590   1.375
 5754SOL    HW218162   1.172   5.681   1.442
 5755SOL     OW18163   1.733   1.881   5.652
 5755SOL    HW118164   1.812   1.837   5.694
 5755SOL    HW218165   1.736   1.980   5.670
 5756SOL     OW18166   0.351   0.356   2.645
 5756SOL    HW118167   0.364   0.416   2.566
 5756SOL    HW218168   0.437   0.349   2.696
 5757SOL     OW18169   0.309   5.241   4.213
 5757SOL    HW118170   0.344   5.295   4.137
 5757SOL    HW218171   0.385   5.213   4.272
 5758SOL     OW18172   2.451   1.412   2.815
 5758SOL    HW118173   2.364   1.406   2.865
 5758SOL    HW218174   2.462   1.330   2.758
 5759SOL     OW18175   4.789   1.315   0.381
 5759SOL    HW118176   4.871   1.353   0.424
 5759SOL    HW218177   4.804   1.219   0.360
 5760SOL     OW18178   6.413   2.300   1.313
 5760SOL    HW118179   6.483   2.340   1.255
 5760SOL    HW218180   6.325   2.301   1.266
 5761SOL     OW18181   5.952   5.233   5.961
 5761SOL    HW118182   6.002   5.236   6.048
 5761SOL    HW218183   5.863   5.277   5.973
 5762SOL     OW18184   4.511   4.191   0.953
 5762SOL    HW118185   4.431   4.227   0.904
 5762SOL    HW218186   4.551   4.264   1.008
 5763SOL     OW18187   5.914   6.107   1.221
 5763SOL    HW118188   5.962   6.167   1.285
 5763SOL    HW218189   5.854   6.045   1.270
 5764SOL     OW18190   4.405   5.147   4.354
 5764SOL    HW118191   4.415   5.106   4.264
 5764SOL    HW218192   4.361   5.237   4.346
 5765SOL     OW18193   6.259   3.505   0.545
 5765SOL    HW118194   6.254   3.428   0.608
 5765SOL    HW218195   6.354   3.524   0.522
 5766SOL     OW18196   1.651   1.992   5.063
 5766SOL    HW118197   1.581   1.998   4.992
 5766SOL    HW218198   1.741   2.008   5.023
 5767SOL     OW18199   2.622   0.558   0.630
 5767SOL    HW118200   2.672   0.523   0.550
 5767SOL    HW218201   2.639   0.656   0.639
 5768SOL     OW18202   0.571   0.197   3.508
 5768SOL    HW118203   0.585   0.120   3.570
 5768SOL    HW218204   0.476   0.200   3.478
 5769SOL     OW18205   2.789   5.651   4.630
 5769SOL    HW118206   2.885   5.669   4.649
 5769SOL    HW218207   2.773   5.553   4.631
 5770SOL     OW18208   6.672   6.957   6.352
 5770SOL    HW118209   6.703   0.002   6.279
 5770SOL    HW218210   6.746   6.943   6.418
 5771SOL     OW18211   1.535   6.970   4.061
 5771SOL    HW118212   1.600   0.024   4.030
 5771SOL    HW218213   1.576   6.917   4.135
 5772SOL     OW18214   5.562   0.987   0.927
 5772SOL    HW118215   5.574   0.971   1.025
 5772SOL    HW218216   5.494   1.059   0.912
 5773SOL     OW18217   4.575   1.214   3.622
 5773SOL    HW118218   4.562   1.157   3.541
 5773SOL    HW218219   4.644   1.284   3.604
 5774SOL     OW18220   2.842   0.412   4.342
 5774SOL    HW118221   2.897   0.477   4.395
 5774SOL    HW218222   2.855   0.428   4.244
 5775SOL     OW18223   1.191   0.217   2.356
 5775SOL    HW118224   1.116   0.283   2.349
 5775SOL    HW218225   1.225   0.215   2.451
 5776SOL     OW18226   0.795   6.797   3.602
 5776SOL    HW118227   0.891   6.795   3.574
 5776SOL    HW218228   0.780   6.875   3.663
 5777SOL     OW18229   0.642   0.324   4.504
 5777SOL    HW118230   0.583   0.255   4.545
 5777SOL    HW218231   0.707   0.357   4.573
 5778SOL     OW18232   1.629   0.307   0.287
 5778SOL    HW118233   1.647   0.386   0.347
 5778SOL    HW218234   1.642   0.334   0.192
 5779SOL     OW18235   4.588   2.784   0.668
 5779SOL    HW118236   4.503   2.752   0.710
 5779SOL    HW218237   4.588   2.884   0.665
 5780SOL     OW18238   6.377   5.884   3.720
 5780SOL    HW118239   6.377   5.941   3.802
 5780SOL    HW218240   6.332   5.797   3.740
 5781SOL     OW18241   0.084   4.539   4.570
 5781SOL    HW118242   0.085   4.618   4.508
 5781SOL    HW218243   0.064   4.570   4.663
 5782SOL     OW18244   1.911   1.599   0.554
 5782SOL    HW118245   1.869   1.517   0.593
 5782SOL    HW218246   1.927   1.665   0.627
 5783SOL     OW18247   1.257   0.780   1.709
 5783SOL    HW118248   1.290   0.808   1.799
 5783SOL    HW218249   1.279   0.684   1.694
 5784SOL     OW18250   0.177   6.513   5.451
 5784SOL    HW118251   0.185   6.449   5.374
 5784SOL    HW218252   0.238   6.591   5.436
 5785SOL     OW18253   2.242   2.125   0.275
 5785SOL    HW118254   2.251   2.026   0.264
 5785SOL    HW218255   2.332   2.165   0.294
 5786SOL     OW18256   0.454   3.531   0.225
 5786SOL    HW118257   0.543   3.577   0.220
 5786SOL    HW218258   0.385   3.587   0.179
 5787SOL     OW18259   2.287   1.704   4.954
 5787SOL    HW118260   2.350   1.735   4.883
 5787SOL    HW218261   2.331   1.634   5.010
 5788SOL     OW18262   2.663   1.615   1.741
 5788SOL    HW118263   2.684   1.674   1.663
 5788SOL    HW218264   2.749   1.580   1.780
 5789SOL     OW18265   3.449   5.079   0.204
 5789SOL    HW118266   3.441   4.990   0.249
 5789SOL    HW218267   3.360   5.107   0.169
 5790SOL     OW18268   1.422   4.248   4.862
 5790SOL    HW118269   1.516   4.240   4.895
 5790SOL    HW218270   1.422   4.268   4.764
 5791SOL     OW18271   3.958   1.334   2.279
 5791SOL    HW118272   3.999   1.347   2.189
 5791SOL    HW218273   4.027   1.299   2.342
 5792SOL     OW18274   6.419   3.064   2.478
 5792SOL    HW118275   6.355   3.005   2.430
 5792SOL    HW218276   6.506   3.066   2.430
 5793SOL     OW18277   5.407   0.950   3.989
 5793SOL    HW118278   5.434   0.882   3.921
 5793SOL    HW218279   5.309   0.944   4.006
 5794SOL     OW18280   2.837   1.270   0.467
 5794SOL    HW118281   2.740   1.262   0.443
 5794SOL    HW218282   2.846   1.324   0.550
 5795SOL     OW18283   6.706   6.662   0.455
 5795SOL    HW118284   6.758   6.746   0.437
 5795SOL    HW218285   6.770   6.587   0.471
 5796SOL     OW18286   4.288   1.577   6.725
 5796SOL    HW118287   4.208   1.618   6.769
 5796SOL    HW218288   4.368   1.592   6.782
 5797SOL     OW18289   4.715   2.180   5.971
 5797SOL    HW118290   4.806   2.142   5.956
 5797SOL    HW218291   4.712   2.273   5.934
 5798SOL     OW18292   0.716   4.585   5.385
 5798SOL    HW118293   0.735   4.550   5.477
 5798SOL    HW218294   0.618   4.577   5.365
 5799SOL     OW18295   6.834   0.542   2.471
 5799SOL    HW118296   6.906   0.604   2.505
 5799SOL    HW218297   6.745   0.583   2.490
 5800SOL     OW18298   6.306   6.535   1.931
 5800SOL    HW118299   6.376   6.541   1.861
 5800SOL    HW218300   6.217   6.517   1.889
 5801SOL     OW18301   1.900   2.369   3.065
 5801SOL    HW118302   1.831   2.312   3.110
 5801SOL    HW218303   1.953   2.417   3.134
 5802SOL     OW18304   1.620   4.663   1.544
 5802SOL    HW118305   1.659   4.664   1.636
 5802SOL    HW218306   1.608   4.757   1.512
 5803SOL     OW18307   2.190   4.709   2.645
 5803SOL    HW118308   2.235   4.797   2.632
 5803SOL    HW218309   2.160   4.674   2.556
 5804SOL     OW18310   0.373   4.916   4.155
 5804SOL    HW118311   0.326   4.834   4.123
 5804SOL    HW218312   0.423   4.957   4.079
 5805SOL     OW18313   2.398   3.938   6.612
 5805SOL    HW118314   2.333   3.997   6.565
 5805SOL    HW218315   2.414   3.856   6.557
 5806SOL     OW18316   6.914   5.995   5.264
 5806SOL    HW118317   6.832   5.997   5.322
 5806SOL    HW218318   6.985   5.941   5.310
 5807SOL     OW18319   0.516   3.458   2.422
 5807SOL    HW118320   0.574   3.506   2.356
 5807SOL    HW218321   0.537   3.360   2.421
 5808SOL     OW18322   5.603   5.519   4.815
 5808SOL    HW118323   5.673   5.450   4.799
 5808SOL    HW218324   5.547   5.492   4.893
 5809SOL     OW18325   5.947   1.864   4.853
 5809SOL    HW118326   5.997   1.815   4.782
 5809SOL    HW218327   5.849   1.844   4.844
 5810SOL     OW18328   3.784   1.732   4.597
 5810SOL    HW118329   3.697   1.752   4.552
 5810SOL    HW218330   3.824   1.816   4.632
 5811SOL     OW18331   3.067   0.550   5.762
 5811SOL    HW118332   3.044   0.466   5.813
 5811SOL    HW218333   3.146   0.533   5.705
 5812SOL     OW18334   6.550   2.290   4.510
 5812SOL    HW118335   6.599   2.219   4.461
 5812SOL    HW218336   6.516   2.253   4.597
 5813SOL     OW18337   1.900   1.728   0.816
 5813SOL    HW118338   1.967   1.743   0.888
 5813SOL    HW218339   1.824   1.674   0.852
 5814SOL     OW18340   6.241   4.596   1.096
 5814SOL    HW118341   6.196   4.563   1.013
 5814SOL    HW218342   6.196   4.556   1.176
 5815SOL     OW18343   4.054   2.155   4.712
 5815SOL    HW118344   4.135   2.126   4.663
 5815SOL    HW218345   4.009   2.229   4.663
 5816SOL     OW18346   4.437   5.718   0.040
 5816SOL    HW118347   4.412   5.622   0.047
 5816SOL    HW218348   4.410   5.753   6.965
 5817SOL     OW18349   5.768   3.695   6.291
 5817SOL    HW118350   5.834   3.654   6.355
 5817SOL    HW218351   5.818   3.751   6.224
 5818SOL     OW18352   6.583   5.792   4.864
 5818SOL    HW118353   6.578   5.791   4.964
 5818SOL    HW218354   6.559   5.883   4.831
 5819SOL     OW18355   4.220   6.558   0.008
 5819SOL    HW118356   4.155   6.595   6.956
 5819SOL    HW218357   4.244   6.464   6.998
 5820SOL     OW18358   4.015   5.760   3.948
 5820SOL    HW118359   4.071   5.781   4.027
 5820SOL    HW218360   4.015   5.661   3.931
 5821SOL     OW18361   0.307   6.927   1.360
 5821SOL    HW118362   0.302   6.962   1.454
 5821SOL    HW218363   0.281   6.831   1.358
 5822SOL     OW18364   0.952   2.497   2.530
 5822SOL    HW118365   0.992   2.504   2.439
 5822SOL    HW218366   0.943   2.588   2.569
 5823SOL     OW18367   1.748   1.028   5.296
 5823SOL    HW118368   1.724   0.986   5.208
 5823SOL    HW218369   1.665   1.055   5.344
 5824SOL     OW18370   6.556   5.129   2.808
 5824SOL    HW118371   6.647   5.137   2.768
 5824SOL    HW218372   6.547   5.192   2.884
 5825SOL     OW18373   2.212   2.027   5.699
 5825SOL    HW118374   2.279   2.099   5.718
 5825SOL    HW218375   2.227   1.992   5.606
 5826SOL     OW18376   0.068   5.168   5.577
 5826SOL    HW118377   0.092   5.072   5.595
 5826SOL    HW218378   0.069   5.184   5.479
 5827SOL     OW18379   1.771   4.670   4.746
 5827SOL    HW118380   1.714   4.746   4.716
 5827SOL    HW218381   1.740   4.586   4.701
 5828SOL     OW18382   6.691   2.692   1.430
 5828SOL    HW118383   6.764   2.629   1.455
 5828SOL    HW218384   6.712   2.732   1.340
 5829SOL     OW18385   1.968   0.818   3.187
 5829SOL    HW118386   2.068   0.809   3.176
 5829SOL    HW218387   1.934   0.745   3.245
 5830SOL     OW18388   5.005   0.043   5.386
 5830SOL    HW118389   4.992   0.130   5.338
 5830SOL    HW218390   5.057   0.059   5.470
 5831SOL     OW18391   6.989   0.750   5.300
 5831SOL    HW118392   6.943   0.752   5.211
 5831SOL    HW218393   0.054   0.809   5.297
 5832SOL     OW18394   3.359   4.925   5.909
 5832SOL    HW118395   3.404   4.987   5.973
 5832SOL    HW218396   3.259   4.936   5.918
 5833SOL     OW18397   3.999   3.999   4.725
 5833SOL    HW118398   4.057   4.054   4.785
 5833SOL    HW218399   3.947   4.060   4.665
 5834SOL     OW18400   6.816   3.301   6.808
 5834SOL    HW118401   6.914   3.318   6.807
 5834SOL    HW218402   6.798   3.208   6.776
 5835SOL     OW18403   4.839   3.067   3.809
 5835SOL    HW118404   4.893   2.983   3.811
 5835SOL    HW218405   4.853   3.116   3.895
 5836SOL     OW18406   2.873   6.709   2.626
 5836SOL    HW118407   2.888   6.697   2.724
 5836SOL    HW218408   2.835   6.625   2.587
 5837SOL     OW18409   3.573   4.412   5.804
 5837SOL    HW118410   3.625   4.341   5.852
 5837SOL    HW218411   3.596   4.409   5.707
 5838SOL     OW18412   3.403   2.776   6.842
 5838SOL    HW118413   3.364   2.731   6.761
 5838SOL    HW218414   3.368   2.869   6.847
 5839SOL     OW18415   0.495   2.057   2.258
 5839SOL    HW118416   0.400   2.043   2.285
 5839SOL    HW218417   0.521   2.152   2.274
 5840SOL     OW18418   0.785   5.514   6.348
 5840SOL    HW118419   0.692   5.479   6.362
 5840SOL    HW218420   0.780   5.607   6.312
 5841SOL     OW18421   5.142   1.651   2.686
 5841SOL    HW118422   5.119   1.705   2.767
 5841SOL    HW218423   5.059   1.631   2.634
 5842SOL     OW18424   4.589   3.224   1.471
 5842SOL    HW118425   4.531   3.295   1.432
 5842SOL    HW218426   4.596   3.237   1.570
 5843SOL     OW18427   2.084   3.847   2.711
 5843SOL    HW118428   2.134   3.769   2.673
 5843SOL    HW218429   2.102   3.853   2.809
 5844SOL     OW18430   1.665   6.554   6.315
 5844SOL    HW118431   1.639   6.570   6.220
 5844SOL    HW218432   1.627   6.467   6.346
 5845SOL     OW18433   0.437   0.726   2.287
 5845SOL    HW118434   0.462   0.816   2.252
 5845SOL    HW218435   0.370   0.737   2.361
 5846SOL     OW18436   0.304   2.095   4.047
 5846SOL    HW118437   0.309   2.179   3.993
 5846SOL    HW218438   0.387   2.041   4.032
 5847SOL     OW18439   2.077   2.248   1.745
 5847SOL    HW118440   2.082   2.241   1.844
 5847SOL    HW218441   2.020   2.327   1.720
 5848SOL     OW18442   2.244   5.192   3.451
 5848SOL    HW118443   2.310   5.229   3.516
 5848SOL    HW218444   2.271   5.099   3.425
 5849SOL     OW18445   0.219   0.303   6.788
 5849SOL    HW118446   0.266   0.384   6.753
 5849SOL    HW218447   0.185   0.322   6.880
 5850SOL     OW18448   0.103   3.190   1.779
 5850SOL    HW118449   0.058   3.220   1.863
 5850SOL    HW218450   0.154   3.106   1.797
 5851SOL     OW18451   5.793   3.687   3.518
 5851SOL    HW118452   5.717   3.645   3.470
 5851SOL    HW218453   5.827   3.765   3.465
 5852SOL     OW18454   6.461   6.085   3.404
 5852SOL    HW118455   6.372   6.125   3.385
 5852SOL    HW218456   6.529   6.157   3.417
 5853SOL     OW18457   3.630   5.760   4.628
 5853SOL    HW118458   3.608   5.849   4.669
 5853SOL    HW218459   3.547   5.706   4.620
 5854SOL     OW18460   5.771   4.945   6.142
 5854SOL    HW118461   5.693   4.984   6.093
 5854SOL    HW218462   5.852   4.946   6.082
 5855SOL     OW18463   0.019   1.092   4.238
 5855SOL    HW118464   6.986   1.171   4.201
 5855SOL    HW218465   0.046   1.031   4.164
 5856SOL     OW18466   1.785   5.804   3.996
 5856SOL    HW118467   1.708   5.776   4.054
 5856SOL    HW218468   1.799   5.734   3.925
 5857SOL     OW18469   6.155   2.706   5.533
 5857SOL    HW118470   6.131   2.611   5.553
 5857SOL    HW218471   6.239   2.730   5.583
 5858SOL     OW18472   1.924   2.628   2.373
 5858SOL    HW118473   1.974   2.548   2.408
 5858SOL    HW218474   1.963   2.655   2.284
 5859SOL     OW18475   5.441   6.037   2.188
 5859SOL    HW118476   5.424   6.111   2.253
 5859SOL    HW218477   5.538   6.033   2.166
 5860SOL     OW18478   1.844   4.151   1.494
 5860SOL    HW118479   1.865   4.065   1.540
 5860SOL    HW218480   1.780   4.135   1.419
 5861SOL     OW18481   4.345   1.299   4.522
 5861SOL    HW118482   4.442   1.320   4.537
 5861SOL    HW218483   4.338   1.222   4.459
 5862SOL     OW18484   5.208   5.390   2.066
 5862SOL    HW118485   5.152   5.468   2.097
 5862SOL    HW218486   5.290   5.384   2.123
 5863SOL     OW18487   3.100   0.850   4.777
 5863SOL    HW118488   3.132   0.855   4.682
 5863SOL    HW218489   3.122   0.936   4.824
 5864SOL     OW18490   3.995   3.748   1.671
 5864SOL    HW118491   4.051   3.666   1.685
 5864SOL    HW218492   4.001   3.807   1.751
 5865SOL     OW18493   6.026   0.526   5.085
 5865SOL    HW118494   5.997   0.613   5.125
 5865SOL    HW218495   6.015   0.453   5.152
 5866SOL     OW18496   4.192   5.027   0.753
 5866SOL    HW118497   4.202   4.929   0.772
 5866SOL    HW218498   4.276   5.062   0.711
 5867SOL     OW18499   0.976   4.126   0.717
 5867SOL    HW118500   1.048   4.180   0.760
 5867SOL    HW218501   0.948   4.169   0.632
 5868SOL     OW18502   0.163   1.148   5.051
 5868SOL    HW118503   0.152   1.125   4.955
 5868SOL    HW218504   0.248   1.109   5.086
 5869SOL     OW18505   2.612   6.446   4.193
 5869SOL    HW118506   2.656   6.468   4.280
 5869SOL    HW218507   2.585   6.531   4.147
 5870SOL     OW18508   5.147   6.191   4.821
 5870SOL    HW118509   5.190   6.145   4.899
 5870SOL    HW218510   5.048   6.183   4.829
 5871SOL     OW18511   4.066   3.019   1.096
 5871SOL    HW118512   4.092   3.078   1.020
 5871SOL    HW218513   4.112   3.048   1.179
 5872SOL     OW18514   4.004   5.417   1.098
 5872SOL    HW118515   3.959   5.350   1.040
 5872SOL    HW218516   4.013   5.504   1.050
 5873SOL     OW18517   2.671   1.995   1.186
 5873SOL    HW118518   2.704   1.914   1.137
 5873SOL    HW218519   2.738   2.022   1.255
 5874SOL     OW18520   3.558   4.167   0.293
 5874SOL    HW118521   3.468   4.209   0.293
 5874SOL    HW218522   3.618   4.215   0.356
 5875SOL     OW18523   4.166   1.322   6.638
 5875SOL    HW118524   4.158   1.280   6.728
 5875SOL    HW218525   4.226   1.402   6.644
 5876SOL     OW18526   3.057   3.190   0.248
 5876SOL    HW118527   2.997   3.142   0.311
 5876SOL    HW218528   3.033   3.287   0.247
 5877SOL     OW18529   0.336   6.770   0.593
 5877SOL    HW118530   0.315   6.691   0.651
 5877SOL    HW218531   0.331   6.853   0.648
 5878SOL     OW18532   5.608   4.991   3.764
 5878SOL    HW118533   5.592   4.935   3.845
 5878SOL    HW218534   5.705   4.988   3.740
 5879SOL     OW18535   1.862   3.222   6.224
 5879SOL    HW118536   1.857   3.126   6.198
 5879SOL    HW218537   1.853   3.279   6.143
 5880SOL     OW18538   4.752   4.588   6.726
 5880SOL    HW118539   4.762   4.682   6.759
 5880SOL    HW218540   4.701   4.587   6.641
 5881SOL     OW18541   1.672   6.877   1.731
 5881SOL    HW118542   1.660   6.952   1.796
 5881SOL    HW218543   1.720   6.801   1.777
 5882SOL     OW18544   0.850   6.769   6.083
 5882SOL    HW118545   0.869   6.675   6.054
 5882SOL    HW218546   0.788   6.767   6.162
 5883SOL     OW18547   0.958   1.276   6.979
 5883SOL    HW118548   1.028   1.205   6.983
 5883SOL    HW218549   0.882   1.252   0.024
 5884SOL     OW18550   4.777   1.100   5.025
 5884SOL    HW118551   4.858   1.137   4.980
 5884SOL    HW218552   4.697   1.155   5.002
 5885SOL     OW18553   0.247   5.599   2.329
 5885SOL    HW118554   0.155   5.563   2.345
 5885SOL    HW218555   0.262   5.679   2.388
 5886SOL     OW18556   1.211   1.903   3.937
 5886SOL    HW118557   1.176   1.993   3.910
 5886SOL    HW218558   1.212   1.842   3.858
 5887SOL     OW18559   2.294   2.078   1.707
 5887SOL    HW118560   2.210   2.133   1.701
 5887SOL    HW218561   2.370   2.129   1.666
 5888SOL     OW18562   2.586   6.718   1.595
 5888SOL    HW118563   2.518   6.755   1.658
 5888SOL    HW218564   2.615   6.627   1.626
 5889SOL     OW18565   5.958   1.825   6.276
 5889SOL    HW118566   5.959   1.807   6.375
 5889SOL    HW218567   5.973   1.923   6.260
 5890SOL     OW18568   2.057   6.947   2.758
 5890SOL    HW118569   2.093   6.965   2.850
 5890SOL    HW218570   2.104   7.006   2.692
 5891SOL     OW18571   2.639   4.262   0.893
 5891SOL    HW118572   2.680   4.190   0.837
 5891SOL    HW218573   2.573   4.222   0.956
 5892SOL     OW18574   0.082   5.369   2.159
 5892SOL    HW118575   0.079   5.450   2.100
 5892SOL    HW218576   0.115   5.291   2.106
 5893SOL     OW18577   2.567   4.824   1.796
 5893SOL    HW118578   2.479   4.861   1.766
 5893SOL    HW218579   2.554   4.771   1.880
 5894SOL     OW18580   0.755   5.675   5.496
 5894SOL    HW118581   0.713   5.605   5.555
 5894SOL    HW218582   0.719   5.765   5.521
 5895SOL     OW18583   6.165   3.939   3.483
 5895SOL    HW118584   6.153   3.990   3.398
 5895SOL    HW218585   6.099   3.971   3.551
 5896SOL     OW18586   4.673   1.539   0.736
 5896SOL    HW118587   4.741   1.612   0.734
 5896SOL    HW218588   4.715   1.456   0.772
 5897SOL     OW18589   4.185   1.266   0.906
 5897SOL    HW118590   4.103   1.280   0.850
 5897SOL    HW218591   4.263   1.247   0.846
 5898SOL     OW18592   2.596   0.895   5.241
 5898SOL    HW118593   2.542   0.812   5.257
 5898SOL    HW218594   2.666   0.904   5.312
 5899SOL     OW18595   5.518   6.140   6.750
 5899SOL    HW118596   5.488   6.111   6.840
 5899SOL    HW218597   5.463   6.095   6.680
 5900SOL     OW18598   6.841   4.677   2.827
 5900SOL    HW118599   6.864   4.618   2.905
 5900SOL    HW218600   6.923   4.722   2.794
 5901SOL     OW18601   2.690   1.536   0.450
 5901SOL    HW118602   2.647   1.486   0.375
 5901SOL    HW218603   2.711   1.473   0.525
 5902SOL     OW18604   5.455   3.898   5.910
 5902SOL    HW118605   5.538   3.952   5.902
 5902SOL    HW218606   5.385   3.935   5.848
 5903SOL     OW18607   4.812   3.885   6.996
 5903SOL    HW118608   4.834   3.788   7.008
 5903SOL    HW218609   4.862   3.939   0.049
 5904SOL     OW18610   1.150   4.515   1.136
 5904SOL    HW118611   1.202   4.430   1.137
 5904SOL    HW218612   1.065   4.501   1.085
 5905SOL     OW18613   6.359   0.732   3.755
 5905SOL    HW118614   6.432   0.779   3.705
 5905SOL    HW218615   6.305   0.678   3.690
 5906SOL     OW18616   4.734   1.694   4.905
 5906SOL    HW118617   4.654   1.711   4.962
 5906SOL    HW218618   4.751   1.595   4.900
 5907SOL     OW18619   1.284   6.696   0.540
 5907SOL    HW118620   1.384   6.690   0.540
 5907SOL    HW218621   1.250   6.683   0.447
 5908SOL     OW18622   6.664   4.021   0.126
 5908SOL    HW118623   6.649   3.926   0.102
 5908SOL    HW218624   6.632   4.080   0.052
 5909SOL     OW18625   6.298   5.078   6.365
 5909SOL    HW118626   6.351   5.086   6.450
 5909SOL    HW218627   6.316   5.157   6.307
 5910SOL     OW18628   0.637   4.650   1.245
 5910SOL    HW118629   0.559   4.712   1.235
 5910SOL    HW218630   0.709   4.675   1.181
 5911SOL     OW18631   6.305   5.049   6.841
 5911SOL    HW118632   6.214   5.015   6.817
 5911SOL    HW218633   6.296   5.124   6.906
 5912SOL     OW18634   6.080   3.406   6.985
 5912SOL    HW118635   5.989   3.446   7.000
 5912SOL    HW218636   6.073   3.336   6.914
 5913SOL     OW18637   3.130   3.036   6.145
 5913SOL    HW118638   3.066   2.960   6.153
 5913SOL    HW218639   3.088   3.120   6.179
 5914SOL     OW18640   2.852   5.311   6.056
 5914SOL    HW118641   2.836   5.215   6.076
 5914SOL    HW218642   2.863   5.361   6.142
 5915SOL     OW18643   6.158   4.023   1.872
 5915SOL    HW118644   6.200   3.938   1.902
 5915SOL    HW218645   6.229   4.091   1.852
 5916SOL     OW18646   4.546   6.245   5.800
 5916SOL    HW118647   4.590   6.273   5.885
 5916SOL    HW218648   4.529   6.147   5.802
 5917SOL     OW18649   3.782   2.987   4.465
 5917SOL    HW118650   3.698   2.945   4.432
 5917SOL    HW218651   3.855   2.973   4.398
 5918SOL     OW18652   2.324   3.818   5.349
 5918SOL    HW118653   2.383   3.784   5.422
 5918SOL    HW218654   2.374   3.884   5.294
 5919SOL     OW18655   2.581   2.509   0.432
 5919SOL    HW118656   2.564   2.452   0.512
 5919SOL    HW218657   2.562   2.604   0.454
 5920SOL     OW18658   3.688   6.857   0.412
 5920SOL    HW118659   3.770   6.838   0.358
 5920SOL    HW218660   3.617   6.895   0.353
 5921SOL     OW18661   3.605   5.511   5.645
 5921SOL    HW118662   3.529   5.551   5.594
 5921SOL    HW218663   3.685   5.504   5.586
 5922SOL     OW18664   6.706   5.360   4.219
 5922SOL    HW118665   6.765   5.280   4.227
 5922SOL    HW218666   6.762   5.442   4.211
 5923SOL     OW18667   5.363   0.584   1.329
 5923SOL    HW118668   5.359   0.628   1.419
 5923SOL    HW218669   5.350   0.485   1.340
 5924SOL     OW18670   6.042   2.076   5.017
 5924SOL    HW118671   6.133   2.046   5.047
 5924SOL    HW218672   6.005   2.010   4.952
 5925SOL     OW18673   3.892   5.996   3.515
 5925SOL    HW118674   3.818   5.995   3.448
 5925SOL    HW218675   3.904   6.088   3.551
 5926SOL     OW18676   3.792   4.859   2.293
 5926SOL    HW118677   3.756   4.926   2.228
 5926SOL    HW218678   3.747   4.771   2.279
 5927SOL     OW18679   1.556   4.179   3.375
 5927SOL    HW118680   1.521   4.086   3.378
 5927SOL    HW218681   1.585   4.207   3.466
 5928SOL     OW18682   3.169   0.630   1.653
 5928SOL    HW118683   3.185   0.716   1.703
 5928SOL    HW218684   3.244   0.566   1.672
 5929SOL     OW18685   0.953   6.510   6.005
 5929SOL    HW118686   0.972   6.484   5.910
 5929SOL    HW218687   0.902   6.437   6.050
 5930SOL     OW18688   0.064   1.090   3.232
 5930SOL    HW118689   6.996   1.050   3.197
 5930SOL    HW218690   0.068   1.187   3.207
 5931SOL     OW18691   5.678   5.196   3.464
 5931SOL    HW118692   5.769   5.211   3.503
 5931SOL    HW218693   5.611   5.186   3.538
 5932SOL     OW18694   2.766   6.172   1.036
 5932SOL    HW118695   2.787   6.076   1.055
 5932SOL    HW218696   2.670   6.191   1.056
 5933SOL     OW18697   0.549   5.595   3.035
 5933SOL    HW118698   0.516   5.688   3.053
 5933SOL    HW218699   0.489   5.551   2.968
 5934SOL     OW18700   4.147   3.494   4.234
 5934SOL    HW118701   4.207   3.508   4.313
 5934SOL    HW218702   4.130   3.582   4.190
 5935SOL     OW18703   4.034   3.436   5.124
 5935SOL    HW118704   4.076   3.396   5.206
 5935SOL    HW218705   4.003   3.529   5.144
 5936SOL     OW18706   3.933   3.306   0.422
 5936SOL    HW118707   3.866   3.295   0.496
 5936SOL    HW218708   3.960   3.216   0.389
 5937SOL     OW18709   0.401   4.732   2.188
 5937SOL    HW118710   0.439   4.789   2.115
 5937SOL    HW218711   0.313   4.770   2.218
 5938SOL     OW18712   1.226   5.642   4.360
 5938SOL    HW118713   1.297   5.616   4.425
 5938SOL    HW218714   1.195   5.735   4.380
 5939SOL     OW18715   3.359   0.483   3.639
 5939SOL    HW118716   3.268   0.524   3.634
 5939SOL    HW218717   3.410   0.523   3.715
 5940SOL     OW18718   4.372   5.494   1.866
 5940SOL    HW118719   4.371   5.534   1.774
 5940SOL    HW218720   4.331   5.403   1.863
 5941SOL     OW18721   6.265   3.313   2.241
 5941SOL    HW118722   6.360   3.281   2.245
 5941SOL    HW218723   6.213   3.256   2.177
 5942SOL     OW18724   4.859   2.773   6.686
 5942SOL    HW118725   4.807   2.858   6.684
 5942SOL    HW218726   4.834   2.716   6.608
 5943SOL     OW18727   3.377   5.307   0.954
 5943SOL    HW118728   3.426   5.333   1.037
 5943SOL    HW218729   3.296   5.253   0.978
 5944SOL     OW18730   5.297   2.031   1.422
 5944SOL    HW118731   5.280   2.062   1.329
 5944SOL    HW218732   5.317   2.109   1.481
 5945SOL     OW18733   6.504   5.177   5.389
 5945SOL    HW118734   6.446   5.139   5.461
 5945SOL    HW218735   6.594   5.135   5.393
 5946SOL     OW18736   3.501   3.212   5.499
 5946SOL    HW118737   3.600   3.216   5.488
 5946SOL    HW218738   3.460   3.165   5.421
 5947SOL     OW18739   4.054   3.033   1.649
 5947SOL    HW118740   4.017   3.049   1.741
 5947SOL    HW218741   4.016   3.099   1.585
 5948SOL     OW18742   3.450   5.372   3.457
 5948SOL    HW118743   3.460   5.469   3.479
 5948SOL    HW218744   3.473   5.357   3.361
 5949SOL     OW18745   4.019   3.519   1.300
 5949SOL    HW118746   4.064   3.456   1.363
 5949SOL    HW218747   4.033   3.613   1.330
 5950SOL     OW18748   5.701   3.616   5.623
 5950SOL    HW118749   5.749   3.559   5.691
 5950SOL    HW218750   5.606   3.630   5.653
 5951SOL     OW18751   0.422   5.705   5.151
 5951SOL    HW118752   0.514   5.707   5.189
 5951SOL    HW218753   0.381   5.615   5.166
 5952SOL     OW18754   5.492   5.398   4.384
 5952SOL    HW118755   5.506   5.337   4.463
 5952SOL    HW218756   5.573   5.456   4.373
 5953SOL     OW18757   6.618   2.809   5.957
 5953SOL    HW118758   6.574   2.898   5.969
 5953SOL    HW218759   6.557   2.749   5.905
 5954SOL     OW18760   0.064   4.558   5.530
 5954SOL    HW118761   6.987   4.574   5.493
 5954SOL    HW218762   0.057   4.519   5.621
 5955SOL     OW18763   5.438   5.897   2.790
 5955SOL    HW118764   5.382   5.817   2.769
 5955SOL    HW218765   5.384   5.980   2.776
 5956SOL     OW18766   3.709   1.963   6.998
 5956SOL    HW118767   3.753   1.881   6.962
 5956SOL    HW218768   3.722   1.966   0.082
 5957SOL     OW18769   4.736   0.331   5.359
 5957SOL    HW118770   4.751   0.371   5.449
 5957SOL    HW218771   4.675   0.390   5.306
 5958SOL     OW18772   6.780   5.696   2.971
 5958SOL    HW118773   6.751   5.625   2.907
 5958SOL    HW218774   6.879   5.711   2.962
 5959SOL     OW18775   3.663   1.938   5.448
 5959SOL    HW118776   3.639   2.008   5.382
 5959SOL    HW218777   3.607   1.948   5.531
 5960SOL     OW18778   3.980   6.670   4.474
 5960SOL    HW118779   3.971   6.577   4.440
 5960SOL    HW218780   4.062   6.712   4.436
 5961SOL     OW18781   5.085   0.983   3.802
 5961SOL    HW118782   4.986   0.976   3.815
 5961SOL    HW218783   5.126   1.030   3.881
 5962SOL     OW18784   5.110   5.873   1.743
 5962SOL    HW118785   5.080   5.783   1.711
 5962SOL    HW218786   5.057   5.899   1.824
 5963SOL     OW18787   3.133   3.199   4.559
 5963SOL    HW118788   3.205   3.262   4.530
 5963SOL    HW218789   3.091   3.157   4.478
 5964SOL     OW18790   0.294   4.900   5.954
 5964SOL    HW118791   0.376   4.871   5.905
 5964SOL    HW218792   0.275   4.996   5.935
 5965SOL     OW18793   1.502   1.760   6.139
 5965SOL    HW118794   1.596   1.756   6.172
 5965SOL    HW218795   1.474   1.670   6.105
 5966SOL     OW18796   2.913   5.985   5.482
 5966SOL    HW118797   2.957   6.075   5.476
 5966SOL    HW218798   2.850   5.985   5.560
 5967SOL     OW18799   4.222   6.331   1.469
 5967SOL    HW118800   4.261   6.421   1.484
 5967SOL    HW218801   4.284   6.275   1.413
 5968SOL     OW18802   4.597   0.902   2.549
 5968SOL    HW118803   4.547   0.937   2.628
 5968SOL    HW218804   4.684   0.950   2.540
 5969SOL     OW18805   6.462   0.947   6.021
 5969SOL    HW118806   6.493   1.024   5.963
 5969SOL    HW218807   6.381   0.906   5.980
 5970SOL     OW18808   0.684   4.450   2.327
 5970SOL    HW118809   0.649   4.418   2.414
 5970SOL    HW218810   0.767   4.400   2.304
 5971SOL     OW18811   1.898   0.747   2.913
 5971SOL    HW118812   1.927   0.757   3.008
 5971SOL    HW218813   1.839   0.823   2.888
 5972SOL     OW18814   5.572   6.635   0.249
 5972SOL    HW118815   5.514   6.690   0.188
 5972SOL    HW218816   5.575   6.677   0.339
 5973SOL     OW18817   1.714   4.744   2.269
 5973SOL    HW118818   1.702   4.659   2.218
 5973SOL    HW218819   1.643   4.752   2.339
 5974SOL     OW18820   5.646   4.567   6.702
 5974SOL    HW118821   5.560   4.560   6.752
 5974SOL    HW218822   5.723   4.554   6.765
 5975SOL     OW18823   3.166   2.233   0.211
 5975SOL    HW118824   3.169   2.299   0.136
 5975SOL    HW218825   3.182   2.141   0.174
 5976SOL     OW18826   3.225   3.791   4.490
 5976SOL    HW118827   3.319   3.810   4.464
 5976SOL    HW218828   3.170   3.772   4.409
 5977SOL     OW18829   2.168   5.108   1.595
 5977SOL    HW118830   2.146   5.023   1.641
 5977SOL    HW218831   2.194   5.178   1.662
 5978SOL     OW18832   4.986   4.982   3.609
 5978SOL    HW118833   4.959   4.897   3.566
 5978SOL    HW218834   4.923   5.055   3.584
 5979SOL     OW18835   6.133   6.998   2.556
 5979SOL    HW118836   6.159   6.994   2.460
 5979SOL    HW218837   6.118   6.905   2.590
 5980SOL     OW18838   4.045   3.776   6.821
 5980SOL    HW118839   4.125   3.836   6.831
 5980SOL    HW218840   3.963   3.825   6.850
 5981SOL     OW18841   6.377   0.717   2.020
 5981SOL    HW118842   6.377   0.744   2.117
 5981SOL    HW218843   6.471   0.697   1.991
 5982SOL     OW18844   6.415   2.436   0.336
 5982SOL    HW118845   6.453   2.528   0.348
 5982SOL    HW218846   6.327   2.443   0.288
 5983SOL     OW18847   1.764   0.854   4.755
 5983SOL    HW118848   1.846   0.832   4.703
 5983SOL    HW218849   1.788   0.913   4.832
 5984SOL     OW18850   6.360   6.376   5.002
 5984SOL    HW118851   6.455   6.405   5.000
 5984SOL    HW218852   6.355   6.276   5.008
 5985SOL     OW18853   6.014   3.165   3.831
 5985SOL    HW118854   6.013   3.095   3.760
 5985SOL    HW218855   5.955   3.241   3.804
 5986SOL     OW18856   3.406   3.815   3.663
 5986SOL    HW118857   3.429   3.730   3.710
 5986SOL    HW218858   3.387   3.887   3.730
 5987SOL     OW18859   4.374   1.214   5.081
 5987SOL    HW118860   4.454   1.187   5.134
 5987SOL    HW218861   4.402   1.274   5.006
 5988SOL     OW18862   4.375   6.952   4.687
 5988SOL    HW118863   4.428   6.894   4.749
 5988SOL    HW218864   4.385   6.918   4.593
 5989SOL     OW18865   2.754   5.794   6.763
 5989SOL    HW118866   2.734   5.874   6.819
 5989SOL    HW218867   2.756   5.821   6.667
 5990SOL     OW18868   3.873   4.620   0.403
 5990SOL    HW118869   3.795   4.595   0.461
 5990SOL    HW218870   3.916   4.538   0.367
 5991SOL     OW18871   4.341   5.191   5.418
 5991SOL    HW118872   4.354   5.278   5.371
 5991SOL    HW218873   4.244   5.168   5.418
 5992SOL     OW18874   3.606   0.875   3.571
 5992SOL    HW118875   3.696   0.832   3.581
 5992SOL    HW218876   3.556   0.867   3.657
 5993SOL     OW18877   3.376   6.797   5.711
 5993SOL    HW118878   3.364   6.811   5.809
 5993SOL    HW218879   3.288   6.811   5.664
 5994SOL     OW18880   6.292   1.757   2.000
 5994SOL    HW118881   6.322   1.841   2.045
 5994SOL    HW218882   6.203   1.772   1.957
 5995SOL     OW18883   6.158   4.248   2.764
 5995SOL    HW118884   6.093   4.187   2.719
 5995SOL    HW218885   6.226   4.279   2.697
 5996SOL     OW18886   0.734   5.926   0.702
 5996SOL    HW118887   0.647   5.965   0.673
 5996SOL    HW218888   0.760   5.965   0.790
 5997SOL     OW18889   1.182   5.786   2.608
 5997SOL    HW118890   1.098   5.818   2.652
 5997SOL    HW218891   1.260   5.812   2.664
 5998SOL     OW18892   6.103   2.193   1.781
 5998SOL    HW118893   6.066   2.111   1.739
 5998SOL    HW218894   6.076   2.273   1.728
 5999SOL     OW18895   1.407   2.058   2.745
 5999SOL    HW118896   1.340   2.079   2.673
 5999SOL    HW218897   1.359   2.038   2.830
 6000SOL     OW18898   3.626   6.841   1.913
 6000SOL    HW118899   3.594   6.928   1.951
 6000SOL    HW218900   3.713   6.855   1.866
 6001SOL     OW18901   0.353   4.126   6.274
 6001SOL    HW118902   0.282   4.171   6.328
 6001SOL    HW218903   0.376   4.038   6.316
 6002SOL     OW18904   0.070   0.355   0.955
 6002SOL    HW118905   7.008   0.405   0.993
 6002SOL    HW218906   0.064   0.353   0.855
 6003SOL     OW18907   0.074   1.866   4.447
 6003SOL    HW118908   0.164   1.896   4.414
 6003SOL    HW218909   0.012   1.854   4.369
 6004SOL     OW18910   6.894   4.519   3.106
 6004SOL    HW118911   6.912   4.429   3.066
 6004SOL    HW218912   6.978   4.573   3.105
 6005SOL     OW18913   4.577   4.813   4.803
 6005SOL    HW118914   4.518   4.752   4.750
 6005SOL    HW218915   4.670   4.774   4.806
 6006SOL     OW18916   3.517   6.724   0.096
 6006SOL    HW118917   3.509   6.784   0.176
 6006SOL    HW218918   3.538   6.631   0.126
 6007SOL     OW18919   5.051   3.680   4.583
 6007SOL    HW118920   5.131   3.737   4.564
 6007SOL    HW218921   5.041   3.612   4.511
 6008SOL     OW18922   2.307   5.675   6.121
 6008SOL    HW118923   2.309   5.774   6.132
 6008SOL    HW218924   2.231   5.636   6.173
 6009SOL     OW18925   3.853   0.770   5.073
 6009SOL    HW118926   3.882   0.678   5.101
 6009SOL    HW218927   3.764   0.764   5.027
 6010SOL     OW18928   1.212   4.106   2.650
 6010SOL    HW118929   1.267   4.042   2.597
 6010SOL    HW218930   1.118   4.071   2.656
 6011SOL     OW18931   4.614   2.556   2.876
 6011SOL    HW118932   4.591   2.471   2.924
 6011SOL    HW218933   4.572   2.633   2.924
 6012SOL     OW18934   6.246   1.649   0.072
 6012SOL    HW118935   6.175   1.619   0.008
 6012SOL    HW218936   6.328   1.674   0.021
 6013SOL     OW18937   5.649   1.971   2.991
 6013SOL    HW118938   5.707   1.953   2.912
 6013SOL    HW218939   5.553   1.970   2.963
 6014SOL     OW18940   4.106   2.101   0.929
 6014SOL    HW118941   4.037   2.055   0.985
 6014SOL    HW218942   4.090   2.200   0.932
 6015SOL     OW18943   5.794   2.566   5.470
 6015SOL    HW118944   5.893   2.562   5.459
 6015SOL    HW218945   5.764   2.494   5.533
 6016SOL     OW18946   0.551   1.841   6.528
 6016SOL    HW118947   0.526   1.744   6.532
 6016SOL    HW218948   0.648   1.850   6.506
 6017SOL     OW18949   6.407   4.676   2.862
 6017SOL    HW118950   6.406   4.692   2.763
 6017SOL    HW218951   6.469   4.602   2.884
 6018SOL     OW18952   3.337   1.335   0.228
 6018SOL    HW118953   3.274   1.260   0.251
 6018SOL    HW218954   3.423   1.296   0.193
 6019SOL     OW18955   5.799   1.625   4.352
 6019SOL    HW118956   5.877   1.590   4.301
 6019SOL    HW218957   5.789   1.723   4.334
 6020SOL     OW18958   1.896   5.940   1.924
 6020SOL    HW118959   1.896   5.905   2.017
 6020SOL    HW218960   1.989   5.938   1.887
 6021SOL     OW18961   3.870   0.710   2.074
 6021SOL    HW118962   3.831   0.618   2.064
 6021SOL    HW218963   3.889   0.728   2.170
 6022SOL     OW18964   4.608   1.201   5.248
 6022SOL    HW118965   4.558   1.264   5.307
 6022SOL    HW218966   4.673   1.148   5.303
 6023SOL     OW18967   6.136   1.827   2.542
 6023SOL    HW118968   6.061   1.834   2.476
 6023SOL    HW218969   6.215   1.878   2.509
 6024SOL     OW18970   0.516   4.028   3.446
 6024SOL    HW118971   0.530   4.093   3.372
 6024SOL    HW218972   0.599   3.974   3.459
 6025SOL     OW18973   3.825   1.356   1.817
 6025SOL    HW118974   3.837   1.310   1.729
 6025SOL    HW218975   3.764   1.434   1.805
 6026SOL     OW18976   6.668   4.388   4.187
 6026SOL    HW118977   6.633   4.298   4.213
 6026SOL    HW218978   6.751   4.377   4.132
 6027SOL     OW18979   1.768   4.403   5.675
 6027SOL    HW118980   1.738   4.439   5.586
 6027SOL    HW218981   1.792   4.306   5.664
 6028SOL     OW18982   1.046   3.684   0.471
 6028SOL    HW118983   0.993   3.764   0.497
 6028SOL    HW218984   1.109   3.660   0.544
 6029SOL     OW18985   1.959   5.930   5.321
 6029SOL    HW118986   1.979   5.891   5.231
 6029SOL    HW218987   1.888   5.876   5.366
 6030SOL     OW18988   3.566   6.885   3.292
 6030SOL    HW118989   3.614   6.898   3.205
 6030SOL    HW218990   3.631   6.897   3.367
 6031SOL     OW18991   3.932   5.263   3.838
 6031SOL    HW118992   3.987   5.200   3.783
 6031SOL    HW218993   3.870   5.210   3.897
 6032SOL     OW18994   2.113   3.285   2.975
 6032SOL    HW118995   2.078   3.242   2.891
 6032SOL    HW218996   2.176   3.222   3.020
 6033SOL     OW18997   3.057   1.902   2.572
 6033SOL    HW118998   3.048   1.999   2.546
 6033SOL    HW218999   3.083   1.896   2.669
 6034SOL     OW19000   1.444   5.777   4.779
 6034SOL    HW119001   1.443   5.727   4.692
 6034SOL    HW219002   1.422   5.873   4.762
 6035SOL     OW19003   7.001   0.808   3.386
 6035SOL    HW119004   0.033   0.730   3.345
 6035SOL    HW219005   6.964   0.781   3.475
 6036SOL     OW19006   6.555   6.227   4.052
 6036SOL    HW119007   6.513   6.235   3.961
 6036SOL    HW219008   6.484   6.218   4.121
 6037SOL     OW19009   3.831   4.614   5.915
 6037SOL    HW119010   3.843   4.540   5.848
 6037SOL    HW219011   3.849   4.580   6.007
 6038SOL     OW19012   1.134   3.304   6.316
 6038SOL    HW119013   1.142   3.403   6.321
 6038SOL    HW219014   1.103   3.268   6.404
 6039SOL     OW19015   3.446   2.863   2.622
 6039SOL    HW119016   3.415   2.846   2.529
 6039SOL    HW219017   3.545   2.876   2.623
 6040SOL     OW19018   0.906   2.361   6.436
 6040SOL    HW119019   0.936   2.361   6.532
 6040SOL    HW219020   0.817   2.316   6.429
 6041SOL     OW19021   1.618   0.901   5.068
 6041SOL    HW119022   1.611   0.976   5.002
 6041SOL    HW219023   1.590   0.815   5.024
 6042SOL     OW19024   5.372   5.554   1.895
 6042SOL    HW119025   5.327   5.472   1.930
 6042SOL    HW219026   5.391   5.617   1.971
 6043SOL     OW19027   0.693   4.161   5.497
 6043SOL    HW119028   0.738   4.236   5.546
 6043SOL    HW219029   0.758   4.119   5.434
 6044SOL     OW19030   1.157   2.454   1.038
 6044SOL    HW119031   1.080   2.496   1.087
 6044SOL    HW219032   1.234   2.518   1.035
 6045SOL     OW19033   6.154   5.802   1.277
 6045SOL    HW119034   6.157   5.862   1.197
 6045SOL    HW219035   6.178   5.854   1.359
 6046SOL     OW19036   2.980   1.571   0.494
 6046SOL    HW119037   3.022   1.657   0.463
 6046SOL    HW219038   2.882   1.573   0.476
 6047SOL     OW19039   6.420   2.005   2.101
 6047SOL    HW119040   6.330   2.045   2.115
 6047SOL    HW219041   6.468   2.001   2.189
 6048SOL     OW19042   4.727   6.344   3.514
 6048SOL    HW119043   4.692   6.406   3.585
 6048SOL    HW219044   4.657   6.331   3.444
 6049SOL     OW19045   5.209   3.995   5.818
 6049SOL    HW119046   5.130   3.947   5.855
 6049SOL    HW219047   5.190   4.093   5.813
 6050SOL     OW19048   3.077   4.471   5.332
 6050SOL    HW119049   3.014   4.427   5.395
 6050SOL    HW219050   3.026   4.525   5.265
 6051SOL     OW19051   2.434   1.453   3.580
 6051SOL    HW119052   2.487   1.514   3.522
 6051SOL    HW219053   2.344   1.438   3.539
 6052SOL     OW19054   6.575   6.329   0.384
 6052SOL    HW119055   6.520   6.372   0.313
 6052SOL    HW219056   6.528   6.336   0.472
 6053SOL     OW19057   3.743   0.473   6.267
 6053SOL    HW119058   3.791   0.386   6.282
 6053SOL    HW219059   3.645   0.460   6.281
 6054SOL     OW19060   3.020   4.334   0.698
 6054SOL    HW119061   2.999   4.349   0.794
 6054SOL    HW219062   2.942   4.363   0.642
 6055SOL     OW19063   5.325   1.053   5.354
 6055SOL    HW119064   5.284   1.075   5.265
 6055SOL    HW219065   5.324   1.134   5.412
 6056SOL     OW19066   5.265   3.480   4.821
 6056SOL    HW119067   5.169   3.497   4.843
 6056SOL    HW219068   5.300   3.407   4.879
 6057SOL     OW19069   5.573   2.998   4.629
 6057SOL    HW119070   5.561   2.903   4.602
 6057SOL    HW219071   5.484   3.044   4.633
 6058SOL     OW19072   5.030   2.732   2.374
 6058SOL    HW119073   4.934   2.755   2.394
 6058SOL    HW219074   5.039   2.707   2.278
 6059SOL     OW19075   4.608   5.918   5.160
 6059SOL    HW119076   4.568   5.966   5.238
 6059SOL    HW219077   4.604   5.976   5.078
 6060SOL     OW19078   2.928   4.110   6.531
 6060SOL    HW119079   2.960   4.064   6.614
 6060SOL    HW219080   2.956   4.058   6.451
 6061SOL     OW19081   4.314   1.936   0.914
 6061SOL    HW119082   4.242   2.006   0.913
 6061SOL    HW219083   4.290   1.864   0.979
 6062SOL     OW19084   1.959   0.763   4.587
 6062SOL    HW119085   1.887   0.789   4.522
 6062SOL    HW219086   2.018   0.693   4.546
 6063SOL     OW19087   3.723   1.236   0.052
 6063SOL    HW119088   3.672   1.278   0.127
 6063SOL    HW219089   3.702   1.138   0.047
 6064SOL     OW19090   2.982   6.275   2.250
 6064SOL    HW119091   3.026   6.220   2.320
 6064SOL    HW219092   2.954   6.216   2.174
 6065SOL     OW19093   5.603   0.121   2.214
 6065SOL    HW119094   5.639   0.031   2.237
 6065SOL    HW219095   5.649   0.155   2.131
 6066SOL     OW19096   4.370   1.684   0.185
 6066SOL    HW119097   4.406   1.777   0.181
 6066SOL    HW219098   4.433   1.626   0.236
 6067SOL     OW19099   5.176   2.005   6.617
 6067SOL    HW119100   5.186   2.022   6.715
 6067SOL    HW219101   5.106   2.064   6.579
 6068SOL     OW19102   5.927   2.644   4.744
 6068SOL    HW119103   5.937   2.604   4.652
 6068SOL    HW219104   5.832   2.635   4.774
 6069SOL     OW19105   0.162   3.359   4.969
 6069SOL    HW119106   0.138   3.445   5.013
 6069SOL    HW219107   0.145   3.283   5.032
 6070SOL     OW19108   2.209   1.795   6.377
 6070SOL    HW119109   2.265   1.758   6.302
 6070SOL    HW219110   2.267   1.816   6.455
 6071SOL     OW19111   5.023   5.021   4.690
 6071SOL    HW119112   5.063   4.949   4.747
 6071SOL    HW219113   4.954   5.071   4.743
 6072SOL     OW19114   0.056   0.680   1.780
 6072SOL    HW119115   7.003   0.637   1.721
 6072SOL    HW219116   0.098   0.611   1.838
 6073SOL     OW19117   6.765   3.580   0.313
 6073SOL    HW119118   6.775   3.635   0.230
 6073SOL    HW219119   6.776   3.638   0.393
 6074SOL     OW19120   0.869   6.811   4.171
 6074SOL    HW119121   0.829   6.890   4.218
 6074SOL    HW219122   0.798   6.741   4.158
 6075SOL     OW19123   0.236   2.611   6.469
 6075SOL    HW119124   0.332   2.594   6.447
 6075SOL    HW219125   0.195   2.667   6.397
 6076SOL     OW19126   2.930   5.910   5.210
 6076SOL    HW119127   2.925   5.962   5.295
 6076SOL    HW219128   2.985   5.961   5.143
 6077SOL     OW19129   4.510   5.349   2.259
 6077SOL    HW119130   4.514   5.444   2.290
 6077SOL    HW219131   4.544   5.289   2.331
 6078SOL     OW19132   3.650   4.900   1.670
 6078SOL    HW119133   3.675   4.821   1.726
 6078SOL    HW219134   3.552   4.899   1.652
 6079SOL     OW19135   3.208   3.528   5.992
 6079SOL    HW119136   3.197   3.625   5.971
 6079SOL    HW219137   3.292   3.495   5.949
 6080SOL     OW19138   0.073   1.671   1.172
 6080SOL    HW119139   0.009   1.664   1.248
 6080SOL    HW219140   0.150   1.729   1.198
 6081SOL     OW19141   6.308   3.310   4.928
 6081SOL    HW119142   6.376   3.279   4.994
 6081SOL    HW219143   6.321   3.407   4.908
 6082SOL     OW19144   3.640   1.351   3.088
 6082SOL    HW119145   3.627   1.332   3.186
 6082SOL    HW219146   3.586   1.432   3.062
 6083SOL     OW19147   0.479   6.240   6.092
 6083SOL    HW119148   0.540   6.243   6.171
 6083SOL    HW219149   0.432   6.328   6.084
 6084SOL     OW19150   0.325   5.416   3.993
 6084SOL    HW119151   0.358   5.477   3.921
 6084SOL    HW219152   0.226   5.423   3.999
 6085SOL     OW19153   0.463   4.392   6.905
 6085SOL    HW119154   0.393   4.461   6.887
 6085SOL    HW219155   0.525   4.426   6.976
 6086SOL     OW19156   3.262   1.546   5.102
 6086SOL    HW119157   3.266   1.631   5.155
 6086SOL    HW219158   3.235   1.567   5.008
 6087SOL     OW19159   4.681   6.052   6.756
 6087SOL    HW119160   4.705   5.964   6.796
 6087SOL    HW219161   4.662   6.041   6.658
 6088SOL     OW19162   6.287   6.222   4.618
 6088SOL    HW119163   6.382   6.252   4.610
 6088SOL    HW219164   6.226   6.300   4.602
 6089SOL     OW19165   0.768   3.771   1.343
 6089SOL    HW119166   0.771   3.729   1.434
 6089SOL    HW219167   0.808   3.862   1.348
 6090SOL     OW19168   1.822   5.991   6.179
 6090SOL    HW119169   1.843   6.011   6.274
 6090SOL    HW219170   1.856   5.900   6.155
 6091SOL     OW19171   1.447   1.972   2.335
 6091SOL    HW119172   1.460   1.873   2.326
 6091SOL    HW219173   1.520   2.019   2.286
 6092SOL     OW19174   2.869   0.529   3.417
 6092SOL    HW119175   2.911   0.505   3.329
 6092SOL    HW219176   2.841   0.626   3.415
 6093SOL     OW19177   1.377   2.872   3.254
 6093SOL    HW119178   1.404   2.967   3.240
 6093SOL    HW219179   1.421   2.815   3.184
 6094SOL     OW19180   3.793   0.854   0.854
 6094SOL    HW119181   3.781   0.755   0.862
 6094SOL    HW219182   3.875   0.882   0.903
 6095SOL     OW19183   4.706   2.988   6.500
 6095SOL    HW119184   4.609   3.015   6.500
 6095SOL    HW219185   4.717   2.904   6.447
 6096SOL     OW19186   5.703   0.536   2.932
 6096SOL    HW119187   5.736   0.469   2.998
 6096SOL    HW219188   5.664   0.489   2.853
 6097SOL     OW19189   1.646   0.077   1.910
 6097SOL    HW119190   1.641   0.069   2.009
 6097SOL    HW219191   1.653   0.173   1.883
 6098SOL     OW19192   1.105   2.025   6.245
 6098SOL    HW119193   1.167   1.977   6.183
 6098SOL    HW219194   1.012   2.021   6.208
 6099SOL     OW19195   0.047   5.902   0.416
 6099SOL    HW119196   0.043   6.001   0.420
 6099SOL    HW219197   0.066   5.873   0.322
 6100SOL     OW19198   5.245   3.438   6.599
 6100SOL    HW119199   5.290   3.453   6.687
 6100SOL    HW219200   5.267   3.347   6.565
 6101SOL     OW19201   6.104   2.222   5.514
 6101SOL    HW119202   6.164   2.206   5.592
 6101SOL    HW219203   6.009   2.225   5.545
 6102SOL     OW19204   3.818   0.761   4.092
 6102SOL    HW119205   3.738   0.753   4.151
 6102SOL    HW219206   3.900   0.771   4.149
 6103SOL     OW19207   0.344   1.563   3.131
 6103SOL    HW119208   0.386   1.573   3.221
 6103SOL    HW219209   0.412   1.578   3.059
 6104SOL     OW19210   6.453   2.714   6.230
 6104SOL    HW119211   6.422   2.775   6.157
 6104SOL    HW219212   6.426   2.752   6.319
 6105SOL     OW19213   2.332   0.027   5.820
 6105SOL    HW119214   2.352   7.010   5.728
 6105SOL    HW219215   2.417   0.052   5.866
 6106SOL     OW19216   1.225   4.435   5.571
 6106SOL    HW119217   1.301   4.434   5.507
 6106SOL    HW219218   1.260   4.436   5.665
 6107SOL     OW19219   2.371   4.949   4.145
 6107SOL    HW119220   2.299   5.018   4.150
 6107SOL    HW219221   2.333   4.865   4.106
 6108SOL     OW19222   0.560   2.610   2.936
 6108SOL    HW119223   0.495   2.534   2.948
 6108SOL    HW219224   0.528   2.689   2.987
 6109SOL     OW19225   5.237   3.147   6.246
 6109SOL    HW119226   5.319   3.131   6.191
 6109SOL    HW219227   5.177   3.211   6.198
 6110SOL     OW19228   3.865   3.240   6.853
 6110SOL    HW119229   3.950   3.252   6.904
 6110SOL    HW219230   3.886   3.240   6.755
 6111SOL     OW19231   1.780   4.750   2.667
 6111SOL    HW119232   1.713   4.699   2.722
 6111SOL    HW219233   1.731   4.804   2.598
 6112SOL     OW19234   3.716   1.392   3.370
 6112SOL    HW119235   3.700   1.322   3.440
 6112SOL    HW219236   3.799   1.443   3.393
 6113SOL     OW19237   0.374   1.063   5.920
 6113SOL    HW119238   0.431   0.987   5.951
 6113SOL    HW219239   0.330   1.038   5.834
 6114SOL     OW19240   4.640   4.510   1.181
 6114SOL    HW119241   4.721   4.569   1.174
 6114SOL    HW219242   4.569   4.544   1.120
 6115SOL     OW19243   5.440   6.058   3.126
 6115SOL    HW119244   5.517   6.073   3.188
 6115SOL    HW219245   5.418   6.143   3.078
 6116SOL     OW19246   2.802   1.193   1.186
 6116SOL    HW119247   2.801   1.134   1.106
 6116SOL    HW219248   2.712   1.235   1.197
 6117SOL     OW19249   6.553   0.421   5.978
 6117SOL    HW119250   6.525   0.516   5.967
 6117SOL    HW219251   6.539   0.372   5.892
 6118SOL     OW19252   6.641   0.778   1.531
 6118SOL    HW119253   6.600   0.688   1.547
 6118SOL    HW219254   6.588   0.827   1.462
 6119SOL     OW19255   1.196   3.319   4.059
 6119SOL    HW119256   1.167   3.249   4.125
 6119SOL    HW219257   1.239   3.395   4.107
 6120SOL     OW19258   4.017   6.832   3.708
 6120SOL    HW119259   3.956   6.811   3.784
 6120SOL    HW219260   4.106   6.861   3.743
 6121SOL     OW19261   0.182   3.061   4.543
 6121SOL    HW119262   0.110   3.011   4.496
 6121SOL    HW219263   0.243   3.103   4.476
 6122SOL     OW19264   3.502   0.156   1.674
 6122SOL    HW119265   3.404   0.137   1.667
 6122SOL    HW219266   3.535   0.128   1.764
 6123SOL     OW19267   6.604   0.342   0.191
 6123SOL    HW119268   6.687   0.288   0.203
 6123SOL    HW219269   6.601   0.415   0.260
 6124SOL     OW19270   3.287   0.597   5.546
 6124SOL    HW119271   3.371   0.651   5.553
 6124SOL    HW219272   3.242   0.616   5.459
 6125SOL     OW19273   3.077   5.559   0.829
 6125SOL    HW119274   3.126   5.646   0.832
 6125SOL    HW219275   2.983   5.572   0.863
 6126SOL     OW19276   5.773   6.958   4.273
 6126SOL    HW119277   5.853   6.979   4.330
 6126SOL    HW219278   5.691   6.963   4.330
 6127SOL     OW19279   2.489   0.925   2.615
 6127SOL    HW119280   2.467   0.896   2.708
 6127SOL    HW219281   2.405   0.947   2.566
 6128SOL     OW19282   6.671   3.304   0.623
 6128SOL    HW119283   6.582   3.266   0.598
 6128SOL    HW219284   6.740   3.233   0.616
 6129SOL     OW19285   6.037   4.560   3.227
 6129SOL    HW119286   6.055   4.565   3.325
 6129SOL    HW219287   6.084   4.635   3.180
 6130SOL     OW19288   5.689   2.046   3.889
 6130SOL    HW119289   5.591   2.040   3.906
 6130SOL    HW219290   5.739   2.020   3.972
 6131SOL     OW19291   6.422   1.616   5.418
 6131SOL    HW119292   6.519   1.623   5.444
 6131SOL    HW219293   6.369   1.685   5.468
 6132SOL     OW19294   5.168   1.305   0.123
 6132SOL    HW119295   5.213   1.226   0.082
 6132SOL    HW219296   5.089   1.275   0.176
 6133SOL     OW19297   0.887   2.704   3.014
 6133SOL    HW119298   0.790   2.691   3.035
 6133SOL    HW219299   0.912   2.647   2.936
 6134SOL     OW19300   3.328   4.323   0.260
 6134SOL    HW119301   3.281   4.355   0.342
 6134SOL    HW219302   3.262   4.281   0.198
 6135SOL     OW19303   0.397   6.900   1.748
 6135SOL    HW119304   0.333   6.977   1.749
 6135SOL    HW219305   0.360   6.826   1.692
 6136SOL     OW19306   0.758   2.249   2.533
 6136SOL    HW119307   0.849   2.289   2.549
 6136SOL    HW219308   0.722   2.214   2.619
 6137SOL     OW19309   4.547   1.796   5.085
 6137SOL    HW119310   4.562   1.731   5.160
 6137SOL    HW219311   4.475   1.860   5.109
 6138SOL     OW19312   3.680   6.673   2.710
 6138SOL    HW119313   3.702   6.653   2.615
 6138SOL    HW219314   3.710   6.765   2.733
 6139SOL     OW19315   1.857   2.506   4.957
 6139SOL    HW119316   1.821   2.492   4.864
 6139SOL    HW219317   1.926   2.436   4.976
 6140SOL     OW19318   0.571   5.994   1.620
 6140SOL    HW119319   0.588   6.024   1.526
 6140SOL    HW219320   0.624   6.051   1.683
 6141SOL     OW19321   5.927   6.341   5.550
 6141SOL    HW119322   6.010   6.287   5.565
 6141SOL    HW219323   5.914   6.357   5.452
 6142SOL     OW19324   6.825   5.361   0.874
 6142SOL    HW119325   6.803   5.433   0.808
 6142SOL    HW219326   6.825   5.272   0.828
 6143SOL     OW19327   6.208   4.684   0.172
 6143SOL    HW119328   6.240   4.672   0.267
 6143SOL    HW219329   6.287   4.699   0.113
 6144SOL     OW19330   6.258   4.701   2.593
 6144SOL    HW119331   6.207   4.774   2.638
 6144SOL    HW219332   6.197   4.622   2.581
 6145SOL     OW19333   4.770   6.001   4.158
 6145SOL    HW119334   4.677   5.965   4.159
 6145SOL    HW219335   4.812   5.988   4.247
 6146SOL     OW19336   4.110   1.303   3.759
 6146SOL    HW119337   4.065   1.215   3.774
 6146SOL    HW219338   4.161   1.300   3.673
 6147SOL     OW19339   1.484   4.193   4.314
 6147SOL    HW119340   1.462   4.213   4.218
 6147SOL    HW219341   1.471   4.095   4.331
 6148SOL     OW19342   6.845   0.326   4.534
 6148SOL    HW119343   6.916   0.299   4.599
 6148SOL    HW219344   6.789   0.398   4.574
 6149SOL     OW19345   3.014   4.839   2.981
 6149SOL    HW119346   3.108   4.838   2.948
 6149SOL    HW219347   2.996   4.927   3.025
 6150SOL     OW19348   4.128   5.081   6.754
 6150SOL    HW119349   4.078   5.144   6.695
 6150SOL    HW219350   4.088   5.080   6.845
 6151SOL     OW19351   5.735   4.169   4.794
 6151SOL    HW119352   5.711   4.245   4.856
 6151SOL    HW219353   5.652   4.131   4.754
 6152SOL     OW19354   5.813   5.207   5.494
 6152SOL    HW119355   5.758   5.286   5.522
 6152SOL    HW219356   5.828   5.210   5.396
 6153SOL     OW19357   4.927   4.045   1.836
 6153SOL    HW119358   4.926   4.142   1.813
 6153SOL    HW219359   5.020   4.010   1.829
 6154SOL     OW19360   5.548   1.696   2.867
 6154SOL    HW119361   5.500   1.782   2.849
 6154SOL    HW219362   5.646   1.709   2.851
 6155SOL     OW19363   2.081   1.537   4.918
 6155SOL    HW119364   2.151   1.608   4.923
 6155SOL    HW219365   1.990   1.579   4.909
 6156SOL     OW19366   4.447   5.014   2.346
 6156SOL    HW119367   4.466   5.046   2.254
 6156SOL    HW219368   4.528   4.966   2.382
 6157SOL     OW19369   1.326   1.917   4.509
 6157SOL    HW119370   1.260   1.912   4.583
 6157SOL    HW219371   1.407   1.863   4.532
 6158SOL     OW19372   4.595   0.859   5.946
 6158SOL    HW119373   4.626   0.773   5.906
 6158SOL    HW219374   4.631   0.936   5.893
 6159SOL     OW19375   4.860   2.834   0.697
 6159SOL    HW119376   4.908   2.754   0.731
 6159SOL    HW219377   4.761   2.817   0.698
 6160SOL     OW19378   5.537   6.372   0.373
 6160SOL    HW119379   5.570   6.449   0.318
 6160SOL    HW219380   5.604   6.297   0.370
 6161SOL     OW19381   5.801   2.322   5.593
 6161SOL    HW119382   5.851   2.269   5.663
 6161SOL    HW219383   5.757   2.259   5.529
 6162SOL     OW19384   0.742   5.511   3.879
 6162SOL    HW119385   0.687   5.431   3.902
 6162SOL    HW219386   0.785   5.547   3.961
 6163SOL     OW19387   5.133   6.267   2.012
 6163SOL    HW119388   5.131   6.348   2.071
 6163SOL    HW219389   5.094   6.290   1.923
 6164SOL     OW19390   1.960   3.069   1.384
 6164SOL    HW119391   1.883   3.076   1.321
 6164SOL    HW219392   2.046   3.073   1.332
 6165SOL     OW19393   4.045   6.887   6.027
 6165SOL    HW119394   3.990   6.805   6.045
 6165SOL    HW219395   4.138   6.873   6.062
 6166SOL     OW19396   4.178   1.016   5.197
 6166SOL    HW119397   4.093   0.997   5.247
 6166SOL    HW219398   4.156   1.056   5.109
 6167SOL     OW19399   0.252   4.522   2.294
 6167SOL    HW119400   0.324   4.589   2.278
 6167SOL    HW219401   0.235   4.515   2.393
 6168SOL     OW19402   0.666   3.083   0.364
 6168SOL    HW119403   0.598   3.109   0.432
 6168SOL    HW219404   0.696   3.164   0.313
 6169SOL     OW19405   0.875   3.483   2.201
 6169SOL    HW119406   0.883   3.386   2.180
 6169SOL    HW219407   0.778   3.509   2.202
 6170SOL     OW19408   0.872   3.449   5.118
 6170SOL    HW119409   0.965   3.478   5.098
 6170SOL    HW219410   0.859   3.355   5.086
 6171SOL     OW19411   0.665   1.742   0.321
 6171SOL    HW119412   0.697   1.829   0.284
 6171SOL    HW219413   0.598   1.759   0.393
 6172SOL     OW19414   1.292   3.236   2.875
 6172SOL    HW119415   1.291   3.163   2.806
 6172SOL    HW219416   1.369   3.222   2.937
 6173SOL     OW19417   6.891   5.499   3.195
 6173SOL    HW119418   6.818   5.554   3.235
 6173SOL    HW219419   6.894   5.513   3.096
 6174SOL     OW19420   4.783   5.035   4.242
 6174SOL    HW119421   4.845   4.990   4.177
 6174SOL    HW219422   4.831   5.054   4.327
 6175SOL     OW19423   3.614   0.530   4.161
 6175SOL    HW119424   3.609   0.609   4.222
 6175SOL    HW219425   3.524   0.488   4.153
 6176SOL     OW19426   4.809   3.809   5.214
 6176SOL    HW119427   4.891   3.778   5.261
 6176SOL    HW219428   4.757   3.730   5.182
 6177SOL     OW19429   5.421   1.985   2.059
 6177SOL    HW119430   5.424   1.986   1.959
 6177SOL    HW219431   5.468   1.904   2.093
 6178SOL     OW19432   5.284   3.791   2.286
 6178SOL    HW119433   5.186   3.811   2.282
 6178SOL    HW219434   5.300   3.713   2.346
 6179SOL     OW19435   6.517   4.469   1.985
 6179SOL    HW119436   6.615   4.490   1.984
 6179SOL    HW219437   6.488   4.449   2.078
 6180SOL     OW19438   2.750   4.970   1.133
 6180SOL    HW119439   2.745   5.065   1.101
 6180SOL    HW219440   2.846   4.946   1.148
 6181SOL     OW19441   4.950   6.387   6.365
 6181SOL    HW119442   4.977   6.406   6.460
 6181SOL    HW219443   4.881   6.314   6.364
 6182SOL     OW19444   4.526   3.133   6.221
 6182SOL    HW119445   4.457   3.167   6.157
 6182SOL    HW219446   4.599   3.201   6.230
 6183SOL     OW19447   1.773   2.341   2.182
 6183SOL    HW119448   1.859   2.324   2.229
 6183SOL    HW219449   1.718   2.258   2.181
 6184SOL     OW19450   3.433   0.271   5.955
 6184SOL    HW119451   3.359   0.282   6.021
 6184SOL    HW219452   3.505   0.215   5.995
 6185SOL     OW19453   1.672   4.597   6.053
 6185SOL    HW119454   1.611   4.632   6.124
 6185SOL    HW219455   1.716   4.513   6.085
 6186SOL     OW19456   6.164   1.400   1.183
 6186SOL    HW119457   6.100   1.477   1.189
 6186SOL    HW219458   6.136   1.339   1.109
 6187SOL     OW19459   4.976   3.267   4.652
 6187SOL    HW119460   5.007   3.273   4.557
 6187SOL    HW219461   4.949   3.358   4.684
 6188SOL     OW19462   1.531   1.737   5.795
 6188SOL    HW119463   1.587   1.800   5.741
 6188SOL    HW219464   1.570   1.645   5.790
 6189SOL     OW19465   3.489   4.874   2.989
 6189SOL    HW119466   3.543   4.797   3.022
 6189SOL    HW219467   3.550   4.947   2.959
 6190SOL     OW19468   0.021   3.357   5.579
 6190SOL    HW119469   0.109   3.383   5.541
 6190SOL    HW219470   0.009   3.258   5.573
 6191SOL     OW19471   2.592   3.182   5.834
 6191SOL    HW119472   2.502   3.161   5.871
 6191SOL    HW219473   2.652   3.103   5.844
 6192SOL     OW19474   2.811   1.982   6.544
 6192SOL    HW119475   2.767   2.068   6.518
 6192SOL    HW219476   2.750   1.929   6.603
 6193SOL     OW19477   4.347   6.085   1.358
 6193SOL    HW119478   4.257   6.073   1.317
 6193SOL    HW219479   4.416   6.095   1.286
 6194SOL     OW19480   6.103   0.468   6.495
 6194SOL    HW119481   6.091   0.369   6.496
 6194SOL    HW219482   6.057   0.507   6.415
 6195SOL     OW19483   5.470   6.271   4.625
 6195SOL    HW119484   5.538   6.208   4.587
 6195SOL    HW219485   5.476   6.269   4.725
 6196SOL     OW19486   4.567   4.505   2.423
 6196SOL    HW119487   4.554   4.459   2.335
 6196SOL    HW219488   4.479   4.518   2.468
 6197SOL     OW19489   2.458   5.201   2.387
 6197SOL    HW119490   2.399   5.282   2.386
 6197SOL    HW219491   2.418   5.130   2.329
 6198SOL     OW19492   4.579   6.035   0.491
 6198SOL    HW119493   4.518   6.027   0.570
 6198SOL    HW219494   4.531   6.085   0.418
 6199SOL     OW19495   0.760   0.968   0.382
 6199SOL    HW119496   0.795   0.886   0.428
 6199SOL    HW219497   0.660   0.972   0.393
 6200SOL     OW19498   0.842   1.736   4.375
 6200SOL    HW119499   0.910   1.737   4.301
 6200SOL    HW219500   0.814   1.641   4.392
 6201SOL     OW19501   1.243   3.090   4.523
 6201SOL    HW119502   1.298   3.050   4.597
 6201SOL    HW219503   1.155   3.119   4.559
 6202SOL     OW19504   5.774   1.535   2.232
 6202SOL    HW119505   5.810   1.609   2.175
 6202SOL    HW219506   5.718   1.575   2.305
 6203SOL     OW19507   5.461   5.323   2.143
 6203SOL    HW119508   5.487   5.306   2.048
 6203SOL    HW219509   5.428   5.237   2.184
 6204SOL     OW19510   0.815   5.973   5.340
 6204SOL    HW119511   0.758   5.948   5.419
 6204SOL    HW219512   0.905   5.929   5.349
 6205SOL     OW19513   5.950   4.350   1.302
 6205SOL    HW119514   5.929   4.265   1.350
 6205SOL    HW219515   6.004   4.410   1.362
 6206SOL     OW19516   5.397   1.229   3.166
 6206SOL    HW119517   5.357   1.321   3.161
 6206SOL    HW219518   5.493   1.237   3.194
 6207SOL     OW19519   1.814   6.251   4.884
 6207SOL    HW119520   1.724   6.212   4.900
 6207SOL    HW219521   1.857   6.273   4.971
 6208SOL     OW19522   3.220   2.342   5.461
 6208SOL    HW119523   3.235   2.435   5.493
 6208SOL    HW219524   3.204   2.343   5.362
 6209SOL     OW19525   3.512   5.401   0.744
 6209SOL    HW119526   3.539   5.330   0.679
 6209SOL    HW219527   3.464   5.360   0.821
 6210SOL     OW19528   5.238   3.935   2.964
 6210SOL    HW119529   5.188   3.850   2.979
 6210SOL    HW219530   5.259   3.978   3.052
 6211SOL     OW19531   3.686   6.505   5.371
 6211SOL    HW119532   3.763   6.443   5.355
 6211SOL    HW219533   3.603   6.452   5.387
 6212SOL     OW19534   2.196   4.726   4.102
 6212SOL    HW119535   2.195   4.746   4.200
 6212SOL    HW219536   2.276   4.670   4.080
 6213SOL     OW19537   4.443   6.737   0.094
 6213SOL    HW119538   4.387   6.666   0.051
 6213SOL    HW219539   4.482   6.796   0.023
 6214SOL     OW19540   5.709   5.979   5.892
 6214SOL    HW119541   5.720   6.074   5.861
 6214SOL    HW219542   5.612   5.960   5.907
 6215SOL     OW19543   3.995   2.900   5.996
 6215SOL    HW119544   4.075   2.883   6.053
 6215SOL    HW219545   4.007   2.987   5.947
 6216SOL     OW19546   6.172   2.863   2.594
 6216SOL    HW119547   6.191   2.773   2.557
 6216SOL    HW219548   6.114   2.915   2.531
 6217SOL     OW19549   0.886   4.900   2.446
 6217SOL    HW119550   0.846   4.984   2.409
 6217SOL    HW219551   0.846   4.881   2.536
 6218SOL     OW19552   3.911   6.390   0.052
 6218SOL    HW119553   3.962   6.307   0.073
 6218SOL    HW219554   3.894   6.395   6.969
 6219SOL     OW19555   1.785   0.515   4.883
 6219SOL    HW119556   1.825   0.424   4.874
 6219SOL    HW219557   1.840   0.582   4.833
 6220SOL     OW19558   3.296   0.922   6.358
 6220SOL    HW119559   3.296   0.846   6.292
 6220SOL    HW219560   3.223   0.908   6.424
 6221SOL     OW19561   6.281   6.482   6.689
 6221SOL    HW119562   6.293   6.464   6.786
 6221SOL    HW219563   6.262   6.579   6.675
 6222SOL     OW19564   6.584   0.047   2.239
 6222SOL    HW119565   6.664   0.018   2.292
 6222SOL    HW219566   6.609   0.053   2.142
 6223SOL     OW19567   1.592   5.722   3.208
 6223SOL    HW119568   1.511   5.765   3.247
 6223SOL    HW219569   1.664   5.716   3.277
 6224SOL     OW19570   4.079   1.646   5.661
 6224SOL    HW119571   4.030   1.588   5.595
 6224SOL    HW219572   4.014   1.707   5.707
 6225SOL     OW19573   4.226   2.269   6.404
 6225SOL    HW119574   4.293   2.231   6.341
 6225SOL    HW219575   4.223   2.368   6.393
 6226SOL     OW19576   1.211   1.356   3.973
 6226SOL    HW119577   1.226   1.450   3.940
 6226SOL    HW219578   1.201   1.358   4.073
 6227SOL     OW19579   3.061   4.829   5.090
 6227SOL    HW119580   3.131   4.846   5.158
 6227SOL    HW219581   3.003   4.753   5.119
 6228SOL     OW19582   0.479   2.333   3.412
 6228SOL    HW119583   0.525   2.313   3.499
 6228SOL    HW219584   0.418   2.411   3.424
 6229SOL     OW19585   6.879   2.863   5.389
 6229SOL    HW119586   6.810   2.812   5.338
 6229SOL    HW219587   6.850   2.871   5.484
 6230SOL     OW19588   1.521   1.928   3.469
 6230SOL    HW119589   1.459   1.992   3.425
 6230SOL    HW219590   1.609   1.973   3.484
 6231SOL     OW19591   5.395   5.771   0.857
 6231SOL    HW119592   5.348   5.855   0.830
 6231SOL    HW219593   5.450   5.790   0.939
 6232SOL     OW19594   6.148   1.443   0.551
 6232SOL    HW119595   6.246   1.453   0.564
 6232SOL    HW219596   6.126   1.453   0.454
 6233SOL     OW19597   6.883   3.317   1.576
 6233SOL    HW119598   6.839   3.330   1.665
 6233SOL    HW219599   6.895   3.220   1.558
 6234SOL     OW19600   6.854   0.290   5.467
 6234SOL    HW119601   6.862   0.279   5.566
 6234SOL    HW219602   6.876   0.385   5.442
 6235SOL     OW19603   6.876   0.632   1.569
 6235SOL    HW119604   6.944   0.662   1.502
 6235SOL    HW219605   6.790   0.678   1.552
 6236SOL     OW19606   0.102   4.382   0.527
 6236SOL    HW119607   0.146   4.295   0.548
 6236SOL    HW219608   0.167   4.444   0.484
 6237SOL     OW19609   3.210   6.670   0.170
 6237SOL    HW119610   3.300   6.673   0.126
 6237SOL    HW219611   3.175   6.577   0.170
 6238SOL     OW19612   4.028   6.583   3.590
 6238SOL    HW119613   3.991   6.518   3.656
 6238SOL    HW219614   4.040   6.672   3.634
 6239SOL     OW19615   3.496   0.714   1.487
 6239SOL    HW119616   3.491   0.622   1.446
 6239SOL    HW219617   3.477   0.708   1.584
 6240SOL     OW19618   2.963   3.621   4.802
 6240SOL    HW119619   2.969   3.531   4.759
 6240SOL    HW219620   2.957   3.611   4.901
 6241SOL     OW19621   4.025   0.386   3.575
 6241SOL    HW119622   3.931   0.419   3.574
 6241SOL    HW219623   4.036   0.317   3.647
 6242SOL     OW19624   2.595   0.886   3.627
 6242SOL    HW119625   2.559   0.809   3.576
 6242SOL    HW219626   2.537   0.966   3.612
 6243SOL     OW19627   6.738   0.681   5.766
 6243SOL    HW119628   6.810   0.742   5.732
 6243SOL    HW219629   6.776   0.590   5.781
 6244SOL     OW19630   5.098   4.194   3.253
 6244SOL    HW119631   5.037   4.175   3.176
 6244SOL    HW219632   5.048   4.240   3.326
 6245SOL     OW19633   1.016   5.191   1.686
 6245SOL    HW119634   1.041   5.158   1.776
 6245SOL    HW219635   0.984   5.286   1.693
 6246SOL     OW19636   0.729   0.711   4.508
 6246SOL    HW119637   0.732   0.811   4.516
 6246SOL    HW219638   0.803   0.680   4.447
 6247SOL     OW19639   1.312   5.929   3.595
 6247SOL    HW119640   1.273   6.003   3.649
 6247SOL    HW219641   1.241   5.861   3.574
 6248SOL     OW19642   3.309   3.965   6.988
 6248SOL    HW119643   3.369   3.951   0.052
 6248SOL    HW219644   3.256   4.049   7.000
 6249SOL     OW19645   0.171   3.038   1.352
 6249SOL    HW119646   0.170   3.138   1.356
 6249SOL    HW219647   0.078   3.005   1.338
 6250SOL     OW19648   6.452   6.565   0.829
 6250SOL    HW119649   6.535   6.620   0.836
 6250SOL    HW219650   6.373   6.621   0.852
 6251SOL     OW19651   3.811   5.765   4.300
 6251SOL    HW119652   3.749   5.808   4.366
 6251SOL    HW219653   3.807   5.814   4.213
 6252SOL     OW19654   2.830   5.014   0.399
 6252SOL    HW119655   2.824   4.947   0.473
 6252SOL    HW219656   2.923   5.014   0.362
 6253SOL     OW19657   2.381   5.239   4.736
 6253SOL    HW119658   2.374   5.181   4.818
 6253SOL    HW219659   2.313   5.209   4.669
 6254SOL     OW19660   0.650   6.464   1.300
 6254SOL    HW119661   0.623   6.557   1.327
 6254SOL    HW219662   0.616   6.445   1.208
 6255SOL     OW19663   1.851   2.360   0.871
 6255SOL    HW119664   1.888   2.308   0.947
 6255SOL    HW219665   1.869   2.312   0.785
 6256SOL     OW19666   4.616   5.200   2.506
 6256SOL    HW119667   4.521   5.206   2.535
 6256SOL    HW219668   4.630   5.116   2.454
 6257SOL     OW19669   3.916   3.050   0.308
 6257SOL    HW119670   3.962   2.976   0.358
 6257SOL    HW219671   3.924   3.032   0.209
 6258SOL     OW19672   3.347   0.260   5.486
 6258SOL    HW119673   3.399   0.225   5.564
 6258SOL    HW219674   3.386   0.225   5.401
 6259SOL     OW19675   2.097   1.239   6.193
 6259SOL    HW119676   2.155   1.168   6.151
 6259SOL    HW219677   2.043   1.198   6.266
 6260SOL     OW19678   2.031   0.467   0.947
 6260SOL    HW119679   2.095   0.421   1.008
 6260SOL    HW219680   1.981   0.398   0.894
 6261SOL     OW19681   4.745   6.696   1.066
 6261SOL    HW119682   4.670   6.760   1.084
 6261SOL    HW219683   4.772   6.703   0.970
 6262SOL     OW19684   0.807   6.152   2.601
 6262SOL    HW119685   0.727   6.097   2.625
 6262SOL    HW219686   0.803   6.240   2.648
 6263SOL     OW19687   6.938   6.709   5.174
 6263SOL    HW119688   6.909   6.719   5.078
 6263SOL    HW219689   6.965   6.614   5.191
 6264SOL     OW19690   1.376   0.002   1.215
 6264SOL    HW119691   1.342   0.019   1.307
 6264SOL    HW219692   1.374   0.086   1.162
 6265SOL     OW19693   3.935   2.598   0.741
 6265SOL    HW119694   3.892   2.513   0.772
 6265SOL    HW219695   4.032   2.598   0.767
 6266SOL     OW19696   3.745   6.639   3.562
 6266SOL    HW119697   3.768   6.719   3.507
 6266SOL    HW219698   3.824   6.578   3.567
 6267SOL     OW19699   1.097   6.925   5.363
 6267SOL    HW119700   1.115   6.939   5.461
 6267SOL    HW219701   1.163   6.859   5.326
 6268SOL     OW19702   3.130   0.834   2.181
 6268SOL    HW119703   3.118   0.744   2.138
 6268SOL    HW219704   3.043   0.864   2.219
 6269SOL     OW19705   5.632   6.293   1.517
 6269SOL    HW119706   5.608   6.197   1.524
 6269SOL    HW219707   5.646   6.330   1.609
 6270SOL     OW19708   0.704   6.433   0.114
 6270SOL    HW119709   0.760   6.391   0.185
 6270SOL    HW219710   0.659   6.361   0.060
 6271SOL     OW19711   6.150   2.548   6.661
 6271SOL    HW119712   6.146   2.618   6.733
 6271SOL    HW219713   6.178   2.591   6.575
 6272SOL     OW19714   0.683   0.577   0.418
 6272SOL    HW119715   0.737   0.646   0.467
 6272SOL    HW219716   0.726   0.557   0.330
 6273SOL     OW19717   0.331   5.998   3.617
 6273SOL    HW119718   0.376   6.006   3.706
 6273SOL    HW219719   0.251   5.939   3.626
 6274SOL     OW19720   2.462   7.004   4.864
 6274SOL    HW119721   2.492   0.045   4.788
 6274SOL    HW219722   2.363   6.991   4.859
 6275SOL     OW19723   2.263   6.111   0.619
 6275SOL    HW119724   2.352   6.144   0.650
 6275SOL    HW219725   2.277   6.035   0.554
 6276SOL     OW19726   3.439   5.614   3.591
 6276SOL    HW119727   3.426   5.555   3.670
 6276SOL    HW219728   3.493   5.694   3.616
 6277SOL     OW19729   5.244   1.840   1.071
 6277SOL    HW119730   5.246   1.741   1.055
 6277SOL    HW219731   5.338   1.873   1.085
 6278SOL     OW19732   3.825   0.697   6.136
 6278SOL    HW119733   3.767   0.764   6.182
 6278SOL    HW219734   3.803   0.605   6.168
 6279SOL     OW19735   3.954   6.195   0.609
 6279SOL    HW119736   4.002   6.264   0.554
 6279SOL    HW219737   3.991   6.104   0.589
 6280SOL     OW19738   0.144   1.299   6.632
 6280SOL    HW119739   0.119   1.224   6.694
 6280SOL    HW219740   0.215   1.355   6.676
 6281SOL     OW19741   5.883   4.847   3.693
 6281SOL    HW119742   5.893   4.881   3.599
 6281SOL    HW219743   5.888   4.924   3.757
 6282SOL     OW19744   6.031   3.421   5.163
 6282SOL    HW119745   5.970   3.495   5.191
 6282SOL    HW219746   6.102   3.457   5.102
 6283SOL     OW19747   0.682   4.665   4.496
 6283SOL    HW119748   0.721   4.580   4.531
 6283SOL    HW219749   0.737   4.743   4.527
 6284SOL     OW19750   1.180   5.675   6.423
 6284SOL    HW119751   1.190   5.580   6.395
 6284SOL    HW219752   1.190   5.682   6.522
 6285SOL     OW19753   1.451   3.253   3.396
 6285SOL    HW119754   1.455   3.197   3.479
 6285SOL    HW219755   1.473   3.348   3.418
 6286SOL     OW19756   6.296   3.335   4.261
 6286SOL    HW119757   6.354   3.274   4.315
 6286SOL    HW219758   6.307   3.315   4.164
 6287SOL     OW19759   4.308   4.979   5.211
 6287SOL    HW119760   4.317   5.054   5.145
 6287SOL    HW219761   4.346   5.007   5.299
 6288SOL     OW19762   4.266   4.655   1.301
 6288SOL    HW119763   4.328   4.731   1.284
 6288SOL    HW219764   4.288   4.612   1.388
 6289SOL     OW19765   2.674   4.749   6.719
 6289SOL    HW119766   2.770   4.772   6.735
 6289SOL    HW219767   2.639   4.696   6.796
 6290SOL     OW19768   6.340   5.320   6.220
 6290SOL    HW119769   6.382   5.374   6.293
 6290SOL    HW219770   6.307   5.382   6.148
 6291SOL     OW19771   3.864   2.993   3.110
 6291SOL    HW119772   3.934   2.941   3.062
 6291SOL    HW219773   3.869   2.974   3.208
 6292SOL     OW19774   2.092   2.356   4.727
 6292SOL    HW119775   2.006   2.369   4.678
 6292SOL    HW219776   2.107   2.258   4.740
 6293SOL     OW19777   4.207   1.459   0.392
 6293SOL    HW119778   4.300   1.440   0.425
 6293SOL    HW219779   4.200   1.432   0.296
 6294SOL     OW19780   4.483   0.448   3.418
 6294SOL    HW119781   4.541   0.490   3.487
 6294SOL    HW219782   4.458   0.516   3.349
 6295SOL     OW19783   5.476   4.870   5.125
 6295SOL    HW119784   5.497   4.943   5.191
 6295SOL    HW219785   5.406   4.809   5.163
 6296SOL     OW19786   0.447   4.239   6.069
 6296SOL    HW119787   0.368   4.256   6.010
 6296SOL    HW219788   0.416   4.197   6.154
 6297SOL     OW19789   6.254   0.048   5.430
 6297SOL    HW119790   6.250   0.144   5.458
 6297SOL    HW219791   6.204   7.008   5.496
 6298SOL     OW19792   6.629   4.846   6.223
 6298SOL    HW119793   6.726   4.832   6.200
 6298SOL    HW219794   6.581   4.758   6.218
 6299SOL     OW19795   5.672   2.984   2.220
 6299SOL    HW119796   5.618   2.942   2.147
 6299SOL    HW219797   5.680   2.920   2.296
 6300SOL     OW19798   4.692   0.690   6.865
 6300SOL    HW119799   4.647   0.632   6.797
 6300SOL    HW219800   4.768   0.739   6.822
 6301SOL     OW19801   3.090   6.751   6.212
 6301SOL    HW119802   3.165   6.797   6.259
 6301SOL    HW219803   3.006   6.761   6.266
 6302SOL     OW19804   2.429   1.605   5.529
 6302SOL    HW119805   2.483   1.639   5.453
 6302SOL    HW219806   2.456   1.652   5.613
 6303SOL     OW19807   0.692   6.449   5.861
 6303SOL    HW119808   0.709   6.442   5.960
 6303SOL    HW219809   0.593   6.444   5.845
 6304SOL     OW19810   3.858   1.813   3.199
 6304SOL    HW119811   3.886   1.894   3.250
 6304SOL    HW219812   3.798   1.841   3.123
 6305SOL     OW19813   6.151   5.853   6.945
 6305SOL    HW119814   6.158   5.810   6.856
 6305SOL    HW219815   6.069   5.912   6.947
 6306SOL     OW19816   0.137   3.303   3.926
 6306SOL    HW119817   0.169   3.394   3.901
 6306SOL    HW219818   0.090   3.261   3.848
 6307SOL     OW19819   3.384   2.898   4.011
 6307SOL    HW119820   3.466   2.870   4.061
 6307SOL    HW219821   3.407   2.918   3.916
 6308SOL     OW19822   0.914   2.067   5.609
 6308SOL    HW119823   0.818   2.093   5.625
 6308SOL    HW219824   0.971   2.101   5.684
 6309SOL     OW19825   0.439   0.020   4.372
 6309SOL    HW119826   0.401   6.953   4.413
 6309SOL    HW219827   0.538   0.021   4.384
 6310SOL     OW19828   2.189   6.269   2.816
 6310SOL    HW119829   2.135   6.209   2.874
 6310SOL    HW219830   2.235   6.216   2.745
 6311SOL     OW19831   4.924   1.043   6.891
 6311SOL    HW119832   4.863   1.059   6.969
 6311SOL    HW219833   5.017   1.070   6.915
 6312SOL     OW19834   1.736   6.670   6.555
 6312SOL    HW119835   1.673   6.745   6.578
 6312SOL    HW219836   1.708   6.628   6.469
 6313SOL     OW19837   5.592   6.795   3.448
 6313SOL    HW119838   5.629   6.743   3.370
 6313SOL    HW219839   5.516   6.852   3.418
 6314SOL     OW19840   3.486   0.468   1.373
 6314SOL    HW119841   3.479   0.426   1.283
 6314SOL    HW219842   3.574   0.443   1.415
 6315SOL     OW19843   2.145   2.114   4.848
 6315SOL    HW119844   2.229   2.167   4.856
 6315SOL    HW219845   2.131   2.088   4.752
 6316SOL     OW19846   5.349   1.745   5.852
 6316SOL    HW119847   5.361   1.795   5.767
 6316SOL    HW219848   5.308   1.656   5.834
 6317SOL     OW19849   5.078   4.204   2.887
 6317SOL    HW119850   5.150   4.146   2.924
 6317SOL    HW219851   5.119   4.289   2.853
 6318SOL     OW19852   5.170   7.011   0.269
 6318SOL    HW119853   5.127   6.980   0.184
 6318SOL    HW219854   5.254   0.045   0.247
 6319SOL     OW19855   5.941   2.145   4.389
 6319SOL    HW119856   5.904   2.237   4.400
 6319SOL    HW219857   5.887   2.095   4.322
 6320SOL     OW19858   0.055   0.196   3.733
 6320SOL    HW119859   0.005   0.203   3.820
 6320SOL    HW219860   0.153   0.191   3.751
 6321SOL     OW19861   5.199   3.978   6.977
 6321SOL    HW119862   5.293   4.014   6.976
 6321SOL    HW219863   5.154   3.999   6.891
 6322SOL     OW19864   2.565   1.320   0.869
 6322SOL    HW119865   2.531   1.236   0.910
 6322SOL    HW219866   2.492   1.364   0.817
 6323SOL     OW19867   1.866   2.741   1.237
 6323SOL    HW119868   1.939   2.773   1.297
 6323SOL    HW219869   1.777   2.768   1.274
 6324SOL     OW19870   4.250   1.642   0.719
 6324SOL    HW119871   4.286   1.567   0.664
 6324SOL    HW219872   4.310   1.659   0.796
 6325SOL     OW19873   1.786   2.569   2.899
 6325SOL    HW119874   1.855   2.579   2.827
 6325SOL    HW219875   1.832   2.552   2.987
 6326SOL     OW19876   4.878   5.491   5.936
 6326SOL    HW119877   4.930   5.482   6.021
 6326SOL    HW219878   4.821   5.409   5.923
 6327SOL     OW19879   0.113   1.014   3.738
 6327SOL    HW119880   0.118   1.088   3.805
 6327SOL    HW219881   0.083   1.050   3.650
 6328SOL     OW19882   4.860   3.545   0.311
 6328SOL    HW119883   4.808   3.555   0.226
 6328SOL    HW219884   4.801   3.507   0.382
 6329SOL     OW19885   0.594   2.975   5.010
 6329SOL    HW119886   0.654   2.902   5.043
 6329SOL    HW219887   0.628   3.008   4.923
 6330SOL     OW19888   5.652   0.516   2.296
 6330SOL    HW119889   5.696   0.498   2.384
 6330SOL    HW219890   5.553   0.501   2.305
 6331SOL     OW19891   6.521   3.021   4.888
 6331SOL    HW119892   6.475   3.074   4.960
 6331SOL    HW219893   6.489   2.927   4.890
 6332SOL     OW19894   0.756   2.073   1.426
 6332SOL    HW119895   0.847   2.040   1.450
 6332SOL    HW219896   0.713   2.008   1.362
 6333SOL     OW19897   4.825   6.635   6.481
 6333SOL    HW119898   4.894   6.575   6.441
 6333SOL    HW219899   4.781   6.587   6.557
 6334SOL     OW19900   2.502   1.592   1.969
 6334SOL    HW119901   2.440   1.520   1.938
 6334SOL    HW219902   2.564   1.617   1.894
 6335SOL     OW19903   4.995   1.368   0.560
 6335SOL    HW119904   5.052   1.449   0.550
 6335SOL    HW219905   4.960   1.362   0.654
 6336SOL     OW19906   6.982   4.071   6.546
 6336SOL    HW119907   0.031   4.127   6.494
 6336SOL    HW219908   6.972   4.108   6.638
 6337SOL     OW19909   4.422   6.003   4.668
 6337SOL    HW119910   4.445   5.906   4.663
 6337SOL    HW219911   4.394   6.036   4.578
 6338SOL     OW19912   3.049   1.614   4.417
 6338SOL    HW119913   3.064   1.579   4.325
 6338SOL    HW219914   3.026   1.539   4.479
 6339SOL     OW19915   0.990   3.638   3.110
 6339SOL    HW119916   1.040   3.576   3.170
 6339SOL    HW219917   1.003   3.610   3.015
 6340SOL     OW19918   2.422   3.411   1.071
 6340SOL    HW119919   2.389   3.362   1.151
 6340SOL    HW219920   2.345   3.452   1.023
 6341SOL     OW19921   0.981   3.430   3.714
 6341SOL    HW119922   0.956   3.445   3.810
 6341SOL    HW219923   1.025   3.513   3.678
 6342SOL     OW19924   3.353   1.409   0.856
 6342SOL    HW119925   3.303   1.472   0.797
 6342SOL    HW219926   3.441   1.386   0.815
 6343SOL     OW19927   3.855   6.412   6.762
 6343SOL    HW119928   3.792   6.489   6.751
 6343SOL    HW219929   3.820   6.333   6.713
 6344SOL     OW19930   6.002   2.366   3.686
 6344SOL    HW119931   5.915   2.321   3.707
 6344SOL    HW219932   5.985   2.445   3.627
 6345SOL     OW19933   5.048   3.070   1.868
 6345SOL    HW119934   4.951   3.069   1.892
 6345SOL    HW219935   5.059   3.097   1.773
 6346SOL     OW19936   6.729   4.141   4.988
 6346SOL    HW119937   6.803   4.193   5.031
 6346SOL    HW219938   6.716   4.174   4.895
 6347SOL     OW19939   2.387   1.724   2.146
 6347SOL    HW119940   2.417   1.712   2.241
 6347SOL    HW219941   2.443   1.667   2.086
 6348SOL     OW19942   0.958   1.889   5.916
 6348SOL    HW119943   0.905   1.969   5.887
 6348SOL    HW219944   1.021   1.863   5.844
 6349SOL     OW19945   1.467   0.097   0.251
 6349SOL    HW119946   1.520   0.178   0.277
 6349SOL    HW219947   1.379   0.098   0.300
 6350SOL     OW19948   0.730   4.876   2.677
 6350SOL    HW119949   0.706   4.973   2.672
 6350SOL    HW219950   0.710   4.842   2.769
 6351SOL     OW19951   6.348   4.197   3.862
 6351SOL    HW119952   6.399   4.279   3.891
 6351SOL    HW219953   6.330   4.203   3.764
 6352SOL     OW19954   2.368   0.569   3.725
 6352SOL    HW119955   2.327   0.660   3.732
 6352SOL    HW219956   2.363   0.537   3.631
 6353SOL     OW19957   2.607   5.167   0.508
 6353SOL    HW119958   2.688   5.115   0.483
 6353SOL    HW219959   2.541   5.164   0.433
 6354SOL     OW19960   3.809   5.921   2.686
 6354SOL    HW119961   3.855   5.943   2.772
 6354SOL    HW219962   3.781   5.825   2.687
 6355SOL     OW19963   3.078   5.769   0.550
 6355SOL    HW119964   3.069   5.790   0.452
 6355SOL    HW219965   3.174   5.750   0.571
 6356SOL     OW19966   5.580   4.965   0.403
 6356SOL    HW119967   5.560   4.874   0.365
 6356SOL    HW219968   5.678   4.973   0.421
 6357SOL     OW19969   5.806   2.482   1.604
 6357SOL    HW119970   5.736   2.510   1.670
 6357SOL    HW219971   5.862   2.562   1.580
 6358SOL     OW19972   0.981   2.601   6.766
 6358SOL    HW119973   0.990   2.608   6.866
 6358SOL    HW219974   1.058   2.548   6.729
 6359SOL     OW19975   5.946   6.256   0.752
 6359SOL    HW119976   5.851   6.283   0.740
 6359SOL    HW219977   6.001   6.297   0.678
 6360SOL     OW19978   0.469   3.528   4.119
 6360SOL    HW119979   0.541   3.596   4.134
 6360SOL    HW219980   0.488   3.447   4.174
 6361SOL     OW19981   0.476   0.875   0.345
 6361SOL    HW119982   0.560   0.821   0.340
 6361SOL    HW219983   0.401   0.823   0.304
 6362SOL     OW19984   1.726   6.490   7.015
 6362SOL    HW119985   1.627   6.486   7.007
 6362SOL    HW219986   1.765   6.403   6.983
 6363SOL     OW19987   2.821   4.787   3.927
 6363SOL    HW119988   2.729   4.772   3.963
 6363SOL    HW219989   2.861   4.867   3.971
 6364SOL     OW19990   2.234   1.924   5.441
 6364SOL    HW119991   2.210   1.829   5.422
 6364SOL    HW219992   2.153   1.982   5.428
 6365SOL     OW19993   5.527   5.978   5.058
 6365SOL    HW119994   5.617   5.973   5.013
 6365SOL    HW219995   5.491   5.886   5.071
 6366SOL     OW19996   6.853   6.766   4.929
 6366SOL    HW119997   6.795   6.844   4.904
 6366SOL    HW219998   6.899   6.731   4.847
 6367SOL     OW19999   3.496   1.885   2.703
 6367SOL    HW120000   3.440   1.904   2.622
 6367SOL    HW220001   3.495   1.787   2.722
 6368SOL     OW20002   4.287   4.765   4.177
 6368SOL    HW120003   4.286   4.763   4.277
 6368SOL    HW220004   4.207   4.816   4.145
 6369SOL     OW20005   2.036   6.643   4.743
 6369SOL    HW120006   1.980   6.725   4.754
 6369SOL    HW220007   1.977   6.567   4.715
 6370SOL     OW20008   5.211   3.960   3.643
 6370SOL    HW120009   5.113   3.966   3.625
 6370SOL    HW220010   5.242   4.045   3.687
 6371SOL     OW20011   5.784   4.092   1.660
 6371SOL    HW120012   5.734   4.006   1.650
 6371SOL    HW220013   5.840   4.108   1.578
 6372SOL     OW20014   0.371   1.112   2.079
 6372SOL    HW120015   0.384   1.097   1.981
 6372SOL    HW220016   0.276   1.093   2.103
 6373SOL     OW20017   5.657   4.055   2.209
 6373SOL    HW120018   5.681   4.042   2.113
 6373SOL    HW220019   5.615   3.971   2.244
 6374SOL     OW20020   4.706   2.577   0.515
 6374SOL    HW120021   4.806   2.575   0.516
 6374SOL    HW220022   4.672   2.631   0.591
 6375SOL     OW20023   0.993   2.562   2.273
 6375SOL    HW120024   1.061   2.616   2.223
 6375SOL    HW220025   0.971   2.479   2.221
 6376SOL     OW20026   3.644   1.690   5.582
 6376SOL    HW120027   3.679   1.643   5.663
 6376SOL    HW220028   3.683   1.781   5.576
 6377SOL     OW20029   6.737   1.342   5.638
 6377SOL    HW120030   6.803   1.320   5.710
 6377SOL    HW220031   6.762   1.295   5.554
 6378SOL     OW20032   5.039   5.595   3.403
 6378SOL    HW120033   4.953   5.622   3.361
 6378SOL    HW220034   5.075   5.671   3.458
 6379SOL     OW20035   0.926   4.431   5.626
 6379SOL    HW120036   1.006   4.431   5.566
 6379SOL    HW220037   0.946   4.484   5.708
 6380SOL     OW20038   6.998   3.461   4.133
 6380SOL    HW120039   0.011   3.474   4.228
 6380SOL    HW220040   0.043   3.395   4.089
 6381SOL     OW20041   4.326   2.675   0.389
 6381SOL    HW120042   4.266   2.676   0.309
 6381SOL    HW220043   4.388   2.596   0.383
 6382SOL     OW20044   3.050   2.106   1.013
 6382SOL    HW120045   3.101   2.182   1.054
 6382SOL    HW220046   2.964   2.140   0.977
 6383SOL     OW20047   1.448   2.512   2.110
 6383SOL    HW120048   1.349   2.501   2.117
 6383SOL    HW220049   1.487   2.519   2.201
 6384SOL     OW20050   5.916   2.840   2.122
 6384SOL    HW120051   5.882   2.868   2.032
 6384SOL    HW220052   5.840   2.836   2.187
 6385SOL     OW20053   6.661   3.801   1.675
 6385SOL    HW120054   6.680   3.746   1.594
 6385SOL    HW220055   6.660   3.898   1.650
 6386SOL     OW20056   1.755   3.671   0.111
 6386SOL    HW120057   1.784   3.684   0.206
 6386SOL    HW220058   1.660   3.701   0.101
 6387SOL     OW20059   5.987   1.343   0.233
 6387SOL    HW120060   5.942   1.408   0.172
 6387SOL    HW220061   6.084   1.365   0.240
 6388SOL     OW20062   6.112   4.565   2.132
 6388SOL    HW120063   6.060   4.626   2.072
 6388SOL    HW220064   6.054   4.538   2.209
 6389SOL     OW20065   1.571   6.825   1.270
 6389SOL    HW120066   1.549   6.803   1.365
 6389SOL    HW220067   1.519   6.906   1.241
 6390SOL     OW20068   6.397   0.647   6.505
 6390SOL    HW120069   6.438   0.642   6.414
 6390SOL    HW220070   6.314   0.590   6.507
 6391SOL     OW20071   1.470   1.179   6.426
 6391SOL    HW120072   1.500   1.258   6.480
 6391SOL    HW220073   1.372   1.186   6.409
 6392SOL     OW20074   3.021   6.416   3.711
 6392SOL    HW120075   2.971   6.330   3.700
 6392SOL    HW220076   3.118   6.400   3.694
 6393SOL     OW20077   5.918   6.183   1.519
 6393SOL    HW120078   5.840   6.137   1.476
 6393SOL    HW220079   5.885   6.241   1.593
 6394SOL     OW20080   1.592   4.646   1.044
 6394SOL    HW120081   1.628   4.594   1.122
 6394SOL    HW220082   1.660   4.649   0.972
 6395SOL     OW20083   6.992   3.517   2.289
 6395SOL    HW120084   6.932   3.573   2.233
 6395SOL    HW220085   6.941   3.482   2.368
 6396SOL     OW20086   6.145   3.736   5.854
 6396SOL    HW120087   6.225   3.783   5.890
 6396SOL    HW220088   6.174   3.657   5.800
 6397SOL     OW20089   5.951   1.021   2.290
 6397SOL    HW120090   6.044   1.049   2.314
 6397SOL    HW220091   5.908   1.092   2.235
 6398SOL     OW20092   1.495   6.788   1.536
 6398SOL    HW120093   1.554   6.820   1.610
 6398SOL    HW220094   1.404   6.767   1.572
 6399SOL     OW20095   1.801   0.001   0.362
 6399SOL    HW120096   1.850   0.085   0.386
 6399SOL    HW220097   1.703   0.020   0.358
 6400SOL     OW20098   2.239   5.190   2.728
 6400SOL    HW120099   2.278   5.240   2.805
 6400SOL    HW220100   2.182   5.252   2.674
 6401SOL     OW20101   4.635   5.035   3.090
 6401SOL    HW120102   4.655   4.954   3.034
 6401SOL    HW220103   4.653   5.118   3.036
 6402SOL     OW20104   2.043   3.509   3.460
 6402SOL    HW120105   2.096   3.580   3.507
 6402SOL    HW220106   1.953   3.501   3.502
 6403SOL     OW20107   5.697   6.570   5.311
 6403SOL    HW120108   5.717   6.487   5.260
 6403SOL    HW220109   5.702   6.649   5.250
 6404SOL     OW20110   3.734   1.722   2.570
 6404SOL    HW120111   3.825   1.762   2.574
 6404SOL    HW220112   3.688   1.751   2.487
 6405SOL     OW20113   4.583   1.692   3.988
 6405SOL    HW120114   4.553   1.656   3.900
 6405SOL    HW220115   4.556   1.629   4.061
 6406SOL     OW20116   1.492   3.051   2.610
 6406SOL    HW120117   1.501   3.063   2.511
 6406SOL    HW220118   1.551   3.117   2.657
 6407SOL     OW20119   1.678   6.453   3.299
 6407SOL    HW120120   1.756   6.391   3.302
 6407SOL    HW220121   1.697   6.529   3.237
 6408SOL     OW20122   5.842   0.430   1.219
 6408SOL    HW120123   5.871   0.452   1.126
 6408SOL    HW220124   5.904   0.475   1.284
 6409SOL     OW20125   6.860   4.797   3.329
 6409SOL    HW120126   6.825   4.717   3.379
 6409SOL    HW220127   6.819   4.800   3.238
 6410SOL     OW20128   2.327   0.814   6.771
 6410SOL    HW120129   2.418   0.817   6.730
 6410SOL    HW220130   2.267   0.757   6.716
 6411SOL     OW20131   0.986   3.219   2.290
 6411SOL    HW120132   0.948   3.226   2.381
 6411SOL    HW220133   1.084   3.242   2.292
 6412SOL     OW20134   2.654   0.408   6.768
 6412SOL    HW120135   2.616   0.384   6.858
 6412SOL    HW220136   2.583   0.450   6.712
 6413SOL     OW20137   4.058   4.844   4.563
 6413SOL    HW120138   4.055   4.814   4.659
 6413SOL    HW220139   4.090   4.769   4.506
 6414SOL     OW20140   6.709   6.659   6.579
 6414SOL    HW120141   6.623   6.610   6.571
 6414SOL    HW220142   6.752   6.667   6.489
 6415SOL     OW20143   1.688   3.237   3.625
 6415SOL    HW120144   1.597   3.201   3.604
 6415SOL    HW220145   1.753   3.202   3.557
 6416SOL     OW20146   3.058   6.795   6.641
 6416SOL    HW120147   3.057   6.706   6.687
 6416SOL    HW220148   3.060   6.868   6.709
 6417SOL     OW20149   5.280   2.286   0.829
 6417SOL    HW120150   5.309   2.382   0.829
 6417SOL    HW220151   5.329   2.237   0.757
 6418SOL     OW20152   4.966   4.529   2.622
 6418SOL    HW120153   5.051   4.475   2.619
 6418SOL    HW220154   4.941   4.548   2.717
 6419SOL     OW20155   0.174   5.486   5.470
 6419SOL    HW120156   0.103   5.550   5.440
 6419SOL    HW220157   0.144   5.393   5.452
 6420SOL     OW20158   1.500   1.702   3.765
 6420SOL    HW120159   1.566   1.634   3.732
 6420SOL    HW220160   1.532   1.794   3.741
 6421SOL     OW20161   5.042   0.546   0.960
 6421SOL    HW120162   4.966   0.609   0.973
 6421SOL    HW220163   5.063   0.501   1.047
 6422SOL     OW20164   6.670   1.658   5.516
 6422SOL    HW120165   6.671   1.566   5.554
 6422SOL    HW220166   6.696   1.724   5.587
 6423SOL     OW20167   4.686   5.389   4.867
 6423SOL    HW120168   4.587   5.388   4.872
 6423SOL    HW220169   4.725   5.405   4.957
 6424SOL     OW20170   1.196   3.479   4.744
 6424SOL    HW120171   1.270   3.546   4.735
 6424SOL    HW220172   1.223   3.408   4.809
 6425SOL     OW20173   0.352   5.736   2.717
 6425SOL    HW120174   0.438   5.745   2.768
 6425SOL    HW220175   0.276   5.735   2.782
 6426SOL     OW20176   5.632   4.807   3.971
 6426SOL    HW120177   5.676   4.857   4.046
 6426SOL    HW220178   5.559   4.750   4.009
 6427SOL     OW20179   2.941   3.757   2.869
 6427SOL    HW120180   2.929   3.680   2.807
 6427SOL    HW220181   2.998   3.826   2.824
 6428SOL     OW20182   5.528   3.252   0.117
 6428SOL    HW120183   5.536   3.351   0.109
 6428SOL    HW220184   5.432   3.225   0.110
 6429SOL     OW20185   1.192   0.428   5.445
 6429SOL    HW120186   1.099   0.461   5.431
 6429SOL    HW220187   1.210   0.353   5.382
 6430SOL     OW20188   6.171   0.825   4.528
 6430SOL    HW120189   6.145   0.822   4.432
 6430SOL    HW220190   6.264   0.789   4.538
 6431SOL     OW20191   4.400   5.018   2.819
 6431SOL    HW120192   4.324   5.072   2.856
 6431SOL    HW220193   4.481   5.077   2.811
 6432SOL     OW20194   3.385   4.016   6.058
 6432SOL    HW120195   3.455   4.012   5.986
 6432SOL    HW220196   3.429   4.018   6.148
 6433SOL     OW20197   3.205   5.211   0.124
 6433SOL    HW120198   3.220   5.303   0.089
 6433SOL    HW220199   3.170   5.153   0.051
 6434SOL     OW20200   2.423   6.535   6.137
 6434SOL    HW120201   2.354   6.515   6.206
 6434SOL    HW220202   2.386   6.598   6.069
 6435SOL     OW20203   6.412   6.963   0.620
 6435SOL    HW120204   6.352   0.018   0.658
 6435SOL    HW220205   6.503   6.971   0.659
 6436SOL     OW20206   0.764   3.401   3.527
 6436SOL    HW120207   0.836   3.398   3.596
 6436SOL    HW220208   0.723   3.311   3.517
 6437SOL     OW20209   1.083   2.042   5.391
 6437SOL    HW120210   1.021   2.075   5.462
 6437SOL    HW220211   1.177   2.044   5.425
 6438SOL     OW20212   1.440   4.974   6.211
 6438SOL    HW120213   1.461   4.879   6.232
 6438SOL    HW220214   1.515   5.014   6.159
 6439SOL     OW20215   6.266   1.141   2.860
 6439SOL    HW120216   6.237   1.103   2.948
 6439SOL    HW220217   6.185   1.159   2.803
 6440SOL     OW20218   2.655   0.687   6.385
 6440SOL    HW120219   2.591   0.613   6.365
 6440SOL    HW220220   2.677   0.737   6.301
 6441SOL     OW20221   0.119   1.334   2.300
 6441SOL    HW120222   0.043   1.270   2.286
 6441SOL    HW220223   0.092   1.425   2.269
 6442SOL     OW20224   2.646   2.091   4.777
 6442SOL    HW120225   2.615   2.168   4.720
 6442SOL    HW220226   2.684   2.127   4.862
 6443SOL     OW20227   3.659   2.269   6.301
 6443SOL    HW120228   3.717   2.290   6.379
 6443SOL    HW220229   3.700   2.308   6.218
 6444SOL     OW20230   6.651   2.606   4.774
 6444SOL    HW120231   6.606   2.582   4.689
 6444SOL    HW220232   6.715   2.534   4.800
 6445SOL     OW20233   3.866   3.279   3.138
 6445SOL    HW120234   3.875   3.179   3.134
 6445SOL    HW220235   3.770   3.304   3.126
 6446SOL     OW20236   0.913   2.166   6.811
 6446SOL    HW120237   0.819   2.196   6.792
 6446SOL    HW220238   0.977   2.226   6.762
 6447SOL     OW20239   6.621   4.283   1.759
 6447SOL    HW120240   6.691   4.251   1.822
 6447SOL    HW220241   6.582   4.369   1.793
 6448SOL     OW20242   5.069   5.394   1.452
 6448SOL    HW120243   5.083   5.491   1.431
 6448SOL    HW220244   5.151   5.343   1.427
 6449SOL     OW20245   2.670   4.926   2.185
 6449SOL    HW120246   2.711   4.966   2.102
 6449SOL    HW220247   2.603   4.989   2.222
 6450SOL     OW20248   1.258   3.844   0.256
 6450SOL    HW120249   1.231   3.917   0.193
 6450SOL    HW220250   1.240   3.873   0.350
 6451SOL     OW20251   3.059   1.773   6.036
 6451SOL    HW120252   3.144   1.725   6.017
 6451SOL    HW220253   2.996   1.763   5.959
 6452SOL     OW20254   4.863   4.094   2.398
 6452SOL    HW120255   4.806   4.175   2.415
 6452SOL    HW220256   4.928   4.082   2.474
 6453SOL     OW20257   3.084   6.828   1.284
 6453SOL    HW120258   3.025   6.747   1.280
 6453SOL    HW220259   3.064   6.881   1.366
 6454SOL     OW20260   0.223   1.652   1.777
 6454SOL    HW120261   0.314   1.642   1.737
 6454SOL    HW220262   0.155   1.615   1.715
 6455SOL     OW20263   6.701   3.548   3.488
 6455SOL    HW120264   6.679   3.523   3.582
 6455SOL    HW220265   6.760   3.629   3.488
 6456SOL     OW20266   1.008   0.528   3.028
 6456SOL    HW120267   1.006   0.561   2.934
 6456SOL    HW220268   1.032   0.603   3.089
 6457SOL     OW20269   4.790   6.551   2.154
 6457SOL    HW120270   4.770   6.636   2.105
 6457SOL    HW220271   4.847   6.571   2.233
 6458SOL     OW20272   1.393   5.102   5.154
 6458SOL    HW120273   1.402   5.145   5.065
 6458SOL    HW220274   1.452   5.020   5.158
 6459SOL     OW20275   6.139   2.389   2.581
 6459SOL    HW120276   6.220   2.440   2.609
 6459SOL    HW220277   6.070   2.452   2.545
 6460SOL     OW20278   5.779   6.235   5.820
 6460SOL    HW120279   5.718   6.305   5.782
 6460SOL    HW220280   5.843   6.278   5.884
 6461SOL     OW20281   3.112   5.004   0.322
 6461SOL    HW120282   3.129   5.081   0.260
 6461SOL    HW220283   3.170   4.927   0.295
 6462SOL     OW20284   0.591   3.117   4.531
 6462SOL    HW120285   0.623   3.056   4.459
 6462SOL    HW220286   0.503   3.156   4.504
 6463SOL     OW20287   5.244   6.591   1.007
 6463SOL    HW120288   5.198   6.661   1.061
 6463SOL    HW220289   5.187   6.565   0.929
 6464SOL     OW20290   1.482   5.530   5.306
 6464SOL    HW120291   1.400   5.474   5.293
 6464SOL    HW220292   1.505   5.577   5.221
 6465SOL     OW20293   6.576   2.392   2.011
 6465SOL    HW120294   6.483   2.360   2.026
 6465SOL    HW220295   6.630   2.320   1.968
 6466SOL     OW20296   6.941   2.230   6.516
 6466SOL    HW120297   6.886   2.300   6.562
 6466SOL    HW220298   6.900   2.209   6.427
 6467SOL     OW20299   4.624   0.773   0.618
 6467SOL    HW120300   4.583   0.773   0.527
 6467SOL    HW220301   4.563   0.727   0.682
 6468SOL     OW20302   3.480   6.322   1.450
 6468SOL    HW120303   3.518   6.296   1.361
 6468SOL    HW220304   3.481   6.421   1.460
 6469SOL     OW20305   3.207   2.117   4.096
 6469SOL    HW120306   3.289   2.125   4.039
 6469SOL    HW220307   3.231   2.128   4.192
 6470SOL     OW20308   5.681   2.389   0.179
 6470SOL    HW120309   5.727   2.462   0.230
 6470SOL    HW220310   5.593   2.368   0.223
 6471SOL     OW20311   0.552   6.591   5.413
 6471SOL    HW120312   0.556   6.506   5.362
 6471SOL    HW220313   0.631   6.648   5.389
 6472SOL     OW20314   6.168   5.869   2.648
 6472SOL    HW120315   6.221   5.884   2.731
 6472SOL    HW220316   6.201   5.787   2.601
 6473SOL     OW20317   1.849   1.679   4.967
 6473SOL    HW120318   1.904   1.762   4.959
 6473SOL    HW220319   1.760   1.701   5.006
 6474SOL     OW20320   3.885   5.481   5.510
 6474SOL    HW120321   3.933   5.552   5.457
 6474SOL    HW220322   3.822   5.432   5.450
 6475SOL     OW20323   5.912   5.120   4.076
 6475SOL    HW120324   5.978   5.075   4.015
 6475SOL    HW220325   5.911   5.218   4.058
 6476SOL     OW20326   4.431   2.764   6.421
 6476SOL    HW120327   4.506   2.791   6.360
 6476SOL    HW220328   4.468   2.739   6.510
 6477SOL     OW20329   6.956   5.193   0.593
 6477SOL    HW120330   6.944   5.126   0.667
 6477SOL    HW220331   6.893   5.172   0.518
 6478SOL     OW20332   2.856   6.519   2.247
 6478SOL    HW120333   2.909   6.434   2.234
 6478SOL    HW220334   2.825   6.524   2.342
 6479SOL     OW20335   2.983   5.035   4.093
 6479SOL    HW120336   2.979   5.053   4.191
 6479SOL    HW220337   2.915   5.090   4.046
 6480SOL     OW20338   2.393   1.328   0.003
 6480SOL    HW120339   2.375   1.249   6.960
 6480SOL    HW220340   2.475   1.375   6.987
 6481SOL     OW20341   3.305   2.745   1.837
 6481SOL    HW120342   3.351   2.668   1.793
 6481SOL    HW220343   3.337   2.831   1.797
 6482SOL     OW20344   6.315   2.424   5.891
 6482SOL    HW120345   6.285   2.516   5.864
 6482SOL    HW220346   6.343   2.374   5.809
 6483SOL     OW20347   0.608   6.340   4.119
 6483SOL    HW120348   0.706   6.320   4.121
 6483SOL    HW220349   0.577   6.348   4.025
 6484SOL     OW20350   2.533   1.909   2.766
 6484SOL    HW120351   2.552   1.821   2.721
 6484SOL    HW220352   2.443   1.906   2.807
 6485SOL     OW20353   2.238   5.753   4.260
 6485SOL    HW120354   2.213   5.722   4.352
 6485SOL    HW220355   2.235   5.675   4.197
 6486SOL     OW20356   0.753   5.144   2.731
 6486SOL    HW120357   0.823   5.208   2.701
 6486SOL    HW220358   0.747   5.145   2.831
 6487SOL     OW20359   1.148   6.630   4.757
 6487SOL    HW120360   1.143   6.730   4.751
 6487SOL    HW220361   1.194   6.595   4.675
 6488SOL     OW20362   4.358   5.914   4.962
 6488SOL    HW120363   4.333   5.837   4.903
 6488SOL    HW220364   4.453   5.940   4.946
 6489SOL     OW20365   3.190   3.569   6.568
 6489SOL    HW120366   3.096   3.537   6.561
 6489SOL    HW220367   3.240   3.545   6.485
 6490SOL     OW20368   2.885   1.531   6.426
 6490SOL    HW120369   2.786   1.521   6.441
 6490SOL    HW220370   2.918   1.454   6.372
 6491SOL     OW20371   2.596   0.883   1.719
 6491SOL    HW120372   2.682   0.838   1.742
 6491SOL    HW220373   2.585   0.965   1.774
 6492SOL     OW20374   4.091   3.719   4.734
 6492SOL    HW120375   4.067   3.816   4.735
 6492SOL    HW220376   4.053   3.677   4.652
 6493SOL     OW20377   1.719   4.614   6.374
 6493SOL    HW120378   1.781   4.556   6.321
 6493SOL    HW220379   1.732   4.597   6.472
 6494SOL     OW20380   6.876   6.533   2.454
 6494SOL    HW120381   6.776   6.542   2.459
 6494SOL    HW220382   6.901   6.438   2.474
 6495SOL     OW20383   6.850   0.145   4.337
 6495SOL    HW120384   6.828   0.211   4.408
 6495SOL    HW220385   6.781   0.072   4.338
 6496SOL     OW20386   5.747   6.676   1.395
 6496SOL    HW120387   5.702   6.665   1.307
 6496SOL    HW220388   5.683   6.653   1.469
 6497SOL     OW20389   1.143   0.607   1.130
 6497SOL    HW120390   1.224   0.557   1.160
 6497SOL    HW220391   1.116   0.574   1.039
 6498SOL     OW20392   0.995   3.721   4.011
 6498SOL    HW120393   1.010   3.806   4.061
 6498SOL    HW220394   0.965   3.743   3.918
 6499SOL     OW20395   5.585   3.752   4.653
 6499SOL    HW120396   5.621   3.741   4.745
 6499SOL    HW220397   5.628   3.831   4.610
 6500SOL     OW20398   0.400   4.023   1.845
 6500SOL    HW120399   0.322   4.072   1.805
 6500SOL    HW220400   0.384   3.924   1.839
 6501SOL     OW20401   0.507   1.167   1.601
 6501SOL    HW120402   0.476   1.081   1.641
 6501SOL    HW220403   0.430   1.231   1.595
 6502SOL     OW20404   6.629   3.357   1.418
 6502SOL    HW120405   6.718   3.346   1.464
 6502SOL    HW220406   6.602   3.270   1.377
 6503SOL     OW20407   5.778   0.962   3.813
 6503SOL    HW120408   5.705   0.914   3.862
 6503SOL    HW220409   5.740   1.016   3.738
 6504SOL     OW20410   4.607   6.379   0.157
 6504SOL    HW120411   4.563   6.290   0.170
 6504SOL    HW220412   4.578   6.442   0.229
 6505SOL     OW20413   4.521   6.831   6.468
 6505SOL    HW120414   4.510   6.827   6.568
 6505SOL    HW220415   4.441   6.790   6.425
 6506SOL     OW20416   0.043   3.270   3.377
 6506SOL    HW120417   7.015   3.282   3.288
 6506SOL    HW220418   0.142   3.263   3.366
 6507SOL     OW20419   2.538   5.560   6.301
 6507SOL    HW120420   2.618   5.599   6.254
 6507SOL    HW220421   2.506   5.624   6.370
 6508SOL     OW20422   1.813   0.271   3.363
 6508SOL    HW120423   1.790   0.195   3.425
 6508SOL    HW220424   1.836   0.234   3.273
 6509SOL     OW20425   4.999   1.238   4.923
 6509SOL    HW120426   5.056   1.281   4.853
 6509SOL    HW220427   4.982   1.303   4.997
 6510SOL     OW20428   4.376   5.455   0.080
 6510SOL    HW120429   4.455   5.406   0.118
 6510SOL    HW220430   4.336   5.401   0.005
 6511SOL     OW20431   4.312   1.115   5.414
 6511SOL    HW120432   4.405   1.152   5.408
 6511SOL    HW220433   4.286   1.078   5.324
 6512SOL     OW20434   3.391   6.619   2.488
 6512SOL    HW120435   3.382   6.605   2.587
 6512SOL    HW220436   3.366   6.713   2.465
 6513SOL     OW20437   1.956   6.058   4.348
 6513SOL    HW120438   1.880   6.010   4.392
 6513SOL    HW220439   1.988   6.004   4.269
 6514SOL     OW20440   5.807   0.700   4.896
 6514SOL    HW120441   5.901   0.728   4.912
 6514SOL    HW220442   5.747   0.745   4.963
 6515SOL     OW20443   1.101   3.688   2.622
 6515SOL    HW120444   1.104   3.788   2.631
 6515SOL    HW220445   1.060   3.664   2.534
 6516SOL     OW20446   6.499   3.430   1.932
 6516SOL    HW120447   6.433   3.498   1.964
 6516SOL    HW220448   6.463   3.338   1.948
 6517SOL     OW20449   6.786   2.170   0.839
 6517SOL    HW120450   6.795   2.081   0.883
 6517SOL    HW220451   6.825   2.166   0.747
 6518SOL     OW20452   6.607   0.402   2.305
 6518SOL    HW120453   6.644   0.489   2.338
 6518SOL    HW220454   6.589   0.342   2.383
 6519SOL     OW20455   0.444   1.166   3.201
 6519SOL    HW120456   0.531   1.176   3.250
 6519SOL    HW220457   0.370   1.151   3.267
 6520SOL     OW20458   0.046   5.606   6.786
 6520SOL    HW120459   0.097   5.677   6.736
 6520SOL    HW220460   6.969   5.639   6.805
 6521SOL     OW20461   1.700   2.997   3.810
 6521SOL    HW120462   1.663   2.947   3.889
 6521SOL    HW220463   1.652   3.084   3.800
 6522SOL     OW20464   2.244   4.581   5.503
 6522SOL    HW120465   2.148   4.568   5.477
 6522SOL    HW220466   2.275   4.504   5.559
 6523SOL     OW20467   3.932   0.058   0.132
 6523SOL    HW120468   3.957   6.994   0.188
 6523SOL    HW220469   3.840   0.045   0.095
 6524SOL     OW20470   2.723   2.515   1.744
 6524SOL    HW120471   2.817   2.493   1.769
 6524SOL    HW220472   2.723   2.588   1.675
 6525SOL     OW20473   2.012   5.280   3.341
 6525SOL    HW120474   1.953   5.199   3.337
 6525SOL    HW220475   2.103   5.253   3.372
 6526SOL     OW20476   0.891   0.804   0.998
 6526SOL    HW120477   0.898   0.782   1.095
 6526SOL    HW220478   0.945   0.740   0.944
 6527SOL     OW20479   0.215   2.080   0.134
 6527SOL    HW120480   0.307   2.059   0.166
 6527SOL    HW220481   0.207   2.053   0.038
 6528SOL     OW20482   6.366   1.649   5.737
 6528SOL    HW120483   6.451   1.609   5.769
 6528SOL    HW220484   6.291   1.586   5.754
 6529SOL     OW20485   1.316   0.507   2.304
 6529SOL    HW120486   1.302   0.489   2.401
 6529SOL    HW220487   1.401   0.465   2.273
 6530SOL     OW20488   0.260   1.799   0.860
 6530SOL    HW120489   0.181   1.739   0.849
 6530SOL    HW220490   0.251   1.851   0.946
 6531SOL     OW20491   4.717   3.463   5.390
 6531SOL    HW120492   4.712   3.498   5.296
 6531SOL    HW220493   4.812   3.463   5.421
 6532SOL     OW20494   1.896   0.993   1.411
 6532SOL    HW120495   1.929   0.898   1.412
 6532SOL    HW220496   1.974   1.055   1.408
 6533SOL     OW20497   4.512   6.395   0.496
 6533SOL    HW120498   4.529   6.473   0.436
 6533SOL    HW220499   4.599   6.366   0.538
 6534SOL     OW20500   4.952   5.117   1.903
 6534SOL    HW120501   4.889   5.192   1.882
 6534SOL    HW220502   4.903   5.030   1.895
 6535SOL     OW20503   5.821   4.369   4.442
 6535SOL    HW120504   5.864   4.288   4.481
 6535SOL    HW220505   5.830   4.446   4.505
 6536SOL     OW20506   0.229   1.539   4.878
 6536SOL    HW120507   0.168   1.470   4.839
 6536SOL    HW220508   0.275   1.589   4.804
 6537SOL     OW20509   0.006   4.876   4.791
 6537SOL    HW120510   0.063   4.954   4.768
 6537SOL    HW220511   6.987   4.833   4.708
 6538SOL     OW20512   1.073   3.748   5.739
 6538SOL    HW120513   0.974   3.758   5.744
 6538SOL    HW220514   1.109   3.728   5.830
 6539SOL     OW20515   4.459   0.465   6.909
 6539SOL    HW120516   4.520   0.473   6.830
 6539SOL    HW220517   4.453   0.369   6.936
 6540SOL     OW20518   2.712   2.463   5.964
 6540SOL    HW120519   2.734   2.507   5.877
 6540SOL    HW220520   2.787   2.479   6.028
 6541SOL     OW20521   5.341   2.727   5.846
 6541SOL    HW120522   5.292   2.665   5.785
 6541SOL    HW220523   5.423   2.681   5.881
 6542SOL     OW20524   1.372   2.939   4.834
 6542SOL    HW120525   1.371   2.898   4.926
 6542SOL    HW220526   1.285   2.985   4.818
 6543SOL     OW20527   3.613   2.616   5.678
 6543SOL    HW120528   3.693   2.602   5.619
 6543SOL    HW220529   3.615   2.710   5.713
 6544SOL     OW20530   1.221   6.099   2.770
 6544SOL    HW120531   1.278   6.017   2.768
 6544SOL    HW220532   1.234   6.151   2.685
 6545SOL     OW20533   3.921   0.069   0.581
 6545SOL    HW120534   3.929   0.149   0.641
 6545SOL    HW220535   3.836   0.076   0.528
 6546SOL     OW20536   4.130   3.788   6.148
 6546SOL    HW120537   4.168   3.801   6.240
 6546SOL    HW220538   4.030   3.785   6.154
 6547SOL     OW20539   5.158   0.861   6.275
 6547SOL    HW120540   5.071   0.905   6.298
 6547SOL    HW220541   5.145   0.763   6.266
 6548SOL     OW20542   1.619   2.984   0.451
 6548SOL    HW120543   1.661   2.906   0.405
 6548SOL    HW220544   1.539   3.014   0.398
 6549SOL     OW20545   4.450   0.344   2.063
 6549SOL    HW120546   4.446   0.438   2.095
 6549SOL    HW220547   4.385   0.332   1.988
 6550SOL     OW20548   0.349   6.718   3.739
 6550SOL    HW120549   0.375   6.656   3.665
 6550SOL    HW220550   0.252   6.706   3.760
 6551SOL     OW20551   2.662   3.386   1.740
 6551SOL    HW120552   2.637   3.441   1.660
 6551SOL    HW220553   2.589   3.392   1.808
 6552SOL     OW20554   2.634   0.002   0.610
 6552SOL    HW120555   2.563   0.026   0.676
 6552SOL    HW220556   2.658   6.921   0.621
 6553SOL     OW20557   0.468   2.140   3.233
 6553SOL    HW120558   0.472   2.221   3.293
 6553SOL    HW220559   0.460   2.170   3.138
 6554SOL     OW20560   2.541   0.975   4.757
 6554SOL    HW120561   2.525   0.998   4.853
 6554SOL    HW220562   2.636   0.945   4.746
 6555SOL     OW20563   5.756   1.927   3.671
 6555SOL    HW120564   5.717   1.945   3.761
 6555SOL    HW220565   5.716   1.843   3.634
 6556SOL     OW20566   6.176   3.319   3.136
 6556SOL    HW120567   6.101   3.334   3.201
 6556SOL    HW220568   6.206   3.407   3.099
 6557SOL     OW20569   2.663   0.705   2.980
 6557SOL    HW120570   2.758   0.735   2.968
 6557SOL    HW220571   2.603   0.784   2.979
 6558SOL     OW20572   6.123   5.561   0.587
 6558SOL    HW120573   6.142   5.640   0.645
 6558SOL    HW220574   6.055   5.502   0.633
 6559SOL     OW20575   6.805   3.634   6.134
 6559SOL    HW120576   6.795   3.681   6.222
 6559SOL    HW220577   6.817   3.702   6.061
 6560SOL     OW20578   3.971   4.737   0.961
 6560SOL    HW120579   3.924   4.727   0.873
 6560SOL    HW220580   4.034   4.815   0.957
 6561SOL     OW20581   3.829   4.649   1.202
 6561SOL    HW120582   3.875   4.677   1.117
 6561SOL    HW220583   3.794   4.729   1.249
 6562SOL     OW20584   5.833   1.899   1.228
 6562SOL    HW120585   5.880   1.819   1.266
 6562SOL    HW220586   5.887   1.937   1.153
 6563SOL     OW20587   5.140   6.925   5.805
 6563SOL    HW120588   5.174   6.831   5.814
 6563SOL    HW220589   5.065   6.939   5.869
 6564SOL     OW20590   6.243   3.413   1.788
 6564SOL    HW120591   6.258   3.510   1.769
 6564SOL    HW220592   6.147   3.390   1.770
 6565SOL     OW20593   6.153   6.432   2.791
 6565SOL    HW120594   6.122   6.426   2.696
 6565SOL    HW220595   6.180   6.526   2.812
 6566SOL     OW20596   3.466   5.630   2.498
 6566SOL    HW120597   3.454   5.533   2.479
 6566SOL    HW220598   3.520   5.641   2.582
 6567SOL     OW20599   4.891   1.225   1.861
 6567SOL    HW120600   4.963   1.288   1.832
 6567SOL    HW220601   4.925   1.167   1.935
 6568SOL     OW20602   3.680   1.852   3.000
 6568SOL    HW120603   3.582   1.863   2.988
 6568SOL    HW220604   3.727   1.934   2.968
 6569SOL     OW20605   2.081   2.810   6.408
 6569SOL    HW120606   2.054   2.784   6.315
 6569SOL    HW220607   2.180   2.816   6.413
 6570SOL     OW20608   3.083   1.175   2.638
 6570SOL    HW120609   3.130   1.087   2.625
 6570SOL    HW220610   3.125   1.224   2.715
 6571SOL     OW20611   2.588   4.905   2.865
 6571SOL    HW120612   2.500   4.874   2.901
 6571SOL    HW220613   2.654   4.830   2.872
 6572SOL     OW20614   6.881   4.297   4.066
 6572SOL    HW120615   6.820   4.234   4.018
 6572SOL    HW220616   6.969   4.253   4.083
 6573SOL     OW20617   0.915   0.889   3.404
 6573SOL    HW120618   0.816   0.900   3.397
 6573SOL    HW220619   0.959   0.977   3.386
 6574SOL     OW20620   2.481   5.936   3.372
 6574SOL    HW120621   2.469   6.034   3.385
 6574SOL    HW220622   2.558   5.904   3.427
 6575SOL     OW20623   0.360   6.641   3.331
 6575SOL    HW120624   0.367   6.652   3.232
 6575SOL    HW220625   0.315   6.722   3.370
 6576SOL     OW20626   3.320   6.135   0.540
 6576SOL    HW120627   3.394   6.154   0.605
 6576SOL    HW220628   3.336   6.047   0.496
 6577SOL     OW20629   1.187   1.878   3.291
 6577SOL    HW120630   1.184   1.786   3.330
 6577SOL    HW220631   1.240   1.938   3.351
 6578SOL     OW20632   1.137   6.003   1.705
 6578SOL    HW120633   1.187   6.070   1.651
 6578SOL    HW220634   1.049   6.042   1.734
 6579SOL     OW20635   6.840   2.990   4.173
 6579SOL    HW120636   6.774   2.919   4.195
 6579SOL    HW220637   6.832   3.065   4.239
 6580SOL     OW20638   0.707   1.975   0.142
 6580SOL    HW120639   0.802   1.990   0.168
 6580SOL    HW220640   0.692   2.006   0.048
 6581SOL     OW20641   1.757   1.045   1.164
 6581SOL    HW120642   1.810   0.992   1.098
 6581SOL    HW220643   1.801   1.039   1.254
 6582SOL     OW20644   0.067   0.334   2.713
 6582SOL    HW120645   0.067   0.258   2.778
 6582SOL    HW220646   0.161   0.364   2.697
 6583SOL     OW20647   4.882   6.361   5.209
 6583SOL    HW120648   4.861   6.437   5.147
 6583SOL    HW220649   4.797   6.324   5.247
 6584SOL     OW20650   3.654   1.964   0.858
 6584SOL    HW120651   3.653   2.023   0.777
 6584SOL    HW220652   3.627   1.871   0.833
 6585SOL     OW20653   6.286   6.135   6.836
 6585SOL    HW120654   6.314   6.086   6.918
 6585SOL    HW220655   6.264   6.070   6.763
 6586SOL     OW20656   6.463   1.853   5.898
 6586SOL    HW120657   6.499   1.795   5.970
 6586SOL    HW220658   6.404   1.799   5.838
 6587SOL     OW20659   1.525   4.834   6.642
 6587SOL    HW120660   1.441   4.873   6.603
 6587SOL    HW220661   1.585   4.908   6.672
 6588SOL     OW20662   0.352   3.349   1.789
 6588SOL    HW120663   0.399   3.324   1.705
 6588SOL    HW220664   0.281   3.282   1.810
 6589SOL     OW20665   4.186   0.858   2.024
 6589SOL    HW120666   4.185   0.852   2.124
 6589SOL    HW220667   4.219   0.771   1.986
 6590SOL     OW20668   0.767   0.225   5.898
 6590SOL    HW120669   0.795   0.239   5.993
 6590SOL    HW220670   0.780   0.130   5.873
 6591SOL     OW20671   5.504   6.014   3.968
 6591SOL    HW120672   5.526   5.919   3.989
 6591SOL    HW220673   5.462   6.057   4.048
 6592SOL     OW20674   4.795   6.398   2.756
 6592SOL    HW120675   4.736   6.415   2.677
 6592SOL    HW220676   4.891   6.405   2.728
 6593SOL     OW20677   2.699   2.320   2.230
 6593SOL    HW120678   2.673   2.223   2.239
 6593SOL    HW220679   2.756   2.331   2.149
 6594SOL     OW20680   3.314   1.299   5.674
 6594SOL    HW120681   3.318   1.298   5.774
 6594SOL    HW220682   3.308   1.393   5.641
 6595SOL     OW20683   1.441   3.865   6.052
 6595SOL    HW120684   1.434   3.877   6.151
 6595SOL    HW220685   1.356   3.895   6.009
 6596SOL     OW20686   3.306   6.592   3.666
 6596SOL    HW120687   3.312   6.526   3.591
 6596SOL    HW220688   3.398   6.612   3.700
 6597SOL     OW20689   2.071   5.201   2.120
 6597SOL    HW120690   2.132   5.232   2.048
 6597SOL    HW220691   1.993   5.154   2.080
 6598SOL     OW20692   1.725   4.930   3.971
 6598SOL    HW120693   1.756   4.999   3.905
 6598SOL    HW220694   1.625   4.932   3.976
 6599SOL     OW20695   4.270   5.905   6.554
 6599SOL    HW120696   4.208   5.982   6.535
 6599SOL    HW220697   4.275   5.847   6.473
 6600SOL     OW20698   3.714   6.745   4.469
 6600SOL    HW120699   3.650   6.692   4.525
 6600SOL    HW220700   3.808   6.728   4.500
 6601SOL     OW20701   0.770   1.947   3.652
 6601SOL    HW120702   0.675   1.916   3.653
 6601SOL    HW220703   0.819   1.902   3.578
 6602SOL     OW20704   1.763   0.325   1.658
 6602SOL    HW120705   1.679   0.376   1.679
 6602SOL    HW220706   1.804   0.362   1.575
 6603SOL     OW20707   0.787   2.966   3.917
 6603SOL    HW120708   0.819   2.962   3.822
 6603SOL    HW220709   0.864   2.956   3.979
 6604SOL     OW20710   2.048   6.825   1.674
 6604SOL    HW120711   2.068   6.862   1.583
 6604SOL    HW220712   2.053   6.725   1.671
 6605SOL     OW20713   5.631   5.943   2.605
 6605SOL    HW120714   5.619   5.877   2.531
 6605SOL    HW220715   5.561   5.928   2.675
 6606SOL     OW20716   6.654   4.818   2.250
 6606SOL    HW120717   6.586   4.801   2.321
 6606SOL    HW220718   6.711   4.895   2.276
 6607SOL     OW20719   0.232   5.118   3.342
 6607SOL    HW120720   0.217   5.150   3.435
 6607SOL    HW220721   0.327   5.135   3.315
 6608SOL     OW20722   6.849   6.525   0.178
 6608SOL    HW120723   6.843   6.431   0.145
 6608SOL    HW220724   6.770   6.577   0.146
 6609SOL     OW20725   5.320   1.078   6.605
 6609SOL    HW120726   5.307   1.077   6.704
 6609SOL    HW220727   5.356   0.990   6.575
 6610SOL     OW20728   2.507   6.673   0.359
 6610SOL    HW120729   2.586   6.613   0.352
 6610SOL    HW220730   2.533   6.766   0.333
 6611SOL     OW20731   4.867   2.994   3.377
 6611SOL    HW120732   4.798   2.976   3.308
 6611SOL    HW220733   4.953   2.950   3.351
 6612SOL     OW20734   0.099   2.330   6.180
 6612SOL    HW120735   0.003   2.345   6.201
 6612SOL    HW220736   0.107   2.293   6.087
 6613SOL     OW20737   5.897   6.655   5.525
 6613SOL    HW120738   5.811   6.616   5.492
 6613SOL    HW220739   5.924   6.609   5.610
 6614SOL     OW20740   4.553   6.623   0.327
 6614SOL    HW120741   4.510   6.663   0.246
 6614SOL    HW220742   4.602   6.693   0.377
 6615SOL     OW20743   1.439   6.013   1.181
 6615SOL    HW120744   1.472   6.091   1.128
 6615SOL    HW220745   1.432   6.039   1.278
 6616SOL     OW20746   4.738   0.057   6.157
 6616SOL    HW120747   4.751   6.984   6.202
 6616SOL    HW220748   4.738   0.045   6.058
 6617SOL     OW20749   4.183   6.044   3.352
 6617SOL    HW120750   4.171   6.056   3.253
 6617SOL    HW220751   4.093   6.040   3.395
 6618SOL     OW20752   1.193   1.843   2.588
 6618SOL    HW120753   1.110   1.897   2.573
 6618SOL    HW220754   1.259   1.861   2.514
 6619SOL     OW20755   4.724   6.991   3.624
 6619SOL    HW120756   4.726   0.048   3.692
 6619SOL    HW220757   4.751   0.013   3.535
 6620SOL     OW20758   2.077   3.274   4.950
 6620SOL    HW120759   2.026   3.339   5.006
 6620SOL    HW220760   2.124   3.208   5.008
 6621SOL     OW20761   3.764   2.918   5.309
 6621SOL    HW120762   3.819   2.840   5.339
 6621SOL    HW220763   3.769   2.927   5.210
 6622SOL     OW20764   6.370   5.820   1.951
 6622SOL    HW120765   6.338   5.820   1.856
 6622SOL    HW220766   6.301   5.775   2.008
 6623SOL     OW20767   3.443   3.772   4.934
 6623SOL    HW120768   3.522   3.834   4.935
 6623SOL    HW220769   3.371   3.812   4.876
 6624SOL     OW20770   0.943   3.712   5.336
 6624SOL    HW120771   0.889   3.629   5.320
 6624SOL    HW220772   0.951   3.764   5.251
 6625SOL     OW20773   5.011   1.835   4.933
 6625SOL    HW120774   4.927   1.783   4.915
 6625SOL    HW220775   5.062   1.846   4.848
 6626SOL     OW20776   3.499   0.172   5.698
 6626SOL    HW120777   3.460   0.182   5.789
 6626SOL    HW220778   3.529   0.077   5.685
 6627SOL     OW20779   1.824   6.720   4.066
 6627SOL    HW120780   1.887   6.714   4.144
 6627SOL    HW220781   1.875   6.746   3.984
 6628SOL     OW20782   5.679   4.800   4.369
 6628SOL    HW120783   5.748   4.816   4.439
 6628SOL    HW220784   5.698   4.858   4.289
 6629SOL     OW20785   4.886   5.852   6.250
 6629SOL    HW120786   4.968   5.868   6.195
 6629SOL    HW220787   4.907   5.868   6.347
 6630SOL     OW20788   3.481   2.320   1.439
 6630SOL    HW120789   3.579   2.325   1.459
 6630SOL    HW220790   3.445   2.232   1.469
 6631SOL     OW20791   2.313   5.971   4.419
 6631SOL    HW120792   2.236   6.001   4.476
 6631SOL    HW220793   2.285   5.893   4.363
 6632SOL     OW20794   1.427   0.921   0.997
 6632SOL    HW120795   1.347   0.902   1.053
 6632SOL    HW220796   1.414   0.882   0.906
 6633SOL     OW20797   2.105   4.917   6.113
 6633SOL    HW120798   2.020   4.967   6.131
 6633SOL    HW220799   2.084   4.834   6.060
 6634SOL     OW20800   4.932   2.022   5.134
 6634SOL    HW120801   4.877   1.955   5.185
 6634SOL    HW220802   4.979   1.977   5.058
 6635SOL     OW20803   4.784   4.528   3.336
 6635SOL    HW120804   4.813   4.495   3.246
 6635SOL    HW220805   4.688   4.503   3.351
 6636SOL     OW20806   4.401   1.977   0.636
 6636SOL    HW120807   4.354   1.911   0.694
 6636SOL    HW220808   4.443   1.929   0.558
 6637SOL     OW20809   2.195   6.848   6.487
 6637SOL    HW120810   2.186   6.821   6.583
 6637SOL    HW220811   2.114   6.817   6.436
 6638SOL     OW20812   3.402   3.185   3.108
 6638SOL    HW120813   3.455   3.258   3.065
 6638SOL    HW220814   3.305   3.196   3.084
 6639SOL     OW20815   3.592   3.787   6.975
 6639SOL    HW120816   3.644   3.841   6.909
 6639SOL    HW220817   3.548   3.849   0.025
 6640SOL     OW20818   0.173   1.971   4.692
 6640SOL    HW120819   0.132   1.925   4.771
 6640SOL    HW220820   0.124   1.944   4.609
 6641SOL     OW20821   3.573   1.493   0.189
 6641SOL    HW120822   3.645   1.454   0.246
 6641SOL    HW220823   3.484   1.470   0.227
 6642SOL     OW20824   2.774   5.069   6.084
 6642SOL    HW120825   2.754   4.982   6.038
 6642SOL    HW220826   2.693   5.099   6.134
 6643SOL     OW20827   6.441   6.450   0.190
 6643SOL    HW120828   6.476   6.542   0.209
 6643SOL    HW220829   6.403   6.448   0.097
 6644SOL     OW20830   2.172   5.911   2.712
 6644SOL    HW120831   2.195   5.875   2.802
 6644SOL    HW220832   2.242   5.977   2.684
 6645SOL     OW20833   5.565   3.664   0.508
 6645SOL    HW120834   5.572   3.592   0.577
 6645SOL    HW220835   5.613   3.635   0.425
 6646SOL     OW20836   4.494   1.361   5.426
 6646SOL    HW120837   4.524   1.455   5.410
 6646SOL    HW220838   4.406   1.362   5.474
 6647SOL     OW20839   4.555   6.889   0.689
 6647SOL    HW120840   4.618   6.929   0.622
 6647SOL    HW220841   4.513   6.807   0.651
 6648SOL     OW20842   2.811   6.726   4.729
 6648SOL    HW120843   2.752   6.652   4.760
 6648SOL    HW220844   2.806   6.802   4.795
 6649SOL     OW20845   6.061   2.364   5.917
 6649SOL    HW120846   6.154   2.379   5.885
 6649SOL    HW220847   6.013   2.452   5.925
 6650SOL     OW20848   4.165   1.755   4.704
 6650SOL    HW120849   4.248   1.737   4.756
 6650SOL    HW220850   4.088   1.770   4.766
 6651SOL     OW20851   1.665   1.367   6.061
 6651SOL    HW120852   1.658   1.268   6.068
 6651SOL    HW220853   1.618   1.410   6.139
 6652SOL     OW20854   0.343   4.792   6.671
 6652SOL    HW120855   0.358   4.767   6.575
 6652SOL    HW220856   0.255   4.839   6.679
 6653SOL     OW20857   4.354   2.649   1.116
 6653SOL    HW120858   4.303   2.614   1.038
 6653SOL    HW220859   4.449   2.620   1.110
 6654SOL     OW20860   1.322   5.360   2.606
 6654SOL    HW120861   1.304   5.334   2.701
 6654SOL    HW220862   1.358   5.454   2.604
 6655SOL     OW20863   6.874   6.277   2.504
 6655SOL    HW120864   6.835   6.263   2.595
 6655SOL    HW220865   6.815   6.234   2.436
 6656SOL     OW20866   5.675   2.315   2.884
 6656SOL    HW120867   5.719   2.280   2.802
 6656SOL    HW220868   5.726   2.285   2.965
 6657SOL     OW20869   6.436   3.549   4.840
 6657SOL    HW120870   6.429   3.618   4.768
 6657SOL    HW220871   6.531   3.519   4.847
 6658SOL     OW20872   5.250   6.638   5.823
 6658SOL    HW120873   5.350   6.643   5.831
 6658SOL    HW220874   5.226   6.589   5.740
 6659SOL     OW20875   1.377   3.240   1.306
 6659SOL    HW120876   1.391   3.327   1.353
 6659SOL    HW220877   1.295   3.195   1.343
 6660SOL     OW20878   1.630   5.179   1.550
 6660SOL    HW120879   1.585   5.269   1.545
 6660SOL    HW220880   1.728   5.192   1.567
 6661SOL     OW20881   2.376   6.963   5.569
 6661SOL    HW120882   2.323   6.926   5.492
 6661SOL    HW220883   2.437   0.019   5.536
 6662SOL     OW20884   1.947   0.668   0.426
 6662SOL    HW120885   2.010   0.655   0.350
 6662SOL    HW220886   1.980   0.742   0.485
 6663SOL     OW20887   6.407   6.040   4.829
 6663SOL    HW120888   6.331   6.050   4.894
 6663SOL    HW220889   6.375   5.989   4.749
 6664SOL     OW20890   2.465   0.234   1.219
 6664SOL    HW120891   2.415   0.269   1.140
 6664SOL    HW220892   2.514   0.151   1.194
 6665SOL     OW20893   1.842   6.647   5.197
 6665SOL    HW120894   1.921   6.698   5.232
 6665SOL    HW220895   1.763   6.663   5.257
 6666SOL     OW20896   6.395   5.791   5.835
 6666SOL    HW120897   6.429   5.823   5.923
 6666SOL    HW220898   6.470   5.750   5.783
 6667SOL     OW20899   0.089   6.836   5.495
 6667SOL    HW120900   0.096   6.755   5.437
 6667SOL    HW220901   0.177   6.851   5.540
 6668SOL     OW20902   6.518   6.366   1.122
 6668SOL    HW120903   6.458   6.445   1.138
 6668SOL    HW220904   6.465   6.282   1.130
 6669SOL     OW20905   3.201   2.314   1.734
 6669SOL    HW120906   3.192   2.314   1.635
 6669SOL    HW220907   3.127   2.367   1.775
 6670SOL     OW20908   3.111   0.874   6.553
 6670SOL    HW120909   3.060   0.959   6.540
 6670SOL    HW220910   3.050   0.796   6.537
 6671SOL     OW20911   5.774   6.586   6.789
 6671SOL    HW120912   5.850   6.589   6.854
 6671SOL    HW220913   5.810   6.599   6.696
 6672SOL     OW20914   0.373   2.119   0.463
 6672SOL    HW120915   0.433   2.166   0.528
 6672SOL    HW220916   0.305   2.183   0.428
 6673SOL     OW20917   4.780   4.107   3.679
 6673SOL    HW120918   4.805   4.046   3.603
 6673SOL    HW220919   4.800   4.062   3.766
 6674SOL     OW20920   0.559   3.922   0.176
 6674SOL    HW120921   0.618   4.001   0.158
 6674SOL    HW220922   0.495   3.945   0.251
 6675SOL     OW20923   6.006   2.649   0.137
 6675SOL    HW120924   6.020   2.572   0.074
 6675SOL    HW220925   6.044   2.732   0.097
 6676SOL     OW20926   0.780   3.437   4.380
 6676SOL    HW120927   0.842   3.505   4.339
 6676SOL    HW220928   0.797   3.433   4.478
 6677SOL     OW20929   0.651   1.320   6.435
 6677SOL    HW120930   0.578   1.255   6.412
 6677SOL    HW220931   0.688   1.298   6.525
 6678SOL     OW20932   2.972   4.689   0.754
 6678SOL    HW120933   3.052   4.727   0.801
 6678SOL    HW220934   2.934   4.614   0.808
 6679SOL     OW20935   3.812   0.469   3.907
 6679SOL    HW120936   3.805   0.543   3.973
 6679SOL    HW220937   3.857   0.390   3.950
 6680SOL     OW20938   4.224   6.343   6.854
 6680SOL    HW120939   4.316   6.322   6.821
 6680SOL    HW220940   4.165   6.368   6.777
 6681SOL     OW20941   4.984   5.750   0.924
 6681SOL    HW120942   5.066   5.694   0.935
 6681SOL    HW220943   4.962   5.760   0.827
 6682SOL     OW20944   2.233   5.165   0.106
 6682SOL    HW120945   2.207   5.073   0.079
 6682SOL    HW220946   2.333   5.174   0.102
 6683SOL     OW20947   6.071   3.276   5.726
 6683SOL    HW120948   5.992   3.262   5.786
 6683SOL    HW220949   6.043   3.260   5.631
 6684SOL     OW20950   4.064   6.711   2.333
 6684SOL    HW120951   4.009   6.786   2.295
 6684SOL    HW220952   4.074   6.726   2.432
 6685SOL     OW20953   4.903   2.778   6.009
 6685SOL    HW120954   4.965   2.849   5.977
 6685SOL    HW220955   4.851   2.742   5.931
 6686SOL     OW20956   5.519   5.499   3.928
 6686SOL    HW120957   5.456   5.549   3.870
 6686SOL    HW220958   5.565   5.427   3.875
 6687SOL     OW20959   0.656   2.881   2.582
 6687SOL    HW120960   0.646   2.785   2.608
 6687SOL    HW220961   0.637   2.939   2.661
 6688SOL     OW20962   4.080   5.016   1.020
 6688SOL    HW120963   4.068   5.085   0.949
 6688SOL    HW220964   4.157   5.041   1.078
 6689SOL     OW20965   4.428   4.072   5.489
 6689SOL    HW120966   4.343   4.079   5.437
 6689SOL    HW220967   4.456   3.976   5.493
 6690SOL     OW20968   0.798   0.019   0.864
 6690SOL    HW120969   0.743   6.959   0.898
 6690SOL    HW220970   0.802   0.092   0.933
 6691SOL     OW20971   1.947   0.468   2.481
 6691SOL    HW120972   1.896   0.475   2.566
 6691SOL    HW220973   2.043   0.494   2.497
 6692SOL     OW20974   3.954   3.943   3.022
 6692SOL    HW120975   3.994   3.958   2.932
 6692SOL    HW220976   3.919   4.029   3.058
 6693SOL     OW20977   4.382   2.432   4.823
 6693SOL    HW120978   4.361   2.369   4.747
 6693SOL    HW220979   4.319   2.415   4.898
 6694SOL     OW20980   4.254   6.499   1.891
 6694SOL    HW120981   4.164   6.526   1.856
 6694SOL    HW220982   4.300   6.579   1.931
 6695SOL     OW20983   2.955   2.555   6.622
 6695SOL    HW120984   2.971   2.463   6.585
 6695SOL    HW220985   3.000   2.563   6.711
 6696SOL     OW20986   3.930   3.028   3.784
 6696SOL    HW120987   3.979   2.995   3.703
 6696SOL    HW220988   3.845   3.071   3.755
 6697SOL     OW20989   4.811   1.632   3.277
 6697SOL    HW120990   4.905   1.639   3.245
 6697SOL    HW220991   4.760   1.568   3.220
 6698SOL     OW20992   2.956   3.293   0.966
 6698SOL    HW120993   2.862   3.319   0.987
 6698SOL    HW220994   2.960   3.194   0.949
 6699SOL     OW20995   2.070   6.484   5.730
 6699SOL    HW120996   2.161   6.520   5.747
 6699SOL    HW220997   2.025   6.537   5.658
 6700SOL     OW20998   6.969   1.963   1.362
 6700SOL    HW120999   6.892   2.020   1.392
 6700SOL    HW221000   0.040   2.007   1.388
 6701SOL     OW21001   5.426   5.721   2.096
 6701SOL    HW121002   5.454   5.646   2.156
 6701SOL    HW221003   5.418   5.805   2.150
 6702SOL     OW21004   1.876   2.500   1.961
 6702SOL    HW121005   1.837   2.427   2.017
 6702SOL    HW221006   1.812   2.577   1.958
 6703SOL     OW21007   6.758   0.144   0.838
 6703SOL    HW121008   6.694   0.080   0.796
 6703SOL    HW221009   6.852   0.117   0.817
 6704SOL     OW21010   4.184   2.248   3.499
 6704SOL    HW121011   4.116   2.223   3.430
 6704SOL    HW221012   4.254   2.307   3.457
 6705SOL     OW21013   5.942   2.958   0.664
 6705SOL    HW121014   5.937   2.984   0.761
 6705SOL    HW221015   5.882   3.018   0.611
 6706SOL     OW21016   0.648   5.692   0.858
 6706SOL    HW121017   0.677   5.758   0.789
 6706SOL    HW221018   0.727   5.665   0.913
 6707SOL     OW21019   5.639   6.306   3.557
 6707SOL    HW121020   5.629   6.261   3.646
 6707SOL    HW221021   5.556   6.358   3.537
 6708SOL     OW21022   5.670   5.265   1.390
 6708SOL    HW121023   5.586   5.216   1.415
 6708SOL    HW221024   5.675   5.271   1.290
 6709SOL     OW21025   1.023   5.336   2.766
 6709SOL    HW121026   1.070   5.249   2.780
 6709SOL    HW221027   1.036   5.366   2.671
 6710SOL     OW21028   3.745   0.494   6.578
 6710SOL    HW121029   3.748   0.489   6.478
 6710SOL    HW221030   3.827   0.540   6.611
 6711SOL     OW21031   4.895   6.259   5.866
 6711SOL    HW121032   4.852   6.170   5.882
 6711SOL    HW221033   4.959   6.278   5.941
 6712SOL     OW21034   5.671   3.447   1.252
 6712SOL    HW121035   5.584   3.496   1.253
 6712SOL    HW221036   5.684   3.404   1.163
 6713SOL     OW21037   0.880   0.486   3.299
 6713SOL    HW121038   0.795   0.533   3.274
 6713SOL    HW221039   0.958   0.543   3.274
 6714SOL     OW21040   6.666   1.546   6.518
 6714SOL    HW121041   6.732   1.510   6.584
 6714SOL    HW221042   6.640   1.473   6.453
 6715SOL     OW21043   1.897   0.374   1.439
 6715SOL    HW121044   1.823   0.381   1.372
 6715SOL    HW221045   1.983   0.353   1.391
 6716SOL     OW21046   0.310   5.810   1.836
 6716SOL    HW121047   0.379   5.783   1.768
 6716SOL    HW221048   0.329   5.763   1.922
 6717SOL     OW21049   3.325   2.859   6.177
 6717SOL    HW121050   3.297   2.793   6.107
 6717SOL    HW221051   3.269   2.941   6.171
 6718SOL     OW21052   4.352   6.999   1.022
 6718SOL    HW121053   4.260   0.016   1.043
 6718SOL    HW221054   4.381   0.021   0.934
 6719SOL     OW21055   2.242   0.008   0.349
 6719SOL    HW121056   2.194   6.959   0.291
 6719SOL    HW221057   2.341   7.009   0.341
 6720SOL     OW21058   2.137   0.822   3.458
 6720SOL    HW121059   2.149   0.827   3.557
 6720SOL    HW221060   2.058   0.765   3.436
 6721SOL     OW21061   0.056   6.542   0.940
 6721SOL    HW121062   0.004   6.586   0.867
 6721SOL    HW221063   0.037   6.444   0.940
 6722SOL     OW21064   6.985   2.602   0.250
 6722SOL    HW121065   6.992   2.534   0.323
 6722SOL    HW221066   0.057   2.648   0.239
 6723SOL     OW21067   1.447   6.808   5.035
 6723SOL    HW121068   1.489   6.740   4.974
 6723SOL    HW221069   1.388   6.868   4.981
 6724SOL     OW21070   1.903   2.956   6.092
 6724SOL    HW121071   1.883   2.867   6.135
 6724SOL    HW221072   1.999   2.979   6.107
 6725SOL     OW21073   0.078   2.576   1.928
 6725SOL    HW121074   0.167   2.587   1.885
 6725SOL    HW221075   0.014   2.536   1.862
 6726SOL     OW21076   0.299   2.523   3.723
 6726SOL    HW121077   0.268   2.618   3.717
 6726SOL    HW221078   0.240   2.465   3.665
 6727SOL     OW21079   0.135   4.896   5.631
 6727SOL    HW121080   0.203   4.822   5.632
 6727SOL    HW221081   0.068   4.881   5.703
 6728SOL     OW21082   3.949   2.162   2.938
 6728SOL    HW121083   3.942   2.166   2.839
 6728SOL    HW221084   4.037   2.199   2.967
 6729SOL     OW21085   0.198   1.585   0.385
 6729SOL    HW121086   0.265   1.513   0.366
 6729SOL    HW221087   0.178   1.636   0.301
 6730SOL     OW21088   2.297   6.997   1.033
 6730SOL    HW121089   2.357   7.003   1.113
 6730SOL    HW221090   2.227   6.928   1.049
 6731SOL     OW21091   1.561   6.745   0.936
 6731SOL    HW121092   1.478   6.785   0.975
 6731SOL    HW221093   1.538   6.661   0.888
 6732SOL     OW21094   5.807   4.587   4.664
 6732SOL    HW121095   5.779   4.679   4.636
 6732SOL    HW221096   5.850   4.592   4.754
 6733SOL     OW21097   3.969   5.222   6.578
 6733SOL    HW121098   3.962   5.321   6.568
 6733SOL    HW221099   3.971   5.179   6.487
 6734SOL     OW21100   5.746   2.392   5.218
 6734SOL    HW121101   5.816   2.461   5.240
 6734SOL    HW221102   5.779   2.302   5.245
 6735SOL     OW21103   6.180   3.615   4.922
 6735SOL    HW121104   6.277   3.597   4.939
 6735SOL    HW221105   6.169   3.653   4.830
 6736SOL     OW21106   2.923   3.556   6.615
 6736SOL    HW121107   2.906   3.654   6.607
 6736SOL    HW221108   2.863   3.518   6.685
 6737SOL     OW21109   1.562   3.129   0.887
 6737SOL    HW121110   1.565   3.077   0.972
 6737SOL    HW221111   1.559   3.065   0.809
 6738SOL     OW21112   1.476   5.837   4.309
 6738SOL    HW121113   1.485   5.788   4.222
 6738SOL    HW221114   1.387   5.883   4.312
 6739SOL     OW21115   5.730   6.387   3.948
 6739SOL    HW121116   5.673   6.434   4.016
 6739SOL    HW221117   5.677   6.312   3.907
 6740SOL     OW21118   6.554   0.260   5.760
 6740SOL    HW121119   6.554   0.306   5.671
 6740SOL    HW221120   6.487   0.187   5.760
 6741SOL     OW21121   3.463   2.878   5.212
 6741SOL    HW121122   3.511   2.909   5.130
 6741SOL    HW221123   3.512   2.799   5.251
 6742SOL     OW21124   5.946   5.836   3.221
 6742SOL    HW121125   6.039   5.830   3.258
 6742SOL    HW221126   5.945   5.798   3.129
 6743SOL     OW21127   3.998   4.617   6.456
 6743SOL    HW121128   4.092   4.635   6.428
 6743SOL    HW221129   3.950   4.703   6.470
 6744SOL     OW21130   0.209   5.995   5.667
 6744SOL    HW121131   0.244   5.905   5.692
 6744SOL    HW221132   0.230   6.061   5.739
 6745SOL     OW21133   0.015   6.282   3.557
 6745SOL    HW121134   0.110   6.310   3.542
 6745SOL    HW221135   0.013   6.204   3.620
 6746SOL     OW21136   0.386   0.225   3.801
 6746SOL    HW121137   0.373   0.259   3.894
 6746SOL    HW221138   0.402   0.126   3.804
 6747SOL     OW21139   5.895   0.765   6.595
 6747SOL    HW121140   5.862   0.791   6.686
 6747SOL    HW221141   5.972   0.823   6.570
 6748SOL     OW21142   4.119   1.594   2.830
 6748SOL    HW121143   4.102   1.538   2.749
 6748SOL    HW221144   4.036   1.643   2.855
 6749SOL     OW21145   3.837   4.157   0.828
 6749SOL    HW121146   3.902   4.152   0.905
 6749SOL    HW221147   3.762   4.218   0.853
 6750SOL     OW21148   3.534   2.003   4.074
 6750SOL    HW121149   3.608   1.937   4.066
 6750SOL    HW221150   3.541   2.052   4.161
 6751SOL     OW21151   5.191   0.631   3.225
 6751SOL    HW121152   5.204   0.680   3.138
 6751SOL    HW221153   5.280   0.620   3.270
 6752SOL     OW21154   2.292   6.588   2.608
 6752SOL    HW121155   2.324   6.555   2.697
 6752SOL    HW221156   2.356   6.656   2.572
 6753SOL     OW21157   3.145   1.229   6.313
 6753SOL    HW121158   3.156   1.152   6.249
 6753SOL    HW221159   3.235   1.259   6.344
 6754SOL     OW21160   6.690   0.735   0.573
 6754SOL    HW121161   6.611   0.796   0.578
 6754SOL    HW221162   6.663   0.648   0.531
 6755SOL     OW21163   4.242   2.528   1.503
 6755SOL    HW121164   4.248   2.619   1.462
 6755SOL    HW221165   4.327   2.507   1.551
 6756SOL     OW21166   3.782   6.265   5.059
 6756SOL    HW121167   3.818   6.172   5.055
 6756SOL    HW221168   3.800   6.311   4.972
 6757SOL     OW21169   3.196   1.939   0.131
 6757SOL    HW121170   3.125   1.954   0.200
 6757SOL    HW221171   3.244   1.854   0.151
 6758SOL     OW21172   6.080   2.401   1.613
 6758SOL    HW121173   6.122   2.463   1.679
 6758SOL    HW221174   5.998   2.443   1.575
 6759SOL     OW21175   0.563   3.913   2.946
 6759SOL    HW121176   0.609   3.825   2.939
 6759SOL    HW221177   0.483   3.905   3.005
 6760SOL     OW21178   6.857   3.224   2.239
 6760SOL    HW121179   6.829   3.216   2.334
 6760SOL    HW221180   6.882   3.134   2.203
 6761SOL     OW21181   6.310   2.614   4.999
 6761SOL    HW121182   6.278   2.667   4.921
 6761SOL    HW221183   6.323   2.518   4.970
 6762SOL     OW21184   0.997   4.068   4.430
 6762SOL    HW121185   0.948   3.987   4.399
 6762SOL    HW221186   1.018   4.060   4.527
 6763SOL     OW21187   6.620   5.327   3.819
 6763SOL    HW121188   6.546   5.271   3.856
 6763SOL    HW221189   6.615   5.327   3.719
 6764SOL     OW21190   2.167   5.920   1.858
 6764SOL    HW121191   2.193   5.934   1.954
 6764SOL    HW221192   2.250   5.921   1.802
 6765SOL     OW21193   5.705   4.968   4.168
 6765SOL    HW121194   5.787   5.013   4.132
 6765SOL    HW221195   5.627   5.031   4.162
 6766SOL     OW21196   5.169   6.214   5.667
 6766SOL    HW121197   5.180   6.311   5.643
 6766SOL    HW221198   5.251   6.183   5.715
 6767SOL     OW21199   2.627   0.939   1.461
 6767SOL    HW121200   2.618   0.917   1.558
 6767SOL    HW221201   2.723   0.936   1.434
 6768SOL     OW21202   1.586   0.407   5.070
 6768SOL    HW121203   1.565   0.467   5.147
 6768SOL    HW221204   1.630   0.459   4.997
 6769SOL     OW21205   3.274   0.533   6.584
 6769SOL    HW121206   3.315   0.617   6.621
 6769SOL    HW221207   3.194   0.509   6.640
 6770SOL     OW21208   0.100   1.012   2.066
 6770SOL    HW121209   0.057   1.069   1.996
 6770SOL    HW221210   0.178   0.964   2.026
 6771SOL     OW21211   5.148   1.942   3.451
 6771SOL    HW121212   5.065   1.892   3.474
 6771SOL    HW221213   5.125   2.037   3.429
 6772SOL     OW21214   3.939   2.170   2.663
 6772SOL    HW121215   3.846   2.173   2.699
 6772SOL    HW221216   3.936   2.149   2.565
 6773SOL     OW21217   6.366   4.900   2.232
 6773SOL    HW121218   6.407   4.854   2.311
 6773SOL    HW221219   6.436   4.916   2.163
 6774SOL     OW21220   1.082   2.944   5.509
 6774SOL    HW121221   1.137   2.860   5.509
 6774SOL    HW221222   1.142   3.023   5.501
 6775SOL     OW21223   2.351   2.577   1.833
 6775SOL    HW121224   2.387   2.546   1.745
 6775SOL    HW221225   2.380   2.513   1.905
 6776SOL     OW21226   4.670   4.473   0.134
 6776SOL    HW121227   4.722   4.428   0.062
 6776SOL    HW221228   4.733   4.527   0.191
 6777SOL     OW21229   4.298   4.399   0.567
 6777SOL    HW121230   4.395   4.390   0.588
 6777SOL    HW221231   4.269   4.320   0.512
 6778SOL     OW21232   6.249   5.315   1.724
 6778SOL    HW121233   6.164   5.278   1.687
 6778SOL    HW221234   6.322   5.306   1.656
 6779SOL     OW21235   5.807   5.223   6.865
 6779SOL    HW121236   5.789   5.320   6.852
 6779SOL    HW221237   5.769   5.193   6.952
 6780SOL     OW21238   1.250   2.643   2.442
 6780SOL    HW121239   1.230   2.705   2.366
 6780SOL    HW221240   1.228   2.688   2.528
 6781SOL     OW21241   6.450   1.570   4.105
 6781SOL    HW121242   6.498   1.483   4.115
 6781SOL    HW221243   6.494   1.639   4.163
 6782SOL     OW21244   7.003   1.127   3.511
 6782SOL    HW121245   6.920   1.079   3.542
 6782SOL    HW221246   0.013   1.094   3.420
 6783SOL     OW21247   6.322   2.041   5.388
 6783SOL    HW121248   6.321   1.970   5.458
 6783SOL    HW221249   6.260   2.115   5.414
 6784SOL     OW21250   2.205   3.216   0.512
 6784SOL    HW121251   2.245   3.129   0.541
 6784SOL    HW221252   2.269   3.290   0.530
 6785SOL     OW21253   6.345   5.190   3.960
 6785SOL    HW121254   6.412   5.116   3.954
 6785SOL    HW221255   6.347   5.229   4.052
 6786SOL     OW21256   1.921   2.512   0.180
 6786SOL    HW121257   1.879   2.581   0.238
 6786SOL    HW221258   1.951   2.435   0.236
 6787SOL     OW21259   2.095   2.566   0.903
 6787SOL    HW121260   2.045   2.481   0.886
 6787SOL    HW221261   2.037   2.644   0.884
 6788SOL     OW21262   1.858   3.873   1.528
 6788SOL    HW121263   1.948   3.833   1.512
 6788SOL    HW221264   1.819   3.834   1.612
 6789SOL     OW21265   0.417   5.281   2.919
 6789SOL    HW121266   0.338   5.228   2.950
 6789SOL    HW221267   0.387   5.351   2.854
 6790SOL     OW21268   0.305   3.736   0.966
 6790SOL    HW121269   0.319   3.669   0.894
 6790SOL    HW221270   0.386   3.738   1.025
 6791SOL     OW21271   4.139   2.254   1.709
 6791SOL    HW121272   4.094   2.179   1.757
 6791SOL    HW221273   4.078   2.333   1.705
 6792SOL     OW21274   6.544   6.154   5.196
 6792SOL    HW121275   6.471   6.119   5.137
 6792SOL    HW221276   6.544   6.254   5.193
 6793SOL     OW21277   1.648   1.961   1.043
 6793SOL    HW121278   1.619   1.899   1.116
 6793SOL    HW221279   1.748   1.965   1.041
 6794SOL     OW21280   4.754   1.426   6.051
 6794SOL    HW121281   4.832   1.445   5.992
 6794SOL    HW221282   4.670   1.428   5.997
 6795SOL     OW21283   2.610   6.689   1.189
 6795SOL    HW121284   2.546   6.715   1.262
 6795SOL    HW221285   2.558   6.658   1.109
 6796SOL     OW21286   6.710   0.013   1.977
 6796SOL    HW121287   6.749   6.946   1.936
 6796SOL    HW221288   6.613   0.021   1.952
 6797SOL     OW21289   6.462   2.157   1.532
 6797SOL    HW121290   6.436   2.222   1.460
 6797SOL    HW221291   6.405   2.173   1.612
 6798SOL     OW21292   4.983   0.056   2.243
 6798SOL    HW121293   5.044   0.077   2.320
 6798SOL    HW221294   5.029   0.079   2.157
 6799SOL     OW21295   6.515   6.491   1.758
 6799SOL    HW121296   6.511   6.401   1.802
 6799SOL    HW221297   6.611   6.517   1.746
 6800SOL     OW21298   2.178   3.575   1.733
 6800SOL    HW121299   2.237   3.512   1.783
 6800SOL    HW221300   2.228   3.614   1.656
 6801SOL     OW21301   1.037   6.812   3.414
 6801SOL    HW121302   1.116   6.871   3.405
 6801SOL    HW221303   1.000   6.791   3.323
 6802SOL     OW21304   3.330   5.988   1.219
 6802SOL    HW121305   3.264   6.029   1.281
 6802SOL    HW221306   3.319   6.027   1.127
 6803SOL     OW21307   4.784   2.746   5.746
 6803SOL    HW121308   4.835   2.660   5.741
 6803SOL    HW221309   4.686   2.728   5.735
 6804SOL     OW21310   3.593   5.543   3.906
 6804SOL    HW121311   3.678   5.594   3.913
 6804SOL    HW221312   3.550   5.538   3.996
 6805SOL     OW21313   6.899   4.836   6.135
 6805SOL    HW121314   6.962   4.873   6.204
 6805SOL    HW221315   6.916   4.739   6.122
 6806SOL     OW21316   5.930   0.451   3.167
 6806SOL    HW121317   5.933   0.412   3.074
 6806SOL    HW221318   6.005   0.413   3.221
 6807SOL     OW21319   3.209   3.076   0.542
 6807SOL    HW121320   3.159   3.162   0.556
 6807SOL    HW221321   3.271   3.060   0.619
 6808SOL     OW21322   6.694   2.299   5.398
 6808SOL    HW121323   6.719   2.308   5.301
 6808SOL    HW221324   6.769   2.254   5.447
 6809SOL     OW21325   0.875   2.807   1.181
 6809SOL    HW121326   0.779   2.781   1.183
 6809SOL    HW221327   0.887   2.897   1.225
 6810SOL     OW21328   1.366   1.103   2.591
 6810SOL    HW121329   1.323   1.070   2.507
 6810SOL    HW221330   1.383   1.026   2.653
 6811SOL     OW21331   6.238   4.067   1.214
 6811SOL    HW121332   6.258   4.082   1.310
 6811SOL    HW221333   6.191   4.147   1.176
 6812SOL     OW21334   2.896   3.303   3.625
 6812SOL    HW121335   2.965   3.370   3.650
 6812SOL    HW221336   2.820   3.307   3.690
 6813SOL     OW21337   5.138   2.445   2.378
 6813SOL    HW121338   5.123   2.376   2.448
 6813SOL    HW221339   5.055   2.455   2.324
 6814SOL     OW21340   3.359   1.872   6.249
 6814SOL    HW121341   3.417   1.907   6.322
 6814SOL    HW221342   3.263   1.893   6.270
 6815SOL     OW21343   3.382   6.931   1.403
 6815SOL    HW121344   3.349   6.944   1.309
 6815SOL    HW221345   3.340   6.999   1.463
 6816SOL     OW21346   6.522   6.881   6.707
 6816SOL    HW121347   6.614   6.854   6.680
 6816SOL    HW221348   6.471   6.909   6.626
 6817SOL     OW21349   1.861   2.367   2.634
 6817SOL    HW121350   1.881   2.340   2.728
 6817SOL    HW221351   1.947   2.377   2.584
 6818SOL     OW21352   3.160   6.071   2.408
 6818SOL    HW121353   3.138   6.042   2.501
 6818SOL    HW221354   3.247   6.119   2.407
 6819SOL     OW21355   5.246   1.566   3.926
 6819SOL    HW121356   5.303   1.629   3.873
 6819SOL    HW221357   5.293   1.479   3.937
 6820SOL     OW21358   2.089   5.489   2.192
 6820SOL    HW121359   2.140   5.503   2.276
 6820SOL    HW221360   2.101   5.395   2.160
 6821SOL     OW21361   3.755   1.787   5.115
 6821SOL    HW121362   3.657   1.764   5.115
 6821SOL    HW221363   3.766   1.885   5.101
 6822SOL     OW21364   5.301   2.523   6.330
 6822SOL    HW121365   5.201   2.518   6.325
 6822SOL    HW221366   5.341   2.434   6.309
 6823SOL     OW21367   4.317   3.336   5.566
 6823SOL    HW121368   4.399   3.304   5.518
 6823SOL    HW221369   4.252   3.374   5.501
 6824SOL     OW21370   0.845   2.057   6.189
 6824SOL    HW121371   0.854   2.152   6.159
 6824SOL    HW221372   0.797   2.055   6.277
 6825SOL     OW21373   5.155   6.550   1.714
 6825SOL    HW121374   5.151   6.643   1.750
 6825SOL    HW221375   5.245   6.510   1.733
 6826SOL     OW21376   1.794   3.543   2.916
 6826SOL    HW121377   1.865   3.529   2.984
 6826SOL    HW221378   1.709   3.499   2.947
 6827SOL     OW21379   4.585   5.809   5.664
 6827SOL    HW121380   4.558   5.726   5.615
 6827SOL    HW221381   4.674   5.795   5.707
 6828SOL     OW21382   3.067   1.993   1.615
 6828SOL    HW121383   3.055   1.992   1.714
 6828SOL    HW221384   3.044   1.903   1.578
 6829SOL     OW21385   4.324   6.694   4.053
 6829SOL    HW121386   4.349   6.599   4.034
 6829SOL    HW221387   4.268   6.699   4.135
 6830SOL     OW21388   5.602   1.105   3.650
 6830SOL    HW121389   5.590   1.184   3.711
 6830SOL    HW221390   5.514   1.061   3.634
 6831SOL     OW21391   1.717   0.461   6.899
 6831SOL    HW121392   1.668   0.457   6.986
 6831SOL    HW221393   1.651   0.480   6.825
 6832SOL     OW21394   3.143   4.339   0.996
 6832SOL    HW121395   3.060   4.294   1.029
 6832SOL    HW221396   3.215   4.271   0.983
 6833SOL     OW21397   3.376   4.520   6.487
 6833SOL    HW121398   3.289   4.469   6.485
 6833SOL    HW221399   3.357   4.617   6.506
 6834SOL     OW21400   4.790   6.413   1.112
 6834SOL    HW121401   4.878   6.407   1.065
 6834SOL    HW221402   4.764   6.510   1.119
 6835SOL     OW21403   4.306   0.160   4.369
 6835SOL    HW121404   4.285   0.065   4.345
 6835SOL    HW221405   4.402   0.179   4.346
 6836SOL     OW21406   2.516   5.203   0.116
 6836SOL    HW121407   2.601   5.193   0.167
 6836SOL    HW221408   2.536   5.210   0.018
 6837SOL     OW21409   0.445   1.996   2.020
 6837SOL    HW121410   0.490   2.039   1.942
 6837SOL    HW221411   0.486   2.031   2.105
 6838SOL     OW21412   3.352   6.235   0.284
 6838SOL    HW121413   3.451   6.228   0.294
 6838SOL    HW221414   3.308   6.182   0.357
 6839SOL     OW21415   5.538   0.790   6.876
 6839SOL    HW121416   5.633   0.801   6.905
 6839SOL    HW221417   5.479   0.851   6.929
 6840SOL     OW21418   3.595   0.795   4.511
 6840SOL    HW121419   3.566   0.810   4.606
 6840SOL    HW221420   3.524   0.744   4.462
 6841SOL     OW21421   3.862   4.145   6.912
 6841SOL    HW121422   3.815   4.090   6.982
 6841SOL    HW221423   3.913   4.218   6.957
 6842SOL     OW21424   2.392   4.664   1.182
 6842SOL    HW121425   2.328   4.733   1.148
 6842SOL    HW221426   2.424   4.608   1.106
 6843SOL     OW21427   5.997   6.772   1.137
 6843SOL    HW121428   6.078   6.829   1.150
 6843SOL    HW221429   6.009   6.685   1.186
 6844SOL     OW21430   5.467   0.753   3.807
 6844SOL    HW121431   5.396   0.691   3.840
 6844SOL    HW221432   5.485   0.735   3.710
 6845SOL     OW21433   6.441   3.322   2.903
 6845SOL    HW121434   6.532   3.346   2.936
 6845SOL    HW221435   6.374   3.385   2.942
 6846SOL     OW21436   3.661   3.081   6.923
 6846SOL    HW121437   3.750   3.119   6.898
 6846SOL    HW221438   3.653   2.988   6.887
 6847SOL     OW21439   0.035   3.442   4.455
 6847SOL    HW121440   0.129   3.427   4.484
 6847SOL    HW221441   6.991   3.444   4.535
 6848SOL     OW21442   4.606   5.176   3.788
 6848SOL    HW121443   4.582   5.246   3.855
 6848SOL    HW221444   4.538   5.175   3.715
 6849SOL     OW21445   4.756   4.771   5.432
 6849SOL    HW121446   4.837   4.743   5.483
 6849SOL    HW221447   4.781   4.843   5.367
 6850SOL     OW21448   5.425   3.320   2.768
 6850SOL    HW121449   5.328   3.319   2.792
 6850SOL    HW221450   5.480   3.329   2.851
 6851SOL     OW21451   0.012   1.561   3.203
 6851SOL    HW121452   0.005   1.631   3.132
 6851SOL    HW221453   6.993   1.474   3.168
 6852SOL     OW21454   2.682   4.281   1.359
 6852SOL    HW121455   2.685   4.356   1.293
 6852SOL    HW221456   2.714   4.314   1.448
 6853SOL     OW21457   5.501   4.674   0.058
 6853SOL    HW121458   5.424   4.730   0.087
 6853SOL    HW221459   5.469   4.605   7.008
 6854SOL     OW21460   5.161   0.829   5.615
 6854SOL    HW121461   5.101   0.908   5.606
 6854SOL    HW221462   5.252   0.858   5.644
 6855SOL     OW21463   4.020   6.544   4.043
 6855SOL    HW121464   4.111   6.552   4.084
 6855SOL    HW221465   3.950   6.548   4.115
 6856SOL     OW21466   0.321   2.525   5.131
 6856SOL    HW121467   0.227   2.558   5.122
 6856SOL    HW221468   0.385   2.597   5.106
 6857SOL     OW21469   1.933   2.160   6.349
 6857SOL    HW121470   1.941   2.063   6.326
 6857SOL    HW221471   1.921   2.171   6.448
 6858SOL     OW21472   4.022   3.476   2.099
 6858SOL    HW121473   4.013   3.418   2.179
 6858SOL    HW221474   3.932   3.489   2.056
 6859SOL     OW21475   1.094   1.398   1.029
 6859SOL    HW121476   1.069   1.400   0.932
 6859SOL    HW221477   1.020   1.437   1.083
 6860SOL     OW21478   6.954   5.358   1.335
 6860SOL    HW121479   6.973   5.348   1.238
 6860SOL    HW221480   6.975   5.273   1.383
 6861SOL     OW21481   3.773   3.981   0.089
 6861SOL    HW121482   3.697   4.012   0.147
 6861SOL    HW221483   3.832   3.920   0.141
 6862SOL     OW21484   0.805   5.361   6.106
 6862SOL    HW121485   0.867   5.284   6.122
 6862SOL    HW221486   0.814   5.427   6.181
 6863SOL     OW21487   5.895   6.691   6.165
 6863SOL    HW121488   5.855   6.609   6.204
 6863SOL    HW221489   5.827   6.764   6.164
 6864SOL     OW21490   2.173   4.781   4.457
 6864SOL    HW121491   2.083   4.751   4.423
 6864SOL    HW221492   2.244   4.724   4.416
 6865SOL     OW21493   0.770   6.240   4.896
 6865SOL    HW121494   0.685   6.274   4.856
 6865SOL    HW221495   0.838   6.314   4.896
 6866SOL     OW21496   5.543   5.573   3.234
 6866SOL    HW121497   5.548   5.654   3.176
 6866SOL    HW221498   5.453   5.568   3.277
 6867SOL     OW21499   2.212   3.954   2.250
 6867SOL    HW121500   2.143   3.985   2.315
 6867SOL    HW221501   2.182   3.868   2.209
 6868SOL     OW21502   1.750   6.172   6.522
 6868SOL    HW121503   1.683   6.194   6.451
 6868SOL    HW221504   1.771   6.254   6.574
 6869SOL     OW21505   4.900   0.974   6.286
 6869SOL    HW121506   4.818   0.922   6.310
 6869SOL    HW221507   4.873   1.067   6.259
 6870SOL     OW21508   6.876   3.977   1.158
 6870SOL    HW121509   6.803   4.044   1.171
 6870SOL    HW221510   6.964   4.019   1.179
 6871SOL     OW21511   6.163   3.833   3.183
 6871SOL    HW121512   6.256   3.799   3.167
 6871SOL    HW221513   6.149   3.917   3.130
 6872SOL     OW21514   0.588   2.378   1.231
 6872SOL    HW121515   0.543   2.289   1.231
 6872SOL    HW221516   0.685   2.367   1.251
 6873SOL     OW21517   6.810   3.749   3.912
 6873SOL    HW121518   6.756   3.791   3.840
 6873SOL    HW221519   6.898   3.796   3.920
 6874SOL     OW21520   0.030   5.437   2.926
 6874SOL    HW121521   0.065   5.347   2.900
 6874SOL    HW221522   0.093   5.480   2.991
 6875SOL     OW21523   2.208   2.892   2.284
 6875SOL    HW121524   2.227   2.926   2.192
 6875SOL    HW221525   2.127   2.833   2.282
 6876SOL     OW21526   3.944   0.278   4.060
 6876SOL    HW121527   3.916   0.324   4.144
 6876SOL    HW221528   3.877   0.207   4.037
 6877SOL     OW21529   3.045   4.060   1.045
 6877SOL    HW121530   3.040   4.053   0.945
 6877SOL    HW221531   3.141   4.057   1.073
 6878SOL     OW21532   3.955   1.021   4.206
 6878SOL    HW121533   4.026   1.092   4.200
 6878SOL    HW221534   3.891   1.044   4.279
 6879SOL     OW21535   1.542   2.770   0.952
 6879SOL    HW121536   1.589   2.682   0.964
 6879SOL    HW221537   1.580   2.818   0.874
 6880SOL     OW21538   1.938   5.450   5.777
 6880SOL    HW121539   2.034   5.433   5.754
 6880SOL    HW221540   1.899   5.514   5.711
 6881SOL     OW21541   1.946   3.743   1.132
 6881SOL    HW121542   1.983   3.774   1.220
 6881SOL    HW221543   2.002   3.779   1.058
 6882SOL     OW21544   3.110   0.568   0.127
 6882SOL    HW121545   3.043   0.592   0.197
 6882SOL    HW221546   3.064   0.522   0.051
 6883SOL     OW21547   5.194   2.356   0.207
 6883SOL    HW121548   5.159   2.263   0.217
 6883SOL    HW221549   5.281   2.364   0.255
 6884SOL     OW21550   0.991   4.214   3.503
 6884SOL    HW121551   1.017   4.185   3.411
 6884SOL    HW221552   0.917   4.281   3.497
 6885SOL     OW21553   4.565   4.869   3.723
 6885SOL    HW121554   4.611   4.948   3.763
 6885SOL    HW221555   4.609   4.785   3.754
 6886SOL     OW21556   6.817   1.572   4.272
 6886SOL    HW121557   6.854   1.481   4.251
 6886SOL    HW221558   6.788   1.574   4.368
 6887SOL     OW21559   4.917   5.088   6.623
 6887SOL    HW121560   4.823   5.075   6.592
 6887SOL    HW221561   4.931   5.182   6.652
 6888SOL     OW21562   5.480   5.738   6.676
 6888SOL    HW121563   5.439   5.829   6.674
 6888SOL    HW221564   5.512   5.714   6.584
 6889SOL     OW21565   0.948   3.157   5.977
 6889SOL    HW121566   0.999   3.197   5.901
 6889SOL    HW221567   0.958   3.057   5.976
 6890SOL     OW21568   3.898   6.476   2.268
 6890SOL    HW121569   3.949   6.555   2.301
 6890SOL    HW221570   3.806   6.477   2.306
 6891SOL     OW21571   2.014   3.980   2.471
 6891SOL    HW121572   2.039   3.935   2.557
 6891SOL    HW221573   1.929   4.031   2.483
 6892SOL     OW21574   3.373   2.100   3.850
 6892SOL    HW121575   3.459   2.086   3.898
 6892SOL    HW221576   3.390   2.109   3.752
 6893SOL     OW21577   4.313   4.146   0.186
 6893SOL    HW121578   4.313   4.171   0.089
 6893SOL    HW221579   4.407   4.136   0.218
 6894SOL     OW21580   5.689   4.676   0.610
 6894SOL    HW121581   5.764   4.650   0.550
 6894SOL    HW221582   5.700   4.771   0.638
 6895SOL     OW21583   2.194   4.612   0.580
 6895SOL    HW121584   2.243   4.580   0.499
 6895SOL    HW221585   2.201   4.712   0.586
 6896SOL     OW21586   2.866   1.582   4.054
 6896SOL    HW121587   2.930   1.510   4.078
 6896SOL    HW221588   2.912   1.671   4.056
 6897SOL     OW21589   4.868   3.829   4.788
 6897SOL    HW121590   4.866   3.738   4.830
 6897SOL    HW221591   4.836   3.897   4.854
 6898SOL     OW21592   4.274   1.530   1.549
 6898SOL    HW121593   4.190   1.544   1.601
 6898SOL    HW221594   4.284   1.603   1.481
 6899SOL     OW21595   4.388   5.922   2.044
 6899SOL    HW121596   4.474   5.970   2.063
 6899SOL    HW221597   4.405   5.824   2.036
 6900SOL     OW21598   6.016   5.552   4.796
 6900SOL    HW121599   6.070   5.468   4.792
 6900SOL    HW221600   6.062   5.624   4.744
 6901SOL     OW21601   6.302   6.229   6.469
 6901SOL    HW121602   6.250   6.179   6.538
 6901SOL    HW221603   6.294   6.183   6.381
 6902SOL     OW21604   6.521   5.787   6.895
 6902SOL    HW121605   6.502   5.717   6.826
 6902SOL    HW221606   6.544   5.873   6.850
 6903SOL     OW21607   2.969   5.131   5.104
 6903SOL    HW121608   2.892   5.118   5.166
 6903SOL    HW221609   2.962   5.064   5.029
 6904SOL     OW21610   6.252   0.536   5.357
 6904SOL    HW121611   6.228   0.450   5.402
 6904SOL    HW221612   6.182   0.604   5.377
 6905SOL     OW21613   5.435   5.998   0.579
 6905SOL    HW121614   5.391   6.018   0.666
 6905SOL    HW221615   5.374   5.942   0.523
 6906SOL     OW21616   3.388   1.650   4.065
 6906SOL    HW121617   3.475   1.698   4.055
 6906SOL    HW221618   3.316   1.698   4.014
 6907SOL     OW21619   5.695   2.322   1.425
 6907SOL    HW121620   5.725   2.389   1.493
 6907SOL    HW221621   5.738   2.234   1.443
 6908SOL     OW21622   1.401   5.557   6.747
 6908SOL    HW121623   1.367   5.464   6.763
 6908SOL    HW221624   1.323   5.619   6.734
 6909SOL     OW21625   4.953   3.770   0.992
 6909SOL    HW121626   4.985   3.797   0.901
 6909SOL    HW221627   4.970   3.845   1.057
 6910SOL     OW21628   1.301   3.216   3.830
 6910SOL    HW121629   1.287   3.272   3.912
 6910SOL    HW221630   1.212   3.196   3.789
 6911SOL     OW21631   3.895   6.744   3.922
 6911SOL    HW121632   3.936   6.657   3.947
 6911SOL    HW221633   3.796   6.739   3.933
 6912SOL     OW21634   2.630   3.590   6.453
 6912SOL    HW121635   2.700   3.544   6.399
 6912SOL    HW221636   2.593   3.526   6.521
 6913SOL     OW21637   5.814   6.043   4.247
 6913SOL    HW121638   5.869   6.099   4.185
 6913SOL    HW221639   5.778   5.964   4.198
 6914SOL     OW21640   5.814   4.214   3.675
 6914SOL    HW121641   5.802   4.231   3.773
 6914SOL    HW221642   5.731   4.172   3.638
 6915SOL     OW21643   6.266   2.795   1.533
 6915SOL    HW121644   6.338   2.734   1.502
 6915SOL    HW221645   6.299   2.851   1.609
 6916SOL     OW21646   5.398   1.846   6.844
 6916SOL    HW121647   5.353   1.935   6.860
 6916SOL    HW221648   5.329   1.778   6.822
 6917SOL     OW21649   3.778   6.718   1.154
 6917SOL    HW121650   3.802   6.624   1.131
 6917SOL    HW221651   3.713   6.753   1.087
 6918SOL     OW21652   0.709   2.206   4.044
 6918SOL    HW121653   0.669   2.279   4.100
 6918SOL    HW221654   0.744   2.246   3.959
 6919SOL     OW21655   5.617   5.848   4.494
 6919SOL    HW121656   5.664   5.797   4.566
 6919SOL    HW221657   5.518   5.849   4.513
 6920SOL     OW21658   4.454   6.930   5.501
 6920SOL    HW121659   4.532   6.981   5.466
 6920SOL    HW221660   4.480   6.835   5.515
 6921SOL     OW21661   4.590   6.361   4.174
 6921SOL    HW121662   4.678   6.392   4.138
 6921SOL    HW221663   4.548   6.299   4.107
 6922SOL     OW21664   2.052   5.808   5.063
 6922SOL    HW121665   2.099   5.883   5.017
 6922SOL    HW221666   2.087   5.721   5.028
 6923SOL     OW21667   5.093   5.826   3.002
 6923SOL    HW121668   5.175   5.772   3.025
 6923SOL    HW221669   5.071   5.813   2.905
 6924SOL     OW21670   1.931   4.558   0.274
 6924SOL    HW121671   2.004   4.490   0.279
 6924SOL    HW221672   1.918   4.600   0.364
 6925SOL     OW21673   4.897   5.884   4.369
 6925SOL    HW121674   4.995   5.897   4.387
 6925SOL    HW221675   4.848   5.871   4.455
 6926SOL     OW21676   2.566   2.623   0.867
 6926SOL    HW121677   2.542   2.580   0.780
 6926SOL    HW221678   2.550   2.721   0.862
 6927SOL     OW21679   3.781   3.131   5.541
 6927SOL    HW121680   3.876   3.153   5.567
 6927SOL    HW221681   3.782   3.060   5.470
 6928SOL     OW21682   5.725   5.388   0.849
 6928SOL    HW121683   5.819   5.391   0.816
 6928SOL    HW221684   5.672   5.460   0.805
 6929SOL     OW21685   5.016   5.655   2.021
 6929SOL    HW121686   4.990   5.589   2.092
 6929SOL    HW221687   5.035   5.606   1.936
 6930SOL     OW21688   1.481   0.294   1.444
 6930SOL    HW121689   1.508   0.376   1.492
 6930SOL    HW221690   1.499   0.214   1.501
 6931SOL     OW21691   1.670   1.560   2.228
 6931SOL    HW121692   1.681   1.462   2.207
 6931SOL    HW221693   1.577   1.588   2.204
 6932SOL     OW21694   4.329   0.138   0.363
 6932SOL    HW121695   4.283   0.185   0.288
 6932SOL    HW221696   4.263   0.084   0.415
 6933SOL     OW21697   3.672   6.214   5.394
 6933SOL    HW121698   3.752   6.274   5.394
 6933SOL    HW221699   3.679   6.148   5.319
 6934SOL     OW21700   4.606   2.848   6.215
 6934SOL    HW121701   4.556   2.919   6.166
 6934SOL    HW221702   4.701   2.876   6.229
 6935SOL     OW21703   4.751   5.480   2.968
 6935SOL    HW121704   4.782   5.410   2.904
 6935SOL    HW221705   4.761   5.570   2.925
 6936SOL     OW21706   6.154   3.066   4.050
 6936SOL    HW121707   6.114   2.977   4.027
 6936SOL    HW221708   6.110   3.137   3.996
 6937SOL     OW21709   5.950   5.961   0.805
 6937SOL    HW121710   5.853   5.960   0.781
 6937SOL    HW221711   5.979   6.056   0.819
 6938SOL     OW21712   6.572   2.740   4.998
 6938SOL    HW121713   6.600   2.698   4.912
 6938SOL    HW221714   6.478   2.715   5.018
 6939SOL     OW21715   0.655   5.466   2.061
 6939SOL    HW121716   0.581   5.445   2.125
 6939SOL    HW221717   0.730   5.509   2.111
 6940SOL     OW21718   3.659   0.130   6.091
 6940SOL    HW121719   3.669   0.157   6.187
 6940SOL    HW221720   3.737   0.163   6.039
 6941SOL     OW21721   3.074   4.032   1.790
 6941SOL    HW121722   3.084   4.056   1.887
 6941SOL    HW221723   3.121   3.946   1.773
 6942SOL     OW21724   5.886   6.503   2.593
 6942SOL    HW121725   5.899   6.536   2.500
 6942SOL    HW221726   5.902   6.404   2.596
 6943SOL     OW21727   3.932   5.866   0.857
 6943SOL    HW121728   3.912   5.857   0.760
 6943SOL    HW221729   3.865   5.927   0.899
 6944SOL     OW21730   0.895   4.845   6.542
 6944SOL    HW121731   0.964   4.914   6.517
 6944SOL    HW221732   0.810   4.891   6.568
 6945SOL     OW21733   6.717   1.633   0.074
 6945SOL    HW121734   6.707   1.674   0.164
 6945SOL    HW221735   6.788   1.681   0.023
 6946SOL     OW21736   4.194   6.994   1.457
 6946SOL    HW121737   4.207   6.895   1.458
 6946SOL    HW221738   4.098   0.000   1.474
 6947SOL     OW21739   3.501   5.511   6.994
 6947SOL    HW121740   3.539   5.556   6.913
 6947SOL    HW221741   3.569   5.512   0.052
 6948SOL     OW21742   0.678   6.731   1.393
 6948SOL    HW121743   0.716   6.726   1.300
 6948SOL    HW221744   0.743   6.777   1.453
 6949SOL     OW21745   3.643   6.949   3.531
 6949SOL    HW121746   3.571   0.001   3.546
 6949SOL    HW221747   3.718   6.965   3.596
 6950SOL     OW21748   1.793   1.107   4.942
 6950SOL    HW121749   1.892   1.107   4.955
 6950SOL    HW221750   1.750   1.170   5.007
 6951SOL     OW21751   6.524   5.848   6.083
 6951SOL    HW121752   6.540   5.749   6.092
 6951SOL    HW221753   6.582   5.897   6.148
 6952SOL     OW21754   1.028   5.794   3.330
 6952SOL    HW121755   0.930   5.799   3.309
 6952SOL    HW221756   1.080   5.790   3.245
 6953SOL     OW21757   4.390   6.548   1.645
 6953SOL    HW121758   4.482   6.515   1.628
 6953SOL    HW221759   4.367   6.537   1.741
 6954SOL     OW21760   0.784   4.127   2.140
 6954SOL    HW121761   0.736   4.108   2.054
 6954SOL    HW221762   0.833   4.214   2.132
 6955SOL     OW21763   5.624   0.927   1.854
 6955SOL    HW121764   5.580   0.838   1.844
 6955SOL    HW221765   5.703   0.919   1.915
 6956SOL     OW21766   5.311   5.674   3.826
 6956SOL    HW121767   5.292   5.771   3.810
 6956SOL    HW221768   5.239   5.635   3.883
 6957SOL     OW21769   5.855   5.889   1.052
 6957SOL    HW121770   5.866   5.967   1.114
 6957SOL    HW221771   5.899   5.910   0.965
 6958SOL     OW21772   4.015   3.256   4.710
 6958SOL    HW121773   4.002   3.184   4.778
 6958SOL    HW221774   4.046   3.339   4.756
 6959SOL     OW21775   2.240   3.117   3.143
 6959SOL    HW121776   2.180   3.037   3.145
 6959SOL    HW221777   2.232   3.166   3.230
 6960SOL     OW21778   1.715   3.745   1.744
 6960SOL    HW121779   1.786   3.678   1.766
 6960SOL    HW221780   1.630   3.698   1.720
 6961SOL     OW21781   6.009   0.564   4.438
 6961SOL    HW121782   6.052   0.642   4.392
 6961SOL    HW221783   5.910   0.569   4.427
 6962SOL     OW21784   4.264   5.905   1.812
 6962SOL    HW121785   4.317   5.969   1.757
 6962SOL    HW221786   4.285   5.919   1.909
 6963SOL     OW21787   5.463   5.479   1.502
 6963SOL    HW121788   5.423   5.563   1.540
 6963SOL    HW221789   5.485   5.495   1.405
 6964SOL     OW21790   3.593   1.378   5.579
 6964SOL    HW121791   3.637   1.428   5.652
 6964SOL    HW221792   3.531   1.439   5.529
 6965SOL     OW21793   1.728   1.068   6.841
 6965SOL    HW121794   1.722   0.997   6.770
 6965SOL    HW221795   1.659   1.049   6.912
 6966SOL     OW21796   0.896   1.635   2.302
 6966SOL    HW121797   0.894   1.559   2.367
 6966SOL    HW221798   0.813   1.689   2.311
 6967SOL     OW21799   3.141   0.540   6.328
 6967SOL    HW121800   3.046   0.556   6.355
 6967SOL    HW221801   3.197   0.531   6.410
 6968SOL     OW21802   4.144   0.760   3.503
 6968SOL    HW121803   4.137   0.802   3.413
 6968SOL    HW221804   4.132   0.830   3.574
 6969SOL     OW21805   2.831   2.314   1.490
 6969SOL    HW121806   2.809   2.398   1.441
 6969SOL    HW221807   2.779   2.310   1.575
 6970SOL     OW21808   3.946   3.794   5.641
 6970SOL    HW121809   4.022   3.820   5.700
 6970SOL    HW221810   3.976   3.724   5.576
 6971SOL     OW21811   6.293   4.658   0.735
 6971SOL    HW121812   6.204   4.636   0.774
 6971SOL    HW221813   6.361   4.591   0.766
 6972SOL     OW21814   5.381   4.518   3.183
 6972SOL    HW121815   5.451   4.546   3.249
 6972SOL    HW221816   5.398   4.423   3.156
 6973SOL     OW21817   0.794   3.079   3.304
 6973SOL    HW121818   0.742   3.110   3.225
 6973SOL    HW221819   0.865   3.015   3.275
 6974SOL     OW21820   2.912   3.716   2.468
 6974SOL    HW121821   2.826   3.730   2.517
 6974SOL    HW221822   2.984   3.770   2.510
 6975SOL     OW21823   1.380   6.555   5.481
 6975SOL    HW121824   1.318   6.526   5.555
 6975SOL    HW221825   1.473   6.563   5.516
 6976SOL     OW21826   6.596   5.330   6.049
 6976SOL    HW121827   6.661   5.278   5.993
 6976SOL    HW221828   6.547   5.268   6.110
 6977SOL     OW21829   3.555   2.843   0.840
 6977SOL    HW121830   3.586   2.828   0.934
 6977SOL    HW221831   3.529   2.756   0.799
 6978SOL     OW21832   5.346   2.453   2.200
 6978SOL    HW121833   5.271   2.452   2.266
 6978SOL    HW221834   5.333   2.381   2.132
 6979SOL     OW21835   1.271   4.024   1.603
 6979SOL    HW121836   1.173   4.047   1.597
 6979SOL    HW221837   1.305   4.044   1.694
 6980SOL     OW21838   1.734   0.467   3.533
 6980SOL    HW121839   1.748   0.391   3.470
 6980SOL    HW221840   1.653   0.518   3.507
 6981SOL     OW21841   3.464   3.969   5.452
 6981SOL    HW121842   3.421   4.021   5.378
 6981SOL    HW221843   3.467   3.872   5.428
 6982SOL     OW21844   0.779   0.985   4.511
 6982SOL    HW121845   0.828   1.002   4.596
 6982SOL    HW221846   0.727   1.066   4.485
 6983SOL     OW21847   4.561   1.939   4.068
 6983SOL    HW121848   4.523   1.916   4.157
 6983SOL    HW221849   4.577   1.856   4.015
 6984SOL     OW21850   2.126   1.854   3.202
 6984SOL    HW121851   2.209   1.820   3.157
 6984SOL    HW221852   2.049   1.848   3.140
 6985SOL     OW21853   5.673   5.290   1.114
 6985SOL    HW121854   5.632   5.335   1.034
 6985SOL    HW221855   5.766   5.327   1.128
 6986SOL     OW21856   3.231   6.920   6.455
 6986SOL    HW121857   3.173   6.871   6.520
 6986SOL    HW221858   3.193   7.011   6.439
 6987SOL     OW21859   6.264   1.440   6.019
 6987SOL    HW121860   6.362   1.417   6.015
 6987SOL    HW221861   6.249   1.507   6.092
 6988SOL     OW21862   1.099   6.777   6.761
 6988SOL    HW121863   1.074   6.873   6.754
 6988SOL    HW221864   1.039   6.731   6.826
 6989SOL     OW21865   0.519   4.430   2.883
 6989SOL    HW121866   0.493   4.334   2.888
 6989SOL    HW221867   0.618   4.438   2.893
 6990SOL     OW21868   4.600   2.558   1.045
 6990SOL    HW121869   4.584   2.478   1.103
 6990SOL    HW221870   4.625   2.528   0.953
 6991SOL     OW21871   4.618   4.334   3.723
 6991SOL    HW121872   4.601   4.333   3.821
 6991SOL    HW221873   4.658   4.246   3.695
 6992SOL     OW21874   5.858   0.305   6.320
 6992SOL    HW121875   5.771   0.346   6.345
 6992SOL    HW221876   5.895   0.256   6.398
 6993SOL     OW21877   5.696   6.622   2.732
 6993SOL    HW121878   5.615   6.565   2.740
 6993SOL    HW221879   5.769   6.571   2.687
 6994SOL     OW21880   0.015   2.256   3.734
 6994SOL    HW121881   0.025   2.215   3.825
 6994SOL    HW221882   6.949   2.218   3.689
 6995SOL     OW21883   1.114   4.317   6.455
 6995SOL    HW121884   1.028   4.267   6.466
 6995SOL    HW221885   1.163   4.281   6.376
 6996SOL     OW21886   1.894   0.398   0.186
 6996SOL    HW121887   1.821   0.446   0.234
 6996SOL    HW221888   1.944   0.341   0.250
 6997SOL     OW21889   0.390   5.072   5.371
 6997SOL    HW121890   0.488   5.076   5.353
 6997SOL    HW221891   0.374   5.065   5.470
 6998SOL     OW21892   1.334   1.433   1.446
 6998SOL    HW121893   1.318   1.341   1.482
 6998SOL    HW221894   1.248   1.473   1.415
 6999SOL     OW21895   1.978   3.080   6.485
 6999SOL    HW121896   1.957   3.070   6.387
 6999SOL    HW221897   2.023   2.997   6.517
 7000SOL     OW21898   5.641   6.364   2.120
 7000SOL    HW121899   5.650   6.293   2.050
 7000SOL    HW221900   5.687   6.333   2.204
 7001SOL     OW21901   1.664   3.587   5.454
 7001SOL    HW121902   1.694   3.526   5.380
 7001SOL    HW221903   1.731   3.661   5.464
 7002SOL     OW21904   1.484   5.637   4.488
 7002SOL    HW121905   1.576   5.601   4.502
 7002SOL    HW221906   1.486   5.706   4.415
 7003SOL     OW21907   4.478   5.866   1.042
 7003SOL    HW121908   4.578   5.868   1.042
 7003SOL    HW221909   4.443   5.959   1.025
 7004SOL     OW21910   0.705   5.795   1.440
 7004SOL    HW121911   0.790   5.811   1.491
 7004SOL    HW221912   0.678   5.699   1.450
 7005SOL     OW21913   1.097   0.329   0.995
 7005SOL    HW121914   1.115   0.342   0.897
 7005SOL    HW221915   1.012   0.278   1.007
 7006SOL     OW21916   5.675   5.307   3.820
 7006SOL    HW121917   5.624   5.237   3.870
 7006SOL    HW221918   5.735   5.263   3.753
 7007SOL     OW21919   4.180   0.634   4.549
 7007SOL    HW121920   4.168   0.729   4.521
 7007SOL    HW221921   4.145   0.573   4.478
 7008SOL     OW21922   0.626   4.141   4.254
 7008SOL    HW121923   0.555   4.173   4.317
 7008SOL    HW221924   0.585   4.088   4.181
 7009SOL     OW21925   4.074   6.729   2.617
 7009SOL    HW121926   4.089   6.781   2.701
 7009SOL    HW221927   4.027   6.644   2.639
 7010SOL     OW21928   5.352   4.161   3.770
 7010SOL    HW121929   5.407   4.160   3.853
 7010SOL    HW221930   5.401   4.209   3.698
 7011SOL     OW21931   3.250   6.413   6.470
 7011SOL    HW121932   3.295   6.335   6.426
 7011SOL    HW221933   3.167   6.437   6.420
 7012SOL     OW21934   1.106   1.912   1.098
 7012SOL    HW121935   1.153   1.998   1.080
 7012SOL    HW221936   1.119   1.850   1.021
 7013SOL     OW21937   1.069   6.418   6.974
 7013SOL    HW121938   1.119   6.438   0.043
 7013SOL    HW221939   1.019   6.332   6.983
 7014SOL     OW21940   4.845   3.282   0.814
 7014SOL    HW121941   4.817   3.201   0.865
 7014SOL    HW221942   4.879   3.255   0.723
 7015SOL     OW21943   5.585   4.248   1.387
 7015SOL    HW121944   5.642   4.189   1.330
 7015SOL    HW221945   5.643   4.297   1.452
 7016SOL     OW21946   3.854   5.044   1.164
 7016SOL    HW121947   3.939   5.026   1.114
 7016SOL    HW221948   3.855   4.994   1.251
 7017SOL     OW21949   3.011   5.337   3.370
 7017SOL    HW121950   2.952   5.273   3.418
 7017SOL    HW221951   3.106   5.304   3.372
 7018SOL     OW21952   5.168   3.682   3.967
 7018SOL    HW121953   5.074   3.716   3.970
 7018SOL    HW221954   5.172   3.601   3.908
 7019SOL     OW21955   3.746   4.875   0.448
 7019SOL    HW121956   3.655   4.896   0.485
 7019SOL    HW221957   3.742   4.869   0.349
 7020SOL     OW21958   6.756   4.300   5.365
 7020SOL    HW121959   6.737   4.233   5.437
 7020SOL    HW221960   6.670   4.330   5.325
 7021SOL     OW21961   1.775   2.400   5.322
 7021SOL    HW121962   1.769   2.310   5.279
 7021SOL    HW221963   1.871   2.429   5.323
 7022SOL     OW21964   4.454   0.248   6.711
 7022SOL    HW121965   4.418   0.327   6.660
 7022SOL    HW221966   4.542   0.221   6.672
 7023SOL     OW21967   1.359   2.907   2.815
 7023SOL    HW121968   1.432   2.876   2.876
 7023SOL    HW221969   1.399   2.948   2.734
 7024SOL     OW21970   3.059   3.816   4.246
 7024SOL    HW121971   3.008   3.736   4.278
 7024SOL    HW221972   3.072   3.810   4.147
 7025SOL     OW21973   3.873   1.142   1.116
 7025SOL    HW121974   3.897   1.183   1.204
 7025SOL    HW221975   3.783   1.174   1.087
 7026SOL     OW21976   3.512   2.065   2.223
 7026SOL    HW121977   3.561   2.119   2.154
 7026SOL    HW221978   3.484   1.978   2.184
 7027SOL     OW21979   2.645   5.760   4.422
 7027SOL    HW121980   2.615   5.846   4.464
 7027SOL    HW221981   2.694   5.705   4.490
 7028SOL     OW21982   4.019   1.207   3.197
 7028SOL    HW121983   4.000   1.268   3.120
 7028SOL    HW221984   4.062   1.258   3.271
 7029SOL     OW21985   4.215   4.352   5.345
 7029SOL    HW121986   4.257   4.385   5.260
 7029SOL    HW221987   4.268   4.384   5.423
 7030SOL     OW21988   0.411   1.102   5.261
 7030SOL    HW121989   0.384   1.189   5.302
 7030SOL    HW221990   0.510   1.097   5.253
 7031SOL     OW21991   3.647   6.184   6.907
 7031SOL    HW121992   3.665   6.090   6.936
 7031SOL    HW221993   3.703   6.206   6.827
 7032SOL     OW21994   4.311   1.233   3.931
 7032SOL    HW121995   4.238   1.269   3.873
 7032SOL    HW221996   4.390   1.295   3.926
 7033SOL     OW21997   1.424   2.351   3.488
 7033SOL    HW121998   1.427   2.431   3.429
 7033SOL    HW221999   1.381   2.376   3.576
 7034SOL     OW22000   0.107   1.779   2.757
 7034SOL    HW122001   0.105   1.775   2.856
 7034SOL    HW222002   0.191   1.737   2.723
 7035SOL     OW22003   1.357   0.294   0.718
 7035SOL    HW122004   1.450   0.331   0.708
 7035SOL    HW222005   1.363   0.198   0.748
 7036SOL     OW22006   6.787   1.311   2.050
 7036SOL    HW122007   6.873   1.304   1.999
 7036SOL    HW222008   6.714   1.338   1.989
 7037SOL     OW22009   0.731   1.160   6.707
 7037SOL    HW122010   0.697   1.107   6.629
 7037SOL    HW222011   0.831   1.159   6.707
 7038SOL     OW22012   2.288   4.269   4.822
 7038SOL    HW122013   2.351   4.345   4.838
 7038SOL    HW222014   2.324   4.186   4.864
 7039SOL     OW22015   0.436   6.069   2.880
 7039SOL    HW122016   0.490   6.028   2.807
 7039SOL    HW222017   0.367   6.130   2.840
 7040SOL     OW22018   5.661   2.711   5.773
 7040SOL    HW122019   5.591   2.657   5.819
 7040SOL    HW222020   5.712   2.765   5.841
 7041SOL     OW22021   6.562   1.705   1.970
 7041SOL    HW122022   6.608   1.747   2.049
 7041SOL    HW222023   6.464   1.723   1.976
 7042SOL     OW22024   4.069   5.778   4.514
 7042SOL    HW122025   4.068   5.685   4.550
 7042SOL    HW222026   4.082   5.843   4.589
 7043SOL     OW22027   2.410   4.496   3.427
 7043SOL    HW122028   2.454   4.483   3.516
 7043SOL    HW222029   2.463   4.563   3.374
 7044SOL     OW22030   5.624   5.462   5.482
 7044SOL    HW122031   5.662   5.488   5.571
 7044SOL    HW222032   5.527   5.438   5.492
 7045SOL     OW22033   5.502   5.177   2.471
 7045SOL    HW122034   5.494   5.131   2.559
 7045SOL    HW222035   5.596   5.168   2.436
 7046SOL     OW22036   3.073   1.844   3.218
 7046SOL    HW122037   3.144   1.904   3.252
 7046SOL    HW222038   3.103   1.749   3.225
 7047SOL     OW22039   6.860   0.804   1.903
 7047SOL    HW122040   6.954   0.777   1.885
 7047SOL    HW222041   6.840   0.795   2.001
 7048SOL     OW22042   5.941   6.461   4.331
 7048SOL    HW122043   5.904   6.514   4.407
 7048SOL    HW222044   5.911   6.501   4.245
 7049SOL     OW22045   4.001   1.839   1.127
 7049SOL    HW122046   3.970   1.921   1.175
 7049SOL    HW222047   4.095   1.819   1.152
 7050SOL     OW22048   4.223   3.363   1.437
 7050SOL    HW122049   4.310   3.404   1.410
 7050SOL    HW222050   4.195   3.400   1.526
 7051SOL     OW22051   0.251   6.300   1.424
 7051SOL    HW122052   0.179   6.258   1.478
 7051SOL    HW222053   0.279   6.237   1.351
 7052SOL     OW22054   6.663   0.783   4.113
 7052SOL    HW122055   6.644   0.701   4.059
 7052SOL    HW222056   6.698   0.855   4.053
 7053SOL     OW22057   1.834   3.635   4.586
 7053SOL    HW122058   1.858   3.586   4.503
 7053SOL    HW222059   1.895   3.607   4.660
 7054SOL     OW22060   0.123   6.680   1.169
 7054SOL    HW122061   0.101   6.644   1.079
 7054SOL    HW222062   0.056   6.751   1.194
 7055SOL     OW22063   3.188   0.287   0.214
 7055SOL    HW122064   3.144   0.377   0.215
 7055SOL    HW222065   3.122   0.218   0.186
 7056SOL     OW22066   6.474   4.866   1.584
 7056SOL    HW122067   6.492   4.916   1.499
 7056SOL    HW222068   6.507   4.772   1.575
 7057SOL     OW22069   3.052   5.030   3.645
 7057SOL    HW122070   3.151   5.021   3.653
 7057SOL    HW222071   3.008   4.944   3.669
 7058SOL     OW22072   5.544   2.573   5.979
 7058SOL    HW122073   5.529   2.480   6.015
 7058SOL    HW222074   5.612   2.620   6.036
 7059SOL     OW22075   1.060   0.742   4.189
 7059SOL    HW122076   0.995   0.805   4.231
 7059SOL    HW222077   1.135   0.794   4.148
 7060SOL     OW22078   3.199   0.327   0.619
 7060SOL    HW122079   3.247   0.296   0.701
 7060SOL    HW222080   3.173   0.423   0.631
 7061SOL     OW22081   0.276   2.778   3.616
 7061SOL    HW122082   0.241   2.853   3.672
 7061SOL    HW222083   0.375   2.771   3.627
 7062SOL     OW22084   3.712   2.168   5.180
 7062SOL    HW122085   3.717   2.225   5.262
 7062SOL    HW222086   3.617   2.148   5.159
 7063SOL     OW22087   1.493   6.565   2.078
 7063SOL    HW122088   1.406   6.602   2.045
 7063SOL    HW222089   1.557   6.639   2.094
 7064SOL     OW22090   4.306   2.330   6.681
 7064SOL    HW122091   4.241   2.327   6.757
 7064SOL    HW222092   4.262   2.294   6.599
 7065SOL     OW22093   3.266   3.839   5.183
 7065SOL    HW122094   3.339   3.817   5.119
 7065SOL    HW222095   3.208   3.911   5.146
 7066SOL     OW22096   3.974   0.131   6.011
 7066SOL    HW122097   4.019   0.052   6.053
 7066SOL    HW222098   4.018   0.152   5.924
 7067SOL     OW22099   0.855   3.350   5.659
 7067SOL    HW122100   0.882   3.401   5.740
 7067SOL    HW222101   0.931   3.347   5.594
 7068SOL     OW22102   5.858   4.236   5.304
 7068SOL    HW122103   5.921   4.251   5.228
 7068SOL    HW222104   5.909   4.212   5.386
 7069SOL     OW22105   5.930   1.343   5.436
 7069SOL    HW122106   5.929   1.247   5.409
 7069SOL    HW222107   6.015   1.364   5.485
 7070SOL     OW22108   1.034   6.572   4.125
 7070SOL    HW122109   0.993   6.642   4.184
 7070SOL    HW222110   1.052   6.612   4.035
 7071SOL     OW22111   3.563   5.946   0.113
 7071SOL    HW122112   3.601   5.988   0.195
 7071SOL    HW222113   3.508   5.866   0.138
 7072SOL     OW22114   1.741   5.159   0.191
 7072SOL    HW122115   1.667   5.129   0.131
 7072SOL    HW222116   1.704   5.216   0.264
 7073SOL     OW22117   4.321   0.052   3.393
 7073SOL    HW122118   4.363   0.048   3.303
 7073SOL    HW222119   4.229   0.012   3.389
 7074SOL     OW22120   5.985   3.224   2.383
 7074SOL    HW122121   6.028   3.249   2.470
 7074SOL    HW222122   6.038   3.263   2.307
 7075SOL     OW22123   2.021   4.509   4.643
 7075SOL    HW122124   1.925   4.492   4.621
 7075SOL    HW222125   2.078   4.484   4.565
 7076SOL     OW22126   5.524   3.539   0.153
 7076SOL    HW122127   5.589   3.551   0.228
 7076SOL    HW222128   5.473   3.625   0.140
 7077SOL     OW22129   2.075   3.930   3.342
 7077SOL    HW122130   2.097   3.834   3.328
 7077SOL    HW222131   1.991   3.953   3.294
 7078SOL     OW22132   6.457   6.093   1.209
 7078SOL    HW122133   6.369   6.066   1.169
 7078SOL    HW222134   6.522   6.018   1.197
 7079SOL     OW22135   0.769   6.482   3.886
 7079SOL    HW122136   0.750   6.497   3.789
 7079SOL    HW222137   0.751   6.566   3.937
 7080SOL     OW22138   3.435   1.399   3.985
 7080SOL    HW122139   3.411   1.492   4.014
 7080SOL    HW222140   3.530   1.380   4.010
 7081SOL     OW22141   1.100   5.445   0.318
 7081SOL    HW122142   1.192   5.459   0.282
 7081SOL    HW222143   1.104   5.378   0.393
 7082SOL     OW22144   6.827   4.151   0.496
 7082SOL    HW122145   6.846   4.194   0.584
 7082SOL    HW222146   6.728   4.144   0.483
 7083SOL     OW22147   0.119   1.547   2.032
 7083SOL    HW122148   0.172   1.597   1.964
 7083SOL    HW222149   0.129   1.591   2.122
 7084SOL     OW22150   1.218   5.235   5.658
 7084SOL    HW122151   1.143   5.296   5.682
 7084SOL    HW222152   1.194   5.183   5.577
 7085SOL     OW22153   0.029   2.144   2.218
 7085SOL    HW122154   0.115   2.167   2.174
 7085SOL    HW222155   0.040   2.147   2.318
 7086SOL     OW22156   5.346   0.894   5.948
 7086SOL    HW122157   5.408   0.862   5.877
 7086SOL    HW222158   5.257   0.849   5.937
 7087SOL     OW22159   5.847   4.405   2.568
 7087SOL    HW122160   5.942   4.398   2.539
 7087SOL    HW222161   5.810   4.314   2.582
 7088SOL     OW22162   5.174   2.696   4.934
 7088SOL    HW122163   5.158   2.795   4.935
 7088SOL    HW222164   5.263   2.676   4.975
 7089SOL     OW22165   2.138   3.248   3.384
 7089SOL    HW122166   2.210   3.214   3.445
 7089SOL    HW222167   2.121   3.344   3.405
 7090SOL     OW22168   2.369   1.572   0.194
 7090SOL    HW122169   2.447   1.509   0.190
 7090SOL    HW222170   2.399   1.663   0.163
 7091SOL     OW22171   0.666   1.356   1.279
 7091SOL    HW122172   0.592   1.382   1.217
 7091SOL    HW222173   0.663   1.258   1.295
 7092SOL     OW22174   4.056   3.129   5.624
 7092SOL    HW122175   4.098   3.076   5.551
 7092SOL    HW222176   4.103   3.217   5.633
 7093SOL     OW22177   3.361   4.181   1.746
 7093SOL    HW122178   3.337   4.165   1.841
 7093SOL    HW222179   3.449   4.138   1.726
 7094SOL     OW22180   0.282   6.829   5.726
 7094SOL    HW122181   0.227   6.783   5.796
 7094SOL    HW222182   0.340   6.897   5.769
 7095SOL     OW22183   2.691   4.865   5.948
 7095SOL    HW122184   2.601   4.829   5.923
 7095SOL    HW222185   2.742   4.886   5.865
 7096SOL     OW22186   6.534   6.853   1.712
 7096SOL    HW122187   6.621   6.840   1.666
 7096SOL    HW222188   6.460   6.849   1.645
 7097SOL     OW22189   5.185   0.910   1.791
 7097SOL    HW122190   5.223   0.853   1.864
 7097SOL    HW222191   5.111   0.861   1.745
 7098SOL     OW22192   1.471   5.306   5.723
 7098SOL    HW122193   1.383   5.277   5.686
 7098SOL    HW222194   1.462   5.324   5.821
 7099SOL     OW22195   3.781   2.129   4.515
 7099SOL    HW122196   3.827   2.058   4.569
 7099SOL    HW222197   3.803   2.116   4.418
 7100SOL     OW22198   5.904   2.965   0.262
 7100SOL    HW122199   5.850   2.971   0.346
 7100SOL    HW222200   5.989   3.018   0.273
 7101SOL     OW22201   2.429   1.012   4.996
 7101SOL    HW122202   2.427   1.023   5.095
 7101SOL    HW222203   2.362   0.943   4.969
 7102SOL     OW22204   5.555   6.840   0.724
 7102SOL    HW122205   5.480   6.807   0.781
 7102SOL    HW222206   5.613   6.764   0.698
 7103SOL     OW22207   5.662   5.067   1.686
 7103SOL    HW122208   5.654   5.147   1.626
 7103SOL    HW222209   5.716   4.997   1.639
 7104SOL     OW22210   6.525   3.728   2.619
 7104SOL    HW122211   6.533   3.629   2.625
 7104SOL    HW222212   6.450   3.760   2.678
 7105SOL     OW22213   3.336   3.444   4.433
 7105SOL    HW122214   3.326   3.537   4.469
 7105SOL    HW222215   3.375   3.385   4.504
 7106SOL     OW22216   3.533   3.180   1.415
 7106SOL    HW122217   3.526   3.181   1.515
 7106SOL    HW222218   3.445   3.204   1.375
 7107SOL     OW22219   4.646   0.353   0.653
 7107SOL    HW122220   4.679   0.420   0.586
 7107SOL    HW222221   4.713   0.344   0.726
 7108SOL     OW22222   2.593   5.546   2.951
 7108SOL    HW122223   2.676   5.571   3.000
 7108SOL    HW222224   2.604   5.564   2.853
 7109SOL     OW22225   1.912   0.452   6.502
 7109SOL    HW122226   1.965   0.413   6.426
 7109SOL    HW222227   1.893   0.380   6.569
 7110SOL     OW22228   3.047   5.826   4.137
 7110SOL    HW122229   3.053   5.731   4.166
 7110SOL    HW222230   3.017   5.883   4.214
 7111SOL     OW22231   1.777   1.926   4.280
 7111SOL    HW122232   1.860   1.880   4.247
 7111SOL    HW222233   1.697   1.870   4.258
 7112SOL     OW22234   2.145   5.375   4.509
 7112SOL    HW122235   2.208   5.435   4.558
 7112SOL    HW222236   2.188   5.287   4.493
 7113SOL     OW22237   3.475   4.110   4.622
 7113SOL    HW122238   3.455   4.042   4.550
 7113SOL    HW222239   3.389   4.143   4.660
 7114SOL     OW22240   4.635   5.442   1.252
 7114SOL    HW122241   4.590   5.449   1.341
 7114SOL    HW222242   4.570   5.411   1.183
 7115SOL     OW22243   5.000   3.204   6.810
 7115SOL    HW122244   4.985   3.163   6.720
 7115SOL    HW222245   5.046   3.139   6.869
 7116SOL     OW22246   5.082   4.743   3.447
 7116SOL    HW122247   5.136   4.779   3.523
 7116SOL    HW222248   5.052   4.650   3.470
 7117SOL     OW22249   0.278   0.067   4.748
 7117SOL    HW122250   0.364   0.114   4.725
 7117SOL    HW222251   0.268   0.061   4.847
 7118SOL     OW22252   3.736   4.233   5.979
 7118SOL    HW122253   3.832   4.242   5.952
 7118SOL    HW222254   3.701   4.145   5.947
 7119SOL     OW22255   5.079   0.885   4.970
 7119SOL    HW122256   4.995   0.914   4.923
 7119SOL    HW222257   5.153   0.876   4.904
 7120SOL     OW22258   3.529   1.781   1.249
 7120SOL    HW122259   3.596   1.853   1.262
 7120SOL    HW222260   3.440   1.812   1.284
 7121SOL     OW22261   0.828   6.745   3.173
 7121SOL    HW122262   0.790   6.780   3.087
 7121SOL    HW222263   0.756   6.741   3.242
 7122SOL     OW22264   1.735   0.589   5.537
 7122SOL    HW122265   1.764   0.682   5.515
 7122SOL    HW222266   1.648   0.592   5.586
 7123SOL     OW22267   0.687   4.935   3.749
 7123SOL    HW122268   0.609   4.952   3.809
 7123SOL    HW222269   0.763   4.995   3.775
 7124SOL     OW22270   1.016   2.586   1.199
 7124SOL    HW122271   0.959   2.664   1.175
 7124SOL    HW222272   1.058   2.601   1.288
 7125SOL     OW22273   0.802   1.345   0.937
 7125SOL    HW122274   0.754   1.273   0.887
 7125SOL    HW222275   0.889   1.365   0.891
 7126SOL     OW22276   4.064   5.687   0.391
 7126SOL    HW122277   4.096   5.636   0.311
 7126SOL    HW222278   4.082   5.634   0.474
 7127SOL     OW22279   2.724   5.842   6.463
 7127SOL    HW122280   2.738   5.822   6.366
 7127SOL    HW222281   2.798   5.901   6.496
 7128SOL     OW22282   3.685   4.103   6.707
 7128SOL    HW122283   3.666   4.186   6.655
 7128SOL    HW222284   3.737   4.126   6.789
 7129SOL     OW22285   1.808   1.416   0.981
 7129SOL    HW122286   1.742   1.464   0.923
 7129SOL    HW222287   1.797   1.446   1.076
 7130SOL     OW22288   3.599   6.385   4.530
 7130SOL    HW122289   3.508   6.348   4.549
 7130SOL    HW222290   3.631   6.439   4.608
 7131SOL     OW22291   3.285   0.850   1.800
 7131SOL    HW122292   3.298   0.908   1.720
 7131SOL    HW222293   3.283   0.907   1.883
 7132SOL     OW22294   4.200   4.189   0.425
 7132SOL    HW122295   4.234   4.171   0.333
 7132SOL    HW222296   4.177   4.103   0.470
 7133SOL     OW22297   4.057   4.815   5.098
 7133SOL    HW122298   4.006   4.765   5.168
 7133SOL    HW222299   4.141   4.851   5.137
 7134SOL     OW22300   5.570   6.558   2.358
 7134SOL    HW122301   5.616   6.473   2.384
 7134SOL    HW222302   5.623   6.604   2.287
 7135SOL     OW22303   2.468   2.610   3.139
 7135SOL    HW122304   2.512   2.523   3.119
 7135SOL    HW222305   2.512   2.653   3.217
 7136SOL     OW22306   3.032   1.792   0.766
 7136SOL    HW122307   3.099   1.734   0.719
 7136SOL    HW222308   2.991   1.741   0.842
 7137SOL     OW22309   2.992   1.979   0.320
 7137SOL    HW122310   2.893   1.963   0.326
 7137SOL    HW222311   3.010   2.077   0.332
 7138SOL     OW22312   1.777   1.394   0.631
 7138SOL    HW122313   1.705   1.457   0.600
 7138SOL    HW222314   1.749   1.351   0.717
 7139SOL     OW22315   5.002   5.019   2.728
 7139SOL    HW122316   5.042   5.000   2.817
 7139SOL    HW222317   4.922   4.961   2.713
 7140SOL     OW22318   6.166   4.015   0.878
 7140SOL    HW122319   6.186   3.986   0.972
 7140SOL    HW222320   6.223   3.962   0.815
 7141SOL     OW22321   4.115   0.064   1.116
 7141SOL    HW122322   4.083   7.002   1.170
 7141SOL    HW222323   4.111   0.147   1.171
 7142SOL     OW22324   3.800   0.059   3.982
 7142SOL    HW122325   3.834   6.996   4.034
 7142SOL    HW222326   3.706   0.041   3.953
 7143SOL     OW22327   1.782   3.684   6.640
 7143SOL    HW122328   1.706   3.654   6.696
 7143SOL    HW222329   1.868   3.656   6.683
 7144SOL     OW22330   0.957   0.961   3.014
 7144SOL    HW122331   0.866   0.932   3.042
 7144SOL    HW222332   1.020   0.884   3.022
 7145SOL     OW22333   4.473   0.627   6.351
 7145SOL    HW122334   4.548   0.666   6.298
 7145SOL    HW222335   4.404   0.590   6.289
 7146SOL     OW22336   1.876   0.931   6.147
 7146SOL    HW122337   1.941   0.994   6.190
 7146SOL    HW222338   1.876   0.945   6.048
 7147SOL     OW22339   6.838   6.154   3.353
 7147SOL    HW122340   6.893   6.199   3.425
 7147SOL    HW222341   6.750   6.201   3.344
 7148SOL     OW22342   6.198   6.148   2.205
 7148SOL    HW122343   6.175   6.068   2.150
 7148SOL    HW222344   6.244   6.120   2.289
 7149SOL     OW22345   0.451   4.972   3.897
 7149SOL    HW122346   0.389   4.915   3.844
 7149SOL    HW222347   0.457   5.063   3.854
 7150SOL     OW22348   3.399   3.186   0.080
 7150SOL    HW122349   3.482   3.242   0.073
 7150SOL    HW222350   3.367   3.162   7.004
 7151SOL     OW22351   2.964   6.963   0.848
 7151SOL    HW122352   2.867   6.942   0.859
 7151SOL    HW222353   2.991   0.015   0.917
 7152SOL     OW22354   6.798   0.567   6.492
 7152SOL    HW122355   6.766   0.629   6.419
 7152SOL    HW222356   6.772   0.473   6.469
 7153SOL     OW22357   3.819   5.116   1.667
 7153SOL    HW122358   3.777   5.025   1.669
 7153SOL    HW222359   3.750   5.186   1.682
 7154SOL     OW22360   4.259   6.679   2.890
 7154SOL    HW122361   4.185   6.747   2.887
 7154SOL    HW222362   4.326   6.706   2.959
 7155SOL     OW22363   3.705   3.398   1.432
 7155SOL    HW122364   3.698   3.482   1.378
 7155SOL    HW222365   3.665   3.322   1.380
 7156SOL     OW22366   4.999   3.782   2.646
 7156SOL    HW122367   5.016   3.876   2.675
 7156SOL    HW222368   4.947   3.783   2.560
 7157SOL     OW22369   6.774   4.693   2.027
 7157SOL    HW122370   6.716   4.711   2.106
 7157SOL    HW222371   6.870   4.711   2.050
 7158SOL     OW22372   0.820   6.681   2.654
 7158SOL    HW122373   0.895   6.614   2.651
 7158SOL    HW222374   0.758   6.659   2.729
 7159SOL     OW22375   1.150   4.752   4.382
 7159SOL    HW122376   1.233   4.746   4.438
 7159SOL    HW222377   1.084   4.684   4.413
 7160SOL     OW22378   6.302   6.074   2.426
 7160SOL    HW122379   6.395   6.104   2.446
 7160SOL    HW222380   6.256   6.049   2.510
 7161SOL     OW22381   3.281   3.999   2.505
 7161SOL    HW122382   3.245   3.906   2.498
 7161SOL    HW222383   3.321   4.027   2.418
 7162SOL     OW22384   0.709   5.193   6.448
 7162SOL    HW122385   0.664   5.134   6.516
 7162SOL    HW222386   0.694   5.156   6.357
 7163SOL     OW22387   3.310   0.689   2.553
 7163SOL    HW122388   3.340   0.600   2.519
 7163SOL    HW222389   3.328   0.695   2.651
 7164SOL     OW22390   2.215   0.295   4.961
 7164SOL    HW122391   2.210   0.232   4.884
 7164SOL    HW222392   2.269   0.253   5.035
 7165SOL     OW22393   5.704   6.097   2.085
 7165SOL    HW122394   5.781   6.055   2.134
 7165SOL    HW222395   5.702   6.062   1.991
 7166SOL     OW22396   5.549   1.597   0.255
 7166SOL    HW122397   5.649   1.596   0.251
 7166SOL    HW222398   5.519   1.555   0.340
 7167SOL     OW22399   5.092   2.966   4.686
 7167SOL    HW122400   5.061   2.986   4.779
 7167SOL    HW222401   5.044   3.025   4.621
 7168SOL     OW22402   2.978   2.049   3.070
 7168SOL    HW122403   3.001   2.024   2.976
 7168SOL    HW222404   2.999   1.973   3.131
 7169SOL     OW22405   0.119   4.287   4.795
 7169SOL    HW122406   0.070   4.357   4.743
 7169SOL    HW222407   0.184   4.330   4.857
 7170SOL     OW22408   4.562   0.163   2.602
 7170SOL    HW122409   4.496   0.237   2.611
 7170SOL    HW222410   4.592   0.157   2.507
 7171SOL     OW22411   5.900   3.516   0.889
 7171SOL    HW122412   5.915   3.439   0.828
 7171SOL    HW222413   5.846   3.486   0.968
 7172SOL     OW22414   2.350   1.356   5.522
 7172SOL    HW122415   2.413   1.298   5.471
 7172SOL    HW222416   2.378   1.451   5.514
 7173SOL     OW22417   6.141   4.873   6.343
 7173SOL    HW122418   6.150   4.846   6.247
 7173SOL    HW222419   6.199   4.952   6.360
 7174SOL     OW22420   0.162   5.014   0.993
 7174SOL    HW122421   0.195   5.087   1.053
 7174SOL    HW222422   0.185   5.036   0.898
 7175SOL     OW22423   0.010   3.257   5.229
 7175SOL    HW122424   6.939   3.300   5.255
 7175SOL    HW222425   0.085   3.299   5.281
 7176SOL     OW22426   6.942   1.804   4.190
 7176SOL    HW122427   6.880   1.855   4.130
 7176SOL    HW222428   6.900   1.718   4.216
 7177SOL     OW22429   1.566   4.493   5.825
 7177SOL    HW122430   1.645   4.469   5.768
 7177SOL    HW222431   1.598   4.548   5.903
 7178SOL     OW22432   0.485   1.565   6.340
 7178SOL    HW122433   0.419   1.490   6.329
 7178SOL    HW222434   0.543   1.546   6.419
 7179SOL     OW22435   1.455   3.989   4.651
 7179SOL    HW122436   1.380   4.002   4.715
 7179SOL    HW222437   1.510   3.910   4.678
 7180SOL     OW22438   2.414   4.123   0.360
 7180SOL    HW122439   2.483   4.139   0.290
 7180SOL    HW222440   2.332   4.086   0.318
 7181SOL     OW22441   2.278   0.453   0.027
 7181SOL    HW122442   2.295   0.550   0.042
 7181SOL    HW222443   2.229   0.415   0.106
 7182SOL     OW22444   0.714   3.625   3.681
 7182SOL    HW122445   0.734   3.556   3.612
 7182SOL    HW222446   0.631   3.600   3.730
 7183SOL     OW22447   1.879   5.835   2.188
 7183SOL    HW122448   1.809   5.777   2.231
 7183SOL    HW222449   1.878   5.925   2.230
 7184SOL     OW22450   6.763   0.929   3.726
 7184SOL    HW122451   6.837   0.967   3.780
 7184SOL    HW222452   6.734   0.994   3.656
 7185SOL     OW22453   5.475   0.846   5.403
 7185SOL    HW122454   5.415   0.921   5.375
 7185SOL    HW222455   5.463   0.768   5.341
 7186SOL     OW22456   6.941   1.584   1.383
 7186SOL    HW122457   6.931   1.496   1.432
 7186SOL    HW222458   6.859   1.639   1.398
 7187SOL     OW22459   2.938   4.038   5.377
 7187SOL    HW122460   2.963   4.057   5.472
 7187SOL    HW222461   2.840   4.055   5.365
 7188SOL     OW22462   4.913   5.524   0.001
 7188SOL    HW122463   5.009   5.528   6.989
 7188SOL    HW222464   4.893   5.598   0.066
 7189SOL     OW22465   6.592   2.944   5.492
 7189SOL    HW122466   6.613   3.041   5.507
 7189SOL    HW222467   6.580   2.927   5.394
 7190SOL     OW22468   6.191   6.000   1.473
 7190SOL    HW122469   6.238   6.088   1.463
 7190SOL    HW222470   6.093   6.015   1.483
 7191SOL     OW22471   0.721   4.305   2.687
 7191SOL    HW122472   0.791   4.300   2.616
 7191SOL    HW222473   0.694   4.212   2.713
 7192SOL     OW22474   1.578   3.965   6.980
 7192SOL    HW122475   1.675   3.945   6.968
 7192SOL    HW222476   1.524   3.909   6.918
 7193SOL     OW22477   2.017   2.217   2.267
 7193SOL    HW122478   1.993   2.125   2.236
 7193SOL    HW222479   2.097   2.212   2.327
 7194SOL     OW22480   1.699   2.778   6.995
 7194SOL    HW122481   1.615   2.725   7.002
 7194SOL    HW222482   1.729   2.781   6.899
 7195SOL     OW22483   6.503   4.173   6.951
 7195SOL    HW122484   6.561   4.253   6.964
 7195SOL    HW222485   6.425   4.197   6.894
 7196SOL     OW22486   2.668   3.736   1.366
 7196SOL    HW122487   2.758   3.779   1.370
 7196SOL    HW222488   2.622   3.761   1.281
 7197SOL     OW22489   1.045   3.283   5.470
 7197SOL    HW122490   0.986   3.245   5.399
 7197SOL    HW222491   1.119   3.335   5.427
 7198SOL     OW22492   0.779   1.224   0.164
 7198SOL    HW122493   0.833   1.140   0.162
 7198SOL    HW222494   0.681   1.202   0.165
 7199SOL     OW22495   1.018   0.284   2.925
 7199SOL    HW122496   1.015   0.371   2.973
 7199SOL    HW222497   0.934   0.271   2.873
 7200SOL     OW22498   2.201   2.803   6.687
 7200SOL    HW122499   2.295   2.771   6.695
 7200SOL    HW222500   2.195   2.898   6.719
 7201SOL     OW22501   0.644   5.512   4.290
 7201SOL    HW122502   0.697   5.456   4.353
 7201SOL    HW222503   0.549   5.516   4.320
 7202SOL     OW22504   4.515   6.585   6.716
 7202SOL    HW122505   4.440   6.559   6.654
 7202SOL    HW222506   4.548   6.504   6.764
 7203SOL     OW22507   6.786   1.384   1.554
 7203SOL    HW122508   6.686   1.387   1.552
 7203SOL    HW222509   6.819   1.439   1.631
 7204SOL     OW22510   6.884   1.457   6.661
 7204SOL    HW122511   6.890   1.555   6.677
 7204SOL    HW222512   6.974   1.415   6.675
 7205SOL     OW22513   1.825   4.196   5.241
 7205SOL    HW122514   1.866   4.250   5.167
 7205SOL    HW222515   1.868   4.220   5.327
 7206SOL     OW22516   1.596   1.334   1.728
 7206SOL    HW122517   1.608   1.420   1.678
 7206SOL    HW222518   1.499   1.309   1.728
 7207SOL     OW22519   2.982   0.572   4.540
 7207SOL    HW122520   2.990   0.490   4.596
 7207SOL    HW222521   2.981   0.653   4.599
 7208SOL     OW22522   5.026   0.410   3.342
 7208SOL    HW122523   5.085   0.479   3.300
 7208SOL    HW222524   5.056   0.318   3.314
 7209SOL     OW22525   2.023   2.672   2.099
 7209SOL    HW122526   1.991   2.603   2.034
 7209SOL    HW222527   2.122   2.664   2.109
 7210SOL     OW22528   3.839   2.053   3.955
 7210SOL    HW122529   3.897   1.988   3.905
 7210SOL    HW222530   3.769   2.088   3.893
 7211SOL     OW22531   2.874   6.210   5.120
 7211SOL    HW122532   2.781   6.188   5.150
 7211SOL    HW222533   2.878   6.205   5.020
 7212SOL     OW22534   0.441   6.065   5.440
 7212SOL    HW122535   0.344   6.044   5.457
 7212SOL    HW222536   0.451   6.096   5.345
 7213SOL     OW22537   3.536   6.086   6.529
 7213SOL    HW122538   3.493   6.116   6.444
 7213SOL    HW222539   3.469   6.035   6.584
 7214SOL     OW22540   6.409   0.519   5.625
 7214SOL    HW122541   6.451   0.449   5.567
 7214SOL    HW222542   6.425   0.610   5.584
 7215SOL     OW22543   5.732   2.890   4.144
 7215SOL    HW122544   5.682   2.806   4.164
 7215SOL    HW222545   5.741   2.901   4.045
 7216SOL     OW22546   2.671   6.821   2.276
 7216SOL    HW122547   2.605   6.879   2.323
 7216SOL    HW222548   2.632   6.729   2.264
 7217SOL     OW22549   1.868   3.110   3.478
 7217SOL    HW122550   1.934   3.134   3.407
 7217SOL    HW222551   1.911   3.119   3.568
 7218SOL     OW22552   6.882   2.572   4.379
 7218SOL    HW122553   6.808   2.515   4.345
 7218SOL    HW222554   6.865   2.597   4.474
 7219SOL     OW22555   3.072   0.551   2.128
 7219SOL    HW122556   3.028   0.552   2.038
 7219SOL    HW222557   3.017   0.497   2.192
 7220SOL     OW22558   6.497   4.397   3.926
 7220SOL    HW122559   6.511   4.444   4.013
 7220SOL    HW222560   6.579   4.405   3.870
 7221SOL     OW22561   3.784   6.101   4.581
 7221SOL    HW122562   3.697   6.119   4.627
 7221SOL    HW222563   3.859   6.135   4.638
 7222SOL     OW22564   6.239   6.442   3.416
 7222SOL    HW122565   6.161   6.465   3.359
 7222SOL    HW222566   6.322   6.481   3.376
 7223SOL     OW22567   3.063   1.318   0.834
 7223SOL    HW122568   3.133   1.375   0.792
 7223SOL    HW222569   3.053   1.343   0.931
 7224SOL     OW22570   5.020   2.899   4.269
 7224SOL    HW122571   5.079   2.840   4.324
 7224SOL    HW222572   4.950   2.939   4.327
 7225SOL     OW22573   1.783   6.162   0.864
 7225SOL    HW122574   1.798   6.260   0.854
 7225SOL    HW222575   1.743   6.143   0.954
 7226SOL     OW22576   5.582   6.652   1.174
 7226SOL    HW122577   5.513   6.717   1.144
 7226SOL    HW222578   5.592   6.579   1.107
 7227SOL     OW22579   2.665   1.839   1.512
 7227SOL    HW122580   2.764   1.828   1.524
 7227SOL    HW222581   2.632   1.914   1.570
 7228SOL     OW22582   1.315   1.235   2.860
 7228SOL    HW122583   1.305   1.205   2.765
 7228SOL    HW222584   1.305   1.335   2.864
 7229SOL     OW22585   0.750   6.758   5.034
 7229SOL    HW122586   0.716   6.791   5.122
 7229SOL    HW222587   0.777   6.836   4.978
 7230SOL     OW22588   3.061   6.014   3.649
 7230SOL    HW122589   3.154   5.977   3.644
 7230SOL    HW222590   2.996   5.945   3.618
 7231SOL     OW22591   3.977   0.638   6.597
 7231SOL    HW122592   3.943   0.732   6.592
 7231SOL    HW222593   4.077   0.639   6.600
 7232SOL     OW22594   4.746   5.737   2.806
 7232SOL    HW122595   4.766   5.828   2.844
 7232SOL    HW222596   4.659   5.741   2.757
 7233SOL     OW22597   1.526   1.199   4.725
 7233SOL    HW122598   1.467   1.198   4.806
 7233SOL    HW222599   1.508   1.282   4.672
 7234SOL     OW22600   5.743   3.013   3.262
 7234SOL    HW122601   5.793   2.930   3.290
 7234SOL    HW222602   5.769   3.037   3.169
 7235SOL     OW22603   6.768   4.082   1.598
 7235SOL    HW122604   6.731   4.157   1.653
 7235SOL    HW222605   6.708   4.065   1.520
 7236SOL     OW22606   2.742   2.307   2.533
 7236SOL    HW122607   2.673   2.370   2.567
 7236SOL    HW222608   2.755   2.321   2.435
 7237SOL     OW22609   3.931   0.347   5.467
 7237SOL    HW122610   3.971   0.356   5.558
 7237SOL    HW222611   3.967   0.265   5.422
 7238SOL     OW22612   4.171   2.126   5.828
 7238SOL    HW122613   4.267   2.099   5.833
 7238SOL    HW222614   4.117   2.054   5.785
 7239SOL     OW22615   0.919   2.517   1.653
 7239SOL    HW122616   0.909   2.417   1.645
 7239SOL    HW222617   0.828   2.558   1.663
 7240SOL     OW22618   0.186   1.334   6.247
 7240SOL    HW122619   0.116   1.264   6.233
 7240SOL    HW222620   0.152   1.422   6.214
 7241SOL     OW22621   2.595   0.453   0.886
 7241SOL    HW122622   2.582   0.474   0.789
 7241SOL    HW222623   2.507   0.429   0.927
 7242SOL     OW22624   6.225   5.765   6.685
 7242SOL    HW122625   6.316   5.783   6.648
 7242SOL    HW222626   6.189   5.681   6.645
 7243SOL     OW22627   6.800   4.349   5.984
 7243SOL    HW122628   6.823   4.366   6.080
 7243SOL    HW222629   6.862   4.401   5.925
 7244SOL     OW22630   0.208   0.648   1.087
 7244SOL    HW122631   0.304   0.660   1.061
 7244SOL    HW222632   0.149   0.695   1.022
 7245SOL     OW22633   1.397   3.271   5.172
 7245SOL    HW122634   1.370   3.327   5.250
 7245SOL    HW222635   1.484   3.225   5.193
 7246SOL     OW22636   1.229   0.024   3.767
 7246SOL    HW122637   1.158   7.011   3.831
 7246SOL    HW222638   1.299   6.968   3.760
 7247SOL     OW22639   2.672   1.371   5.078
 7247SOL    HW122640   2.646   1.327   5.164
 7247SOL    HW222641   2.733   1.311   5.027
 7248SOL     OW22642   3.398   1.029   2.587
 7248SOL    HW122643   3.421   0.986   2.674
 7248SOL    HW222644   3.329   0.974   2.540
 7249SOL     OW22645   5.203   5.007   2.078
 7249SOL    HW122646   5.258   5.007   2.162
 7249SOL    HW222647   5.127   4.943   2.089
 7250SOL     OW22648   5.456   6.204   5.685
 7250SOL    HW122649   5.537   6.242   5.639
 7250SOL    HW222650   5.450   6.240   5.778
 7251SOL     OW22651   0.707   6.739   5.798
 7251SOL    HW122652   0.726   6.653   5.845
 7251SOL    HW222653   0.629   6.727   5.737
 7252SOL     OW22654   3.385   3.613   1.879
 7252SOL    HW122655   3.300   3.565   1.899
 7252SOL    HW222656   3.419   3.585   1.789
 7253SOL     OW22657   1.630   5.671   6.624
 7253SOL    HW122658   1.566   5.645   6.696
 7253SOL    HW222659   1.721   5.682   6.663
 7254SOL     OW22660   5.274   5.216   4.808
 7254SOL    HW122661   5.222   5.301   4.810
 7254SOL    HW222662   5.236   5.152   4.875
 7255SOL     OW22663   3.945   3.580   0.430
 7255SOL    HW122664   3.956   3.482   0.443
 7255SOL    HW222665   3.967   3.629   0.514
 7256SOL     OW22666   3.247   5.967   5.214
 7256SOL    HW122667   3.291   5.880   5.191
 7256SOL    HW222668   3.185   5.994   5.141
 7257SOL     OW22669   0.017   1.807   3.757
 7257SOL    HW122670   0.108   1.781   3.725
 7257SOL    HW222671   6.963   1.758   3.704
 7258SOL     OW22672   5.082   2.502   3.220
 7258SOL    HW122673   5.155   2.560   3.257
 7258SOL    HW222674   5.121   2.439   3.153
 7259SOL     OW22675   1.933   3.679   1.989
 7259SOL    HW122676   1.975   3.756   1.942
 7259SOL    HW222677   1.969   3.593   1.953
 7260SOL     OW22678   5.339   1.695   1.725
 7260SOL    HW122679   5.435   1.723   1.724
 7260SOL    HW222680   5.290   1.746   1.654
 7261SOL     OW22681   1.746   4.605   1.764
 7261SOL    HW122682   1.836   4.626   1.803
 7261SOL    HW222683   1.743   4.508   1.739
 7262SOL     OW22684   5.433   2.308   6.361
 7262SOL    HW122685   5.412   2.213   6.387
 7262SOL    HW222686   5.434   2.365   6.444
 7263SOL     OW22687   0.734   6.694   0.091
 7263SOL    HW122688   0.652   6.739   0.057
 7263SOL    HW222689   0.713   6.600   0.115
 7264SOL     OW22690   5.674   1.419   6.736
 7264SOL    HW122691   5.592   1.389   6.687
 7264SOL    HW222692   5.667   1.389   6.832
 7265SOL     OW22693   5.460   5.027   6.474
 7265SOL    HW122694   5.528   5.062   6.537
 7265SOL    HW222695   5.374   5.077   6.485
 7266SOL     OW22696   5.598   0.437   2.703
 7266SOL    HW122697   5.664   0.423   2.629
 7266SOL    HW222698   5.506   0.423   2.668
 7267SOL     OW22699   5.971   6.371   4.777
 7267SOL    HW122700   5.927   6.452   4.816
 7267SOL    HW222701   6.024   6.397   4.696
 7268SOL     OW22702   6.747   5.615   4.361
 7268SOL    HW122703   6.699   5.677   4.301
 7268SOL    HW222704   6.795   5.667   4.432
 7269SOL     OW22705   1.490   5.977   5.756
 7269SOL    HW122706   1.517   5.884   5.732
 7269SOL    HW222707   1.527   6.000   5.847
 7270SOL     OW22708   0.883   3.162   5.061
 7270SOL    HW122709   0.891   3.118   5.150
 7270SOL    HW222710   0.837   3.100   4.997
 7271SOL     OW22711   0.982   4.989   4.373
 7271SOL    HW122712   1.025   4.900   4.358
 7271SOL    HW222713   1.007   5.051   4.299
 7272SOL     OW22714   6.265   5.185   2.368
 7272SOL    HW122715   6.336   5.203   2.436
 7272SOL    HW222716   6.305   5.134   2.291
 7273SOL     OW22717   6.584   4.121   1.124
 7273SOL    HW122718   6.520   4.197   1.114
 7273SOL    HW222719   6.542   4.037   1.090
 7274SOL     OW22720   0.548   5.319   6.037
 7274SOL    HW122721   0.513   5.396   5.984
 7274SOL    HW222722   0.639   5.341   6.073
 7275SOL     OW22723   0.620   5.728   2.761
 7275SOL    HW122724   0.641   5.722   2.858
 7275SOL    HW222725   0.699   5.698   2.708
 7276SOL     OW22726   5.135   0.253   2.832
 7276SOL    HW122727   5.202   0.183   2.859
 7276SOL    HW222728   5.057   0.249   2.893
 7277SOL     OW22729   5.673   0.899   4.073
 7277SOL    HW122730   5.690   0.968   4.143
 7277SOL    HW222731   5.578   0.907   4.042
 7278SOL     OW22732   3.753   2.554   1.336
 7278SOL    HW122733   3.778   2.501   1.254
 7278SOL    HW222734   3.782   2.504   1.417
 7279SOL     OW22735   3.892   4.619   6.214
 7279SOL    HW122736   3.943   4.614   6.300
 7279SOL    HW222737   3.794   4.619   6.233
 7280SOL     OW22738   0.423   1.632   4.365
 7280SOL    HW122739   0.474   1.588   4.292
 7280SOL    HW222740   0.450   1.728   4.371
 7281SOL     OW22741   2.894   1.809   6.963
 7281SOL    HW122742   2.868   1.756   0.028
 7281SOL    HW222743   2.867   1.904   6.975
 7282SOL     OW22744   5.787   4.669   3.195
 7282SOL    HW122745   5.867   4.609   3.188
 7282SOL    HW222746   5.817   4.764   3.205
 7283SOL     OW22747   4.470   1.242   2.722
 7283SOL    HW122748   4.533   1.169   2.747
 7283SOL    HW222749   4.380   1.224   2.760
 7284SOL     OW22750   0.503   2.446   5.991
 7284SOL    HW122751   0.508   2.347   6.008
 7284SOL    HW222752   0.416   2.467   5.947
 7285SOL     OW22753   5.213   2.939   2.343
 7285SOL    HW122754   5.148   2.871   2.379
 7285SOL    HW222755   5.302   2.897   2.329
 7286SOL     OW22756   2.173   1.236   0.458
 7286SOL    HW122757   2.246   1.258   0.394
 7286SOL    HW222758   2.169   1.137   0.472
 7287SOL     OW22759   0.398   2.593   5.679
 7287SOL    HW122760   0.481   2.601   5.735
 7287SOL    HW222761   0.373   2.683   5.644
 7288SOL     OW22762   2.302   1.070   0.696
 7288SOL    HW122763   2.358   1.046   0.775
 7288SOL    HW222764   2.280   1.167   0.698
 7289SOL     OW22765   4.705   2.388   4.424
 7289SOL    HW122766   4.800   2.417   4.433
 7289SOL    HW222767   4.684   2.373   4.327
 7290SOL     OW22768   3.543   0.451   5.220
 7290SOL    HW122769   3.583   0.531   5.175
 7290SOL    HW222770   3.602   0.423   5.295
 7291SOL     OW22771   1.910   6.392   0.678
 7291SOL    HW122772   1.867   6.447   0.750
 7291SOL    HW222773   1.964   6.452   0.619
 7292SOL     OW22774   3.510   1.203   3.603
 7292SOL    HW122775   3.451   1.170   3.529
 7292SOL    HW222776   3.524   1.129   3.670
 7293SOL     OW22777   1.577   2.105   4.603
 7293SOL    HW122778   1.673   2.102   4.631
 7293SOL    HW222779   1.520   2.060   4.672
 7294SOL     OW22780   2.531   4.962   6.631
 7294SOL    HW122781   2.583   4.881   6.656
 7294SOL    HW222782   2.586   5.020   6.572
 7295SOL     OW22783   6.865   2.921   1.031
 7295SOL    HW122784   6.829   2.961   0.947
 7295SOL    HW222785   6.965   2.918   1.027
 7296SOL     OW22786   3.140   5.915   2.178
 7296SOL    HW122787   3.231   5.926   2.137
 7296SOL    HW222788   3.127   5.985   2.249
 7297SOL     OW22789   3.934   0.061   1.448
 7297SOL    HW122790   3.841   0.070   1.412
 7297SOL    HW222791   3.941   0.108   1.535
 7298SOL     OW22792   5.173   5.008   5.903
 7298SOL    HW122793   5.106   4.967   5.964
 7298SOL    HW222794   5.139   5.095   5.868
 7299SOL     OW22795   1.216   2.136   0.333
 7299SOL    HW122796   1.136   2.075   0.334
 7299SOL    HW222797   1.189   2.226   0.299
 7300SOL     OW22798   0.567   6.217   3.359
 7300SOL    HW122799   0.544   6.310   3.332
 7300SOL    HW222800   0.609   6.219   3.450
 7301SOL     OW22801   5.053   1.417   4.599
 7301SOL    HW122802   5.002   1.500   4.619
 7301SOL    HW222803   5.044   1.394   4.502
 7302SOL     OW22804   0.923   2.317   4.846
 7302SOL    HW122805   0.901   2.342   4.751
 7302SOL    HW222806   0.849   2.346   4.906
 7303SOL     OW22807   3.782   0.407   0.376
 7303SOL    HW122808   3.857   0.458   0.419
 7303SOL    HW222809   3.776   0.433   0.279
 7304SOL     OW22810   3.790   5.426   1.438
 7304SOL    HW122811   3.819   5.518   1.416
 7304SOL    HW222812   3.862   5.361   1.415
 7305SOL     OW22813   4.381   0.916   0.225
 7305SOL    HW122814   4.355   1.012   0.223
 7305SOL    HW222815   4.445   0.898   0.150
 7306SOL     OW22816   5.197   1.540   0.635
 7306SOL    HW122817   5.290   1.507   0.617
 7306SOL    HW222818   5.200   1.635   0.666
 7307SOL     OW22819   2.552   6.363   2.644
 7307SOL    HW122820   2.503   6.410   2.718
 7307SOL    HW222821   2.513   6.389   2.556
 7308SOL     OW22822   6.841   2.862   5.664
 7308SOL    HW122823   6.874   2.851   5.758
 7308SOL    HW222824   6.742   2.873   5.664
 7309SOL     OW22825   4.488   5.520   1.483
 7309SOL    HW122826   4.562   5.583   1.506
 7309SOL    HW222827   4.403   5.572   1.473
 7310SOL     OW22828   2.425   3.724   1.091
 7310SOL    HW122829   2.395   3.817   1.071
 7310SOL    HW222830   2.363   3.681   1.156
 7311SOL     OW22831   2.183   1.694   1.547
 7311SOL    HW122832   2.260   1.702   1.611
 7311SOL    HW222833   2.102   1.734   1.589
 7312SOL     OW22834   0.922   3.568   4.845
 7312SOL    HW122835   0.885   3.638   4.784
 7312SOL    HW222836   1.014   3.543   4.815
 7313SOL     OW22837   2.350   0.691   0.108
 7313SOL    HW122838   2.406   0.727   0.183
 7313SOL    HW222839   2.398   0.707   0.021
 7314SOL     OW22840   6.877   5.463   5.969
 7314SOL    HW122841   6.804   5.424   5.913
 7314SOL    HW222842   6.956   5.483   5.912
 7315SOL     OW22843   6.192   0.179   2.099
 7315SOL    HW122844   6.222   0.211   2.189
 7315SOL    HW222845   6.272   0.154   2.045
 7316SOL     OW22846   2.783   4.261   6.829
 7316SOL    HW122847   2.795   4.263   6.928
 7316SOL    HW222848   2.687   4.280   6.807
 7317SOL     OW22849   5.035   1.329   2.968
 7317SOL    HW122850   4.999   1.334   3.061
 7317SOL    HW222851   5.126   1.370   2.966
 7318SOL     OW22852   1.805   0.617   1.799
 7318SOL    HW122853   1.715   0.652   1.824
 7318SOL    HW222854   1.823   0.638   1.703
 7319SOL     OW22855   0.002   3.526   6.246
 7319SOL    HW122856   6.947   3.565   6.187
 7319SOL    HW222857   0.048   3.452   6.198
 7320SOL     OW22858   0.059   3.470   2.709
 7320SOL    HW122859   0.130   3.411   2.669
 7320SOL    HW222860   0.068   3.562   2.672
 7321SOL     OW22861   1.890   0.557   5.949
 7321SOL    HW122862   1.867   0.652   5.928
 7321SOL    HW222863   1.982   0.537   5.915
 7322SOL     OW22864   6.919   2.784   3.202
 7322SOL    HW122865   6.886   2.827   3.286
 7322SOL    HW222866   6.996   2.724   3.223
 7323SOL     OW22867   1.120   2.468   1.857
 7323SOL    HW122868   1.194   2.521   1.900
 7323SOL    HW222869   1.073   2.525   1.789
 7324SOL     OW22870   4.508   5.630   2.359
 7324SOL    HW122871   4.567   5.586   2.427
 7324SOL    HW222872   4.537   5.725   2.346
 7325SOL     OW22873   3.448   6.947   0.295
 7325SOL    HW122874   3.357   6.913   0.318
 7325SOL    HW222875   3.441   0.025   0.261
 7326SOL     OW22876   2.690   6.203   6.296
 7326SOL    HW122877   2.732   6.290   6.323
 7326SOL    HW222878   2.762   6.135   6.279
 7327SOL     OW22879   6.076   1.469   6.393
 7327SOL    HW122880   6.065   1.533   6.469
 7327SOL    HW222881   6.117   1.517   6.315
 7328SOL     OW22882   3.144   1.038   6.132
 7328SOL    HW122883   3.127   1.022   6.035
 7328SOL    HW222884   3.204   0.967   6.168
 7329SOL     OW22885   6.650   3.959   1.347
 7329SOL    HW122886   6.672   3.865   1.322
 7329SOL    HW222887   6.630   4.012   1.264
 7330SOL     OW22888   2.652   2.390   7.014
 7330SOL    HW122889   2.583   2.434   6.957
 7330SOL    HW222890   2.729   2.454   0.012
 7331SOL     OW22891   5.404   6.413   1.748
 7331SOL    HW122892   5.400   6.317   1.720
 7331SOL    HW222893   5.433   6.418   1.844
 7332SOL     OW22894   2.654   6.115   0.222
 7332SOL    HW122895   2.578   6.173   0.252
 7332SOL    HW222896   2.663   6.038   0.285
 7333SOL     OW22897   0.349   2.914   2.308
 7333SOL    HW122898   0.398   2.992   2.271
 7333SOL    HW222899   0.397   2.829   2.284
 7334SOL     OW22900   2.489   5.734   6.517
 7334SOL    HW122901   2.439   5.789   6.585
 7334SOL    HW222902   2.568   5.785   6.484
 7335SOL     OW22903   2.018   2.654   3.066
 7335SOL    HW122904   2.095   2.606   3.109
 7335SOL    HW222905   2.034   2.660   2.967
 7336SOL     OW22906   1.551   6.288   2.908
 7336SOL    HW122907   1.476   6.246   2.958
 7336SOL    HW222908   1.531   6.289   2.810
 7337SOL     OW22909   0.394   3.154   1.579
 7337SOL    HW122910   0.434   3.093   1.511
 7337SOL    HW222911   0.308   3.190   1.545
 7338SOL     OW22912   6.067   1.812   1.804
 7338SOL    HW122913   6.105   1.881   1.742
 7338SOL    HW222914   5.979   1.780   1.768
 7339SOL     OW22915   5.870   6.705   4.167
 7339SOL    HW122916   5.784   6.654   4.170
 7339SOL    HW222917   5.854   6.798   4.200
 7340SOL     OW22918   3.229   1.566   0.699
 7340SOL    HW122919   3.307   1.619   0.666
 7340SOL    HW222920   3.171   1.541   0.621
 7341SOL     OW22921   0.716   3.789   6.158
 7341SOL    HW122922   0.768   3.857   6.107
 7341SOL    HW222923   0.779   3.724   6.202
 7342SOL     OW22924   0.442   2.076   0.981
 7342SOL    HW122925   0.484   2.081   1.072
 7342SOL    HW222926   0.488   2.005   0.928
 7343SOL     OW22927   6.397   3.664   0.856
 7343SOL    HW122928   6.299   3.660   0.838
 7343SOL    HW222929   6.439   3.735   0.800
 7344SOL     OW22930   1.052   0.933   6.396
 7344SOL    HW122931   1.075   0.844   6.356
 7344SOL    HW222932   1.057   1.003   6.325
 7345SOL     OW22933   4.024   4.759   5.778
 7345SOL    HW122934   4.097   4.690   5.768
 7345SOL    HW222935   3.946   4.718   5.824
 7346SOL     OW22936   3.815   4.867   2.005
 7346SOL    HW122937   3.739   4.803   2.014
 7346SOL    HW222938   3.780   4.960   1.996
 7347SOL     OW22939   0.975   1.997   0.170
 7347SOL    HW122940   0.990   1.899   0.185
 7347SOL    HW222941   1.019   2.024   0.084
 7348SOL     OW22942   1.623   3.772   4.262
 7348SOL    HW122943   1.718   3.767   4.293
 7348SOL    HW222944   1.620   3.753   4.164
 7349SOL     OW22945   4.898   1.567   1.548
 7349SOL    HW122946   4.890   1.573   1.647
 7349SOL    HW222947   4.808   1.548   1.508
 7350SOL     OW22948   2.773   2.580   5.726
 7350SOL    HW122949   2.853   2.559   5.670
 7350SOL    HW222950   2.737   2.670   5.701
 7351SOL     OW22951   5.368   5.712   4.787
 7351SOL    HW122952   5.353   5.759   4.700
 7351SOL    HW222953   5.434   5.637   4.773
 7352SOL     OW22954   1.493   1.483   3.085
 7352SOL    HW122955   1.520   1.487   2.989
 7352SOL    HW222956   1.446   1.568   3.109
 7353SOL     OW22957   0.245   0.076   6.445
 7353SOL    HW122958   0.188   0.157   6.457
 7353SOL    HW222959   0.323   0.098   6.386
 7354SOL     OW22960   0.716   2.159   4.646
 7354SOL    HW122961   0.681   2.198   4.562
 7354SOL    HW222962   0.758   2.070   4.627
 7355SOL     OW22963   1.615   0.390   0.729
 7355SOL    HW122964   1.701   0.341   0.744
 7355SOL    HW222965   1.580   0.424   0.817
 7356SOL     OW22966   3.908   3.675   5.933
 7356SOL    HW122967   3.984   3.711   5.880
 7356SOL    HW222968   3.890   3.734   6.011
 7357SOL     OW22969   3.305   6.958   1.996
 7357SOL    HW122970   3.314   6.861   2.016
 7357SOL    HW222971   3.246   6.970   1.916
 7358SOL     OW22972   6.080   3.386   2.623
 7358SOL    HW122973   6.175   3.355   2.634
 7358SOL    HW222974   6.074   3.446   2.543
 7359SOL     OW22975   3.929   1.864   5.748
 7359SOL    HW122976   3.989   1.921   5.691
 7359SOL    HW222977   3.858   1.920   5.788
 7360SOL     OW22978   2.879   3.297   5.795
 7360SOL    HW122979   2.799   3.241   5.773
 7360SOL    HW222980   2.937   3.304   5.714
 7361SOL     OW22981   5.065   0.369   1.923
 7361SOL    HW122982   5.081   0.455   1.874
 7361SOL    HW222983   4.971   0.369   1.958
 7362SOL     OW22984   1.243   5.245   6.147
 7362SOL    HW122985   1.300   5.272   6.069
 7362SOL    HW222986   1.271   5.155   6.181
 7363SOL     OW22987   4.845   1.909   0.962
 7363SOL    HW122988   4.746   1.924   0.960
 7363SOL    HW222989   4.890   1.978   0.905
 7364SOL     OW22990   4.698   0.700   1.556
 7364SOL    HW122991   4.632   0.773   1.538
 7364SOL    HW222992   4.791   0.738   1.554
 7365SOL     OW22993   0.550   5.932   1.934
 7365SOL    HW122994   0.589   5.839   1.934
 7365SOL    HW222995   0.453   5.927   1.910
 7366SOL     OW22996   2.099   6.310   6.798
 7366SOL    HW122997   2.008   6.307   6.839
 7366SOL    HW222998   2.099   6.375   6.722
 7367SOL     OW22999   5.703   2.486   1.208
 7367SOL    HW123000   5.669   2.451   1.121
 7367SOL    HW223001   5.683   2.421   1.281
 7368SOL     OW23002   3.751   2.959   2.641
 7368SOL    HW123003   3.729   2.947   2.738
 7368SOL    HW223004   3.836   3.011   2.633
 7369SOL     OW23005   3.353   2.361   0.407
 7369SOL    HW123006   3.352   2.321   0.498
 7369SOL    HW223007   3.301   2.302   0.345
 7370SOL     OW23008   2.776   0.830   4.823
 7370SOL    HW123009   2.873   0.843   4.802
 7370SOL    HW223010   2.751   0.887   4.901
 7371SOL     OW23011   2.509   0.059   3.650
 7371SOL    HW123012   2.417   0.089   3.675
 7371SOL    HW223013   2.569   0.139   3.641
 7372SOL     OW23014   4.707   0.543   3.915
 7372SOL    HW123015   4.748   0.456   3.942
 7372SOL    HW223016   4.633   0.566   3.979
 7373SOL     OW23017   6.269   1.639   3.695
 7373SOL    HW123018   6.179   1.614   3.730
 7373SOL    HW223019   6.302   1.722   3.741
 7374SOL     OW23020   3.216   1.893   5.013
 7374SOL    HW123021   3.144   1.963   5.021
 7374SOL    HW223022   3.211   1.830   5.090
 7375SOL     OW23023   2.075   2.428   2.503
 7375SOL    HW123024   2.149   2.479   2.547
 7375SOL    HW223025   2.112   2.345   2.461
 7376SOL     OW23026   1.626   1.931   0.760
 7376SOL    HW123027   1.616   1.943   0.859
 7376SOL    HW223028   1.719   1.901   0.739
 7377SOL     OW23029   5.190   4.514   0.693
 7377SOL    HW123030   5.137   4.598   0.701
 7377SOL    HW223031   5.286   4.536   0.675
 7378SOL     OW23032   0.214   0.918   5.738
 7378SOL    HW123033   0.234   0.820   5.745
 7378SOL    HW223034   0.242   0.951   5.648
 7379SOL     OW23035   3.305   1.863   2.486
 7379SOL    HW123036   3.214   1.884   2.521
 7379SOL    HW223037   3.326   1.767   2.502
 7380SOL     OW23038   0.241   4.387   3.707
 7380SOL    HW123039   0.206   4.451   3.638
 7380SOL    HW223040   0.296   4.316   3.662
 7381SOL     OW23041   4.038   2.883   0.467
 7381SOL    HW123042   4.045   2.926   0.557
 7381SOL    HW223043   3.995   2.793   0.477
 7382SOL     OW23044   0.502   0.770   5.349
 7382SOL    HW123045   0.438   0.837   5.384
 7382SOL    HW223046   0.509   0.779   5.250
 7383SOL     OW23047   2.861   6.611   0.780
 7383SOL    HW123048   2.855   6.559   0.865
 7383SOL    HW223049   2.958   6.626   0.757
 7384SOL     OW23050   6.765   6.168   2.759
 7384SOL    HW123051   6.729   6.081   2.725
 7384SOL    HW223052   6.789   6.158   2.856
 7385SOL     OW23053   3.404   5.349   2.498
 7385SOL    HW123054   3.350   5.289   2.558
 7385SOL    HW223055   3.363   5.350   2.407
 7386SOL     OW23056   7.012   2.418   6.880
 7386SOL    HW123057   0.002   2.489   6.950
 7386SOL    HW223058   6.921   2.375   6.883
 7387SOL     OW23059   6.124   5.707   5.991
 7387SOL    HW123060   6.185   5.732   6.067
 7387SOL    HW223061   6.127   5.778   5.921
 7388SOL     OW23062   1.304   5.202   1.824
 7388SOL    HW123063   1.222   5.155   1.855
 7388SOL    HW223064   1.299   5.298   1.849
 7389SOL     OW23065   5.920   3.839   6.128
 7389SOL    HW123066   6.010   3.855   6.169
 7389SOL    HW223067   5.922   3.863   6.031
 7390SOL     OW23068   2.055   2.556   1.741
 7390SOL    HW123069   2.141   2.529   1.785
 7390SOL    HW223070   1.979   2.541   1.804
 7391SOL     OW23071   4.077   3.281   3.469
 7391SOL    HW123072   4.074   3.367   3.521
 7391SOL    HW223073   4.113   3.299   3.378
 7392SOL     OW23074   3.114   5.571   6.385
 7392SOL    HW123075   3.211   5.545   6.391
 7392SOL    HW223076   3.103   5.666   6.414
 7393SOL     OW23077   6.113   4.446   2.491
 7393SOL    HW123078   6.206   4.434   2.527
 7393SOL    HW223079   6.113   4.431   2.392
 7394SOL     OW23080   2.034   2.895   5.705
 7394SOL    HW123081   2.101   2.830   5.742
 7394SOL    HW223082   1.948   2.887   5.755
 7395SOL     OW23083   1.890   3.504   1.263
 7395SOL    HW123084   1.934   3.573   1.206
 7395SOL    HW223085   1.873   3.422   1.208
 7396SOL     OW23086   2.017   6.670   1.310
 7396SOL    HW123087   2.100   6.627   1.347
 7396SOL    HW223088   2.019   6.768   1.329
 7397SOL     OW23089   4.936   5.786   4.674
 7397SOL    HW123090   4.889   5.739   4.748
 7397SOL    HW223091   5.023   5.741   4.656
 7398SOL     OW23092   1.286   4.346   3.711
 7398SOL    HW123093   1.232   4.385   3.786
 7398SOL    HW223094   1.248   4.256   3.687
 7399SOL     OW23095   0.647   2.770   4.601
 7399SOL    HW123096   0.654   2.858   4.555
 7399SOL    HW223097   0.551   2.752   4.624
 7400SOL     OW23098   4.492   2.726   5.753
 7400SOL    HW123099   4.401   2.759   5.730
 7400SOL    HW223100   4.495   2.701   5.850
 7401SOL     OW23101   1.231   2.501   3.672
 7401SOL    HW123102   1.293   2.567   3.630
 7401SOL    HW223103   1.144   2.546   3.692
 7402SOL     OW23104   2.961   4.803   6.003
 7402SOL    HW123105   2.877   4.793   5.951
 7402SOL    HW223106   3.003   4.891   5.983
 7403SOL     OW23107   1.719   4.140   2.271
 7403SOL    HW123108   1.688   4.048   2.246
 7403SOL    HW223109   1.817   4.147   2.255
 7404SOL     OW23110   2.793   4.368   1.625
 7404SOL    HW123111   2.698   4.397   1.631
 7404SOL    HW223112   2.847   4.416   1.694
 7405SOL     OW23113   3.572   4.897   4.194
 7405SOL    HW123114   3.670   4.897   4.177
 7405SOL    HW223115   3.555   4.901   4.293
 7406SOL     OW23116   0.094   2.471   3.509
 7406SOL    HW123117   0.051   2.418   3.582
 7406SOL    HW223118   0.130   2.409   3.440
 7407SOL     OW23119   0.686   6.930   5.297
 7407SOL    HW123120   0.738   7.015   5.298
 7407SOL    HW223121   0.600   6.943   5.347
 7408SOL     OW23122   3.425   3.989   6.706
 7408SOL    HW123123   3.392   3.962   6.796
 7408SOL    HW223124   3.523   4.008   6.711
 7409SOL     OW23125   5.232   3.274   0.056
 7409SOL    HW123126   5.150   3.298   0.108
 7409SOL    HW223127   5.217   3.187   0.008
 7410SOL     OW23128   0.418   0.583   0.486
 7410SOL    HW123129   0.364   0.591   0.402
 7410SOL    HW223130   0.511   0.557   0.462
 7411SOL     OW23131   1.988   0.885   6.738
 7411SOL    HW123132   1.958   0.951   6.807
 7411SOL    HW223133   1.929   0.804   6.743
 7412SOL     OW23134   4.694   0.548   1.320
 7412SOL    HW123135   4.692   0.481   1.395
 7412SOL    HW223136   4.717   0.638   1.356
 7413SOL     OW23137   4.376   5.072   3.570
 7413SOL    HW123138   4.349   5.060   3.474
 7413SOL    HW223139   4.343   5.161   3.602
 7414SOL     OW23140   1.035   0.708   3.263
 7414SOL    HW123141   1.088   0.764   3.199
 7414SOL    HW223142   0.995   0.766   3.334
 7415SOL     OW23143   1.759   4.432   4.546
 7415SOL    HW123144   1.749   4.333   4.532
 7415SOL    HW223145   1.677   4.479   4.513
 7416SOL     OW23146   1.622   1.071   2.081
 7416SOL    HW123147   1.587   0.998   2.139
 7416SOL    HW223148   1.651   1.033   1.993
 7417SOL     OW23149   2.135   2.264   1.470
 7417SOL    HW123150   2.158   2.170   1.444
 7417SOL    HW223151   2.113   2.268   1.567
 7418SOL     OW23152   1.641   5.641   0.465
 7418SOL    HW123153   1.542   5.652   0.475
 7418SOL    HW223154   1.684   5.649   0.554
 7419SOL     OW23155   6.512   3.807   4.196
 7419SOL    HW123156   6.482   3.830   4.289
 7419SOL    HW223157   6.609   3.826   4.187
 7420SOL     OW23158   0.710   6.132   1.825
 7420SOL    HW123159   0.709   6.217   1.878
 7420SOL    HW223160   0.645   6.067   1.865
 7421SOL     OW23161   4.462   3.733   1.230
 7421SOL    HW123162   4.389   3.724   1.297
 7421SOL    HW223163   4.540   3.677   1.259
 7422SOL     OW23164   0.460   4.432   1.658
 7422SOL    HW123165   0.547   4.393   1.628
 7422SOL    HW223166   0.440   4.401   1.751
 7423SOL     OW23167   5.959   2.906   5.442
 7423SOL    HW123168   5.865   2.898   5.476
 7423SOL    HW223169   6.015   2.834   5.483
 7424SOL     OW23170   6.383   1.160   5.434
 7424SOL    HW123171   6.448   1.223   5.391
 7424SOL    HW223172   6.349   1.200   5.519
 7425SOL     OW23173   4.761   6.945   0.440
 7425SOL    HW123174   4.852   6.968   0.476
 7425SOL    HW223175   4.761   6.851   0.407
 7426SOL     OW23176   3.256   1.765   5.253
 7426SOL    HW123177   3.354   1.753   5.267
 7426SOL    HW223178   3.210   1.771   5.342
 7427SOL     OW23179   5.363   0.559   3.568
 7427SOL    HW123180   5.397   0.584   3.477
 7427SOL    HW223181   5.439   0.524   3.623
 7428SOL     OW23182   4.257   1.606   5.139
 7428SOL    HW123183   4.306   1.649   5.215
 7428SOL    HW223184   4.188   1.670   5.104
 7429SOL     OW23185   0.292   6.519   4.236
 7429SOL    HW123186   0.363   6.511   4.166
 7429SOL    HW223187   0.267   6.615   4.247
 7430SOL     OW23188   1.244   3.726   0.967
 7430SOL    HW123189   1.232   3.822   0.993
 7430SOL    HW223190   1.171   3.671   1.007
 7431SOL     OW23191   0.546   2.754   3.323
 7431SOL    HW123192   0.529   2.808   3.241
 7431SOL    HW223193   0.470   2.691   3.338
 7432SOL     OW23194   1.357   0.584   3.461
 7432SOL    HW123195   1.406   0.599   3.376
 7432SOL    HW223196   1.268   0.542   3.442
 7433SOL     OW23197   4.201   5.911   5.979
 7433SOL    HW123198   4.274   5.937   5.916
 7433SOL    HW223199   4.117   5.959   5.954
 7434SOL     OW23200   5.060   5.042   5.326
 7434SOL    HW123201   5.026   5.005   5.240
 7434SOL    HW223202   5.030   4.984   5.401
 7435SOL     OW23203   4.056   5.882   1.320
 7435SOL    HW123204   4.124   5.831   1.268
 7435SOL    HW223205   4.037   5.969   1.274
 7436SOL     OW23206   4.001   4.147   6.685
 7436SOL    HW123207   3.994   4.232   6.633
 7436SOL    HW223208   3.941   4.152   6.766
 7437SOL     OW23209   2.202   6.053   6.763
 7437SOL    HW123210   2.170   6.010   6.678
 7437SOL    HW223211   2.163   6.145   6.771
 7438SOL     OW23212   0.952   6.461   0.346
 7438SOL    HW123213   0.950   6.382   0.407
 7438SOL    HW223214   0.925   6.543   0.396
 7439SOL     OW23215   1.843   6.204   5.947
 7439SOL    HW123216   1.854   6.295   5.985
 7439SOL    HW223217   1.909   6.142   5.988
 7440SOL     OW23218   0.183   2.987   3.779
 7440SOL    HW123219   0.132   3.065   3.744
 7440SOL    HW223220   0.149   2.963   3.870
 7441SOL     OW23221   5.567   0.053   4.410
 7441SOL    HW123222   5.479   0.101   4.408
 7441SOL    HW223223   5.606   0.058   4.502
 7442SOL     OW23224   6.100   1.237   6.559
 7442SOL    HW123225   6.083   1.301   6.484
 7442SOL    HW223226   6.197   1.240   6.584
 7443SOL     OW23227   6.400   6.361   1.466
 7443SOL    HW123228   6.428   6.455   1.448
 7443SOL    HW223229   6.480   6.301   1.461
 7444SOL     OW23230   5.271   2.659   6.918
 7444SOL    HW123231   5.273   2.710   7.004
 7444SOL    HW223232   5.229   2.715   6.847
 7445SOL     OW23233   3.494   0.625   1.075
 7445SOL    HW123234   3.457   0.626   0.982
 7445SOL    HW223235   3.546   0.709   1.091
 7446SOL     OW23236   5.193   2.836   0.381
 7446SOL    HW123237   5.139   2.895   0.440
 7446SOL    HW223238   5.290   2.853   0.396
 7447SOL     OW23239   6.731   4.034   6.744
 7447SOL    HW123240   6.659   4.065   6.682
 7447SOL    HW223241   6.800   4.106   6.754
 7448SOL     OW23242   6.153   6.702   4.912
 7448SOL    HW123243   6.138   6.604   4.899
 7448SOL    HW223244   6.249   6.724   4.891
 7449SOL     OW23245   0.910   4.748   1.542
 7449SOL    HW123246   0.881   4.830   1.494
 7449SOL    HW223247   0.842   4.722   1.610
 7450SOL     OW23248   5.634   2.621   4.819
 7450SOL    HW123249   5.646   2.720   4.824
 7450SOL    HW223250   5.548   2.596   4.865
 7451SOL     OW23251   0.007   5.968   2.588
 7451SOL    HW123252   7.005   6.033   2.661
 7451SOL    HW223253   0.018   5.877   2.626
 7452SOL     OW23254   6.020   5.907   4.043
 7452SOL    HW123255   5.978   5.997   4.034
 7452SOL    HW223256   5.968   5.841   3.990
 7453SOL     OW23257   5.563   4.850   4.873
 7453SOL    HW123258   5.526   4.862   4.965
 7453SOL    HW223259   5.650   4.899   4.866
 7454SOL     OW23260   1.670   2.218   0.667
 7454SOL    HW123261   1.674   2.299   0.726
 7454SOL    HW223262   1.578   2.178   0.672
 7455SOL     OW23263   0.046   2.781   1.682
 7455SOL    HW123264   7.008   2.698   1.698
 7455SOL    HW223265   0.114   2.763   1.610
 7456SOL     OW23266   1.538   0.938   4.666
 7456SOL    HW123267   1.531   1.032   4.697
 7456SOL    HW223268   1.624   0.898   4.696
 7457SOL     OW23269   3.175   1.002   5.145
 7457SOL    HW123270   3.163   1.084   5.200
 7457SOL    HW223271   3.229   1.023   5.063
 7458SOL     OW23272   1.814   0.300   6.231
 7458SOL    HW123273   1.790   0.290   6.134
 7458SOL    HW223274   1.913   0.315   6.239
 7459SOL     OW23275   5.513   0.685   1.908
 7459SOL    HW123276   5.603   0.656   1.941
 7459SOL    HW223277   5.442   0.633   1.955
 7460SOL     OW23278   0.644   5.177   0.429
 7460SOL    HW123279   0.683   5.090   0.399
 7460SOL    HW223280   0.710   5.224   0.489
 7461SOL     OW23281   6.357   0.247   6.922
 7461SOL    HW123282   6.402   0.329   6.887
 7461SOL    HW223283   6.348   0.253   0.006
 7462SOL     OW23284   1.651   4.864   1.840
 7462SOL    HW123285   1.685   4.780   1.797
 7462SOL    HW223286   1.551   4.865   1.839
 7463SOL     OW23287   3.007   4.634   0.476
 7463SOL    HW123288   2.976   4.637   0.571
 7463SOL    HW223289   3.021   4.727   0.442
 7464SOL     OW23290   5.368   6.731   6.238
 7464SOL    HW123291   5.314   6.719   6.321
 7464SOL    HW223292   5.454   6.778   6.260
 7465SOL     OW23293   2.720   5.405   6.494
 7465SOL    HW123294   2.648   5.453   6.445
 7465SOL    HW223295   2.735   5.448   6.583
 7466SOL     OW23296   6.682   0.516   5.159
 7466SOL    HW123297   6.591   0.553   5.180
 7466SOL    HW223298   6.682   0.481   5.065
 7467SOL     OW23299   0.257   1.692   6.529
 7467SOL    HW123300   0.329   1.636   6.570
 7467SOL    HW223301   0.282   1.715   6.435
 7468SOL     OW23302   5.842   3.370   3.793
 7468SOL    HW123303   5.781   3.373   3.873
 7468SOL    HW223304   5.790   3.393   3.711
 7469SOL     OW23305   6.874   0.262   0.232
 7469SOL    HW123306   6.950   0.207   0.269
 7469SOL    HW223307   6.891   0.359   0.250
 7470SOL     OW23308   5.939   3.322   3.269
 7470SOL    HW123309   5.879   3.343   3.192
 7470SOL    HW223310   5.963   3.407   3.316
 7471SOL     OW23311   4.698   6.465   5.978
 7471SOL    HW123312   4.644   6.549   5.963
 7471SOL    HW223313   4.747   6.442   5.894
 7472SOL     OW23314   6.061   0.819   5.737
 7472SOL    HW123315   6.050   0.858   5.646
 7472SOL    HW223316   5.973   0.787   5.771
 7473SOL     OW23317   5.192   5.174   3.700
 7473SOL    HW123318   5.149   5.214   3.781
 7473SOL    HW223319   5.128   5.175   3.624
 7474SOL     OW23320   0.154   2.194   5.954
 7474SOL    HW123321   0.106   2.110   5.981
 7474SOL    HW223322   0.189   2.183   5.861
 7475SOL     OW23323   4.894   2.410   2.232
 7475SOL    HW123324   4.932   2.330   2.186
 7475SOL    HW223325   4.867   2.478   2.164
 7476SOL     OW23326   3.416   1.404   3.324
 7476SOL    HW123327   3.397   1.463   3.245
 7476SOL    HW223328   3.482   1.450   3.384
 7477SOL     OW23329   6.808   1.984   5.025
 7477SOL    HW123330   6.820   1.985   4.926
 7477SOL    HW223331   6.716   2.016   5.047
 7478SOL     OW23332   6.389   3.827   5.470
 7478SOL    HW123333   6.368   3.925   5.479
 7478SOL    HW223334   6.313   3.781   5.423
 7479SOL     OW23335   4.387   2.279   2.133
 7479SOL    HW123336   4.414   2.308   2.224
 7479SOL    HW223337   4.451   2.211   2.098
 7480SOL     OW23338   1.556   5.037   2.309
 7480SOL    HW123339   1.537   4.996   2.398
 7480SOL    HW223340   1.496   4.996   2.240
 7481SOL     OW23341   5.907   5.421   1.188
 7481SOL    HW123342   5.894   5.509   1.144
 7481SOL    HW223343   5.930   5.435   1.284
 7482SOL     OW23344   4.356   2.378   2.856
 7482SOL    HW123345   4.348   2.462   2.802
 7482SOL    HW223346   4.347   2.299   2.796
 7483SOL     OW23347   5.025   3.234   4.378
 7483SOL    HW123348   4.946   3.195   4.331
 7483SOL    HW223349   5.108   3.218   4.323
 7484SOL     OW23350   1.308   6.093   4.252
 7484SOL    HW123351   1.246   6.169   4.231
 7484SOL    HW223352   1.389   6.098   4.193
 7485SOL     OW23353   2.516   0.197   4.687
 7485SOL    HW123354   2.566   0.146   4.617
 7485SOL    HW223355   2.422   0.213   4.657
 7486SOL     OW23356   1.326   6.332   0.416
 7486SOL    HW123357   1.416   6.375   0.415
 7486SOL    HW223358   1.297   6.318   0.511
 7487SOL     OW23359   2.120   0.687   2.776
 7487SOL    HW123360   2.113   0.600   2.727
 7487SOL    HW223361   2.029   0.717   2.804
 7488SOL     OW23362   2.795   5.566   5.265
 7488SOL    HW123363   2.843   5.629   5.325
 7488SOL    HW223364   2.697   5.573   5.280
 7489SOL     OW23365   6.749   2.750   6.373
 7489SOL    HW123366   6.672   2.813   6.383
 7489SOL    HW223367   6.787   2.730   6.463
 7490SOL     OW23368   1.090   0.199   3.599
 7490SOL    HW123369   1.133   0.137   3.665
 7490SOL    HW223370   0.992   0.183   3.598
 7491SOL     OW23371   4.632   3.304   6.419
 7491SOL    HW123372   4.581   3.370   6.475
 7491SOL    HW223373   4.714   3.276   6.468
 7492SOL     OW23374   1.948   0.462   3.718
 7492SOL    HW123375   1.898   0.476   3.803
 7492SOL    HW223376   1.885   0.468   3.641
 7493SOL     OW23377   0.844   2.695   6.270
 7493SOL    HW123378   0.897   2.710   6.353
 7493SOL    HW223379   0.857   2.773   6.208
 7494SOL     OW23380   5.957   1.256   3.149
 7494SOL    HW123381   5.961   1.307   3.063
 7494SOL    HW223382   6.014   1.302   3.217
 7495SOL     OW23383   1.407   2.420   6.751
 7495SOL    HW123384   1.478   2.433   6.681
 7495SOL    HW223385   1.317   2.428   6.709
 7496SOL     OW23386   6.317   3.840   4.027
 7496SOL    HW123387   6.387   3.774   4.055
 7496SOL    HW223388   6.337   3.929   4.067
 7497SOL     OW23389   2.039   4.394   1.204
 7497SOL    HW123390   1.966   4.328   1.186
 7497SOL    HW223391   2.042   4.414   1.302
 7498SOL     OW23392   3.123   1.117   4.875
 7498SOL    HW123393   3.049   1.168   4.920
 7498SOL    HW223394   3.206   1.173   4.875
 7499SOL     OW23395   4.390   2.042   3.050
 7499SOL    HW123396   4.327   1.964   3.046
 7499SOL    HW223397   4.416   2.059   3.145
 7500SOL     OW23398   3.405   6.011   3.443
 7500SOL    HW123399   3.496   5.972   3.431
 7500SOL    HW223400   3.414   6.103   3.481
 7501SOL     OW23401   5.031   4.073   4.569
 7501SOL    HW123402   5.098   4.018   4.619
 7501SOL    HW223403   4.947   4.080   4.623
 7502SOL     OW23404   3.301   0.908   4.584
 7502SOL    HW123405   3.311   1.004   4.558
 7502SOL    HW223406   3.240   0.863   4.519
 7503SOL     OW23407   2.426   6.791   1.393
 7503SOL    HW123408   2.379   6.871   1.431
 7503SOL    HW223409   2.496   6.759   1.457
 7504SOL     OW23410   0.679   6.223   3.612
 7504SOL    HW123411   0.749   6.153   3.629
 7504SOL    HW223412   0.590   6.189   3.642
 7505SOL     OW23413   1.177   2.872   5.842
 7505SOL    HW123414   1.088   2.893   5.801
 7505SOL    HW223415   1.200   2.776   5.825
 7506SOL     OW23416   5.300   2.046   3.661
 7506SOL    HW123417   5.251   2.019   3.578
 7506SOL    HW223418   5.334   1.964   3.707
 7507SOL     OW23419   6.063   1.893   2.797
 7507SOL    HW123420   6.108   1.841   2.725
 7507SOL    HW223421   6.048   1.987   2.766
 7508SOL     OW23422   2.126   5.703   0.901
 7508SOL    HW123423   2.183   5.743   0.830
 7508SOL    HW223424   2.036   5.681   0.864
 7509SOL     OW23425   5.890   4.081   0.917
 7509SOL    HW123426   5.962   4.022   0.880
 7509SOL    HW223427   5.832   4.113   0.842
 7510SOL     OW23428   3.415   3.516   4.999
 7510SOL    HW123429   3.341   3.492   4.937
 7510SOL    HW223430   3.448   3.608   4.978
 7511SOL     OW23431   2.758   6.009   3.481
 7511SOL    HW123432   2.762   5.909   3.473
 7511SOL    HW223433   2.723   6.034   3.571
 7512SOL     OW23434   2.900   0.615   6.472
 7512SOL    HW123435   2.807   0.639   6.444
 7512SOL    HW223436   2.897   0.537   6.535
 7513SOL     OW23437   1.157   1.478   2.077
 7513SOL    HW123438   1.139   1.464   1.979
 7513SOL    HW223439   1.166   1.576   2.095
 7514SOL     OW23440   2.365   4.725   2.926
 7514SOL    HW123441   2.296   4.792   2.953
 7514SOL    HW223442   2.342   4.687   2.836
 7515SOL     OW23443   0.083   4.737   4.384
 7515SOL    HW123444   0.150   4.693   4.325
 7515SOL    HW223445   0.088   4.836   4.372
 7516SOL     OW23446   6.864   5.459   6.271
 7516SOL    HW123447   6.877   5.445   6.173
 7516SOL    HW223448   6.803   5.387   6.307
 7517SOL     OW23449   0.583   2.223   0.029
 7517SOL    HW123450   0.527   2.163   0.086
 7517SOL    HW223451   0.666   2.248   0.079
 7518SOL     OW23452   4.904   3.741   4.286
 7518SOL    HW123453   4.952   3.657   4.311
 7518SOL    HW223454   4.852   3.775   4.364
 7519SOL     OW23455   6.570   6.288   4.598
 7519SOL    HW123456   6.645   6.338   4.642
 7519SOL    HW223457   6.606   6.213   4.544
 7520SOL     OW23458   2.031   0.376   3.004
 7520SOL    HW123459   1.973   0.297   3.024
 7520SOL    HW223460   2.123   0.345   2.980
 7521SOL     OW23461   4.960   2.690   5.324
 7521SOL    HW123462   5.021   2.713   5.400
 7521SOL    HW223463   4.964   2.592   5.306
 7522SOL     OW23464   1.357   1.212   5.776
 7522SOL    HW123465   1.290   1.223   5.850
 7522SOL    HW223466   1.387   1.117   5.772
 7523SOL     OW23467   5.108   0.603   6.280
 7523SOL    HW123468   5.128   0.515   6.323
 7523SOL    HW223469   5.012   0.606   6.252
 7524SOL     OW23470   0.770   2.774   5.077
 7524SOL    HW123471   0.837   2.745   5.146
 7524SOL    HW223472   0.784   2.721   4.993
 7525SOL     OW23473   3.761   0.178   6.906
 7525SOL    HW123474   3.771   0.269   6.946
 7525SOL    HW223475   3.701   0.123   6.965
 7526SOL     OW23476   2.907   3.001   1.440
 7526SOL    HW123477   2.911   3.003   1.340
 7526SOL    HW223478   2.819   3.038   1.471
 7527SOL     OW23479   3.371   6.174   3.913
 7527SOL    HW123480   3.336   6.082   3.930
 7527SOL    HW223481   3.295   6.236   3.893
 7528SOL     OW23482   6.152   2.239   6.207
 7528SOL    HW123483   6.073   2.182   6.228
 7528SOL    HW223484   6.191   2.210   6.119
 7529SOL     OW23485   5.703   1.393   4.527
 7529SOL    HW123486   5.736   1.434   4.441
 7529SOL    HW223487   5.714   1.459   4.601
 7530SOL     OW23488   6.795   2.215   1.926
 7530SOL    HW123489   6.771   2.278   1.852
 7530SOL    HW223490   6.881   2.169   1.904
 7531SOL     OW23491   5.516   3.506   4.176
 7531SOL    HW123492   5.481   3.417   4.205
 7531SOL    HW223493   5.443   3.574   4.178
 7532SOL     OW23494   4.644   6.332   0.896
 7532SOL    HW123495   4.715   6.325   0.826
 7532SOL    HW223496   4.682   6.377   0.977
 7533SOL     OW23497   3.521   2.002   1.554
 7533SOL    HW123498   3.472   2.057   1.620
 7533SOL    HW223499   3.473   1.915   1.540
 7534SOL     OW23500   4.437   5.754   4.408
 7534SOL    HW123501   4.473   5.726   4.497
 7534SOL    HW223502   4.415   5.673   4.354
 7535SOL     OW23503   1.825   6.760   4.946
 7535SOL    HW123504   1.900   6.820   4.917
 7535SOL    HW223505   1.851   6.714   5.031
 7536SOL     OW23506   5.031   4.512   4.206
 7536SOL    HW123507   5.090   4.473   4.135
 7536SOL    HW223508   5.010   4.442   4.274
 7537SOL     OW23509   1.955   5.010   2.515
 7537SOL    HW123510   1.886   5.057   2.571
 7537SOL    HW223511   2.013   5.077   2.471
 7538SOL     OW23512   1.843   2.090   1.536
 7538SOL    HW123513   1.834   2.171   1.595
 7538SOL    HW223514   1.762   2.084   1.477
 7539SOL     OW23515   1.334   3.442   4.463
 7539SOL    HW123516   1.400   3.368   4.447
 7539SOL    HW223517   1.275   3.418   4.540
 7540SOL     OW23518   4.492   0.812   4.531
 7540SOL    HW123519   4.506   0.728   4.478
 7540SOL    HW223520   4.431   0.794   4.608
 7541SOL     OW23521   0.805   3.931   4.934
 7541SOL    HW123522   0.726   3.988   4.957
 7541SOL    HW223523   0.792   3.892   4.843
 7542SOL     OW23524   0.407   5.965   0.131
 7542SOL    HW123525   0.423   5.894   0.063
 7542SOL    HW223526   0.454   5.942   0.216
 7543SOL     OW23527   3.802   1.168   5.072
 7543SOL    HW123528   3.748   1.103   5.126
 7543SOL    HW223529   3.755   1.186   4.986
 7544SOL     OW23530   6.591   2.553   4.513
 7544SOL    HW123531   6.573   2.455   4.517
 7544SOL    HW223532   6.507   2.601   4.485
 7545SOL     OW23533   0.733   6.227   6.247
 7545SOL    HW123534   0.753   6.324   6.230
 7545SOL    HW223535   0.813   6.184   6.287
 7546SOL     OW23536   4.631   2.003   1.419
 7546SOL    HW123537   4.569   1.934   1.457
 7546SOL    HW223538   4.725   1.983   1.447
 7547SOL     OW23539   5.160   1.813   0.704
 7547SOL    HW123540   5.248   1.821   0.752
 7547SOL    HW223541   5.140   1.900   0.658
 7548SOL     OW23542   4.525   2.263   6.352
 7548SOL    HW123543   4.502   2.190   6.416
 7548SOL    HW223544   4.606   2.238   6.299
 7549SOL     OW23545   3.447   3.121   6.465
 7549SOL    HW123546   3.365   3.084   6.510
 7549SOL    HW223547   3.501   3.173   6.532
 7550SOL     OW23548   1.803   4.488   3.888
 7550SOL    HW123549   1.853   4.420   3.942
 7550SOL    HW223550   1.707   4.490   3.917
 7551SOL     OW23551   6.050   2.945   5.185
 7551SOL    HW123552   6.020   3.035   5.154
 7551SOL    HW223553   6.012   2.925   5.275
 7552SOL     OW23554   1.537   5.719   4.052
 7552SOL    HW123555   1.474   5.644   4.069
 7552SOL    HW223556   1.507   5.771   3.972
 7553SOL     OW23557   4.289   6.991   5.747
 7553SOL    HW123558   4.333   6.953   5.666
 7553SOL    HW223559   4.190   6.977   5.741
 7554SOL     OW23560   5.106   0.771   6.629
 7554SOL    HW123561   5.202   0.770   6.656
 7554SOL    HW223562   5.100   0.777   6.529
 7555SOL     OW23563   2.932   5.108   6.308
 7555SOL    HW123564   2.982   5.194   6.307
 7555SOL    HW223565   2.884   5.096   6.222
 7556SOL     OW23566   2.604   2.024   0.074
 7556SOL    HW123567   2.661   2.103   0.097
 7556SOL    HW223568   2.540   2.049   0.002
 7557SOL     OW23569   5.483   0.849   6.210
 7557SOL    HW123570   5.416   0.864   6.283
 7557SOL    HW223571   5.439   0.864   6.122
 7558SOL     OW23572   2.108   2.723   4.420
 7558SOL    HW123573   2.083   2.634   4.382
 7558SOL    HW223574   2.057   2.739   4.504
 7559SOL     OW23575   4.025   3.158   5.888
 7559SOL    HW123576   3.971   3.236   5.921
 7559SOL    HW223577   3.998   3.137   5.794
 7560SOL     OW23578   5.291   6.751   0.359
 7560SOL    HW123579   5.229   6.678   0.386
 7560SOL    HW223580   5.240   6.822   0.311
 7561SOL     OW23581   6.568   3.250   6.000
 7561SOL    HW123582   6.523   3.338   5.988
 7561SOL    HW223583   6.625   3.230   5.920
 7562SOL     OW23584   0.387   5.045   5.652
 7562SOL    HW123585   0.433   4.966   5.694
 7562SOL    HW223586   0.361   5.110   5.724
 7563SOL     OW23587   3.267   0.130   1.570
 7563SOL    HW123588   3.215   0.085   1.643
 7563SOL    HW223589   3.203   0.173   1.506
 7564SOL     OW23590   3.848   0.703   4.425
 7564SOL    HW123591   3.857   0.609   4.458
 7564SOL    HW223592   3.760   0.740   4.455
 7565SOL     OW23593   5.599   3.598   6.556
 7565SOL    HW123594   5.648   3.653   6.488
 7565SOL    HW223595   5.576   3.509   6.515
 7566SOL     OW23596   5.779   5.139   2.363
 7566SOL    HW123597   5.722   5.110   2.286
 7566SOL    HW223598   5.842   5.066   2.387
 7567SOL     OW23599   1.530   1.434   5.829
 7567SOL    HW123600   1.480   1.347   5.823
 7567SOL    HW223601   1.592   1.431   5.908
 7568SOL     OW23602   5.770   5.106   2.751
 7568SOL    HW123603   5.672   5.086   2.747
 7568SOL    HW223604   5.813   5.074   2.667
 7569SOL     OW23605   2.657   4.488   5.989
 7569SOL    HW123606   2.739   4.463   6.041
 7569SOL    HW223607   2.677   4.478   5.891
 7570SOL     OW23608   5.205   4.102   4.060
 7570SOL    HW123609   5.289   4.049   4.074
 7570SOL    HW223610   5.136   4.073   4.125
 7571SOL     OW23611   4.958   4.348   3.450
 7571SOL    HW123612   4.910   4.428   3.414
 7571SOL    HW223613   4.893   4.290   3.499
 7572SOL     OW23614   4.978   0.827   2.347
 7572SOL    HW123615   4.934   0.879   2.419
 7572SOL    HW223616   4.943   0.856   2.258
 7573SOL     OW23617   6.523   0.330   5.458
 7573SOL    HW123618   6.509   0.231   5.451
 7573SOL    HW223619   6.614   0.354   5.425
 7574SOL     OW23620   5.753   1.042   5.064
 7574SOL    HW123621   5.701   1.127   5.066
 7574SOL    HW223622   5.783   1.023   4.971
 7575SOL     OW23623   5.526   6.979   0.018
 7575SOL    HW123624   5.472   0.013   6.965
 7575SOL    HW223625   5.507   6.881   0.011
 7576SOL     OW23626   4.895   3.248   0.529
 7576SOL    HW123627   4.943   3.336   0.532
 7576SOL    HW223628   4.843   3.241   0.444
 7577SOL     OW23629   0.526   6.391   6.742
 7577SOL    HW123630   0.437   6.380   6.699
 7577SOL    HW223631   0.561   6.483   6.723
 7578SOL     OW23632   2.971   5.153   2.673
 7578SOL    HW123633   2.958   5.057   2.699
 7578SOL    HW223634   2.919   5.211   2.736
 7579SOL     OW23635   0.376   1.918   1.505
 7579SOL    HW123636   0.390   1.923   1.604
 7579SOL    HW223637   0.459   1.884   1.462
 7580SOL     OW23638   0.850   4.065   3.781
 7580SOL    HW123639   0.879   4.121   3.703
 7580SOL    HW223640   0.878   3.970   3.765
 7581SOL     OW23641   0.880   1.946   0.907
 7581SOL    HW123642   0.886   1.992   0.819
 7581SOL    HW223643   0.860   2.014   0.979
 7582SOL     OW23644   4.000   1.692   3.635
 7582SOL    HW123645   4.039   1.732   3.718
 7582SOL    HW223646   3.935   1.620   3.660
 7583SOL     OW23647   4.999   2.698   2.091
 7583SOL    HW123648   4.945   2.728   2.012
 7583SOL    HW223649   5.090   2.670   2.060
 7584SOL     OW23650   1.820   0.476   2.848
 7584SOL    HW123651   1.891   0.471   2.918
 7584SOL    HW223652   1.759   0.553   2.867
 7585SOL     OW23653   1.792   2.871   5.854
 7585SOL    HW123654   1.755   2.785   5.888
 7585SOL    HW223655   1.810   2.933   5.931
 7586SOL     OW23656   1.862   6.633   3.662
 7586SOL    HW123657   1.773   6.615   3.619
 7586SOL    HW223658   1.878   6.732   3.663
 7587SOL     OW23659   2.323   1.137   6.842
 7587SOL    HW123660   2.330   1.188   6.757
 7587SOL    HW223661   2.333   1.039   6.824
 7588SOL     OW23662   2.231   2.521   3.162
 7588SOL    HW123663   2.328   2.542   3.158
 7588SOL    HW223664   2.209   2.477   3.249
 7589SOL     OW23665   0.720   0.834   2.632
 7589SOL    HW123666   0.715   0.767   2.558
 7589SOL    HW223667   0.807   0.883   2.627
 7590SOL     OW23668   4.647   1.795   6.980
 7590SOL    HW123669   4.550   1.814   6.993
 7590SOL    HW223670   4.681   1.846   6.901
 7591SOL     OW23671   5.073   4.500   0.407
 7591SOL    HW123672   5.151   4.513   0.347
 7591SOL    HW223673   5.104   4.492   0.502
 7592SOL     OW23674   6.269   5.612   4.430
 7592SOL    HW123675   6.361   5.578   4.448
 7592SOL    HW223676   6.246   5.684   4.496
 7593SOL     OW23677   6.717   3.000   6.856
 7593SOL    HW123678   6.721   3.010   6.756
 7593SOL    HW223679   6.750   2.909   6.882
 7594SOL     OW23680   2.064   4.863   1.762
 7594SOL    HW123681   1.987   4.884   1.702
 7594SOL    HW223682   2.034   4.865   1.857
 7595SOL     OW23683   6.076   3.454   6.032
 7595SOL    HW123684   6.071   3.478   6.128
 7595SOL    HW223685   6.141   3.379   6.019
 7596SOL     OW23686   3.283   6.718   4.145
 7596SOL    HW123687   3.302   6.620   4.149
 7596SOL    HW223688   3.202   6.735   4.089
 7597SOL     OW23689   1.956   6.404   3.191
 7597SOL    HW123690   2.029   6.337   3.206
 7597SOL    HW223691   1.893   6.371   3.121
 7598SOL     OW23692   6.545   0.814   3.584
 7598SOL    HW123693   6.573   0.756   3.507
 7598SOL    HW223694   6.626   0.847   3.633
 7599SOL     OW23695   5.409   2.340   1.765
 7599SOL    HW123696   5.420   2.331   1.666
 7599SOL    HW223697   5.317   2.373   1.786
 7600SOL     OW23698   0.820   0.943   3.843
 7600SOL    HW123699   0.884   0.960   3.919
 7600SOL    HW223700   0.867   0.892   3.771
 7601SOL     OW23701   2.596   4.693   2.038
 7601SOL    HW123702   2.687   4.664   2.009
 7601SOL    HW223703   2.603   4.753   2.118
 7602SOL     OW23704   1.330   3.376   6.789
 7602SOL    HW123705   1.355   3.435   6.866
 7602SOL    HW223706   1.263   3.423   6.732
 7603SOL     OW23707   2.010   6.531   6.598
 7603SOL    HW123708   2.042   6.513   6.504
 7603SOL    HW223709   1.926   6.584   6.595
 7604SOL     OW23710   1.017   2.843   4.860
 7604SOL    HW123711   1.044   2.869   4.953
 7604SOL    HW223712   0.945   2.774   4.863
 7605SOL     OW23713   1.057   0.629   0.848
 7605SOL    HW123714   0.996   0.549   0.842
 7605SOL    HW223715   1.102   0.643   0.760
 7606SOL     OW23716   5.665   3.114   4.294
 7606SOL    HW123717   5.636   3.058   4.371
 7606SOL    HW223718   5.703   3.055   4.222
 7607SOL     OW23719   4.326   5.254   0.640
 7607SOL    HW123720   4.264   5.299   0.705
 7607SOL    HW223721   4.342   5.314   0.563
 7608SOL     OW23722   4.816   3.263   1.128
 7608SOL    HW123723   4.725   3.228   1.151
 7608SOL    HW223724   4.811   3.362   1.114
 7609SOL     OW23725   1.810   3.241   4.558
 7609SOL    HW123726   1.829   3.204   4.649
 7609SOL    HW223727   1.836   3.338   4.555
 7610SOL     OW23728   3.956   4.456   5.720
 7610SOL    HW123729   4.046   4.461   5.676
 7610SOL    HW223730   3.904   4.381   5.680
 7611SOL     OW23731   5.335   4.423   1.079
 7611SOL    HW123732   5.370   4.420   1.173
 7611SOL    HW223733   5.256   4.362   1.071
 7612SOL     OW23734   4.880   2.992   2.797
 7612SOL    HW123735   4.831   2.907   2.777
 7612SOL    HW223736   4.978   2.979   2.781
 7613SOL     OW23737   0.505   1.747   1.077
 7613SOL    HW123738   0.548   1.777   0.992
 7613SOL    HW223739   0.406   1.735   1.062
 7614SOL     OW23740   5.204   2.801   1.354
 7614SOL    HW123741   5.129   2.851   1.398
 7614SOL    HW223742   5.202   2.820   1.256
 7615SOL     OW23743   4.227   4.023   6.608
 7615SOL    HW123744   4.140   4.063   6.637
 7615SOL    HW223745   4.274   3.985   6.687
 7616SOL     OW23746   6.572   6.614   4.717
 7616SOL    HW123747   6.526   6.701   4.703
 7616SOL    HW223748   6.512   6.540   4.686
 7617SOL     OW23749   4.119   6.354   3.107
 7617SOL    HW123750   4.078   6.400   3.028
 7617SOL    HW223751   4.125   6.418   3.183
 7618SOL     OW23752   1.165   2.823   6.260
 7618SOL    HW123753   1.094   2.798   6.327
 7618SOL    HW223754   1.235   2.752   6.258
 7619SOL     OW23755   0.047   3.043   4.781
 7619SOL    HW123756   0.091   3.065   4.694
 7619SOL    HW223757   6.965   3.066   4.776
 7620SOL     OW23758   4.016   5.771   1.973
 7620SOL    HW123759   3.972   5.697   1.921
 7620SOL    HW223760   4.090   5.810   1.919
 7621SOL     OW23761   6.989   1.041   0.805
 7621SOL    HW123762   0.012   1.119   0.854
 7621SOL    HW223763   0.048   0.986   0.767
 7622SOL     OW23764   5.017   4.406   6.582
 7622SOL    HW123765   5.052   4.327   6.633
 7622SOL    HW223766   4.972   4.469   6.645
 7623SOL     OW23767   4.323   4.628   0.355
 7623SOL    HW123768   4.324   4.586   0.446
 7623SOL    HW223769   4.249   4.587   0.301
 7624SOL     OW23770   6.488   3.547   3.970
 7624SOL    HW123771   6.562   3.546   4.036
 7624SOL    HW223772   6.441   3.459   3.972
 7625SOL     OW23773   5.491   1.061   0.052
 7625SOL    HW123774   5.465   1.132   0.117
 7625SOL    HW223775   5.517   0.978   0.102
 7626SOL     OW23776   6.271   0.616   5.848
 7626SOL    HW123777   6.320   0.611   5.760
 7626SOL    HW223778   6.210   0.695   5.848
 7627SOL     OW23779   3.118   2.554   0.582
 7627SOL    HW123780   3.165   2.534   0.669
 7627SOL    HW223781   3.141   2.484   0.515
 7628SOL     OW23782   3.710   2.981   1.722
 7628SOL    HW123783   3.630   3.040   1.717
 7628SOL    HW223784   3.741   2.959   1.629
 7629SOL     OW23785   0.191   3.906   3.282
 7629SOL    HW123786   0.093   3.895   3.262
 7629SOL    HW223787   0.207   3.885   3.379
 7630SOL     OW23788   0.935   0.997   0.145
 7630SOL    HW123789   0.901   0.984   0.239
 7630SOL    HW223790   1.032   1.018   0.147
 7631SOL     OW23791   0.733   1.444   5.171
 7631SOL    HW123792   0.798   1.517   5.152
 7631SOL    HW223793   0.657   1.449   5.106
 7632SOL     OW23794   4.569   4.628   0.750
 7632SOL    HW123795   4.543   4.636   0.846
 7632SOL    HW223796   4.579   4.531   0.727
 7633SOL     OW23797   5.590   1.159   1.745
 7633SOL    HW123798   5.525   1.210   1.801
 7633SOL    HW223799   5.588   1.063   1.772
 7634SOL     OW23800   2.151   1.046   1.409
 7634SOL    HW123801   2.222   1.043   1.480
 7634SOL    HW223802   2.179   0.989   1.332
 7635SOL     OW23803   3.289   4.982   4.944
 7635SOL    HW123804   3.266   4.898   4.897
 7635SOL    HW223805   3.253   5.060   4.894
 7636SOL     OW23806   1.535   3.253   4.103
 7636SOL    HW123807   1.537   3.326   4.172
 7636SOL    HW223808   1.628   3.221   4.086
 7637SOL     OW23809   2.552   5.895   2.638
 7637SOL    HW123810   2.563   5.796   2.639
 7637SOL    HW223811   2.640   5.938   2.660
 7638SOL     OW23812   1.629   5.519   2.622
 7638SOL    HW123813   1.546   5.559   2.584
 7638SOL    HW223814   1.672   5.460   2.554
 7639SOL     OW23815   6.950   1.123   0.515
 7639SOL    HW123816   6.932   1.194   0.448
 7639SOL    HW223817   6.964   1.164   0.605
 7640SOL     OW23818   2.867   2.688   6.410
 7640SOL    HW123819   2.893   2.660   6.503
 7640SOL    HW223820   2.768   2.705   6.407
 7641SOL     OW23821   0.038   3.072   2.804
 7641SOL    HW123822   6.965   3.118   2.805
 7641SOL    HW223823   0.082   3.085   2.715
 7642SOL     OW23824   4.455   0.961   2.329
 7642SOL    HW123825   4.368   0.912   2.322
 7642SOL    HW223826   4.494   0.945   2.420
 7643SOL     OW23827   5.183   1.636   3.109
 7643SOL    HW123828   5.214   1.729   3.128
 7643SOL    HW223829   5.224   1.604   3.024
 7644SOL     OW23830   4.811   2.775   1.884
 7644SOL    HW123831   4.746   2.716   1.837
 7644SOL    HW223832   4.769   2.864   1.901
 7645SOL     OW23833   4.764   3.445   5.915
 7645SOL    HW123834   4.797   3.428   5.822
 7645SOL    HW223835   4.693   3.516   5.912
 7646SOL     OW23836   0.646   2.712   3.890
 7646SOL    HW123837   0.705   2.792   3.897
 7646SOL    HW223838   0.588   2.720   3.810
 7647SOL     OW23839   0.009   2.339   4.632
 7647SOL    HW123840   0.033   2.361   4.538
 7647SOL    HW223841   0.080   2.372   4.694
 7648SOL     OW23842   1.970   1.963   2.202
 7648SOL    HW123843   1.938   1.880   2.157
 7648SOL    HW223844   2.069   1.959   2.216
 7649SOL     OW23845   1.384   0.317   4.086
 7649SOL    HW123846   1.351   0.366   4.166
 7649SOL    HW223847   1.481   0.338   4.071
 7650SOL     OW23848   5.919   0.573   0.979
 7650SOL    HW123849   5.839   0.630   0.962
 7650SOL    HW223850   5.996   0.631   1.004
 7651SOL     OW23851   2.208   0.035   4.732
 7651SOL    HW123852   2.168   6.996   4.658
 7651SOL    HW223853   2.221   0.129   4.700
 7652SOL     OW23854   5.503   2.124   4.944
 7652SOL    HW123855   5.519   2.117   4.845
 7652SOL    HW223856   5.588   2.104   4.992
 7653SOL     OW23857   1.015   1.496   0.505
 7653SOL    HW123858   1.048   1.589   0.520
 7653SOL    HW223859   0.944   1.497   0.435
 7654SOL     OW23860   4.932   3.101   4.080
 7654SOL    HW123861   5.017   3.150   4.060
 7654SOL    HW223862   4.952   3.023   4.139
 7655SOL     OW23863   4.067   0.227   3.794
 7655SOL    HW123864   4.161   0.211   3.764
 7655SOL    HW223865   4.067   0.249   3.892
 7656SOL     OW23866   4.007   3.684   6.540
 7656SOL    HW123867   3.965   3.760   6.490
 7656SOL    HW223868   4.029   3.714   6.633
 7657SOL     OW23869   2.150   2.109   3.322
 7657SOL    HW123870   2.205   2.073   3.397
 7657SOL    HW223871   2.131   2.036   3.256
 7658SOL     OW23872   2.357   0.364   0.982
 7658SOL    HW123873   2.350   0.287   0.919
 7658SOL    HW223874   2.284   0.358   1.050
 7659SOL     OW23875   4.413   4.545   0.092
 7659SOL    HW123876   4.486   4.503   0.038
 7659SOL    HW223877   4.447   4.564   0.184
 7660SOL     OW23878   0.032   5.641   4.250
 7660SOL    HW123879   0.003   5.733   4.276
 7660SOL    HW223880   6.996   5.573   4.302
 7661SOL     OW23881   5.528   2.393   5.058
 7661SOL    HW123882   5.521   2.303   5.013
 7661SOL    HW223883   5.609   2.394   5.117
 7662SOL     OW23884   1.275   2.278   3.826
 7662SOL    HW123885   1.214   2.279   3.906
 7662SOL    HW223886   1.261   2.361   3.772
 7663SOL     OW23887   5.743   4.733   6.304
 7663SOL    HW123888   5.670   4.724   6.372
 7663SOL    HW223889   5.738   4.823   6.262
 7664SOL     OW23890   4.357   1.097   2.100
 7664SOL    HW123891   4.278   1.040   2.076
 7664SOL    HW223892   4.403   1.056   2.179
 7665SOL     OW23893   5.965   0.867   5.128
 7665SOL    HW123894   5.895   0.932   5.096
 7665SOL    HW223895   6.029   0.849   5.054
 7666SOL     OW23896   0.843   4.872   3.113
 7666SOL    HW123897   0.910   4.888   3.040
 7666SOL    HW223898   0.858   4.782   3.154
 7667SOL     OW23899   4.369   0.623   2.645
 7667SOL    HW123900   4.291   0.686   2.640
 7667SOL    HW223901   4.421   0.627   2.560
 7668SOL     OW23902   2.722   4.734   0.942
 7668SOL    HW123903   2.632   4.774   0.930
 7668SOL    HW223904   2.783   4.800   0.985
 7669SOL     OW23905   4.704   1.168   5.630
 7669SOL    HW123906   4.740   1.155   5.538
 7669SOL    HW223907   4.628   1.105   5.645
 7670SOL     OW23908   0.809   5.319   0.617
 7670SOL    HW123909   0.801   5.325   0.716
 7670SOL    HW223910   0.863   5.238   0.593
 7671SOL     OW23911   3.945   0.974   2.164
 7671SOL    HW123912   3.960   0.933   2.074
 7671SOL    HW223913   3.883   1.051   2.156
 7672SOL     OW23914   0.178   5.975   3.150
 7672SOL    HW123915   0.094   5.946   3.195
 7672SOL    HW223916   0.255   5.967   3.213
 7673SOL     OW23917   1.754   5.326   2.424
 7673SOL    HW123918   1.765   5.229   2.443
 7673SOL    HW223919   1.704   5.339   2.338
 7674SOL     OW23920   5.118   1.009   4.110
 7674SOL    HW123921   5.139   0.941   4.180
 7674SOL    HW223922   5.021   1.006   4.088
 7675SOL     OW23923   6.012   6.662   2.963
 7675SOL    HW123924   6.014   6.577   3.015
 7675SOL    HW223925   5.933   6.716   2.993
 7676SOL     OW23926   3.227   2.358   6.324
 7676SOL    HW123927   3.175   2.308   6.393
 7676SOL    HW223928   3.314   2.388   6.362
 7677SOL     OW23929   0.414   4.315   1.131
 7677SOL    HW123930   0.410   4.230   1.078
 7677SOL    HW223931   0.390   4.295   1.227
 7678SOL     OW23932   2.478   2.644   5.367
 7678SOL    HW123933   2.531   2.561   5.387
 7678SOL    HW223934   2.466   2.652   5.268
 7679SOL     OW23935   2.615   5.765   5.560
 7679SOL    HW123936   2.620   5.737   5.656
 7679SOL    HW223937   2.690   5.724   5.508
 7680SOL     OW23938   1.840   0.267   0.867
 7680SOL    HW123939   1.878   0.179   0.837
 7680SOL    HW223940   1.772   0.251   0.938
 7681SOL     OW23941   2.579   1.229   0.582
 7681SOL    HW123942   2.588   1.245   0.680
 7681SOL    HW223943   2.496   1.274   0.548
 7682SOL     OW23944   4.434   0.584   2.171
 7682SOL    HW123945   4.335   0.572   2.179
 7682SOL    HW223946   4.467   0.642   2.246
 7683SOL     OW23947   0.199   1.328   4.440
 7683SOL    HW123948   0.166   1.305   4.348
 7683SOL    HW223949   0.270   1.398   4.433
 7684SOL     OW23950   4.247   1.750   1.136
 7684SOL    HW123951   4.250   1.658   1.098
 7684SOL    HW223952   4.301   1.754   1.220
 7685SOL     OW23953   2.951   1.491   6.062
 7685SOL    HW123954   2.868   1.484   6.007
 7685SOL    HW223955   2.994   1.579   6.046
 7686SOL     OW23956   6.181   6.752   3.468
 7686SOL    HW123957   6.191   6.697   3.551
 7686SOL    HW223958   6.099   6.723   3.418
 7687SOL     OW23959   5.462   5.128   4.636
 7687SOL    HW123960   5.458   5.030   4.655
 7687SOL    HW223961   5.414   5.178   4.709
 7688SOL     OW23962   0.193   6.237   5.499
 7688SOL    HW123963   0.231   6.303   5.565
 7688SOL    HW223964   0.160   6.157   5.549
 7689SOL     OW23965   5.133   6.138   2.993
 7689SOL    HW123966   5.137   6.041   2.969
 7689SOL    HW223967   5.145   6.149   3.091
 7690SOL     OW23968   4.995   5.381   0.902
 7690SOL    HW123969   5.056   5.461   0.906
 7690SOL    HW223970   4.934   5.382   0.982
 7691SOL     OW23971   6.008   4.246   2.979
 7691SOL    HW123972   6.054   4.263   2.892
 7691SOL    HW223973   6.006   4.148   2.997
 7692SOL     OW23974   0.974   5.660   1.984
 7692SOL    HW123975   1.061   5.683   1.942
 7692SOL    HW223976   0.900   5.682   1.921
 7693SOL     OW23977   2.720   0.724   0.907
 7693SOL    HW123978   2.708   0.773   0.821
 7693SOL    HW223979   2.685   0.631   0.898
 7694SOL     OW23980   5.861   2.777   3.345
 7694SOL    HW123981   5.954   2.814   3.343
 7694SOL    HW223982   5.863   2.681   3.315
 7695SOL     OW23983   5.758   1.043   1.551
 7695SOL    HW123984   5.697   0.973   1.513
 7695SOL    HW223985   5.705   1.105   1.609
 7696SOL     OW23986   6.542   2.047   5.699
 7696SOL    HW123987   6.540   1.969   5.761
 7696SOL    HW223988   6.558   2.016   5.606
 7697SOL     OW23989   2.248   0.742   3.169
 7697SOL    HW123990   2.283   0.673   3.106
 7697SOL    HW223991   2.324   0.788   3.214
 7698SOL     OW23992   5.628   0.859   4.554
 7698SOL    HW123993   5.663   0.767   4.570
 7698SOL    HW223994   5.703   0.919   4.526
 7699SOL     OW23995   2.474   5.380   6.110
 7699SOL    HW123996   2.500   5.453   6.174
 7699SOL    HW223997   2.490   5.291   6.153
 7700SOL     OW23998   4.578   5.829   3.691
 7700SOL    HW123999   4.604   5.906   3.634
 7700SOL    HW224000   4.640   5.822   3.769
 7701SOL     OW24001   0.268   2.602   6.751
 7701SOL    HW124002   0.343   2.559   6.801
 7701SOL    HW224003   0.251   2.552   6.666
 7702SOL     OW24004   4.564   5.642   5.047
 7702SOL    HW124005   4.583   5.736   5.074
 7702SOL    HW224006   4.466   5.631   5.030
 7703SOL     OW24007   5.760   6.251   6.674
 7703SOL    HW124008   5.852   6.239   6.712
 7703SOL    HW224009   5.696   6.192   6.723
 7704SOL     OW24010   6.213   0.709   2.967
 7704SOL    HW124011   6.121   0.692   2.933
 7704SOL    HW224012   6.269   0.748   2.894
 7705SOL     OW24013   2.308   5.952   1.093
 7705SOL    HW124014   2.237   6.021   1.079
 7705SOL    HW224015   2.291   5.875   1.031
 7706SOL     OW24016   3.574   3.206   4.064
 7706SOL    HW124017   3.658   3.151   4.068
 7706SOL    HW224018   3.518   3.174   3.987
 7707SOL     OW24019   0.196   4.533   6.287
 7707SOL    HW124020   0.136   4.598   6.334
 7707SOL    HW224021   0.291   4.557   6.305
 7708SOL     OW24022   1.396   6.047   4.730
 7708SOL    HW124023   1.297   6.059   4.736
 7708SOL    HW224024   1.436   6.125   4.682
 7709SOL     OW24025   6.893   4.894   1.640
 7709SOL    HW124026   6.987   4.886   1.608
 7709SOL    HW224027   6.858   4.803   1.662
 7710SOL     OW24028   2.022   2.255   0.679
 7710SOL    HW124029   2.120   2.237   0.684
 7710SOL    HW224030   1.982   2.207   0.601
 7711SOL     OW24031   5.202   6.053   5.371
 7711SOL    HW124032   5.215   6.142   5.327
 7711SOL    HW224033   5.202   6.065   5.470
 7712SOL     OW24034   6.457   5.214   0.634
 7712SOL    HW124035   6.508   5.255   0.559
 7712SOL    HW224036   6.512   5.144   0.679
 7713SOL     OW24037   1.772   3.460   0.357
 7713SOL    HW124038   1.859   3.499   0.326
 7713SOL    HW224039   1.788   3.372   0.401
 7714SOL     OW24040   6.926   5.621   5.513
 7714SOL    HW124041   6.951   5.625   5.416
 7714SOL    HW224042   6.832   5.654   5.525
 7715SOL     OW24043   3.232   2.814   6.460
 7715SOL    HW124044   3.145   2.797   6.416
 7715SOL    HW224045   3.302   2.831   6.391
 7716SOL     OW24046   6.692   4.542   0.358
 7716SOL    HW124047   6.792   4.545   0.361
 7716SOL    HW224048   6.660   4.455   0.396
 7717SOL     OW24049   1.356   2.050   5.480
 7717SOL    HW124050   1.364   1.976   5.415
 7717SOL    HW224051   1.440   2.105   5.479
 7718SOL     OW24052   6.465   3.762   3.119
 7718SOL    HW124053   6.430   3.779   3.211
 7718SOL    HW224054   6.562   3.787   3.115
 7719SOL     OW24055   1.092   3.740   4.577
 7719SOL    HW124056   1.131   3.668   4.634
 7719SOL    HW224057   1.069   3.819   4.634
 7720SOL     OW24058   0.252   2.517   5.874
 7720SOL    HW124059   0.170   2.471   5.840
 7720SOL    HW224060   0.308   2.546   5.796
 7721SOL     OW24061   0.954   6.043   2.054
 7721SOL    HW124062   0.876   6.032   2.115
 7721SOL    HW224063   0.959   6.138   2.023
 7722SOL     OW24064   1.641   4.441   3.290
 7722SOL    HW124065   1.689   4.483   3.366
 7722SOL    HW224066   1.614   4.348   3.315
 7723SOL     OW24067   4.085   3.440   6.505
 7723SOL    HW124068   4.144   3.439   6.424
 7723SOL    HW224069   4.049   3.532   6.519
 7724SOL     OW24070   3.263   4.632   0.583
 7724SOL    HW124071   3.171   4.616   0.547
 7724SOL    HW224072   3.273   4.585   0.671
 7725SOL     OW24073   6.442   1.807   2.992
 7725SOL    HW124074   6.349   1.811   2.957
 7725SOL    HW224075   6.447   1.853   3.080
 7726SOL     OW24076   1.758   4.173   6.786
 7726SOL    HW124077   1.731   4.171   6.689
 7726SOL    HW224078   1.771   4.079   6.818
 7727SOL     OW24079   6.383   2.640   1.980
 7727SOL    HW124080   6.463   2.621   2.036
 7727SOL    HW224081   6.300   2.620   2.033
 7728SOL     OW24082   2.202   2.862   4.970
 7728SOL    HW124083   2.288   2.885   5.016
 7728SOL    HW224084   2.210   2.882   4.872
 7729SOL     OW24085   5.612   1.348   2.086
 7729SOL    HW124086   5.675   1.414   2.129
 7729SOL    HW224087   5.645   1.255   2.102
 7730SOL     OW24088   0.071   4.932   6.361
 7730SOL    HW124089   0.156   4.958   6.316
 7730SOL    HW224090   0.079   4.841   6.400
 7731SOL     OW24091   6.056   6.976   0.226
 7731SOL    HW124092   6.042   6.886   0.267
 7731SOL    HW224093   5.977   7.000   0.169
 7732SOL     OW24094   4.156   0.234   0.164
 7732SOL    HW124095   4.066   0.193   0.180
 7732SOL    HW224096   4.156   0.327   0.201
 7733SOL     OW24097   6.044   5.902   2.111
 7733SOL    HW124098   5.983   5.824   2.097
 7733SOL    HW224099   6.035   5.966   2.034
 7734SOL     OW24100   1.392   4.665   4.943
 7734SOL    HW124101   1.420   4.683   5.037
 7734SOL    HW224102   1.297   4.634   4.943
 7735SOL     OW24103   5.592   5.701   6.411
 7735SOL    HW124104   5.596   5.601   6.403
 7735SOL    HW224105   5.543   5.739   6.333
 7736SOL     OW24106   2.436   2.996   6.895
 7736SOL    HW124107   2.454   2.911   6.944
 7736SOL    HW224108   2.475   2.990   6.803
 7737SOL     OW24109   3.719   0.226   1.860
 7737SOL    HW124110   3.651   0.170   1.908
 7737SOL    HW224111   3.712   0.321   1.890
 7738SOL     OW24112   2.721   5.531   0.691
 7738SOL    HW124113   2.783   5.575   0.626
 7738SOL    HW224114   2.638   5.502   0.643
 7739SOL     OW24115   1.228   2.073   2.002
 7739SOL    HW124116   1.187   2.123   1.926
 7739SOL    HW224117   1.309   2.122   2.034
 7740SOL     OW24118   2.042   1.146   2.940
 7740SOL    HW124119   2.060   1.241   2.917
 7740SOL    HW224120   2.041   1.090   2.857
 7741SOL     OW24121   0.577   4.049   4.986
 7741SOL    HW124122   0.510   3.979   4.963
 7741SOL    HW224123   0.574   4.068   5.084
 7742SOL     OW24124   4.437   2.192   4.041
 7742SOL    HW124125   4.477   2.103   4.024
 7742SOL    HW224126   4.344   2.195   4.002
 7743SOL     OW24127   4.657   1.656   6.616
 7743SOL    HW124128   4.711   1.727   6.662
 7743SOL    HW224129   4.631   1.586   6.682
 7744SOL     OW24130   1.063   6.314   3.868
 7744SOL    HW124131   1.012   6.296   3.951
 7744SOL    HW224132   1.012   6.378   3.810
 7745SOL     OW24133   2.979   6.999   0.577
 7745SOL    HW124134   3.041   6.921   0.589
 7745SOL    HW224135   2.921   7.009   0.658
 7746SOL     OW24136   0.831   0.204   0.419
 7746SOL    HW124137   0.884   0.152   0.487
 7746SOL    HW224138   0.738   0.216   0.453
 7747SOL     OW24139   6.905   6.087   1.306
 7747SOL    HW124140   6.962   6.035   1.243
 7747SOL    HW224141   6.914   6.185   1.286
 7748SOL     OW24142   3.583   3.940   3.876
 7748SOL    HW124143   3.628   3.991   3.803
 7748SOL    HW224144   3.520   4.001   3.924
 7749SOL     OW24145   3.401   3.435   3.627
 7749SOL    HW124146   3.416   3.432   3.528
 7749SOL    HW224147   3.489   3.445   3.673
 7750SOL     OW24148   6.249   5.646   0.116
 7750SOL    HW124149   6.215   5.721   0.059
 7750SOL    HW224150   6.342   5.667   0.146
 7751SOL     OW24151   0.751   2.313   3.258
 7751SOL    HW124152   0.729   2.243   3.190
 7751SOL    HW224153   0.676   2.378   3.264
 7752SOL     OW24154   5.218   5.794   5.200
 7752SOL    HW124155   5.238   5.869   5.263
 7752SOL    HW224156   5.302   5.743   5.182
 7753SOL     OW24157   2.276   0.414   3.927
 7753SOL    HW124158   2.291   0.463   3.841
 7753SOL    HW224159   2.240   0.477   3.996
 7754SOL     OW24160   5.396   6.433   2.041
 7754SOL    HW124161   5.480   6.399   2.085
 7754SOL    HW224162   5.318   6.418   2.102
 7755SOL     OW24163   1.313   1.625   5.907
 7755SOL    HW124164   1.392   1.685   5.900
 7755SOL    HW224165   1.343   1.529   5.904
 7756SOL     OW24166   3.245   4.852   2.860
 7756SOL    HW124167   3.325   4.859   2.919
 7756SOL    HW224168   3.273   4.822   2.769
 7757SOL     OW24169   5.038   5.301   4.177
 7757SOL    HW124170   5.006   5.317   4.271
 7757SOL    HW224171   5.130   5.262   4.180
 7758SOL     OW24172   1.510   2.111   6.756
 7758SOL    HW124173   1.500   2.161   6.670
 7758SOL    HW224174   1.546   2.173   6.826
 7759SOL     OW24175   1.452   2.078   4.847
 7759SOL    HW124176   1.372   2.066   4.905
 7759SOL    HW224177   1.488   2.170   4.859
 7760SOL     OW24178   5.865   3.413   2.794
 7760SOL    HW124179   5.947   3.406   2.738
 7760SOL    HW224180   5.795   3.465   2.745
 7761SOL     OW24181   1.237   0.065   6.539
 7761SOL    HW124182   1.304   0.131   6.504
 7761SOL    HW224183   1.162   0.056   6.473
 7762SOL     OW24184   4.189   0.913   4.066
 7762SOL    HW124185   4.117   0.934   4.132
 7762SOL    HW224186   4.190   0.814   4.048
 7763SOL     OW24187   1.012   1.384   0.759
 7763SOL    HW124188   1.002   1.303   0.701
 7763SOL    HW224189   0.990   1.466   0.705
 7764SOL     OW24190   3.427   2.929   3.067
 7764SOL    HW124191   3.416   3.024   3.094
 7764SOL    HW224192   3.360   2.906   2.996
 7765SOL     OW24193   5.648   2.646   4.199
 7765SOL    HW124194   5.649   2.558   4.151
 7765SOL    HW224195   5.668   2.630   4.296
 7766SOL     OW24196   5.464   2.138   0.111
 7766SOL    HW124197   5.384   2.127   0.170
 7766SOL    HW224198   5.441   2.198   0.034
 7767SOL     OW24199   4.356   6.664   3.639
 7767SOL    HW124200   4.292   6.596   3.603
 7767SOL    HW224201   4.315   6.711   3.717
 7768SOL     OW24202   4.132   5.253   2.471
 7768SOL    HW124203   4.045   5.302   2.463
 7768SOL    HW224204   4.116   5.155   2.471
 7769SOL     OW24205   5.020   2.492   2.823
 7769SOL    HW124206   4.933   2.448   2.800
 7769SOL    HW224207   5.067   2.520   2.739
 7770SOL     OW24208   0.910   3.574   2.467
 7770SOL    HW124209   0.853   3.533   2.537
 7770SOL    HW224210   0.891   3.531   2.379
 7771SOL     OW24211   2.679   2.207   5.041
 7771SOL    HW124212   2.706   2.274   5.109
 7771SOL    HW224213   2.582   2.221   5.017
 7772SOL     OW24214   5.376   0.961   3.069
 7772SOL    HW124215   5.457   0.955   3.010
 7772SOL    HW224216   5.377   1.048   3.118
 7773SOL     OW24217   3.321   5.324   5.185
 7773SOL    HW124218   3.340   5.350   5.279
 7773SOL    HW224219   3.279   5.233   5.182
 7774SOL     OW24220   6.292   2.795   6.510
 7774SOL    HW124221   6.297   2.878   6.565
 7774SOL    HW224222   6.229   2.808   6.434
 7775SOL     OW24223   4.056   6.841   2.884
 7775SOL    HW124224   4.044   6.919   2.822
 7775SOL    HW224225   4.050   6.874   2.978
 7776SOL     OW24226   3.486   4.418   6.713
 7776SOL    HW124227   3.426   4.338   6.717
 7776SOL    HW224228   3.465   4.472   6.632
 7777SOL     OW24229   1.174   0.615   5.197
 7777SOL    HW124230   1.217   0.606   5.107
 7777SOL    HW224231   1.173   0.711   5.224
 7778SOL     OW24232   5.010   5.769   0.332
 7778SOL    HW124233   5.050   5.692   0.381
 7778SOL    HW224234   4.913   5.777   0.357
 7779SOL     OW24235   2.846   2.941   1.199
 7779SOL    HW124236   2.838   2.973   1.104
 7779SOL    HW224237   2.914   2.868   1.203
 7780SOL     OW24238   0.999   5.387   5.705
 7780SOL    HW124239   0.920   5.326   5.689
 7780SOL    HW224240   0.994   5.465   5.643
 7781SOL     OW24241   1.243   4.982   6.917
 7781SOL    HW124242   1.325   5.012   6.868
 7781SOL    HW224243   1.165   5.036   6.887
 7782SOL     OW24244   0.967   4.574   5.851
 7782SOL    HW124245   0.968   4.674   5.849
 7782SOL    HW224246   0.955   4.542   5.945
 7783SOL     OW24247   1.798   5.908   5.002
 7783SOL    HW124248   1.780   5.909   4.904
 7783SOL    HW224249   1.887   5.867   5.020
 7784SOL     OW24250   3.018   2.862   0.558
 7784SOL    HW124251   3.088   2.931   0.578
 7784SOL    HW224252   3.056   2.771   0.571
 7785SOL     OW24253   1.576   6.697   4.168
 7785SOL    HW124254   1.668   6.701   4.128
 7785SOL    HW224255   1.508   6.695   4.094
 7786SOL     OW24256   3.072   5.634   6.876
 7786SOL    HW124257   3.018   5.626   6.792
 7786SOL    HW224258   3.024   5.691   6.942
 7787SOL     OW24259   2.782   2.990   5.893
 7787SOL    HW124260   2.834   2.910   5.862
 7787SOL    HW224261   2.736   2.968   5.979
 7788SOL     OW24262   2.030   6.071   2.301
 7788SOL    HW124263   2.099   5.999   2.303
 7788SOL    HW224264   2.026   6.111   2.209
 7789SOL     OW24265   3.104   6.903   0.062
 7789SOL    HW124266   3.127   6.812   0.097
 7789SOL    HW224267   3.028   6.895   7.012
 7790SOL     OW24268   5.515   5.454   2.873
 7790SOL    HW124269   5.430   5.477   2.921
 7790SOL    HW224270   5.555   5.372   2.914
 7791SOL     OW24271   2.529   6.416   3.639
 7791SOL    HW124272   2.598   6.477   3.600
 7791SOL    HW224273   2.549   6.401   3.736
 7792SOL     OW24274   2.119   5.328   5.426
 7792SOL    HW124275   2.136   5.277   5.510
 7792SOL    HW224276   2.037   5.292   5.380
 7793SOL     OW24277   3.094   0.627   6.771
 7793SOL    HW124278   3.093   0.727   6.770
 7793SOL    HW224279   3.149   0.595   6.848
 7794SOL     OW24280   5.919   5.199   3.649
 7794SOL    HW124281   5.964   5.130   3.591
 7794SOL    HW224282   5.987   5.239   3.710
 7795SOL     OW24283   2.194   3.948   5.594
 7795SOL    HW124284   2.187   3.851   5.618
 7795SOL    HW224285   2.237   3.957   5.504
 7796SOL     OW24286   3.325   3.733   2.978
 7796SOL    HW124287   3.318   3.717   2.880
 7796SOL    HW224288   3.282   3.657   3.027
 7797SOL     OW24289   1.221   6.560   3.307
 7797SOL    HW124290   1.241   6.601   3.396
 7797SOL    HW224291   1.301   6.509   3.275
 7798SOL     OW24292   1.840   4.814   6.234
 7798SOL    HW124293   1.838   4.828   6.135
 7798SOL    HW224294   1.771   4.746   6.260
 7799SOL     OW24295   0.747   6.291   2.356
 7799SOL    HW124296   0.773   6.245   2.441
 7799SOL    HW224297   0.725   6.222   2.287
 7800SOL     OW24298   1.184   5.288   0.512
 7800SOL    HW124299   1.192   5.349   0.591
 7800SOL    HW224300   1.264   5.228   0.507
 7801SOL     OW24301   1.561   2.226   1.822
 7801SOL    HW124302   1.488   2.227   1.891
 7801SOL    HW224303   1.635   2.167   1.854
 7802SOL     OW24304   6.006   1.960   1.021
 7802SOL    HW124305   6.076   2.021   1.058
 7802SOL    HW224306   5.973   1.997   0.935
 7803SOL     OW24307   4.195   2.182   6.092
 7803SOL    HW124308   4.209   2.169   5.994
 7803SOL    HW224309   4.256   2.122   6.143
 7804SOL     OW24310   4.941   1.399   4.325
 7804SOL    HW124311   4.905   1.324   4.269
 7804SOL    HW224312   4.885   1.481   4.311
 7805SOL     OW24313   5.422   1.736   0.782
 7805SOL    HW124314   5.460   1.713   0.871
 7805SOL    HW224315   5.496   1.753   0.717
 7806SOL     OW24316   5.775   2.262   6.126
 7806SOL    HW124317   5.677   2.281   6.130
 7806SOL    HW224318   5.825   2.346   6.105
 7807SOL     OW24319   0.489   4.376   5.496
 7807SOL    HW124320   0.488   4.390   5.595
 7807SOL    HW224321   0.562   4.311   5.473
 7808SOL     OW24322   6.784   2.832   4.630
 7808SOL    HW124323   6.772   2.760   4.699
 7808SOL    HW224324   6.724   2.814   4.553
 7809SOL     OW24325   2.569   6.047   4.500
 7809SOL    HW124326   2.540   6.104   4.578
 7809SOL    HW224327   2.489   6.021   4.447
 7810SOL     OW24328   3.593   0.508   4.947
 7810SOL    HW124329   3.691   0.488   4.940
 7810SOL    HW224330   3.545   0.462   4.872
 7811SOL     OW24331   0.686   5.097   3.224
 7811SOL    HW124332   0.730   5.010   3.204
 7811SOL    HW224333   0.725   5.136   3.308
 7812SOL     OW24334   1.359   2.122   3.354
 7812SOL    HW124335   1.373   2.208   3.403
 7812SOL    HW224336   1.327   2.141   3.261
 7813SOL     OW24337   3.645   2.536   6.616
 7813SOL    HW124338   3.694   2.589   6.547
 7813SOL    HW224339   3.702   2.525   6.697
 7814SOL     OW24340   6.643   2.994   3.665
 7814SOL    HW124341   6.664   2.960   3.757
 7814SOL    HW224342   6.724   2.986   3.607
 7815SOL     OW24343   4.911   0.283   6.214
 7815SOL    HW124344   4.886   0.377   6.194
 7815SOL    HW224345   4.834   0.223   6.192
 7816SOL     OW24346   1.622   2.397   6.539
 7816SOL    HW124347   1.591   2.310   6.501
 7816SOL    HW224348   1.719   2.390   6.564
 7817SOL     OW24349   5.440   4.308   3.550
 7817SOL    HW124350   5.514   4.376   3.543
 7817SOL    HW224351   5.476   4.218   3.527
 7818SOL     OW24352   4.919   0.673   2.983
 7818SOL    HW124353   4.973   0.628   2.912
 7818SOL    HW224354   4.863   0.744   2.942
 7819SOL     OW24355   6.762   3.288   1.822
 7819SOL    HW124356   6.678   3.318   1.868
 7819SOL    HW224357   6.835   3.278   1.889
 7820SOL     OW24358   1.255   2.232   4.585
 7820SOL    HW124359   1.189   2.175   4.537
 7820SOL    HW224360   1.345   2.189   4.583
 7821SOL     OW24361   5.250   5.984   1.445
 7821SOL    HW124362   5.169   6.040   1.426
 7821SOL    HW224363   5.224   5.904   1.498
 7822SOL     OW24364   0.700   1.172   5.936
 7822SOL    HW124365   0.721   1.086   5.982
 7822SOL    HW224366   0.656   1.234   6.001
 7823SOL     OW24367   2.591   4.012   5.372
 7823SOL    HW124368   2.562   3.934   5.427
 7823SOL    HW224369   2.531   4.022   5.293
 7824SOL     OW24370   5.871   1.221   3.980
 7824SOL    HW124371   5.911   1.240   4.069
 7824SOL    HW224372   5.837   1.127   3.978
 7825SOL     OW24373   1.034   3.042   1.222
 7825SOL    HW124374   0.999   3.093   1.143
 7825SOL    HW224375   1.113   2.988   1.195
 7826SOL     OW24376   6.423   1.394   1.258
 7826SOL    HW124377   6.328   1.380   1.231
 7826SOL    HW224378   6.450   1.489   1.241
 7827SOL     OW24379   1.983   5.694   1.466
 7827SOL    HW124380   1.894   5.734   1.490
 7827SOL    HW224381   2.048   5.767   1.446
 7828SOL     OW24382   0.290   4.601   6.889
 7828SOL    HW124383   0.254   4.640   6.975
 7828SOL    HW224384   0.315   4.676   6.827
 7829SOL     OW24385   2.113   3.393   1.442
 7829SOL    HW124386   2.037   3.443   1.400
 7829SOL    HW224387   2.078   3.334   1.515
 7830SOL     OW24388   2.602   4.578   5.178
 7830SOL    HW124389   2.681   4.588   5.118
 7830SOL    HW224390   2.543   4.658   5.168
 7831SOL     OW24391   1.800   6.555   1.841
 7831SOL    HW124392   1.889   6.546   1.797
 7831SOL    HW224393   1.794   6.493   1.919
 7832SOL     OW24394   5.793   1.036   3.379
 7832SOL    HW124395   5.834   0.945   3.386
 7832SOL    HW224396   5.749   1.059   3.466
 7833SOL     OW24397   0.614   0.883   5.729
 7833SOL    HW124398   0.598   0.854   5.824
 7833SOL    HW224399   0.683   0.955   5.728
 7834SOL     OW24400   6.832   1.433   3.823
 7834SOL    HW124401   6.898   1.506   3.840
 7834SOL    HW224402   6.877   1.355   3.781
 7835SOL     OW24403   3.494   2.210   5.370
 7835SOL    HW124404   3.414   2.260   5.404
 7835SOL    HW224405   3.478   2.181   5.276
 7836SOL     OW24406   3.357   2.900   4.866
 7836SOL    HW124407   3.289   2.842   4.912
 7836SOL    HW224408   3.440   2.905   4.921
 7837SOL     OW24409   4.670   4.828   6.866
 7837SOL    HW124410   4.593   4.766   6.882
 7837SOL    HW224411   4.726   4.833   6.948
 7838SOL     OW24412   4.191   6.632   1.258
 7838SOL    HW124413   4.147   6.713   1.221
 7838SOL    HW224414   4.254   6.594   1.190
 7839SOL     OW24415   5.703   4.596   5.190
 7839SOL    HW124416   5.687   4.546   5.275
 7839SOL    HW224417   5.623   4.653   5.169
 7840SOL     OW24418   6.435   2.983   4.098
 7840SOL    HW124419   6.354   2.977   4.040
 7840SOL    HW224420   6.446   3.076   4.131
 7841SOL     OW24421   3.699   1.770   6.143
 7841SOL    HW124422   3.672   1.740   6.235
 7841SOL    HW224423   3.766   1.706   6.105
 7842SOL     OW24424   2.879   2.243   2.760
 7842SOL    HW124425   2.811   2.209   2.825
 7842SOL    HW224426   2.834   2.268   2.675
 7843SOL     OW24427   0.824   6.084   3.344
 7843SOL    HW124428   0.742   6.140   3.345
 7843SOL    HW224429   0.850   6.060   3.438
 7844SOL     OW24430   3.278   0.784   3.243
 7844SOL    HW124431   3.301   0.751   3.335
 7844SOL    HW224432   3.355   0.837   3.206
 7845SOL     OW24433   5.422   1.943   2.852
 7845SOL    HW124434   5.394   1.936   2.757
 7845SOL    HW224435   5.361   2.006   2.900
 7846SOL     OW24436   0.406   2.326   0.660
 7846SOL    HW124437   0.453   2.282   0.737
 7846SOL    HW224438   0.318   2.282   0.645
 7847SOL     OW24439   6.754   1.407   3.132
 7847SOL    HW124440   6.839   1.415   3.081
 7847SOL    HW224441   6.689   1.476   3.101
 7848SOL     OW24442   3.505   4.771   0.639
 7848SOL    HW124443   3.493   4.862   0.679
 7848SOL    HW224444   3.416   4.731   0.620
 7849SOL     OW24445   6.198   4.662   4.683
 7849SOL    HW124446   6.294   4.671   4.711
 7849SOL    HW224447   6.191   4.673   4.584
 7850SOL     OW24448   0.185   1.352   4.153
 7850SOL    HW124449   0.270   1.298   4.147
 7850SOL    HW224450   0.208   1.449   4.158
 7851SOL     OW24451   6.444   1.675   1.294
 7851SOL    HW124452   6.531   1.705   1.331
 7851SOL    HW224453   6.423   1.727   1.212
 7852SOL     OW24454   3.719   1.670   6.572
 7852SOL    HW124455   3.703   1.764   6.540
 7852SOL    HW224456   3.818   1.654   6.579
 7853SOL     OW24457   5.009   2.401   1.787
 7853SOL    HW124458   5.021   2.308   1.752
 7853SOL    HW224459   5.085   2.458   1.757
 7854SOL     OW24460   3.592   3.398   6.246
 7854SOL    HW124461   3.564   3.325   6.185
 7854SOL    HW224462   3.690   3.391   6.264
 7855SOL     OW24463   4.560   6.641   4.539
 7855SOL    HW124464   4.515   6.571   4.595
 7855SOL    HW224465   4.646   6.604   4.504
 7856SOL     OW24466   6.282   6.103   5.088
 7856SOL    HW124467   6.286   6.009   5.121
 7856SOL    HW224468   6.191   6.122   5.051
 7857SOL     OW24469   4.510   2.898   0.383
 7857SOL    HW124470   4.422   2.939   0.359
 7857SOL    HW224471   4.496   2.830   0.455
 7858SOL     OW24472   6.242   6.480   4.124
 7858SOL    HW124473   6.334   6.512   4.145
 7858SOL    HW224474   6.223   6.396   4.176
 7859SOL     OW24475   4.229   2.843   6.124
 7859SOL    HW124476   4.298   2.793   6.071
 7859SOL    HW224477   4.237   2.818   6.221
 7860SOL     OW24478   4.356   0.949   3.872
 7860SOL    HW124479   4.389   1.042   3.882
 7860SOL    HW224480   4.286   0.931   3.942
 7861SOL     OW24481   3.400   4.806   1.646
 7861SOL    HW124482   3.459   4.767   1.716
 7861SOL    HW224483   3.388   4.741   1.572
 7862SOL     OW24484   2.323   4.830   1.703
 7862SOL    HW124485   2.230   4.851   1.732
 7862SOL    HW224486   2.323   4.808   1.605
 7863SOL     OW24487   6.819   3.886   4.529
 7863SOL    HW124488   6.843   3.809   4.470
 7863SOL    HW224489   6.826   3.971   4.478
 7864SOL     OW24490   0.597   5.475   5.666
 7864SOL    HW124491   0.650   5.537   5.724
 7864SOL    HW224492   0.500   5.492   5.679
 7865SOL     OW24493   6.701   5.964   4.048
 7865SOL    HW124494   6.684   6.060   4.070
 7865SOL    HW224495   6.655   5.906   4.115
 7866SOL     OW24496   0.568   1.201   5.667
 7866SOL    HW124497   0.562   1.295   5.634
 7866SOL    HW224498   0.597   1.201   5.763
 7867SOL     OW24499   6.211   6.171   3.422
 7867SOL    HW124500   6.227   6.268   3.439
 7867SOL    HW224501   6.150   6.160   3.343
 7868SOL     OW24502   4.665   6.347   1.867
 7868SOL    HW124503   4.602   6.324   1.941
 7868SOL    HW224504   4.661   6.445   1.849
 7869SOL     OW24505   5.139   4.221   6.709
 7869SOL    HW124506   5.097   4.134   6.735
 7869SOL    HW224507   5.239   4.213   6.717
 7870SOL     OW24508   5.370   6.174   4.146
 7870SOL    HW124509   5.287   6.229   4.145
 7870SOL    HW224510   5.447   6.231   4.176
 7871SOL     OW24511   4.650   2.149   1.670
 7871SOL    HW124512   4.578   2.091   1.708
 7871SOL    HW224513   4.653   2.136   1.571
 7872SOL     OW24514   1.922   3.367   3.174
 7872SOL    HW124515   1.998   3.321   3.127
 7872SOL    HW224516   1.959   3.432   3.240
 7873SOL     OW24517   5.707   6.620   6.408
 7873SOL    HW124518   5.648   6.700   6.417
 7873SOL    HW224519   5.784   6.627   6.471
 7874SOL     OW24520   4.978   2.351   0.680
 7874SOL    HW124521   5.056   2.405   0.650
 7874SOL    HW224522   5.002   2.254   0.680
 7875SOL     OW24523   4.574   2.790   6.975
 7875SOL    HW124524   4.528   2.820   0.042
 7875SOL    HW224525   4.605   2.695   6.986
 7876SOL     OW24526   1.384   6.639   3.626
 7876SOL    HW124527   1.363   6.560   3.685
 7876SOL    HW224528   1.396   6.720   3.683
 7877SOL     OW24529   0.507   1.574   2.902
 7877SOL    HW124530   0.581   1.633   2.937
 7877SOL    HW224531   0.547   1.496   2.854
 7878SOL     OW24532   4.868   4.419   4.788
 7878SOL    HW124533   4.800   4.345   4.789
 7878SOL    HW224534   4.935   4.403   4.861
 7879SOL     OW24535   3.776   5.411   3.438
 7879SOL    HW124536   3.698   5.409   3.375
 7879SOL    HW224537   3.743   5.405   3.532
 7880SOL     OW24538   2.059   3.929   1.880
 7880SOL    HW124539   2.141   3.980   1.908
 7880SOL    HW224540   1.978   3.982   1.904
 7881SOL     OW24541   5.825   5.167   5.231
 7881SOL    HW124542   5.832   5.068   5.222
 7881SOL    HW224543   5.889   5.211   5.168
 7882SOL     OW24544   1.599   3.612   2.019
 7882SOL    HW124545   1.590   3.584   2.114
 7882SOL    HW224546   1.638   3.705   2.015
 7883SOL     OW24547   1.068   0.653   0.416
 7883SOL    HW124548   1.134   0.717   0.376
 7883SOL    HW224549   1.113   0.597   0.486
 7884SOL     OW24550   1.792   4.195   4.261
 7884SOL    HW124551   1.692   4.193   4.263
 7884SOL    HW224552   1.828   4.119   4.315
 7885SOL     OW24553   6.500   5.480   1.164
 7885SOL    HW124554   6.400   5.479   1.177
 7885SOL    HW224555   6.545   5.493   1.252
 7886SOL     OW24556   3.709   5.502   0.148
 7886SOL    HW124557   3.725   5.593   0.187
 7886SOL    HW224558   3.749   5.433   0.208
 7887SOL     OW24559   3.379   2.579   5.562
 7887SOL    HW124560   3.463   2.583   5.616
 7887SOL    HW224561   3.326   2.662   5.577
 7888SOL     OW24562   6.229   0.293   5.540
 7888SOL    HW124563   6.133   0.308   5.561
 7888SOL    HW224564   6.285   0.353   5.597
 7889SOL     OW24565   1.611   3.977   1.890
 7889SOL    HW124566   1.604   3.949   1.986
 7889SOL    HW224567   1.632   3.897   1.834
 7890SOL     OW24568   1.869   3.011   3.139
 7890SOL    HW124569   1.822   2.984   3.055
 7890SOL    HW224570   1.827   3.095   3.174
 7891SOL     OW24571   2.031   3.093   3.715
 7891SOL    HW124572   2.104   3.049   3.662
 7891SOL    HW224573   1.997   3.028   3.783
 7892SOL     OW24574   2.426   1.616   3.831
 7892SOL    HW124575   2.480   1.598   3.913
 7892SOL    HW224576   2.424   1.535   3.773
 7893SOL     OW24577   6.886   6.603   2.764
 7893SOL    HW124578   6.926   6.563   2.681
 7893SOL    HW224579   6.787   6.596   2.759
 7894SOL     OW24580   3.220   0.711   1.064
 7894SOL    HW124581   3.305   0.665   1.089
 7894SOL    HW224582   3.242   0.799   1.021
 7895SOL     OW24583   6.024   0.699   5.379
 7895SOL    HW124584   6.056   0.757   5.453
 7895SOL    HW224585   6.007   0.755   5.298
 7896SOL     OW24586   4.880   3.618   6.987
 7896SOL    HW124587   4.790   3.587   6.957
 7896SOL    HW224588   4.950   3.565   6.940
 7897SOL     OW24589   2.509   4.203   0.060
 7897SOL    HW124590   2.509   4.252   6.989
 7897SOL    HW224591   2.454   4.120   0.051
 7898SOL     OW24592   4.947   1.785   3.497
 7898SOL    HW124593   4.859   1.756   3.460
 7898SOL    HW224594   5.005   1.704   3.512
 7899SOL     OW24595   5.895   1.140   1.066
 7899SOL    HW124596   5.808   1.188   1.081
 7899SOL    HW224597   5.930   1.107   1.154
 7900SOL     OW24598   1.467   5.757   1.279
 7900SOL    HW124599   1.459   5.842   1.227
 7900SOL    HW224600   1.410   5.762   1.361
 7901SOL     OW24601   5.133   1.258   6.476
 7901SOL    HW124602   5.042   1.230   6.509
 7901SOL    HW224603   5.202   1.196   6.514
 7902SOL     OW24604   5.472   5.763   1.575
 7902SOL    HW124605   5.437   5.814   1.653
 7902SOL    HW224606   5.571   5.775   1.569
 7903SOL     OW24607   5.849   1.555   0.425
 7903SOL    HW124608   5.911   1.604   0.363
 7903SOL    HW224609   5.877   1.460   0.432
 7904SOL     OW24610   5.715   6.679   3.255
 7904SOL    HW124611   5.672   6.588   3.254
 7904SOL    HW224612   5.725   6.712   3.161
 7905SOL     OW24613   4.657   2.421   0.823
 7905SOL    HW124614   4.571   2.376   0.799
 7905SOL    HW224615   4.719   2.356   0.866
 7906SOL     OW24616   0.067   5.391   0.095
 7906SOL    HW124617   6.985   5.409   0.080
 7906SOL    HW224618   0.121   5.429   0.020
 7907SOL     OW24619   5.866   2.251   3.374
 7907SOL    HW124620   5.803   2.174   3.386
 7907SOL    HW224621   5.927   2.257   3.453
 7908SOL     OW24622   0.585   1.639   4.773
 7908SOL    HW124623   0.590   1.577   4.695
 7908SOL    HW224624   0.531   1.720   4.748
 7909SOL     OW24625   5.459   3.405   5.181
 7909SOL    HW124626   5.461   3.501   5.156
 7909SOL    HW224627   5.381   3.387   5.242
 7910SOL     OW24628   2.982   3.386   6.051
 7910SOL    HW124629   2.929   3.364   5.969
 7910SOL    HW224630   3.068   3.429   6.024
 7911SOL     OW24631   1.586   3.065   6.326
 7911SOL    HW124632   1.491   3.094   6.335
 7911SOL    HW224633   1.625   3.052   6.417
 7912SOL     OW24634   6.994   4.894   0.154
 7912SOL    HW124635   6.909   4.843   0.166
 7912SOL    HW224636   6.982   4.963   0.082
 7913SOL     OW24637   1.171   5.261   1.245
 7913SOL    HW124638   1.246   5.323   1.222
 7913SOL    HW224639   1.207   5.180   1.289
 7914SOL     OW24640   7.001   4.480   5.807
 7914SOL    HW124641   0.013   4.555   5.868
 7914SOL    HW224642   0.058   4.411   5.805
 7915SOL     OW24643   4.749   2.847   2.351
 7915SOL    HW124644   4.728   2.762   2.302
 7915SOL    HW224645   4.761   2.921   2.285
 7916SOL     OW24646   0.050   3.822   5.457
 7916SOL    HW124647   0.068   3.920   5.450
 7916SOL    HW224648   6.970   3.807   5.485
 7917SOL     OW24649   3.361   3.767   3.411
 7917SOL    HW124650   3.373   3.783   3.509
 7917SOL    HW224651   3.446   3.786   3.363
 7918SOL     OW24652   0.204   1.797   6.892
 7918SOL    HW124653   0.300   1.787   6.866
 7918SOL    HW224654   0.186   1.744   6.975
 7919SOL     OW24655   1.583   4.919   2.882
 7919SOL    HW124656   1.503   4.908   2.942
 7919SOL    HW224657   1.596   4.836   2.828
 7920SOL     OW24658   0.609   5.523   1.139
 7920SOL    HW124659   0.532   5.506   1.078
 7920SOL    HW224660   0.676   5.581   1.092
 7921SOL     OW24661   4.377   6.312   0.847
 7921SOL    HW124662   4.364   6.302   0.748
 7921SOL    HW224663   4.475   6.315   0.867
 7922SOL     OW24664   6.565   5.803   0.463
 7922SOL    HW124665   6.663   5.807   0.479
 7922SOL    HW224666   6.548   5.768   0.371
 7923SOL     OW24667   2.974   0.468   1.848
 7923SOL    HW124668   2.890   0.428   1.884
 7923SOL    HW224669   2.988   0.437   1.754
 7924SOL     OW24670   4.459   6.531   2.764
 7924SOL    HW124671   4.385   6.581   2.808
 7924SOL    HW224672   4.545   6.549   2.812
 7925SOL     OW24673   0.659   1.771   6.251
 7925SOL    HW124674   0.578   1.830   6.260
 7925SOL    HW224675   0.633   1.677   6.273
 7926SOL     OW24676   5.077   1.284   5.317
 7926SOL    HW124677   5.117   1.328   5.398
 7926SOL    HW224678   5.063   1.352   5.245
 7927SOL     OW24679   4.084   5.532   4.623
 7927SOL    HW124680   4.108   5.465   4.552
 7927SOL    HW224681   3.994   5.510   4.659
 7928SOL     OW24682   1.750   2.581   4.691
 7928SOL    HW124683   1.678   2.619   4.749
 7928SOL    HW224684   1.710   2.555   4.603
 7929SOL     OW24685   3.771   3.978   5.521
 7929SOL    HW124686   3.809   3.905   5.578
 7929SOL    HW224687   3.672   3.979   5.529
 7930SOL     OW24688   4.655   5.587   4.063
 7930SOL    HW124689   4.697   5.506   4.106
 7930SOL    HW224690   4.715   5.620   3.990
 7931SOL     OW24691   1.511   1.487   6.260
 7931SOL    HW124692   1.528   1.539   6.344
 7931SOL    HW224693   1.414   1.464   6.254
 7932SOL     OW24694   3.027   6.219   6.516
 7932SOL    HW124695   2.999   6.310   6.484
 7932SOL    HW224696   3.112   6.227   6.568
 7933SOL     OW24697   0.254   6.405   6.950
 7933SOL    HW124698   0.232   6.337   0.005
 7933SOL    HW224699   0.239   6.365   6.860
 7934SOL     OW24700   2.159   4.900   0.094
 7934SOL    HW124701   2.142   4.806   0.062
 7934SOL    HW224702   2.072   4.944   0.115
 7935SOL     OW24703   5.604   6.060   0.377
 7935SOL    HW124704   5.578   6.034   0.470
 7935SOL    HW224705   5.688   6.114   0.379
 7936SOL     OW24706   3.814   4.907   3.005
 7936SOL    HW124707   3.797   4.898   2.907
 7936SOL    HW224708   3.883   4.840   3.034
 7937SOL     OW24709   6.067   0.013   3.819
 7937SOL    HW124710   5.971   7.000   3.819
 7937SOL    HW224711   6.122   6.959   3.865
 7938SOL     OW24712   6.138   5.367   5.309
 7938SOL    HW124713   6.140   5.274   5.347
 7938SOL    HW224714   6.093   5.366   5.220
 7939SOL     OW24715   0.796   2.449   5.527
 7939SOL    HW124716   0.763   2.530   5.480
 7939SOL    HW224717   0.720   2.388   5.548
 7940SOL     OW24718   1.557   3.762   2.533
 7940SOL    HW124719   1.649   3.739   2.501
 7940SOL    HW224720   1.499   3.681   2.526
 7941SOL     OW24721   6.955   6.628   0.706
 7941SOL    HW124722   6.976   6.722   0.682
 7941SOL    HW224723   6.951   6.572   0.624
 7942SOL     OW24724   6.557   5.856   2.926
 7942SOL    HW124725   6.605   5.940   2.954
 7942SOL    HW224726   6.619   5.778   2.936
 7943SOL     OW24727   5.994   2.421   6.966
 7943SOL    HW124728   5.949   2.501   6.926
 7943SOL    HW224729   5.975   2.341   6.909
 7944SOL     OW24730   0.674   3.458   1.460
 7944SOL    HW124731   0.580   3.491   1.450
 7944SOL    HW224732   0.716   3.448   1.369
 7945SOL     OW24733   5.189   6.045   2.432
 7945SOL    HW124734   5.157   5.951   2.422
 7945SOL    HW224735   5.141   6.104   2.366
 7946SOL     OW24736   2.527   2.051   5.775
 7946SOL    HW124737   2.561   1.966   5.815
 7946SOL    HW224738   2.508   2.117   5.847
 7947SOL     OW24739   3.741   2.529   6.219
 7947SOL    HW124740   3.679   2.606   6.236
 7947SOL    HW224741   3.794   2.547   6.136
 7948SOL     OW24742   0.748   6.025   0.969
 7948SOL    HW124743   0.653   6.056   0.969
 7948SOL    HW224744   0.765   5.969   1.051
 7949SOL     OW24745   4.464   4.569   4.120
 7949SOL    HW124746   4.472   4.518   4.207
 7949SOL    HW224747   4.405   4.648   4.134
 7950SOL     OW24748   5.228   5.129   4.275
 7950SOL    HW124749   5.211   5.150   4.371
 7950SOL    HW224750   5.327   5.131   4.257
 7951SOL     OW24751   1.617   3.833   1.319
 7951SOL    HW124752   1.694   3.798   1.373
 7951SOL    HW224753   1.549   3.760   1.307
 7952SOL     OW24754   0.957   3.380   6.918
 7952SOL    HW124755   0.942   3.373   6.820
 7952SOL    HW224756   0.871   3.361   6.967
 7953SOL     OW24757   2.147   2.768   3.447
 7953SOL    HW124758   2.053   2.748   3.476
 7953SOL    HW224759   2.145   2.821   3.363
 7954SOL     OW24760   4.512   4.640   5.366
 7954SOL    HW124761   4.597   4.679   5.403
 7954SOL    HW224762   4.437   4.705   5.378
 7955SOL     OW24763   1.389   6.785   6.347
 7955SOL    HW124764   1.295   6.815   6.328
 7955SOL    HW224765   1.391   6.685   6.354
 7956SOL     OW24766   2.735   6.046   2.938
 7956SOL    HW124767   2.806   6.101   2.983
 7956SOL    HW224768   2.754   5.949   2.953
 7957SOL     OW24769   1.961   1.118   0.209
 7957SOL    HW124770   1.921   1.173   0.282
 7957SOL    HW224771   1.994   1.179   0.136
 7958SOL     OW24772   3.048   5.566   4.197
 7958SOL    HW124773   2.953   5.537   4.191
 7958SOL    HW224774   3.106   5.499   4.149
 7959SOL     OW24775   4.296   5.712   1.486
 7959SOL    HW124776   4.302   5.756   1.397
 7959SOL    HW224777   4.210   5.738   1.531
 7960SOL     OW24778   3.575   1.657   0.840
 7960SOL    HW124779   3.539   1.657   0.746
 7960SOL    HW224780   3.499   1.657   0.905
 7961SOL     OW24781   1.043   6.286   0.616
 7961SOL    HW124782   0.946   6.265   0.606
 7961SOL    HW224783   1.095   6.201   0.625
 7962SOL     OW24784   1.872   6.963   0.084
 7962SOL    HW124785   1.831   6.878   0.053
 7962SOL    HW224786   1.831   6.990   0.171
 7963SOL     OW24787   6.874   0.663   3.630
 7963SOL    HW124788   6.830   0.738   3.679
 7963SOL    HW224789   6.827   0.577   3.651
 7964SOL     OW24790   6.804   5.224   3.219
 7964SOL    HW124791   6.734   5.221   3.148
 7964SOL    HW224792   6.852   5.312   3.215
 7965SOL     OW24793   3.369   3.150   6.836
 7965SOL    HW124794   3.455   3.177   6.792
 7965SOL    HW224795   3.297   3.143   6.767
 7966SOL     OW24796   0.247   3.067   5.551
 7966SOL    HW124797   0.346   3.077   5.540
 7966SOL    HW224798   0.210   3.019   5.471
 7967SOL     OW24799   2.863   6.332   4.232
 7967SOL    HW124800   2.931   6.401   4.257
 7967SOL    HW224801   2.776   6.377   4.211
 7968SOL     OW24802   1.993   2.199   3.907
 7968SOL    HW124803   2.044   2.285   3.901
 7968SOL    HW224804   1.903   2.217   3.946
 7969SOL     OW24805   4.538   0.204   2.265
 7969SOL    HW124806   4.632   0.232   2.288
 7969SOL    HW224807   4.503   0.263   2.193
 7970SOL     OW24808   0.211   3.508   3.091
 7970SOL    HW124809   0.177   3.543   3.177
 7970SOL    HW224810   0.259   3.421   3.106
 7971SOL     OW24811   3.986   1.375   0.733
 7971SOL    HW124812   3.900   1.402   0.776
 7971SOL    HW224813   4.029   1.455   0.691
 7972SOL     OW24814   1.025   4.003   1.743
 7972SOL    HW124815   1.090   3.937   1.781
 7972SOL    HW224816   1.021   4.084   1.801
 7973SOL     OW24817   4.869   4.183   3.081
 7973SOL    HW124818   4.839   4.087   3.089
 7973SOL    HW224819   4.925   4.193   2.999
 7974SOL     OW24820   5.535   0.818   5.006
 7974SOL    HW124821   5.583   0.904   5.021
 7974SOL    HW224822   5.479   0.824   4.923
 7975SOL     OW24823   6.123   0.452   2.697
 7975SOL    HW124824   6.097   0.544   2.666
 7975SOL    HW224825   6.222   0.450   2.714
 7976SOL     OW24826   0.663   0.620   6.081
 7976SOL    HW124827   0.694   0.620   6.176
 7976SOL    HW224828   0.741   0.636   6.021
 7977SOL     OW24829   4.501   5.103   2.085
 7977SOL    HW124830   4.521   5.197   2.112
 7977SOL    HW224831   4.496   5.096   1.986
 7978SOL     OW24832   5.642   3.471   6.193
 7978SOL    HW124833   5.670   3.536   6.264
 7978SOL    HW224834   5.588   3.519   6.124
 7979SOL     OW24835   3.904   0.619   5.451
 7979SOL    HW124836   3.817   0.666   5.442
 7979SOL    HW224837   3.889   0.520   5.446
 7980SOL     OW24838   2.491   5.657   0.281
 7980SOL    HW124839   2.421   5.603   0.235
 7980SOL    HW224840   2.581   5.629   0.249
 7981SOL     OW24841   0.584   5.997   2.643
 7981SOL    HW124842   0.505   6.031   2.593
 7981SOL    HW224843   0.570   5.901   2.667
 7982SOL     OW24844   0.050   1.994   6.825
 7982SOL    HW124845   0.019   2.013   6.731
 7982SOL    HW224846   0.122   1.925   6.822
 7983SOL     OW24847   5.911   1.942   2.408
 7983SOL    HW124848   5.819   1.925   2.373
 7983SOL    HW224849   5.907   1.963   2.506
 7984SOL     OW24850   1.522   1.862   1.719
 7984SOL    HW124851   1.612   1.830   1.692
 7984SOL    HW224852   1.486   1.925   1.650
 7985SOL     OW24853   2.352   6.691   3.572
 7985SOL    HW124854   2.410   6.730   3.501
 7985SOL    HW224855   2.395   6.608   3.608
 7986SOL     OW24856   2.917   0.448   6.683
 7986SOL    HW124857   2.845   0.448   6.752
 7986SOL    HW224858   2.988   0.514   6.709
 7987SOL     OW24859   1.164   3.507   6.626
 7987SOL    HW124860   1.115   3.595   6.622
 7987SOL    HW224861   1.098   3.432   6.626
 7988SOL     OW24862   1.608   1.750   4.106
 7988SOL    HW124863   1.663   1.702   4.038
 7988SOL    HW224864   1.511   1.741   4.083
 7989SOL     OW24865   3.199   2.618   5.320
 7989SOL    HW124866   3.295   2.626   5.348
 7989SOL    HW224867   3.185   2.531   5.274
 7990SOL     OW24868   6.100   4.018   3.756
 7990SOL    HW124869   6.167   4.056   3.819
 7990SOL    HW224870   6.069   3.929   3.789
 7991SOL     OW24871   6.570   0.826   4.961
 7991SOL    HW124872   6.504   0.761   4.924
 7991SOL    HW224873   6.634   0.852   4.889
 7992SOL     OW24874   1.476   6.572   1.186
 7992SOL    HW124875   1.560   6.606   1.230
 7992SOL    HW224876   1.442   6.641   1.122
 7993SOL     OW24877   1.687   6.017   6.878
 7993SOL    HW124878   1.655   6.024   6.783
 7993SOL    HW224879   1.631   5.950   6.927
 7994SOL     OW24880   4.965   0.255   3.035
 7994SOL    HW124881   4.876   0.214   3.054
 7994SOL    HW224882   5.029   0.229   3.107
 7995SOL     OW24883   4.323   5.275   3.757
 7995SOL    HW124884   4.266   5.217   3.815
 7995SOL    HW224885   4.313   5.370   3.786
 7996SOL     OW24886   3.168   0.001   5.041
 7996SOL    HW124887   3.156   6.921   5.067
 7996SOL    HW224888   3.237   0.008   4.969
 7997SOL     OW24889   6.788   1.308   0.703
 7997SOL    HW124890   6.812   1.404   0.688
 7997SOL    HW224891   6.816   1.281   0.796
 7998SOL     OW24892   3.989   5.258   1.317
 7998SOL    HW124893   3.958   5.176   1.269
 7998SOL    HW224894   3.996   5.334   1.253
 7999SOL     OW24895   1.408   0.129   6.153
 7999SOL    HW124896   1.469   0.052   6.134
 7999SOL    HW224897   1.424   0.162   6.246
 8000SOL     OW24898   5.301   0.754   0.218
 8000SOL    HW124899   5.300   0.722   0.313
 8000SOL    HW224900   5.396   0.770   0.190
 8001SOL     OW24901   3.611   5.768   1.056
 8001SOL    HW124902   3.629   5.673   1.028
 8001SOL    HW224903   3.572   5.769   1.148
 8002SOL     OW24904   0.889   2.686   5.300
 8002SOL    HW124905   0.811   2.691   5.363
 8002SOL    HW224906   0.967   2.645   5.347
 8003SOL     OW24907   2.426   4.686   2.459
 8003SOL    HW124908   2.458   4.781   2.468
 8003SOL    HW224909   2.490   4.625   2.505
 8004SOL     OW24910   1.381   3.599   3.695
 8004SOL    HW124911   1.422   3.670   3.752
 8004SOL    HW224912   1.411   3.509   3.726
 8005SOL     OW24913   3.087   1.542   2.021
 8005SOL    HW124914   3.075   1.606   2.097
 8005SOL    HW224915   3.127   1.457   2.055
 8006SOL     OW24916   2.811   6.841   0.075
 8006SOL    HW124917   2.847   6.892   0.153
 8006SOL    HW224918   2.800   6.745   0.101
 8007SOL     OW24919   0.963   0.198   4.402
 8007SOL    HW124920   0.899   0.254   4.349
 8007SOL    HW224921   1.051   0.195   4.356
 8008SOL     OW24922   4.328   6.288   6.059
 8008SOL    HW124923   4.250   6.239   6.098
 8008SOL    HW224924   4.298   6.380   6.032
 8009SOL     OW24925   6.378   0.455   2.780
 8009SOL    HW124926   6.344   0.425   2.869
 8009SOL    HW224927   6.460   0.511   2.792
 8010SOL     OW24928   1.248   1.483   0.240
 8010SOL    HW124929   1.312   1.548   0.199
 8010SOL    HW224930   1.291   1.439   0.319
 8011SOL     OW24931   2.841   2.662   0.952
 8011SOL    HW124932   2.742   2.656   0.946
 8011SOL    HW224933   2.882   2.576   0.920
 8012SOL     OW24934   2.700   6.148   1.864
 8012SOL    HW124935   2.761   6.222   1.836
 8012SOL    HW224936   2.745   6.060   1.849
 8013SOL     OW24937   0.712   5.069   4.340
 8013SOL    HW124938   0.658   4.985   4.351
 8013SOL    HW224939   0.806   5.051   4.367
 8014SOL     OW24940   0.422   6.224   5.037
 8014SOL    HW124941   0.347   6.254   4.979
 8014SOL    HW224942   0.496   6.292   5.034
 8015SOL     OW24943   3.105   1.429   0.116
 8015SOL    HW124944   3.123   1.448   0.020
 8015SOL    HW224945   3.180   1.375   0.154
 8016SOL     OW24946   4.611   0.553   6.641
 8016SOL    HW124947   4.664   0.468   6.633
 8016SOL    HW224948   4.580   0.581   6.550
 8017SOL     OW24949   6.812   5.642   6.880
 8017SOL    HW124950   6.769   5.731   6.896
 8017SOL    HW224951   6.819   5.592   6.966
 8018SOL     OW24952   3.459   2.541   6.064
 8018SOL    HW124953   3.480   2.473   5.995
 8018SOL    HW224954   3.441   2.496   6.151
 8019SOL     OW24955   2.033   3.651   6.724
 8019SOL    HW124956   2.016   3.602   6.809
 8019SOL    HW224957   2.062   3.587   6.653
 8020SOL     OW24958   6.332   5.835   0.847
 8020SOL    HW124959   6.353   5.738   0.847
 8020SOL    HW224960   6.355   5.875   0.759
 8021SOL     OW24961   1.010   2.094   1.302
 8021SOL    HW124962   1.082   2.128   1.363
 8021SOL    HW224963   1.049   2.025   1.241
 8022SOL     OW24964   4.403   0.363   2.697
 8022SOL    HW124965   4.439   0.367   2.790
 8022SOL    HW224966   4.406   0.454   2.656
 8023SOL     OW24967   5.685   5.352   3.240
 8023SOL    HW124968   5.671   5.304   3.327
 8023SOL    HW224969   5.616   5.423   3.228
 8024SOL     OW24970   3.754   5.166   6.899
 8024SOL    HW124971   3.772   5.131   6.991
 8024SOL    HW224972   3.660   5.200   6.894
 8025SOL     OW24973   2.482   6.050   6.704
 8025SOL    HW124974   2.547   6.072   6.776
 8025SOL    HW224975   2.389   6.049   6.741
 8026SOL     OW24976   0.641   5.008   6.656
 8026SOL    HW124977   0.645   4.923   6.709
 8026SOL    HW224978   0.545   5.027   6.632
 8027SOL     OW24979   4.089   1.758   5.343
 8027SOL    HW124980   4.133   1.670   5.328
 8027SOL    HW224981   4.126   1.825   5.278
 8028SOL     OW24982   3.099   5.502   5.406
 8028SOL    HW124983   3.057   5.561   5.336
 8028SOL    HW224984   3.195   5.487   5.383
 8029SOL     OW24985   5.363   3.759   0.098
 8029SOL    HW124986   5.375   3.773   0.196
 8029SOL    HW224987   5.271   3.723   0.080
 8030SOL     OW24988   4.737   4.118   0.210
 8030SOL    HW124989   4.817   4.178   0.215
 8030SOL    HW224990   4.693   4.129   0.121
 8031SOL     OW24991   4.526   5.789   2.648
 8031SOL    HW124992   4.436   5.831   2.663
 8031SOL    HW224993   4.570   5.833   2.569
 8032SOL     OW24994   5.700   4.508   6.047
 8032SOL    HW124995   5.606   4.513   6.012
 8032SOL    HW224996   5.708   4.567   6.127
 8033SOL     OW24997   5.319   3.786   6.792
 8033SOL    HW124998   5.272   3.784   6.880
 8033SOL    HW224999   5.252   3.775   6.718
 8034SOL     OW25000   6.371   1.237   4.841
 8034SOL    HW125001   6.317   1.306   4.791
 8034SOL    HW225002   6.365   1.254   4.939
 8035SOL     OW25003   4.621   0.652   5.397
 8035SOL    HW125004   4.704   0.638   5.342
 8035SOL    HW225005   4.595   0.748   5.394
 8036SOL     OW25006   0.482   3.744   2.326
 8036SOL    HW125007   0.521   3.810   2.390
 8036SOL    HW225008   0.401   3.783   2.282
 8037SOL     OW25009   1.704   3.377   1.974
 8037SOL    HW125010   1.670   3.471   1.960
 8037SOL    HW225011   1.803   3.375   1.960
 8038SOL     OW25012   4.752   0.852   2.837
 8038SOL    HW125013   4.684   0.799   2.786
 8038SOL    HW225014   4.747   0.948   2.810
 8039SOL     OW25015   0.992   6.960   3.894
 8039SOL    HW125016   0.928   6.992   3.824
 8039SOL    HW225017   0.950   6.970   3.984
 8040SOL     OW25018   1.108   6.130   0.944
 8040SOL    HW125019   1.147   6.222   0.951
 8040SOL    HW225020   1.009   6.136   0.956
 8041SOL     OW25021   2.993   2.139   2.227
 8041SOL    HW125022   2.992   2.134   2.327
 8041SOL    HW225023   2.975   2.233   2.198
 8042SOL     OW25024   3.935   3.028   3.369
 8042SOL    HW125025   3.998   3.081   3.426
 8042SOL    HW225026   3.858   2.998   3.424
 8043SOL     OW25027   3.488   6.578   1.532
 8043SOL    HW125028   3.528   6.635   1.461
 8043SOL    HW225029   3.475   6.632   1.615
 8044SOL     OW25030   3.670   3.462   0.296
 8044SOL    HW125031   3.633   3.422   0.213
 8044SOL    HW225032   3.770   3.452   0.297
 8045SOL     OW25033   5.334   0.305   1.307
 8045SOL    HW125034   5.421   0.317   1.259
 8045SOL    HW225035   5.328   0.211   1.341
 8046SOL     OW25036   6.644   5.018   6.869
 8046SOL    HW125037   6.560   4.986   6.913
 8046SOL    HW225038   6.658   5.115   6.890
 8047SOL     OW25039   3.825   4.973   4.882
 8047SOL    HW125040   3.893   5.008   4.818
 8047SOL    HW225041   3.851   4.881   4.911
 8048SOL     OW25042   5.426   0.555   5.687
 8048SOL    HW125043   5.384   0.555   5.777
 8048SOL    HW225044   5.360   0.523   5.619
 8049SOL     OW25045   1.964   0.157   1.199
 8049SOL    HW125046   1.947   0.068   1.158
 8049SOL    HW225047   1.883   0.188   1.249
 8050SOL     OW25048   1.201   4.273   2.274
 8050SOL    HW125049   1.277   4.217   2.240
 8050SOL    HW225050   1.229   4.319   2.358
 8051SOL     OW25051   4.939   6.028   3.462
 8051SOL    HW125052   5.026   5.978   3.465
 8051SOL    HW225053   4.948   6.106   3.400
 8052SOL     OW25054   4.151   1.646   1.854
 8052SOL    HW125055   4.115   1.725   1.903
 8052SOL    HW225056   4.102   1.635   1.768
 8053SOL     OW25057   3.716   4.113   3.067
 8053SOL    HW125058   3.713   4.032   3.125
 8053SOL    HW225059   3.627   4.158   3.068
 8054SOL     OW25060   5.194   6.909   4.589
 8054SOL    HW125061   5.198   6.811   4.569
 8054SOL    HW225062   5.214   6.925   4.685
 8055SOL     OW25063   0.275   0.777   6.079
 8055SOL    HW125064   0.305   0.682   6.082
 8055SOL    HW225065   0.191   0.784   6.025
 8056SOL     OW25066   4.489   1.484   4.168
 8056SOL    HW125067   4.461   1.389   4.172
 8056SOL    HW225068   4.409   1.543   4.181
 8057SOL     OW25069   2.829   2.265   3.138
 8057SOL    HW125070   2.915   2.276   3.190
 8057SOL    HW225071   2.837   2.187   3.077
 8058SOL     OW25072   4.421   0.311   3.130
 8058SOL    HW125073   4.460   0.340   3.043
 8058SOL    HW225074   4.460   0.366   3.204
 8059SOL     OW25075   4.388   2.408   4.433
 8059SOL    HW125076   4.337   2.345   4.374
 8059SOL    HW225077   4.411   2.362   4.519
 8060SOL     OW25078   0.652   1.446   4.596
 8060SOL    HW125079   0.684   1.445   4.502
 8060SOL    HW225080   0.576   1.382   4.606
 8061SOL     OW25081   6.586   6.792   1.294
 8061SOL    HW125082   6.544   6.864   1.239
 8061SOL    HW225083   6.517   6.722   1.315
 8062SOL     OW25084   2.810   5.090   4.342
 8062SOL    HW125085   2.714   5.079   4.318
 8062SOL    HW225086   2.838   5.017   4.404
 8063SOL     OW25087   1.548   2.558   0.540
 8063SOL    HW125088   1.469   2.582   0.596
 8063SOL    HW225089   1.632   2.584   0.588
 8064SOL     OW25090   6.810   5.130   1.507
 8064SOL    HW125091   6.830   5.040   1.545
 8064SOL    HW225092   6.847   5.201   1.567
 8065SOL     OW25093   4.577   6.494   3.651
 8065SOL    HW125094   4.517   6.569   3.623
 8065SOL    HW225095   4.526   6.429   3.707
 8066SOL     OW25096   0.786   1.591   5.970
 8066SOL    HW125097   0.875   1.567   5.932
 8066SOL    HW225098   0.754   1.517   6.028
 8067SOL     OW25099   4.880   3.383   1.732
 8067SOL    HW125100   4.854   3.287   1.734
 8067SOL    HW225101   4.945   3.398   1.657
 8068SOL     OW25102   5.788   4.244   6.912
 8068SOL    HW125103   5.730   4.177   6.865
 8068SOL    HW225104   5.823   4.204   6.997
 8069SOL     OW25105   2.080   6.098   1.037
 8069SOL    HW125106   2.011   6.028   1.057
 8069SOL    HW225107   2.062   6.137   0.947
 8070SOL     OW25108   2.549   3.506   0.303
 8070SOL    HW125109   2.637   3.459   0.308
 8070SOL    HW225110   2.496   3.486   0.385
 8071SOL     OW25111   3.160   6.262   4.912
 8071SOL    HW125112   3.173   6.292   5.006
 8071SOL    HW225113   3.200   6.329   4.850
 8072SOL     OW25114   3.522   0.569   6.997
 8072SOL    HW125115   3.538   0.567   6.898
 8072SOL    HW225116   3.543   0.660   0.017
 8073SOL     OW25117   4.037   6.300   5.986
 8073SOL    HW125118   4.028   6.395   5.955
 8073SOL    HW225119   4.078   6.245   5.913
 8074SOL     OW25120   3.026   2.755   6.944
 8074SOL    HW125121   3.089   2.775   6.869
 8074SOL    HW225122   3.048   2.812   0.007
 8075SOL     OW25123   6.456   1.129   0.957
 8075SOL    HW125124   6.403   1.066   1.015
 8075SOL    HW225125   6.521   1.179   1.014
 8076SOL     OW25126   5.155   2.559   5.709
 8076SOL    HW125127   5.198   2.471   5.691
 8076SOL    HW225128   5.055   2.549   5.705
 8077SOL     OW25129   1.473   5.958   1.744
 8077SOL    HW125130   1.486   5.960   1.843
 8077SOL    HW225131   1.554   5.998   1.700
 8078SOL     OW25132   6.107   1.135   6.926
 8078SOL    HW125133   6.062   1.218   6.892
 8078SOL    HW225134   6.206   1.143   6.915
 8079SOL     OW25135   5.672   1.462   3.428
 8079SOL    HW125136   5.586   1.466   3.479
 8079SOL    HW225137   5.741   1.416   3.483
 8080SOL     OW25138   0.513   4.145   6.805
 8080SOL    HW125139   0.490   4.238   6.832
 8080SOL    HW225140   0.606   4.143   6.767
 8081SOL     OW25141   4.852   0.138   5.064
 8081SOL    HW125142   4.761   0.125   5.104
 8081SOL    HW225143   4.910   0.188   5.128
 8082SOL     OW25144   5.940   1.138   1.970
 8082SOL    HW125145   5.884   1.055   1.979
 8082SOL    HW225146   5.912   1.204   2.039
 8083SOL     OW25147   5.171   3.246   2.195
 8083SOL    HW125148   5.073   3.263   2.209
 8083SOL    HW225149   5.205   3.188   2.269
 8084SOL     OW25150   5.400   6.854   0.985
 8084SOL    HW125151   5.300   6.852   0.985
 8084SOL    HW225152   5.432   6.914   1.057
 8085SOL     OW25153   6.239   0.278   2.366
 8085SOL    HW125154   6.307   0.206   2.352
 8085SOL    HW225155   6.239   0.304   2.463
 8086SOL     OW25156   4.841   0.994   4.124
 8086SOL    HW125157   4.779   1.006   4.202
 8086SOL    HW225158   4.798   0.936   4.055
 8087SOL     OW25159   2.940   1.741   1.235
 8087SOL    HW125160   2.860   1.682   1.229
 8087SOL    HW225161   2.911   1.836   1.246
 8088SOL     OW25162   5.571   1.958   1.796
 8088SOL    HW125163   5.599   2.054   1.802
 8088SOL    HW225164   5.473   1.953   1.778
 8089SOL     OW25165   5.478   3.020   0.754
 8089SOL    HW125166   5.474   3.120   0.742
 8089SOL    HW225167   5.421   2.975   0.686
 8090SOL     OW25168   4.084   2.532   6.519
 8090SOL    HW125169   4.134   2.545   6.433
 8090SOL    HW225170   4.148   2.512   6.593
 8091SOL     OW25171   2.557   3.863   6.817
 8091SOL    HW125172   2.523   3.915   6.895
 8091SOL    HW225173   2.518   3.900   6.733
 8092SOL     OW25174   0.956   2.058   4.944
 8092SOL    HW125175   0.895   1.980   4.955
 8092SOL    HW225176   0.906   2.134   4.902
 8093SOL     OW25177   4.895   5.921   1.926
 8093SOL    HW125178   4.890   6.021   1.923
 8093SOL    HW225179   4.817   5.882   1.877
 8094SOL     OW25180   1.887   3.801   4.277
 8094SOL    HW125181   1.966   3.739   4.284
 8094SOL    HW225182   1.891   3.869   4.350
 8095SOL     OW25183   5.375   4.143   4.695
 8095SOL    HW125184   5.303   4.089   4.652
 8095SOL    HW225185   5.413   4.093   4.773
 8096SOL     OW25186   2.912   5.620   3.878
 8096SOL    HW125187   2.936   5.672   3.961
 8096SOL    HW225188   2.840   5.554   3.900
 8097SOL     OW25189   4.958   0.102   3.455
 8097SOL    HW125190   4.903   0.184   3.438
 8097SOL    HW225191   5.026   0.092   3.383
 8098SOL     OW25192   2.046   6.674   4.196
 8098SOL    HW125193   2.105   6.650   4.119
 8098SOL    HW225194   2.062   6.610   4.271
 8099SOL     OW25195   5.910   0.719   3.735
 8099SOL    HW125196   5.888   0.813   3.762
 8099SOL    HW225197   5.825   0.668   3.722
 8100SOL     OW25198   0.533   6.802   6.969
 8100SOL    HW125199   0.454   6.796   0.015
 8100SOL    HW225200   0.562   6.897   6.961
 8101SOL     OW25201   2.192   0.338   4.353
 8101SOL    HW125202   2.278   0.341   4.302
 8101SOL    HW225203   2.136   0.262   4.318
 8102SOL     OW25204   1.101   4.582   5.256
 8102SOL    HW125205   1.016   4.631   5.238
 8102SOL    HW225206   1.143   4.617   5.340
 8103SOL     OW25207   4.452   0.669   0.416
 8103SOL    HW125208   4.451   0.696   0.320
 8103SOL    HW225209   4.483   0.574   0.423
 8104SOL     OW25210   2.841   6.349   5.951
 8104SOL    HW125211   2.770   6.308   5.894
 8104SOL    HW225212   2.805   6.431   5.995
 8105SOL     OW25213   1.607   2.113   2.923
 8105SOL    HW125214   1.549   2.100   2.842
 8105SOL    HW225215   1.604   2.031   2.980
 8106SOL     OW25216   2.375   5.949   3.716
 8106SOL    HW125217   2.328   5.868   3.683
 8106SOL    HW225218   2.310   6.025   3.721
 8107SOL     OW25219   1.317   5.988   5.217
 8107SOL    HW125220   1.410   6.021   5.203
 8107SOL    HW225221   1.294   5.920   5.147
 8108SOL     OW25222   5.496   2.813   5.304
 8108SOL    HW125223   5.561   2.765   5.245
 8108SOL    HW225224   5.543   2.851   5.383
 8109SOL     OW25225   1.043   3.968   4.146
 8109SOL    HW125226   1.039   4.063   4.177
 8109SOL    HW225227   1.083   3.911   4.218
 8110SOL     OW25228   3.633   6.892   0.987
 8110SOL    HW125229   3.602   6.958   1.055
 8110SOL    HW225230   3.609   6.923   0.896
 8111SOL     OW25231   3.909   0.599   5.873
 8111SOL    HW125232   3.909   0.669   5.801
 8111SOL    HW225233   3.900   0.642   5.962
 8112SOL     OW25234   1.755   1.354   5.138
 8112SOL    HW125235   1.834   1.415   5.130
 8112SOL    HW225236   1.675   1.399   5.099
 8113SOL     OW25237   2.503   3.376   0.018
 8113SOL    HW125238   2.506   3.409   0.112
 8113SOL    HW225239   2.467   3.447   6.973
 8114SOL     OW25240   1.895   2.925   2.053
 8114SOL    HW125241   1.910   2.826   2.044
 8114SOL    HW225242   1.838   2.957   1.978
 8115SOL     OW25243   4.352   1.462   1.798
 8115SOL    HW125244   4.350   1.470   1.698
 8115SOL    HW225245   4.281   1.521   1.838
 8116SOL     OW25246   4.848   0.333   4.339
 8116SOL    HW125247   4.824   0.247   4.384
 8116SOL    HW225248   4.796   0.408   4.380
 8117SOL     OW25249   2.255   0.953   4.733
 8117SOL    HW125250   2.347   0.990   4.719
 8117SOL    HW225251   2.259   0.853   4.737
 8118SOL     OW25252   6.195   3.516   5.700
 8118SOL    HW125253   6.153   3.433   5.738
 8118SOL    HW225254   6.210   3.503   5.602
 8119SOL     OW25255   6.329   5.548   5.229
 8119SOL    HW125256   6.271   5.467   5.235
 8119SOL    HW225257   6.415   5.532   5.277
 8120SOL     OW25258   3.828   4.831   6.480
 8120SOL    HW125259   3.757   4.836   6.410
 8120SOL    HW225260   3.810   4.899   6.550
 8121SOL     OW25261   0.171   5.308   2.679
 8121SOL    HW125262   0.216   5.229   2.638
 8121SOL    HW225263   0.236   5.382   2.690
 8122SOL     OW25264   0.845   5.630   2.529
 8122SOL    HW125265   0.869   5.726   2.515
 8122SOL    HW225266   0.926   5.579   2.558
 8123SOL     OW25267   6.968   6.792   0.209
 8123SOL    HW125268   0.049   6.801   0.232
 8123SOL    HW225269   6.947   6.698   0.184
 8124SOL     OW25270   0.483   6.106   1.024
 8124SOL    HW125271   0.418   6.137   1.093
 8124SOL    HW225272   0.473   6.007   1.011
 8125SOL     OW25273   0.896   6.317   2.831
 8125SOL    HW125274   0.841   6.243   2.869
 8125SOL    HW225275   0.886   6.399   2.888
 8126SOL     OW25276   6.335   3.759   2.350
 8126SOL    HW125277   6.310   3.793   2.440
 8126SOL    HW225278   6.427   3.792   2.325
 8127SOL     OW25279   2.358   6.298   0.886
 8127SOL    HW125280   2.419   6.247   0.825
 8127SOL    HW225281   2.268   6.253   0.889
 8128SOL     OW25282   2.839   2.950   0.911
 8128SOL    HW125283   2.934   2.977   0.894
 8128SOL    HW225284   2.829   2.852   0.897
 8129SOL     OW25285   4.401   1.423   6.097
 8129SOL    HW125286   4.451   1.379   6.023
 8129SOL    HW225287   4.461   1.486   6.146
 8130SOL     OW25288   0.485   4.634   6.454
 8130SOL    HW125289   0.457   4.547   6.494
 8130SOL    HW225290   0.527   4.619   6.365
 8131SOL     OW25291   2.371   0.790   0.579
 8131SOL    HW125292   2.333   0.851   0.648
 8131SOL    HW225293   2.349   0.695   0.603
 8132SOL     OW25294   5.426   6.206   6.260
 8132SOL    HW125295   5.491   6.223   6.334
 8132SOL    HW225296   5.363   6.283   6.252
 8133SOL     OW25297   3.344   4.896   1.976
 8133SOL    HW125298   3.436   4.858   1.963
 8133SOL    HW225299   3.278   4.821   1.982
 8134SOL     OW25300   1.508   1.331   4.460
 8134SOL    HW125301   1.494   1.245   4.409
 8134SOL    HW225302   1.435   1.395   4.436
 8135SOL     OW25303   2.435   5.563   1.805
 8135SOL    HW125304   2.348   5.593   1.845
 8135SOL    HW225305   2.418   5.521   1.716
 8136SOL     OW25306   4.756   4.871   2.698
 8136SOL    HW125307   4.747   4.771   2.692
 8136SOL    HW225308   4.690   4.906   2.764
 8137SOL     OW25309   2.041   1.307   4.300
 8137SOL    HW125310   2.096   1.232   4.338
 8137SOL    HW225311   1.983   1.346   4.371
 8138SOL     OW25312   5.748   2.348   0.654
 8138SOL    HW125313   5.696   2.312   0.576
 8138SOL    HW225314   5.835   2.385   0.623
 8139SOL     OW25315   1.888   2.703   3.509
 8139SOL    HW125316   1.861   2.624   3.564
 8139SOL    HW225317   1.816   2.772   3.513
 8140SOL     OW25318   3.570   6.955   0.712
 8140SOL    HW125319   3.473   6.944   0.690
 8140SOL    HW225320   3.618   6.993   0.634
 8141SOL     OW25321   4.871   6.832   5.342
 8141SOL    HW125322   4.923   6.917   5.340
 8141SOL    HW225323   4.906   6.772   5.413
 8142SOL     OW25324   1.919   5.097   0.624
 8142SOL    HW125325   1.873   5.014   0.653
 8142SOL    HW225326   1.871   5.177   0.661
 8143SOL     OW25327   4.902   5.186   0.708
 8143SOL    HW125328   4.809   5.181   0.673
 8143SOL    HW225329   4.908   5.255   0.780
 8144SOL     OW25330   0.793   6.255   5.664
 8144SOL    HW125331   0.777   6.305   5.750
 8144SOL    HW225332   0.844   6.314   5.601
 8145SOL     OW25333   4.840   4.913   0.744
 8145SOL    HW125334   4.827   4.852   0.822
 8145SOL    HW225335   4.897   4.991   0.771
 8146SOL     OW25336   5.467   6.902   5.884
 8146SOL    HW125337   5.477   6.805   5.859
 8146SOL    HW225338   5.416   6.949   5.812
 8147SOL     OW25339   6.834   0.528   0.804
 8147SOL    HW125340   6.762   0.464   0.830
 8147SOL    HW225341   6.793   0.612   0.769
 8148SOL     OW25342   4.395   4.416   6.691
 8148SOL    HW125343   4.386   4.429   6.593
 8148SOL    HW225344   4.308   4.439   6.736
 8149SOL     OW25345   2.004   6.750   3.206
 8149SOL    HW125346   1.914   6.714   3.183
 8149SOL    HW225347   1.996   6.814   3.282
 8150SOL     OW25348   1.121   4.051   1.093
 8150SOL    HW125349   1.108   4.021   0.999
 8150SOL    HW225350   1.164   4.141   1.094
 8151SOL     OW25351   5.910   5.381   3.906
 8151SOL    HW125352   5.816   5.369   3.874
 8151SOL    HW225353   5.961   5.435   3.838
 8152SOL     OW25354   5.458   2.976   3.378
 8152SOL    HW125355   5.529   3.015   3.319
 8152SOL    HW225356   5.373   3.027   3.367
 8153SOL     OW25357   0.894   1.250   3.147
 8153SOL    HW125358   0.840   1.221   3.068
 8153SOL    HW225359   0.991   1.234   3.128
 8154SOL     OW25360   3.771   6.974   2.802
 8154SOL    HW125361   3.866   6.987   2.774
 8154SOL    HW225362   3.718   0.042   2.783
 8155SOL     OW25363   1.325   3.908   2.216
 8155SOL    HW125364   1.249   3.954   2.170
 8155SOL    HW225365   1.331   3.941   2.310
 8156SOL     OW25366   4.985   6.051   1.346
 8156SOL    HW125367   4.954   6.102   1.427
 8156SOL    HW225368   4.943   5.960   1.346
 8157SOL     OW25369   6.527   4.276   5.961
 8157SOL    HW125370   6.623   4.295   5.979
 8157SOL    HW225371   6.471   4.308   6.038
 8158SOL     OW25372   5.312   4.881   7.015
 8158SOL    HW125373   5.312   4.908   0.096
 8158SOL    HW225374   5.324   4.962   6.958
 8159SOL     OW25375   3.565   5.574   5.313
 8159SOL    HW125376   3.526   5.623   5.235
 8159SOL    HW225377   3.647   5.524   5.284
 8160SOL     OW25378   4.667   0.126   3.842
 8160SOL    HW125379   4.700   0.056   3.905
 8160SOL    HW225380   4.704   0.215   3.869
 8161SOL     OW25381   6.037   3.840   6.526
 8161SOL    HW125382   6.101   3.829   6.602
 8161SOL    HW225383   6.004   3.750   6.496
 8162SOL     OW25384   6.422   5.126   6.607
 8162SOL    HW125385   6.390   5.108   6.701
 8162SOL    HW225386   6.520   5.146   6.608
 8163SOL     OW25387   2.223   4.827   5.351
 8163SOL    HW125388   2.265   4.826   5.442
 8163SOL    HW225389   2.212   4.733   5.318
 8164SOL     OW25390   4.387   1.400   0.104
 8164SOL    HW125391   4.487   1.399   0.105
 8164SOL    HW225392   4.354   1.489   0.136
 8165SOL     OW25393   6.740   3.756   6.372
 8165SOL    HW125394   6.704   3.778   6.463
 8165SOL    HW225395   6.832   3.795   6.363
 8166SOL     OW25396   1.933   0.635   3.363
 8166SOL    HW125397   1.868   0.620   3.438
 8166SOL    HW225398   1.970   0.548   3.333
 8167SOL     OW25399   0.221   0.936   3.032
 8167SOL    HW125400   0.141   0.882   3.008
 8167SOL    HW225401   0.193   1.017   3.084
 8168SOL     OW25402   2.769   6.828   1.426
 8168SOL    HW125403   2.693   6.813   1.490
 8168SOL    HW225404   2.818   6.741   1.413
 8169SOL     OW25405   3.863   2.004   0.255
 8169SOL    HW125406   3.828   1.919   0.296
 8169SOL    HW225407   3.811   2.081   0.290
 8170SOL     OW25408   6.689   4.760   0.991
 8170SOL    HW125409   6.614   4.742   1.055
 8170SOL    HW225410   6.735   4.844   1.017
 8171SOL     OW25411   2.200   1.568   6.901
 8171SOL    HW125412   2.251   1.499   6.952
 8171SOL    HW225413   2.215   1.556   6.803
 8172SOL     OW25414   0.143   2.100   1.490
 8172SOL    HW125415   0.173   2.193   1.470
 8172SOL    HW225416   0.212   2.054   1.546
 8173SOL     OW25417   5.518   1.758   2.195
 8173SOL    HW125418   5.435   1.702   2.201
 8173SOL    HW225419   5.576   1.740   2.274
 8174SOL     OW25420   0.651   6.892   2.610
 8174SOL    HW125421   0.715   6.823   2.646
 8174SOL    HW225422   0.587   6.918   2.682
 8175SOL     OW25423   0.415   2.690   4.710
 8175SOL    HW125424   0.414   2.715   4.806
 8175SOL    HW225425   0.326   2.712   4.669
 8176SOL     OW25426   2.542   4.463   1.612
 8176SOL    HW125427   2.470   4.479   1.680
 8176SOL    HW225428   2.506   4.406   1.538
 8177SOL     OW25429   4.672   0.843   3.948
 8177SOL    HW125430   4.589   0.826   4.001
 8177SOL    HW225431   4.721   0.757   3.933
 8178SOL     OW25432   3.406   6.693   0.829
 8178SOL    HW125433   3.378   6.727   0.919
 8178SOL    HW225434   3.395   6.593   0.826
 8179SOL     OW25435   5.381   0.968   4.569
 8179SOL    HW125436   5.371   1.063   4.539
 8179SOL    HW225437   5.478   0.942   4.566
 8180SOL     OW25438   5.925   0.736   6.899
 8180SOL    HW125439   6.014   0.757   6.860
 8180SOL    HW225440   5.889   0.652   6.858
 8181SOL     OW25441   1.645   1.093   0.508
 8181SOL    HW125442   1.731   1.061   0.547
 8181SOL    HW225443   1.664   1.145   0.424
 8182SOL     OW25444   3.381   3.259   5.045
 8182SOL    HW125445   3.323   3.231   4.969
 8182SOL    HW225446   3.395   3.358   5.043
 8183SOL     OW25447   6.282   2.133   4.716
 8183SOL    HW125448   6.261   2.228   4.696
 8183SOL    HW225449   6.334   2.093   4.640
 8184SOL     OW25450   0.523   6.718   0.346
 8184SOL    HW125451   0.457   6.720   0.421
 8184SOL    HW225452   0.560   6.810   0.332
 8185SOL     OW25453   2.194   0.085   0.617
 8185SOL    HW125454   2.230   0.064   0.526
 8185SOL    HW225455   2.269   0.089   0.683
 8186SOL     OW25456   2.677   4.806   5.535
 8186SOL    HW125457   2.643   4.713   5.551
 8186SOL    HW225458   2.758   4.823   5.591
 8187SOL     OW25459   2.050   1.043   4.899
 8187SOL    HW125460   2.050   0.961   4.956
 8187SOL    HW225461   2.119   1.034   4.828
 8188SOL     OW25462   4.729   2.830   3.640
 8188SOL    HW125463   4.671   2.762   3.596
 8188SOL    HW225464   4.687   2.921   3.631
 8189SOL     OW25465   5.509   5.025   2.722
 8189SOL    HW125466   5.505   4.925   2.724
 8189SOL    HW225467   5.429   5.063   2.769
 8190SOL     OW25468   4.720   4.090   4.082
 8190SOL    HW125469   4.657   4.159   4.047
 8190SOL    HW225470   4.706   4.080   4.181
 8191SOL     OW25471   3.895   5.397   2.527
 8191SOL    HW125472   3.922   5.489   2.556
 8191SOL    HW225473   3.821   5.403   2.461
 8192SOL     OW25474   2.008   5.734   2.577
 8192SOL    HW125475   1.947   5.803   2.537
 8192SOL    HW225476   2.059   5.774   2.653
 8193SOL     OW25477   5.968   5.610   5.647
 8193SOL    HW125478   5.922   5.659   5.572
 8193SOL    HW225479   5.926   5.635   5.734
 8194SOL     OW25480   4.615   0.876   1.217
 8194SOL    HW125481   4.570   0.943   1.277
 8194SOL    HW225482   4.559   0.793   1.213
 8195SOL     OW25483   6.633   0.598   3.115
 8195SOL    HW125484   6.606   0.515   3.066
 8195SOL    HW225485   6.730   0.617   3.098
 8196SOL     OW25486   4.526   6.137   0.241
 8196SOL    HW125487   4.582   6.055   0.254
 8196SOL    HW225488   4.434   6.110   0.214
 8197SOL     OW25489   3.835   1.228   0.570
 8197SOL    HW125490   3.826   1.132   0.594
 8197SOL    HW225491   3.912   1.267   0.620
 8198SOL     OW25492   3.656   6.559   2.431
 8198SOL    HW125493   3.559   6.543   2.412
 8198SOL    HW225494   3.685   6.645   2.388
 8199SOL     OW25495   5.842   3.478   5.437
 8199SOL    HW125496   5.777   3.432   5.377
 8199SOL    HW225497   5.792   3.531   5.505
 8200SOL     OW25498   5.706   4.348   1.639
 8200SOL    HW125499   5.672   4.388   1.724
 8200SOL    HW225500   5.731   4.252   1.655
 8201SOL     OW25501   6.138   1.055   5.490
 8201SOL    HW125502   6.058   1.071   5.433
 8201SOL    HW225503   6.217   1.103   5.452
 8202SOL     OW25504   0.567   5.302   3.950
 8202SOL    HW125505   0.555   5.248   3.867
 8202SOL    HW225506   0.478   5.336   3.981
 8203SOL     OW25507   2.843   2.062   6.927
 8203SOL    HW125508   2.858   2.120   6.847
 8203SOL    HW225509   2.796   2.115   6.998
 8204SOL     OW25510   3.836   4.565   6.985
 8204SOL    HW125511   3.898   4.643   6.975
 8204SOL    HW225512   3.756   4.594   0.023
 8205SOL     OW25513   0.334   4.271   0.262
 8205SOL    HW125514   0.241   4.283   0.227
 8205SOL    HW225515   0.388   4.352   0.243
 8206SOL     OW25516   4.714   2.124   0.047
 8206SOL    HW125517   4.728   2.199   0.112
 8206SOL    HW225518   4.802   2.092   0.013
 8207SOL     OW25519   3.156   3.353   4.239
 8207SOL    HW125520   3.153   3.254   4.249
 8207SOL    HW225521   3.224   3.392   4.301
 8208SOL     OW25522   0.886   0.749   1.265
 8208SOL    HW125523   0.943   0.728   1.345
 8208SOL    HW225524   0.793   0.767   1.294
 8209SOL     OW25525   0.049   1.111   4.522
 8209SOL    HW125526   0.117   1.183   4.535
 8209SOL    HW225527   0.034   1.097   4.424
 8210SOL     OW25528   2.304   1.975   0.678
 8210SOL    HW125529   2.216   1.936   0.651
 8210SOL    HW225530   2.350   1.912   0.741
 8211SOL     OW25531   4.004   4.474   1.362
 8211SOL    HW125532   3.945   4.527   1.302
 8211SOL    HW225533   4.084   4.529   1.387
 8212SOL     OW25534   1.386   2.474   2.774
 8212SOL    HW125535   1.451   2.445   2.844
 8212SOL    HW225536   1.434   2.522   2.700
 8213SOL     OW25537   6.901   4.481   1.393
 8213SOL    HW125538   6.905   4.467   1.492
 8213SOL    HW225539   6.805   4.477   1.363
 8214SOL     OW25540   6.106   4.986   3.918
 8214SOL    HW125541   6.138   4.907   3.970
 8214SOL    HW225542   6.177   5.056   3.917
 8215SOL     OW25543   3.465   5.947   5.841
 8215SOL    HW125544   3.473   6.044   5.865
 8215SOL    HW225545   3.398   5.904   5.902
 8216SOL     OW25546   5.933   5.408   4.170
 8216SOL    HW125547   5.913   5.420   4.073
 8216SOL    HW225548   5.995   5.480   4.201
 8217SOL     OW25549   1.611   4.781   0.060
 8217SOL    HW125550   1.619   4.815   0.153
 8217SOL    HW225551   1.648   4.688   0.054
 8218SOL     OW25552   0.027   6.874   6.221
 8218SOL    HW125553   0.094   6.948   6.213
 8218SOL    HW225554   6.961   6.897   6.167
 8219SOL     OW25555   4.237   2.443   0.754
 8219SOL    HW125556   4.187   2.400   0.830
 8219SOL    HW225557   4.193   2.419   0.667
 8220SOL     OW25558   3.539   2.846   3.302
 8220SOL    HW125559   3.611   2.796   3.254
 8220SOL    HW225560   3.481   2.894   3.237
 8221SOL     OW25561   5.629   6.256   4.212
 8221SOL    HW125562   5.679   6.342   4.229
 8221SOL    HW225563   5.689   6.179   4.232
 8222SOL     OW25564   5.414   1.288   1.905
 8222SOL    HW125565   5.483   1.322   1.969
 8222SOL    HW225566   5.333   1.259   1.956
 8223SOL     OW25567   1.240   4.748   5.949
 8223SOL    HW125568   1.173   4.785   5.885
 8223SOL    HW225569   1.328   4.794   5.935
 8224SOL     OW25570   6.374   0.865   2.802
 8224SOL    HW125571   6.428   0.857   2.885
 8224SOL    HW225572   6.329   0.954   2.799
 8225SOL     OW25573   3.472   0.946   6.979
 8225SOL    HW125574   3.551   0.884   6.980
 8225SOL    HW225575   3.400   0.908   0.021
 8226SOL     OW25576   4.403   0.120   1.566
 8226SOL    HW125577   4.406   0.101   1.664
 8226SOL    HW225578   4.327   0.070   1.525
 8227SOL     OW25579   6.457   1.943   3.227
 8227SOL    HW125580   6.499   2.033   3.232
 8227SOL    HW225581   6.390   1.933   3.301
 8228SOL     OW25582   6.449   2.398   5.663
 8228SOL    HW125583   6.505   2.464   5.613
 8228SOL    HW225584   6.481   2.305   5.643
 8229SOL     OW25585   4.071   3.237   0.902
 8229SOL    HW125586   4.139   3.309   0.906
 8229SOL    HW225587   3.979   3.277   0.901
 8230SOL     OW25588   4.255   0.458   5.160
 8230SOL    HW125589   4.307   0.413   5.233
 8230SOL    HW225590   4.285   0.553   5.152
 8231SOL     OW25591   3.804   5.157   0.644
 8231SOL    HW125592   3.803   5.063   0.679
 8231SOL    HW225593   3.713   5.181   0.610
 8232SOL     OW25594   4.873   1.590   1.826
 8232SOL    HW125595   4.935   1.668   1.831
 8232SOL    HW225596   4.920   1.509   1.860
 8233SOL     OW25597   1.473   6.335   6.667
 8233SOL    HW125598   1.535   6.288   6.730
 8233SOL    HW225599   1.385   6.351   6.712
 8234SOL     OW25600   2.963   4.688   6.753
 8234SOL    HW125601   2.943   4.613   6.691
 8234SOL    HW225602   3.038   4.663   6.814
 8235SOL     OW25603   0.764   3.659   6.859
 8235SOL    HW125604   0.674   3.700   6.840
 8235SOL    HW225605   0.835   3.729   6.849
 8236SOL     OW25606   0.274   4.643   0.489
 8236SOL    HW125607   0.228   4.724   0.452
 8236SOL    HW225608   0.325   4.668   0.571
 8237SOL     OW25609   4.202   6.734   4.316
 8237SOL    HW125610   4.187   6.635   4.322
 8237SOL    HW225611   4.298   6.754   4.336
 8238SOL     OW25612   0.957   5.339   6.505
 8238SOL    HW125613   0.874   5.290   6.531
 8238SOL    HW225614   0.934   5.415   6.444
 8239SOL     OW25615   6.174   1.220   5.917
 8239SOL    HW125616   6.081   1.217   5.952
 8239SOL    HW225617   6.222   1.297   5.959
 8240SOL     OW25618   3.637   4.126   2.357
 8240SOL    HW125619   3.711   4.075   2.400
 8240SOL    HW225620   3.651   4.224   2.370
 8241SOL     OW25621   4.111   0.242   6.565
 8241SOL    HW125622   4.063   0.155   6.556
 8241SOL    HW225623   4.139   0.255   6.661
 8242SOL     OW25624   0.157   4.654   5.924
 8242SOL    HW125625   0.204   4.732   5.964
 8242SOL    HW225626   0.160   4.660   5.824
 8243SOL     OW25627   1.049   2.709   0.610
 8243SOL    HW125628   0.970   2.695   0.669
 8243SOL    HW225629   1.018   2.724   0.516
 8244SOL     OW25630   0.489   0.483   4.798
 8244SOL    HW125631   0.553   0.415   4.834
 8244SOL    HW225632   0.440   0.444   4.720
 8245SOL     OW25633   4.051   1.924   2.811
 8245SOL    HW125634   3.995   2.005   2.826
 8245SOL    HW225635   4.020   1.876   2.729
 8246SOL     OW25636   0.918   2.691   5.902
 8246SOL    HW125637   0.907   2.759   5.830
 8246SOL    HW225638   0.863   2.610   5.880
 8247SOL     OW25639   1.255   6.621   2.750
 8247SOL    HW125640   1.254   6.590   2.845
 8247SOL    HW225641   1.350   6.636   2.721
 8248SOL     OW25642   6.072   5.044   4.860
 8248SOL    HW125643   6.131   5.125   4.863
 8248SOL    HW225644   6.109   4.974   4.920
 8249SOL     OW25645   1.778   2.777   5.031
 8249SOL    HW125646   1.809   2.684   5.013
 8249SOL    HW225647   1.852   2.831   5.070
 8250SOL     OW25648   3.211   3.790   1.748
 8250SOL    HW125649   3.287   3.836   1.702
 8250SOL    HW225650   3.247   3.729   1.818
 8251SOL     OW25651   5.609   3.884   3.961
 8251SOL    HW125652   5.622   3.826   4.042
 8251SOL    HW225653   5.529   3.853   3.910
 8252SOL     OW25654   2.889   1.594   5.552
 8252SOL    HW125655   2.830   1.651   5.494
 8252SOL    HW225656   2.873   1.498   5.532
 8253SOL     OW25657   4.267   4.739   5.397
 8253SOL    HW125658   4.215   4.665   5.354
 8253SOL    HW225659   4.232   4.827   5.366
 8254SOL     OW25660   4.787   4.592   5.177
 8254SOL    HW125661   4.802   4.585   5.275
 8254SOL    HW225662   4.864   4.639   5.134
 8255SOL     OW25663   2.225   0.038   5.130
 8255SOL    HW125664   2.308   0.093   5.115
 8255SOL    HW225665   2.184   0.064   5.217
 8256SOL     OW25666   6.536   6.677   2.193
 8256SOL    HW125667   6.538   6.758   2.134
 8256SOL    HW225668   6.533   6.595   2.136
 8257SOL     OW25669   6.108   3.619   3.374
 8257SOL    HW125670   6.137   3.569   3.456
 8257SOL    HW225671   6.065   3.705   3.400
 8258SOL     OW25672   5.730   2.104   0.186
 8258SOL    HW125673   5.634   2.102   0.156
 8258SOL    HW225674   5.749   2.192   0.229
 8259SOL     OW25675   3.858   2.159   3.520
 8259SOL    HW125676   3.934   2.224   3.528
 8259SOL    HW225677   3.893   2.066   3.525
 8260SOL     OW25678   2.838   6.434   1.424
 8260SOL    HW125679   2.898   6.372   1.374
 8260SOL    HW225680   2.797   6.387   1.502
 8261SOL     OW25681   5.744   0.604   2.063
 8261SOL    HW125682   5.718   0.566   2.152
 8261SOL    HW225683   5.830   0.564   2.033
 8262SOL     OW25684   0.403   2.997   0.053
 8262SOL    HW125685   0.390   3.072   0.117
 8262SOL    HW225686   0.432   3.033   6.980
 8263SOL     OW25687   1.145   2.347   6.629
 8263SOL    HW125688   1.189   2.270   6.676
 8263SOL    HW225689   1.157   2.337   6.530
 8264SOL     OW25690   2.892   6.345   2.965
 8264SOL    HW125691   2.951   6.276   3.005
 8264SOL    HW225692   2.907   6.433   3.011
 8265SOL     OW25693   0.270   7.002   0.782
 8265SOL    HW125694   0.236   0.001   0.874
 8265SOL    HW225695   0.321   0.068   0.752
 8266SOL     OW25696   2.296   1.055   3.129
 8266SOL    HW125697   2.296   1.144   3.175
 8266SOL    HW225698   2.206   1.038   3.091
 8267SOL     OW25699   1.392   2.970   1.718
 8267SOL    HW125700   1.458   2.899   1.740
 8267SOL    HW225701   1.430   3.060   1.742
 8268SOL     OW25702   2.104   6.167   6.053
 8268SOL    HW125703   2.154   6.173   6.139
 8268SOL    HW225704   2.112   6.074   6.016
 8269SOL     OW25705   4.076   1.892   2.006
 8269SOL    HW125706   4.006   1.948   2.051
 8269SOL    HW225707   4.167   1.922   2.036
 8270SOL     OW25708   2.783   0.058   5.296
 8270SOL    HW125709   2.874   0.090   5.270
 8270SOL    HW225710   2.721   0.066   5.219
 8271SOL     OW25711   0.224   0.608   3.056
 8271SOL    HW125712   0.254   0.521   3.018
 8271SOL    HW225713   0.159   0.651   2.994
 8272SOL     OW25714   5.272   2.010   2.285
 8272SOL    HW125715   5.335   2.020   2.208
 8272SOL    HW225716   5.276   1.915   2.318
 8273SOL     OW25717   3.162   0.884   0.220
 8273SOL    HW125718   3.078   0.869   0.168
 8273SOL    HW225719   3.235   0.827   0.182
 8274SOL     OW25720   5.474   5.106   4.100
 8274SOL    HW125721   5.430   5.194   4.113
 8274SOL    HW225722   5.405   5.038   4.074
 8275SOL     OW25723   5.208   1.416   5.518
 8275SOL    HW125724   5.272   1.489   5.495
 8275SOL    HW225725   5.252   1.352   5.581
 8276SOL     OW25726   0.631   2.198   3.621
 8276SOL    HW125727   0.729   2.190   3.601
 8276SOL    HW225728   0.596   2.108   3.647
 8277SOL     OW25729   0.162   6.667   6.947
 8277SOL    HW125730   0.191   6.571   6.945
 8277SOL    HW225731   0.107   6.687   6.866
 8278SOL     OW25732   3.071   2.219   5.663
 8278SOL    HW125733   3.028   2.289   5.720
 8278SOL    HW225734   3.126   2.264   5.592
 8279SOL     OW25735   1.568   6.449   4.677
 8279SOL    HW125736   1.616   6.428   4.592
 8279SOL    HW225737   1.629   6.434   4.755
 8280SOL     OW25738   2.313   4.013   0.781
 8280SOL    HW125739   2.363   4.018   0.868
 8280SOL    HW225740   2.350   4.081   0.717
 8281SOL     OW25741   3.139   4.515   1.671
 8281SOL    HW125742   3.141   4.423   1.633
 8281SOL    HW225743   3.065   4.522   1.738
 8282SOL     OW25744   4.321   3.559   0.021
 8282SOL    HW125745   4.410   3.598   7.015
 8282SOL    HW225746   4.268   3.547   6.953
 8283SOL     OW25747   1.429   5.372   5.986
 8283SOL    HW125748   1.406   5.469   5.988
 8283SOL    HW225749   1.512   5.356   6.038
 8284SOL     OW25750   0.984   3.935   1.327
 8284SOL    HW125751   1.062   3.880   1.356
 8284SOL    HW225752   1.003   3.974   1.236
 8285SOL     OW25753   3.192   4.089   4.444
 8285SOL    HW125754   3.179   4.098   4.542
 8285SOL    HW225755   3.187   3.993   4.418
 8286SOL     OW25756   5.848   2.538   6.238
 8286SOL    HW125757   5.765   2.532   6.293
 8286SOL    HW225758   5.928   2.523   6.296
 8287SOL     OW25759   1.917   5.219   4.215
 8287SOL    HW125760   1.910   5.151   4.288
 8287SOL    HW225761   1.909   5.173   4.126
 8288SOL     OW25762   3.227   2.113   1.410
 8288SOL    HW125763   3.190   2.202   1.386
 8288SOL    HW225764   3.185   2.081   1.495
 8289SOL     OW25765   0.476   5.351   0.936
 8289SOL    HW125766   0.438   5.419   0.874
 8289SOL    HW225767   0.501   5.269   0.885
 8290SOL     OW25768   6.061   1.311   1.454
 8290SOL    HW125769   5.964   1.329   1.437
 8290SOL    HW225770   6.117   1.355   1.385
 8291SOL     OW25771   5.067   6.408   5.423
 8291SOL    HW125772   4.994   6.430   5.358
 8291SOL    HW225773   5.141   6.362   5.374
 8292SOL     OW25774   2.722   6.538   6.787
 8292SOL    HW125775   2.685   6.631   6.786
 8292SOL    HW225776   2.822   6.542   6.781
 8293SOL     OW25777   3.268   5.949   0.297
 8293SOL    HW125778   3.258   5.987   0.205
 8293SOL    HW225779   3.296   5.853   0.290
 8294SOL     OW25780   5.450   4.008   5.300
 8294SOL    HW125781   5.351   4.001   5.309
 8294SOL    HW225782   5.489   3.917   5.286
 8295SOL     OW25783   5.420   5.161   1.862
 8295SOL    HW125784   5.483   5.212   1.804
 8295SOL    HW225785   5.469   5.089   1.910
 8296SOL     OW25786   1.337   5.022   6.467
 8296SOL    HW125787   1.349   5.023   6.367
 8296SOL    HW225788   1.240   5.029   6.488
 8297SOL     OW25789   6.492   2.745   2.359
 8297SOL    HW125790   6.524   2.704   2.274
 8297SOL    HW225791   6.435   2.824   2.339
 8298SOL     OW25792   6.624   1.275   1.119
 8298SOL    HW125793   6.663   1.216   1.190
 8298SOL    HW225794   6.553   1.334   1.160
 8299SOL     OW25795   6.498   2.898   1.408
 8299SOL    HW125796   6.456   2.915   1.497
 8299SOL    HW225797   6.563   2.823   1.415
 8300SOL     OW25798   0.229   5.766   4.913
 8300SOL    HW125799   0.289   5.787   4.990
 8300SOL    HW225800   0.282   5.726   4.839
 8301SOL     OW25801   4.069   1.697   1.411
 8301SOL    HW125802   4.025   1.780   1.448
 8301SOL    HW225803   4.023   1.671   1.326
 8302SOL     OW25804   6.027   6.753   6.931
 8302SOL    HW125805   6.101   6.805   6.973
 8302SOL    HW225806   6.004   6.675   6.989
 8303SOL     OW25807   6.634   0.606   3.911
 8303SOL    HW125808   6.551   0.649   3.875
 8303SOL    HW225809   6.671   0.544   3.842
 8304SOL     OW25810   0.363   3.581   0.485
 8304SOL    HW125811   0.392   3.553   0.394
 8304SOL    HW225812   0.273   3.625   0.480
 8305SOL     OW25813   4.900   4.921   4.478
 8305SOL    HW125814   4.874   4.825   4.488
 8305SOL    HW225815   4.937   4.954   4.565
 8306SOL     OW25816   6.849   2.740   6.116
 8306SOL    HW125817   6.817   2.772   6.205
 8306SOL    HW225818   6.785   2.768   6.045
 8307SOL     OW25819   3.672   5.348   1.674
 8307SOL    HW125820   3.583   5.314   1.643
 8307SOL    HW225821   3.720   5.391   1.597
 8308SOL     OW25822   3.826   5.686   1.351
 8308SOL    HW125823   3.914   5.733   1.359
 8308SOL    HW225824   3.752   5.751   1.365
 8309SOL     OW25825   6.965   4.900   4.016
 8309SOL    HW125826   0.021   4.834   3.994
 8309SOL    HW225827   7.006   4.989   4.036
 8310SOL     OW25828   6.900   4.830   0.657
 8310SOL    HW125829   6.963   4.757   0.683
 8310SOL    HW225830   6.818   4.792   0.615
 8311SOL     OW25831   0.824   1.462   4.361
 8311SOL    HW125832   0.896   1.425   4.420
 8311SOL    HW225833   0.778   1.387   4.314
 8312SOL     OW25834   5.127   0.296   6.979
 8312SOL    HW125835   5.039   0.253   6.960
 8312SOL    HW225836   5.140   0.374   6.918
 8313SOL     OW25837   5.097   0.378   1.182
 8313SOL    HW125838   5.168   0.348   1.246
 8313SOL    HW225839   5.062   0.299   1.132
 8314SOL     OW25840   4.702   0.605   0.253
 8314SOL    HW125841   4.761   0.585   0.174
 8314SOL    HW225842   4.614   0.638   0.222
 8315SOL     OW25843   4.281   2.746   1.362
 8315SOL    HW125844   4.370   2.772   1.399
 8315SOL    HW225845   4.288   2.736   1.263
 8316SOL     OW25846   0.644   2.368   2.056
 8316SOL    HW125847   0.637   2.336   2.150
 8316SOL    HW225848   0.739   2.388   2.034
 8317SOL     OW25849   1.834   2.791   2.590
 8317SOL    HW125850   1.760   2.755   2.647
 8317SOL    HW225851   1.846   2.732   2.510
 8318SOL     OW25852   4.549   1.485   4.867
 8318SOL    HW125853   4.516   1.393   4.845
 8318SOL    HW225854   4.583   1.487   4.961
 8319SOL     OW25855   2.059   2.032   6.995
 8319SOL    HW125856   2.071   1.999   0.073
 8319SOL    HW225857   1.962   2.029   6.971
 8320SOL     OW25858   3.174   3.435   1.509
 8320SOL    HW125859   3.178   3.449   1.410
 8320SOL    HW225860   3.120   3.507   1.551
 8321SOL     OW25861   6.893   0.548   6.770
 8321SOL    HW125862   6.837   0.588   6.697
 8321SOL    HW225863   6.990   0.552   6.744
 8322SOL     OW25864   6.645   6.913   0.732
 8322SOL    HW125865   6.638   6.845   0.806
 8322SOL    HW225866   6.676   6.868   0.649
 8323SOL     OW25867   5.338   5.651   2.486
 8323SOL    HW125868   5.257   5.618   2.533
 8323SOL    HW225869   5.419   5.629   2.540
 8324SOL     OW25870   5.357   6.666   1.349
 8324SOL    HW125871   5.262   6.695   1.345
 8324SOL    HW225872   5.410   6.716   1.280
 8325SOL     OW25873   2.916   3.839   5.788
 8325SOL    HW125874   2.859   3.921   5.795
 8325SOL    HW225875   2.877   3.776   5.721
 8326SOL     OW25876   5.107   3.637   5.556
 8326SOL    HW125877   5.203   3.645   5.528
 8326SOL    HW225878   5.099   3.660   5.653
 8327SOL     OW25879   6.475   1.125   6.403
 8327SOL    HW125880   6.428   1.120   6.491
 8327SOL    HW225881   6.542   1.051   6.396
 8328SOL     OW25882   2.810   5.949   5.729
 8328SOL    HW125883   2.780   5.863   5.772
 8328SOL    HW225884   2.733   6.011   5.720
 8329SOL     OW25885   0.693   2.857   5.999
 8329SOL    HW125886   0.648   2.939   5.963
 8329SOL    HW225887   0.780   2.881   6.040
 8330SOL     OW25888   3.117   1.184   0.555
 8330SOL    HW125889   3.179   1.263   0.553
 8330SOL    HW225890   3.025   1.213   0.531
 8331SOL     OW25891   3.515   1.238   1.495
 8331SOL    HW125892   3.544   1.225   1.590
 8331SOL    HW225893   3.472   1.327   1.485
 8332SOL     OW25894   5.165   5.482   2.658
 8332SOL    HW125895   5.204   5.430   2.582
 8332SOL    HW225896   5.147   5.421   2.735
 8333SOL     OW25897   0.370   6.496   6.068
 8333SOL    HW125898   0.343   6.582   6.024
 8333SOL    HW225899   0.304   6.473   6.139
 8334SOL     OW25900   3.695   1.461   3.703
 8334SOL    HW125901   3.610   1.429   3.660
 8334SOL    HW225902   3.691   1.560   3.715
 8335SOL     OW25903   6.015   6.265   6.788
 8335SOL    HW125904   6.031   6.325   6.710
 8335SOL    HW225905   6.098   6.215   6.809
 8336SOL     OW25906   6.679   5.692   3.231
 8336SOL    HW125907   6.699   5.705   3.134
 8336SOL    HW225908   6.698   5.777   3.281
 8337SOL     OW25909   1.780   6.231   2.516
 8337SOL    HW125910   1.714   6.242   2.591
 8337SOL    HW225911   1.824   6.141   2.525
 8338SOL     OW25912   2.836   5.187   1.738
 8338SOL    HW125913   2.866   5.156   1.648
 8338SOL    HW225914   2.865   5.282   1.752
 8339SOL     OW25915   5.601   0.313   1.259
 8339SOL    HW125916   5.594   0.244   1.187
 8339SOL    HW225917   5.689   0.359   1.253
 8340SOL     OW25918   5.054   2.771   1.749
 8340SOL    HW125919   5.027   2.775   1.653
 8340SOL    HW225920   4.976   2.799   1.806
 8341SOL     OW25921   2.464   6.340   0.285
 8341SOL    HW125922   2.382   6.316   0.337
 8341SOL    HW225923   2.443   6.415   0.223
 8342SOL     OW25924   4.612   6.635   1.854
 8342SOL    HW125925   4.566   6.700   1.794
 8342SOL    HW225926   4.668   6.684   1.921
 8343SOL     OW25927   1.537   5.548   5.593
 8343SOL    HW125928   1.510   5.551   5.497
 8343SOL    HW225929   1.531   5.453   5.626
 8344SOL     OW25930   4.738   6.581   5.069
 8344SOL    HW125931   4.660   6.527   5.037
 8344SOL    HW225932   4.756   6.655   5.004
 8345SOL     OW25933   4.480   1.531   3.314
 8345SOL    HW125934   4.539   1.526   3.233
 8345SOL    HW225935   4.464   1.439   3.350
 8346SOL     OW25936   3.238   4.820   0.916
 8346SOL    HW125937   3.288   4.766   0.984
 8346SOL    HW225938   3.300   4.886   0.874
 8347SOL     OW25939   3.423   5.588   4.599
 8347SOL    HW125940   3.461   5.504   4.638
 8347SOL    HW225941   3.336   5.568   4.554
 8348SOL     OW25942   2.316   0.420   2.265
 8348SOL    HW125943   2.245   0.359   2.299
 8348SOL    HW225944   2.299   0.440   2.168
 8349SOL     OW25945   5.860   6.616   1.683
 8349SOL    HW125946   5.769   6.654   1.698
 8349SOL    HW225947   5.899   6.655   1.600
 8350SOL     OW25948   4.583   0.140   5.215
 8350SOL    HW125949   4.634   0.200   5.276
 8350SOL    HW225950   4.486   0.140   5.242
 8351SOL     OW25951   5.086   4.498   4.633
 8351SOL    HW125952   5.161   4.470   4.693
 8351SOL    HW225953   4.999   4.475   4.677
 8352SOL     OW25954   0.523   6.959   2.952
 8352SOL    HW125955   0.557   0.021   3.006
 8352SOL    HW225956   0.484   6.992   2.867
 8353SOL     OW25957   0.003   3.524   1.441
 8353SOL    HW125958   6.963   3.461   1.495
 8353SOL    HW225959   6.973   3.542   1.354
 8354SOL     OW25960   3.900   6.681   6.580
 8354SOL    HW125961   3.971   6.654   6.645
 8354SOL    HW225962   3.814   6.695   6.628
 8355SOL     OW25963   3.048   0.883   6.849
 8355SOL    HW125964   3.055   0.940   6.766
 8355SOL    HW225965   2.953   0.856   6.861
 8356SOL     OW25966   1.565   6.216   1.047
 8356SOL    HW125967   1.618   6.259   1.120
 8356SOL    HW225968   1.490   6.277   1.020
 8357SOL     OW25969   4.004   0.212   4.838
 8357SOL    HW125970   3.969   0.122   4.866
 8357SOL    HW225971   4.038   0.206   4.744
 8358SOL     OW25972   1.142   4.246   5.876
 8358SOL    HW125973   1.181   4.337   5.870
 8358SOL    HW225974   1.213   4.181   5.904
 8359SOL     OW25975   2.960   0.844   5.195
 8359SOL    HW125976   2.973   0.749   5.166
 8359SOL    HW225977   3.043   0.896   5.174
 8360SOL     OW25978   3.364   5.916   1.610
 8360SOL    HW125979   3.446   5.902   1.554
 8360SOL    HW225980   3.302   5.979   1.564
 8361SOL     OW25981   3.314   0.160   2.470
 8361SOL    HW125982   3.251   0.216   2.416
 8361SOL    HW225983   3.293   0.170   2.567
 8362SOL     OW25984   3.317   2.299   0.672
 8362SOL    HW125985   3.304   2.371   0.740
 8362SOL    HW225986   3.261   2.220   0.696
 8363SOL     OW25987   0.584   2.934   6.434
 8363SOL    HW125988   0.575   2.864   6.363
 8363SOL    HW225989   0.541   2.902   6.518
 8364SOL     OW25990   0.801   3.454   2.707
 8364SOL    HW125991   0.868   3.503   2.764
 8364SOL    HW225992   0.714   3.447   2.756
 8365SOL     OW25993   2.322   3.932   1.684
 8365SOL    HW125994   2.235   3.937   1.734
 8365SOL    HW225995   2.398   3.943   1.748
 8366SOL     OW25996   2.614   5.892   2.018
 8366SOL    HW125997   2.521   5.930   2.018
 8366SOL    HW225998   2.633   5.851   1.929
 8367SOL     OW25999   3.917   6.418   3.770
 8367SOL    HW126000   3.825   6.378   3.768
 8367SOL    HW226001   3.939   6.447   3.863
 8368SOL     OW26002   2.366   6.670   6.891
 8368SOL    HW126003   2.360   6.661   6.990
 8368SOL    HW226004   2.275   6.690   6.853
 8369SOL     OW26005   2.043   6.943   6.776
 8369SOL    HW126006   1.992   7.001   6.840
 8369SOL    HW226007   2.069   6.858   6.822
 8370SOL     OW26008   2.784   1.828   5.387
 8370SOL    HW126009   2.778   1.920   5.346
 8370SOL    HW226010   2.700   1.778   5.367
 8371SOL     OW26011   2.054   4.065   1.097
 8371SOL    HW126012   2.123   4.131   1.126
 8371SOL    HW226013   1.962   4.100   1.119
 8372SOL     OW26014   0.692   5.373   2.441
 8372SOL    HW126015   0.729   5.466   2.433
 8372SOL    HW226016   0.677   5.352   2.538
 8373SOL     OW26017   1.435   0.307   3.785
 8373SOL    HW126018   1.391   0.393   3.812
 8373SOL    HW226019   1.378   0.230   3.814
 8374SOL     OW26020   6.866   1.244   5.400
 8374SOL    HW126021   6.942   1.299   5.366
 8374SOL    HW226022   6.902   1.159   5.441
 8375SOL     OW26023   4.067   6.584   5.067
 8375SOL    HW126024   4.094   6.674   5.033
 8375SOL    HW226025   4.101   6.513   5.005
 8376SOL     OW26026   1.692   0.362   4.129
 8376SOL    HW126027   1.736   0.427   4.068
 8376SOL    HW226028   1.693   0.271   4.087
 8377SOL     OW26029   5.365   6.155   1.701
 8377SOL    HW126030   5.341   6.106   1.617
 8377SOL    HW226031   5.366   6.091   1.777
 8378SOL     OW26032   4.331   4.597   2.541
 8378SOL    HW126033   4.380   4.672   2.585
 8378SOL    HW226034   4.244   4.580   2.588
 8379SOL     OW26035   5.924   2.211   1.175
 8379SOL    HW126036   5.887   2.300   1.201
 8379SOL    HW226037   5.853   2.141   1.184
 8380SOL     OW26038   6.787   0.739   2.161
 8380SOL    HW126039   6.741   0.800   2.224
 8380SOL    HW226040   6.872   0.707   2.202
 8381SOL     OW26041   0.071   2.943   5.037
 8381SOL    HW126042   0.000   2.982   5.095
 8381SOL    HW226043   0.067   2.986   4.946
 8382SOL     OW26044   2.797   0.942   2.550
 8382SOL    HW126045   2.801   1.005   2.472
 8382SOL    HW226046   2.704   0.941   2.587
 8383SOL     OW26047   2.044   0.174   5.895
 8383SOL    HW126048   2.041   0.251   5.958
 8383SOL    HW226049   2.134   0.130   5.898
 8384SOL     OW26050   0.080   0.799   0.737
 8384SOL    HW126051   0.020   0.812   0.658
 8384SOL    HW226052   0.025   0.774   0.817
 8385SOL     OW26053   6.668   1.722   1.449
 8385SOL    HW126054   6.698   1.791   1.382
 8385SOL    HW226055   6.628   1.769   1.528
 8386SOL     OW26056   1.332   4.822   1.876
 8386SOL    HW126057   1.279   4.737   1.871
 8386SOL    HW226058   1.271   4.900   1.860
 8387SOL     OW26059   1.711   1.268   2.273
 8387SOL    HW126060   1.770   1.237   2.348
 8387SOL    HW226061   1.665   1.189   2.233
 8388SOL     OW26062   2.582   6.399   0.601
 8388SOL    HW126063   2.555   6.426   0.508
 8388SOL    HW226064   2.596   6.481   0.657
 8389SOL     OW26065   6.614   2.942   2.964
 8389SOL    HW126066   6.564   3.022   2.997
 8389SOL    HW226067   6.589   2.925   2.868
 8390SOL     OW26068   3.654   1.312   5.980
 8390SOL    HW126069   3.673   1.388   5.917
 8390SOL    HW226070   3.687   1.335   6.071
 8391SOL     OW26071   6.591   5.041   0.794
 8391SOL    HW126072   6.691   5.045   0.795
 8391SOL    HW226073   6.555   5.084   0.877
 8392SOL     OW26074   6.419   3.483   4.469
 8392SOL    HW126075   6.400   3.427   4.550
 8392SOL    HW226076   6.398   3.430   4.387
 8393SOL     OW26077   0.073   0.201   2.944
 8393SOL    HW126078   0.117   0.123   2.989
 8393SOL    HW226079   0.010   0.245   3.008
 8394SOL     OW26080   6.411   2.509   0.750
 8394SOL    HW126081   6.391   2.605   0.734
 8394SOL    HW226082   6.364   2.453   0.681
 8395SOL     OW26083   3.012   6.862   5.574
 8395SOL    HW126084   3.080   6.864   5.501
 8395SOL    HW226085   2.958   6.778   5.568
 8396SOL     OW26086   4.747   5.331   3.607
 8396SOL    HW126087   4.840   5.318   3.572
 8396SOL    HW226088   4.720   5.251   3.661
 8397SOL     OW26089   1.235   0.774   2.493
 8397SOL    HW126090   1.314   0.721   2.460
 8397SOL    HW226091   1.211   0.843   2.426
 8398SOL     OW26092   3.986   2.158   6.247
 8398SOL    HW126093   4.068   2.160   6.190
 8398SOL    HW226094   3.999   2.216   6.327
 8399SOL     OW26095   5.631   6.971   6.668
 8399SOL    HW126096   5.725   6.976   6.701
 8399SOL    HW226097   5.576   6.918   6.732
 8400SOL     OW26098   1.928   0.813   4.151
 8400SOL    HW126099   1.939   0.909   4.123
 8400SOL    HW226100   1.831   0.793   4.163
 8401SOL     OW26101   2.643   1.179   5.334
 8401SOL    HW126102   2.557   1.132   5.317
 8401SOL    HW226103   2.715   1.111   5.352
 8402SOL     OW26104   4.973   1.764   6.589
 8402SOL    HW126105   5.056   1.815   6.566
 8402SOL    HW226106   4.999   1.675   6.626
 8403SOL     OW26107   6.742   3.592   4.120
 8403SOL    HW126108   6.804   3.517   4.095
 8403SOL    HW226109   6.762   3.672   4.063
 8404SOL     OW26110   3.954   6.545   5.842
 8404SOL    HW126111   3.887   6.564   5.914
 8404SOL    HW226112   3.906   6.526   5.756
 8405SOL     OW26113   2.101   1.237   5.590
 8405SOL    HW126114   2.170   1.304   5.561
 8405SOL    HW226115   2.065   1.263   5.680
 8406SOL     OW26116   4.165   0.476   0.319
 8406SOL    HW126117   4.263   0.471   0.336
 8406SOL    HW226118   4.142   0.563   0.276
 8407SOL     OW26119   3.503   6.421   3.017
 8407SOL    HW126120   3.495   6.326   3.048
 8407SOL    HW226121   3.491   6.482   3.095
 8408SOL     OW26122   5.358   4.419   1.372
 8408SOL    HW126123   5.289   4.413   1.444
 8408SOL    HW226124   5.422   4.343   1.381
 8409SOL     OW26125   4.805   1.368   3.476
 8409SOL    HW126126   4.876   1.357   3.544
 8409SOL    HW226127   4.778   1.464   3.470
 8410SOL     OW26128   5.869   0.806   1.703
 8410SOL    HW126129   5.838   0.845   1.790
 8410SOL    HW226130   5.791   0.795   1.642
 8411SOL     OW26131   0.776   5.410   0.014
 8411SOL    HW126132   0.829   5.465   6.964
 8411SOL    HW226133   0.734   5.333   6.982
 8412SOL     OW26134   3.518   2.544   0.969
 8412SOL    HW126135   3.522   2.460   1.023
 8412SOL    HW226136   3.583   2.610   1.006
 8413SOL     OW26137   5.079   5.857   6.795
 8413SOL    HW126138   5.098   5.763   6.765
 8413SOL    HW226139   5.081   5.861   6.895
 8414SOL     OW26140   3.393   6.912   3.706
 8414SOL    HW126141   3.438   6.830   3.740
 8414SOL    HW226142   3.312   6.886   3.654
 8415SOL     OW26143   0.499   5.728   4.372
 8415SOL    HW126144   0.566   5.738   4.299
 8415SOL    HW226145   0.546   5.718   4.460
 8416SOL     OW26146   6.443   2.257   3.257
 8416SOL    HW126147   6.465   2.262   3.354
 8416SOL    HW226148   6.373   2.325   3.235
 8417SOL     OW26149   0.733   3.111   5.706
 8417SOL    HW126150   0.688   3.103   5.795
 8417SOL    HW226151   0.775   3.201   5.699
 8418SOL     OW26152   6.087   5.624   1.471
 8418SOL    HW126153   6.090   5.675   1.385
 8418SOL    HW226154   6.020   5.550   1.464
 8419SOL     OW26155   5.707   0.306   1.855
 8419SOL    HW126156   5.767   0.384   1.840
 8419SOL    HW226157   5.661   0.282   1.770
 8420SOL     OW26158   4.148   0.455   0.798
 8420SOL    HW126159   4.201   0.371   0.791
 8420SOL    HW226160   4.178   0.507   0.878
 8421SOL     OW26161   3.239   5.416   6.960
 8421SOL    HW126162   3.170   5.489   6.957
 8421SOL    HW226163   3.326   5.453   6.990
 8422SOL     OW26164   4.269   1.447   2.150
 8422SOL    HW126165   4.312   1.369   2.197
 8422SOL    HW226166   4.201   1.413   2.085
 8423SOL     OW26167   3.423   4.869   5.666
 8423SOL    HW126168   3.359   4.798   5.637
 8423SOL    HW226169   3.406   4.892   5.762
 8424SOL     OW26170   1.606   2.263   2.521
 8424SOL    HW126171   1.628   2.171   2.489
 8424SOL    HW226172   1.691   2.315   2.535
 8425SOL     OW26173   4.257   4.319   6.016
 8425SOL    HW126174   4.319   4.241   6.018
 8425SOL    HW226175   4.278   4.380   6.093
 8426SOL     OW26176   3.835   3.320   2.846
 8426SOL    HW126177   3.756   3.379   2.829
 8426SOL    HW226178   3.852   3.313   2.944
 8427SOL     OW26179   3.737   3.714   3.884
 8427SOL    HW126180   3.732   3.686   3.980
 8427SOL    HW226181   3.681   3.796   3.871
 8428SOL     OW26182   0.595   6.012   1.350
 8428SOL    HW126183   0.529   5.981   1.282
 8428SOL    HW226184   0.648   5.934   1.384
 8429SOL     OW26185   1.726   5.760   5.354
 8429SOL    HW126186   1.677   5.672   5.354
 8429SOL    HW226187   1.672   5.828   5.403
 8430SOL     OW26188   3.684   5.248   4.055
 8430SOL    HW126189   3.647   5.340   4.070
 8430SOL    HW226190   3.609   5.184   4.037
 8431SOL     OW26191   3.749   3.300   0.653
 8431SOL    HW126192   3.735   3.203   0.632
 8431SOL    HW226193   3.758   3.311   0.751
 8432SOL     OW26194   5.850   6.081   5.168
 8432SOL    HW126195   5.914   6.018   5.212
 8432SOL    HW226196   5.801   6.034   5.095
 8433SOL     OW26197   4.249   3.022   0.352
 8433SOL    HW126198   4.211   3.061   0.269
 8433SOL    HW226199   4.193   2.945   0.383
 8434SOL     OW26200   2.596   0.633   4.726
 8434SOL    HW126201   2.637   0.551   4.766
 8434SOL    HW226202   2.638   0.714   4.766
 8435SOL     OW26203   5.968   0.515   1.923
 8435SOL    HW126204   6.061   0.493   1.953
 8435SOL    HW226205   5.970   0.597   1.867
 8436SOL     OW26206   3.150   6.573   3.257
 8436SOL    HW126207   3.141   6.473   3.259
 8436SOL    HW226208   3.128   6.607   3.166
 8437SOL     OW26209   2.211   1.328   3.851
 8437SOL    HW126210   2.295   1.280   3.827
 8437SOL    HW226211   2.139   1.305   3.785
 8438SOL     OW26212   2.031   4.220   2.735
 8438SOL    HW126213   2.080   4.164   2.802
 8438SOL    HW226214   2.032   4.175   2.646
 8439SOL     OW26215   6.314   4.907   2.957
 8439SOL    HW126216   6.365   4.824   2.938
 8439SOL    HW226217   6.256   4.930   2.880
 8440SOL     OW26218   2.554   1.664   3.427
 8440SOL    HW126219   2.635   1.680   3.370
 8440SOL    HW226220   2.562   1.716   3.512
 8441SOL     OW26221   5.481   0.057   0.272
 8441SOL    HW126222   5.493   6.992   0.331
 8441SOL    HW226223   5.504   0.032   0.178
 8442SOL     OW26224   3.650   2.253   5.659
 8442SOL    HW126225   3.599   2.171   5.634
 8442SOL    HW226226   3.685   2.297   5.576
 8443SOL     OW26227   2.495   4.591   3.707
 8443SOL    HW126228   2.408   4.544   3.698
 8443SOL    HW226229   2.524   4.590   3.803
 8444SOL     OW26230   2.997   6.592   4.269
 8444SOL    HW126231   2.947   6.648   4.204
 8444SOL    HW226232   2.970   6.616   4.362
 8445SOL     OW26233   2.913   0.643   1.270
 8445SOL    HW126234   2.992   0.632   1.330
 8445SOL    HW226235   2.874   0.554   1.248
 8446SOL     OW26236   5.504   5.517   5.901
 8446SOL    HW126237   5.406   5.497   5.895
 8446SOL    HW226238   5.517   5.606   5.947
 8447SOL     OW26239   4.442   1.662   2.167
 8447SOL    HW126240   4.358   1.608   2.157
 8447SOL    HW226241   4.521   1.602   2.156
 8448SOL     OW26242   3.848   6.240   4.079
 8448SOL    HW126243   3.848   6.152   4.127
 8448SOL    HW226244   3.754   6.269   4.063
 8449SOL     OW26245   0.129   3.673   3.598
 8449SOL    HW126246   0.109   3.642   3.690
 8449SOL    HW226247   0.213   3.727   3.598
 8450SOL     OW26248   0.982   0.456   1.348
 8450SOL    HW126249   0.983   0.532   1.283
 8450SOL    HW226250   0.887   0.434   1.371
 8451SOL     OW26251   3.251   1.646   0.134
 8451SOL    HW126252   3.195   1.564   0.139
 8451SOL    HW226253   3.268   1.669   0.038
 8452SOL     OW26254   6.226   2.867   3.717
 8452SOL    HW126255   6.154   2.922   3.675
 8452SOL    HW226256   6.189   2.818   3.796
 8453SOL     OW26257   0.200   4.804   0.032
 8453SOL    HW126258   0.132   4.816   0.103
 8453SOL    HW226259   0.232   4.893   0.000
 8454SOL     OW26260   0.149   5.623   1.305
 8454SOL    HW126261   0.175   5.533   1.338
 8454SOL    HW226262   0.168   5.691   1.376
 8455SOL     OW26263   0.188   1.886   1.985
 8455SOL    HW126264   0.223   1.810   1.930
 8455SOL    HW226265   0.263   1.946   2.011
 8456SOL     OW26266   4.543   6.139   3.346
 8456SOL    HW126267   4.628   6.129   3.295
 8456SOL    HW226268   4.485   6.208   3.302
 8457SOL     OW26269   0.229   6.758   4.368
 8457SOL    HW126270   0.149   6.775   4.309
 8457SOL    HW226271   0.205   6.690   4.436
 8458SOL     OW26272   2.895   0.888   0.338
 8458SOL    HW126273   2.823   0.948   0.370
 8458SOL    HW226274   2.866   0.843   0.254
 8459SOL     OW26275   2.978   5.668   2.177
 8459SOL    HW126276   3.002   5.592   2.238
 8459SOL    HW226277   3.028   5.750   2.206
 8460SOL     OW26278   4.597   4.329   5.123
 8460SOL    HW126279   4.518   4.316   5.063
 8460SOL    HW226280   4.569   4.319   5.218
 8461SOL     OW26281   0.660   3.440   4.859
 8461SOL    HW126282   0.751   3.466   4.893
 8461SOL    HW226283   0.590   3.476   4.920
 8462SOL     OW26284   2.086   2.536   6.706
 8462SOL    HW126285   2.133   2.476   6.770
 8462SOL    HW226286   2.115   2.631   6.721
 8463SOL     OW26287   6.989   0.155   1.771
 8463SOL    HW126288   6.988   0.248   1.733
 8463SOL    HW226289   6.976   0.159   1.870
 8464SOL     OW26290   5.490   3.988   4.453
 8464SOL    HW126291   5.587   4.009   4.444
 8464SOL    HW226292   5.436   4.068   4.429
 8465SOL     OW26293   0.759   3.347   0.651
 8465SOL    HW126294   0.834   3.281   0.658
 8465SOL    HW226295   0.764   3.395   0.564
 8466SOL     OW26296   0.693   6.937   4.611
 8466SOL    HW126297   0.611   6.884   4.589
 8466SOL    HW226298   0.744   6.956   4.527
 8467SOL     OW26299   3.380   6.487   0.482
 8467SOL    HW126300   3.281   6.495   0.490
 8467SOL    HW226301   3.422   6.577   0.494
 8468SOL     OW26302   3.380   1.642   0.360
 8468SOL    HW126303   3.365   1.726   0.413
 8468SOL    HW226304   3.324   1.645   0.277
 8469SOL     OW26305   4.030   2.308   6.855
 8469SOL    HW126306   4.042   2.377   6.926
 8469SOL    HW226307   3.933   2.300   6.832
 8470SOL     OW26308   1.306   3.429   0.528
 8470SOL    HW126309   1.279   3.510   0.581
 8470SOL    HW226310   1.406   3.424   0.523
 8471SOL     OW26311   2.820   1.464   2.571
 8471SOL    HW126312   2.813   1.563   2.584
 8471SOL    HW226313   2.871   1.425   2.648
 8472SOL     OW26314   0.529   0.565   4.408
 8472SOL    HW126315   0.572   0.485   4.451
 8472SOL    HW226316   0.567   0.648   4.448
 8473SOL     OW26317   5.924   4.793   6.494
 8473SOL    HW126318   5.854   4.773   6.425
 8473SOL    HW226319   5.999   4.844   6.452
 8474SOL     OW26320   3.344   3.208   2.062
 8474SOL    HW126321   3.328   3.109   2.064
 8474SOL    HW226322   3.278   3.251   2.000
 8475SOL     OW26323   0.554   1.616   3.304
 8475SOL    HW126324   0.530   1.711   3.322
 8475SOL    HW226325   0.614   1.612   3.223
 8476SOL     OW26326   6.367   1.195   1.429
 8476SOL    HW126327   6.399   1.271   1.372
 8476SOL    HW226328   6.341   1.229   1.519
 8477SOL     OW26329   4.317   6.922   2.504
 8477SOL    HW126330   4.319   6.984   2.582
 8477SOL    HW226331   4.256   6.845   2.524
 8478SOL     OW26332   1.271   0.675   6.112
 8478SOL    HW126333   1.331   0.748   6.082
 8478SOL    HW226334   1.315   0.587   6.097
 8479SOL     OW26335   6.202   2.374   1.170
 8479SOL    HW126336   6.194   2.447   1.101
 8479SOL    HW226337   6.180   2.286   1.128
 8480SOL     OW26338   3.681   0.806   6.940
 8480SOL    HW126339   3.671   0.736   6.870
 8480SOL    HW226340   3.778   0.814   6.965
 8481SOL     OW26341   4.777   1.981   3.914
 8481SOL    HW126342   4.850   1.923   3.950
 8481SOL    HW226343   4.703   1.986   3.981
 8482SOL     OW26344   3.292   6.917   3.255
 8482SOL    HW126345   3.379   6.906   3.304
 8482SOL    HW226346   3.217   6.918   3.320
 8483SOL     OW26347   4.186   5.276   2.178
 8483SOL    HW126348   4.256   5.282   2.107
 8483SOL    HW226349   4.228   5.288   2.268
 8484SOL     OW26350   0.747   5.460   3.151
 8484SOL    HW126351   0.763   5.369   3.112
 8484SOL    HW226352   0.664   5.498   3.112
 8485SOL     OW26353   2.992   3.925   6.742
 8485SOL    HW126354   2.901   3.892   6.717
 8485SOL    HW226355   3.060   3.856   6.717
 8486SOL     OW26356   4.960   1.249   2.707
 8486SOL    HW126357   5.025   1.272   2.779
 8486SOL    HW226358   4.950   1.326   2.644
 8487SOL     OW26359   5.648   0.579   0.047
 8487SOL    HW126360   5.637   0.564   6.964
 8487SOL    HW226361   5.623   0.495   0.096
 8488SOL     OW26362   5.829   4.885   5.236
 8488SOL    HW126363   5.900   4.858   5.302
 8488SOL    HW226364   5.802   4.805   5.183
 8489SOL     OW26365   5.972   0.614   1.385
 8489SOL    HW126366   6.000   0.630   1.479
 8489SOL    HW226367   5.872   0.615   1.379
 8490SOL     OW26368   3.977   6.905   4.138
 8490SOL    HW126369   3.960   6.840   4.064
 8490SOL    HW226370   4.038   6.863   4.205
 8491SOL     OW26371   1.918   0.114   1.697
 8491SOL    HW126372   1.882   0.207   1.685
 8491SOL    HW226373   1.865   0.051   1.641
 8492SOL     OW26374   3.984   4.368   0.061
 8492SOL    HW126375   4.072   4.381   0.015
 8492SOL    HW226376   3.926   4.448   0.046
 8493SOL     OW26377   2.910   2.267   6.300
 8493SOL    HW126378   2.982   2.292   6.235
 8493SOL    HW226379   2.864   2.185   6.268
 8494SOL     OW26380   2.755   4.825   0.649
 8494SOL    HW126381   2.849   4.800   0.673
 8494SOL    HW226382   2.721   4.891   0.716
 8495SOL     OW26383   6.524   4.086   0.391
 8495SOL    HW126384   6.451   4.017   0.392
 8495SOL    HW226385   6.574   4.079   0.304
 8496SOL     OW26386   0.493   2.317   1.661
 8496SOL    HW126387   0.411   2.325   1.604
 8496SOL    HW226388   0.547   2.401   1.652
 8497SOL     OW26389   6.412   0.551   4.159
 8497SOL    HW126390   6.474   0.543   4.081
 8497SOL    HW226391   6.324   0.587   4.128
 8498SOL     OW26392   0.225   6.168   2.753
 8498SOL    HW126393   0.147   6.119   2.793
 8498SOL    HW226394   0.194   6.221   2.674
 8499SOL     OW26395   2.599   5.468   6.944
 8499SOL    HW126396   2.555   5.383   6.916
 8499SOL    HW226397   2.531   5.541   6.950
 8500SOL     OW26398   2.022   0.147   5.616
 8500SOL    HW126399   2.063   0.156   5.706
 8500SOL    HW226400   1.979   0.234   5.590
 8501SOL     OW26401   0.755   2.924   0.555
 8501SOL    HW126402   0.734   2.996   0.489
 8501SOL    HW226403   0.781   2.841   0.507
 8502SOL     OW26404   1.809   5.159   1.149
 8502SOL    HW126405   1.897   5.119   1.175
 8502SOL    HW226406   1.745   5.086   1.127
 8503SOL     OW26407   1.102   6.152   3.333
 8503SOL    HW126408   1.070   6.245   3.319
 8503SOL    HW226409   1.029   6.087   3.311
 8504SOL     OW26410   1.971   5.719   3.761
 8504SOL    HW126411   1.941   5.632   3.720
 8504SOL    HW226412   2.026   5.701   3.842
 8505SOL     OW26413   4.821   3.945   3.891
 8505SOL    HW126414   4.783   4.003   3.962
 8505SOL    HW226415   4.827   3.851   3.925
 8506SOL     OW26416   6.523   1.242   0.322
 8506SOL    HW126417   6.530   1.175   0.395
 8506SOL    HW226418   6.604   1.301   0.322
 8507SOL     OW26419   3.090   1.149   5.628
 8507SOL    HW126420   3.173   1.203   5.630
 8507SOL    HW226421   3.100   1.073   5.564
 8508SOL     OW26422   0.003   2.411   5.010
 8508SOL    HW126423   0.084   2.380   4.960
 8508SOL    HW226424   0.030   2.479   5.078
 8509SOL     OW26425   4.950   1.306   3.693
 8509SOL    HW126426   4.929   1.223   3.744
 8509SOL    HW226427   4.955   1.384   3.757
 8510SOL     OW26428   5.149   4.535   3.015
 8510SOL    HW126429   5.228   4.549   3.075
 8510SOL    HW226430   5.171   4.464   2.947
 8511SOL     OW26431   5.707   3.665   1.876
 8511SOL    HW126432   5.639   3.619   1.818
 8511SOL    HW226433   5.796   3.661   1.831
 8512SOL     OW26434   2.974   2.427   0.921
 8512SOL    HW126435   2.917   2.363   0.869
 8512SOL    HW226436   3.058   2.381   0.950
 8513SOL     OW26437   4.940   4.027   1.147
 8513SOL    HW126438   4.861   4.067   1.100
 8513SOL    HW226439   4.945   4.064   1.240
 8514SOL     OW26440   2.689   1.941   3.904
 8514SOL    HW126441   2.744   1.937   3.820
 8514SOL    HW226442   2.742   1.902   3.979
 8515SOL     OW26443   5.945   1.440   6.733
 8515SOL    HW126444   5.847   1.429   6.716
 8515SOL    HW226445   5.996   1.371   6.682
 8516SOL     OW26446   6.649   1.915   1.256
 8516SOL    HW126447   6.657   1.979   1.332
 8516SOL    HW226448   6.609   1.962   1.177
 8517SOL     OW26449   1.535   3.552   6.175
 8517SOL    HW126450   1.541   3.573   6.078
 8517SOL    HW226451   1.591   3.472   6.195
 8518SOL     OW26452   4.783   4.329   6.156
 8518SOL    HW126453   4.850   4.260   6.185
 8518SOL    HW226454   4.731   4.360   6.236
 8519SOL     OW26455   1.654   4.897   1.145
 8519SOL    HW126456   1.594   4.819   1.125
 8519SOL    HW226457   1.701   4.925   1.061
 8520SOL     OW26458   3.590   3.270   6.666
 8520SOL    HW126459   3.674   3.217   6.658
 8520SOL    HW226460   3.612   3.365   6.689
 8521SOL     OW26461   2.255   4.762   5.701
 8521SOL    HW126462   2.268   4.693   5.630
 8521SOL    HW226463   2.302   4.847   5.674
 8522SOL     OW26464   1.767   6.625   1.202
 8522SOL    HW126465   1.857   6.652   1.237
 8522SOL    HW226466   1.715   6.706   1.178
 8523SOL     OW26467   1.904   6.673   0.054
 8523SOL    HW126468   1.828   6.616   0.024
 8523SOL    HW226469   1.912   6.670   0.154
 8524SOL     OW26470   0.649   2.666   5.414
 8524SOL    HW126471   0.567   2.688   5.466
 8524SOL    HW226472   0.626   2.602   5.340
 8525SOL     OW26473   6.341   4.231   1.809
 8525SOL    HW126474   6.430   4.185   1.818
 8525SOL    HW226475   6.353   4.317   1.758
 8526SOL     OW26476   4.023   6.147   0.039
 8526SOL    HW126477   4.065   6.106   6.974
 8526SOL    HW226478   3.961   6.081   0.081
 8527SOL     OW26479   3.392   1.037   6.744
 8527SOL    HW126480   3.356   1.129   6.759
 8527SOL    HW226481   3.398   0.988   6.830
 8528SOL     OW26482   4.308   0.761   6.602
 8528SOL    HW126483   4.335   0.699   6.528
 8528SOL    HW226484   4.356   0.848   6.591
 8529SOL     OW26485   1.316   0.052   0.824
 8529SOL    HW126486   1.406   0.012   0.846
 8529SOL    HW226487   1.266   0.069   0.909
 8530SOL     OW26488   4.139   4.084   5.495
 8530SOL    HW126489   4.091   4.112   5.578
 8530SOL    HW226490   4.121   4.151   5.422
 8531SOL     OW26491   6.487   4.788   2.447
 8531SOL    HW126492   6.542   4.840   2.512
 8531SOL    HW226493   6.410   4.746   2.494
 8532SOL     OW26494   4.586   5.149   4.558
 8532SOL    HW126495   4.624   5.236   4.528
 8532SOL    HW226496   4.531   5.109   4.485
 8533SOL     OW26497   1.962   6.224   0.184
 8533SOL    HW126498   1.933   6.136   0.224
 8533SOL    HW226499   2.012   6.276   0.253
 8534SOL     OW26500   6.148   2.433   4.329
 8534SOL    HW126501   6.224   2.370   4.313
 8534SOL    HW226502   6.067   2.400   4.279
 8535SOL     OW26503   6.515   1.238   3.195
 8535SOL    HW126504   6.458   1.315   3.169
 8535SOL    HW226505   6.612   1.264   3.190
 8536SOL     OW26506   0.084   1.833   4.919
 8536SOL    HW126507   0.152   1.881   4.974
 8536SOL    HW226508   0.008   1.804   4.977
 8537SOL     OW26509   5.630   0.784   2.871
 8537SOL    HW126510   5.645   0.694   2.911
 8537SOL    HW226511   5.680   0.853   2.924
 8538SOL     OW26512   1.242   0.845   0.317
 8538SOL    HW126513   1.251   0.856   0.218
 8538SOL    HW226514   1.333   0.849   0.358
 8539SOL     OW26515   6.318   0.731   2.567
 8539SOL    HW126516   6.223   0.699   2.568
 8539SOL    HW226517   6.337   0.781   2.651
 8540SOL     OW26518   5.504   0.568   6.101
 8540SOL    HW126519   5.501   0.655   6.150
 8540SOL    HW226520   5.418   0.554   6.053
 8541SOL     OW26521   2.567   1.808   3.640
 8541SOL    HW126522   2.544   1.793   3.736
 8541SOL    HW226523   2.637   1.879   3.633
 8542SOL     OW26524   4.321   4.398   6.433
 8542SOL    HW126525   4.274   4.311   6.416
 8542SOL    HW226526   4.316   4.455   6.351
 8543SOL     OW26527   2.587   1.477   1.411
 8543SOL    HW126528   2.675   1.439   1.439
 8543SOL    HW226529   2.518   1.456   1.480
 8544SOL     OW26530   5.199   3.494   3.800
 8544SOL    HW126531   5.273   3.532   3.745
 8544SOL    HW226532   5.197   3.395   3.791
 8545SOL     OW26533   4.272   0.053   5.251
 8545SOL    HW126534   4.256   0.106   5.334
 8545SOL    HW226535   4.248   0.108   5.171
 8546SOL     OW26536   5.723   1.886   4.297
 8546SOL    HW126537   5.794   1.923   4.237
 8546SOL    HW226538   5.645   1.948   4.299
 8547SOL     OW26539   1.184   6.635   6.083
 8547SOL    HW126540   1.090   6.614   6.058
 8547SOL    HW226541   1.207   6.593   6.170
 8548SOL     OW26542   6.147   2.735   6.286
 8548SOL    HW126543   6.063   2.788   6.294
 8548SOL    HW226544   6.205   2.774   6.215
 8549SOL     OW26545   1.243   2.981   4.044
 8549SOL    HW126546   1.187   3.019   4.117
 8549SOL    HW226547   1.246   3.045   3.968
 8550SOL     OW26548   1.857   4.708   0.493
 8550SOL    HW126549   1.869   4.645   0.570
 8550SOL    HW226550   1.933   4.773   0.490
 8551SOL     OW26551   3.579   3.993   5.863
 8551SOL    HW126552   3.556   4.062   5.794
 8551SOL    HW226553   3.571   3.902   5.822
 8552SOL     OW26554   2.112   6.957   3.490
 8552SOL    HW126555   2.168   6.890   3.441
 8552SOL    HW226556   2.153   0.033   3.481
 8553SOL     OW26557   5.079   4.636   6.411
 8553SOL    HW126558   5.060   4.709   6.476
 8553SOL    HW226559   5.064   4.548   6.454
 8554SOL     OW26560   0.683   4.735   0.375
 8554SOL    HW126561   0.598   4.759   0.329
 8554SOL    HW226562   0.735   4.818   0.395
 8555SOL     OW26563   1.318   0.522   1.948
 8555SOL    HW126564   1.250   0.558   2.013
 8555SOL    HW226565   1.405   0.568   1.963
 8556SOL     OW26566   0.604   6.652   4.822
 8556SOL    HW126567   0.679   6.647   4.755
 8556SOL    HW226568   0.639   6.689   4.908
 8557SOL     OW26569   5.821   0.437   2.505
 8557SOL    HW126570   5.862   0.351   2.536
 8557SOL    HW226571   5.881   0.513   2.527
 8558SOL     OW26572   2.684   5.722   3.437
 8558SOL    HW126573   2.715   5.700   3.530
 8558SOL    HW226574   2.742   5.674   3.371
 8559SOL     OW26575   6.844   0.432   1.960
 8559SOL    HW126576   6.867   0.516   2.008
 8559SOL    HW226577   6.911   0.361   1.983
 8560SOL     OW26578   0.252   5.994   2.180
 8560SOL    HW126579   0.305   5.927   2.233
 8560SOL    HW226580   0.179   6.031   2.238
 8561SOL     OW26581   3.741   0.447   2.339
 8561SOL    HW126582   3.692   0.376   2.389
 8561SOL    HW226583   3.687   0.476   2.260
 8562SOL     OW26584   4.355   6.206   4.823
 8562SOL    HW126585   4.318   6.158   4.902
 8562SOL    HW226586   4.390   6.139   4.757
 8563SOL     OW26587   2.673   4.668   0.316
 8563SOL    HW126588   2.584   4.677   0.272
 8563SOL    HW226589   2.663   4.673   0.415
 8564SOL     OW26590   2.792   1.152   3.968
 8564SOL    HW126591   2.732   1.216   3.920
 8564SOL    HW226592   2.883   1.154   3.927
 8565SOL     OW26593   4.288   5.745   1.215
 8565SOL    HW126594   4.293   5.645   1.213
 8565SOL    HW226595   4.351   5.784   1.148
 8566SOL     OW26596   1.443   0.505   1.218
 8566SOL    HW126597   1.502   0.583   1.240
 8566SOL    HW226598   1.418   0.458   1.303
 8567SOL     OW26599   6.622   1.261   2.439
 8567SOL    HW126600   6.638   1.354   2.404
 8567SOL    HW226601   6.567   1.210   2.374
 8568SOL     OW26602   5.562   1.247   6.089
 8568SOL    HW126603   5.467   1.264   6.065
 8568SOL    HW226604   5.574   1.151   6.114
 8569SOL     OW26605   5.003   1.550   5.643
 8569SOL    HW126606   4.986   1.646   5.621
 8569SOL    HW226607   5.071   1.513   5.581
 8570SOL     OW26608   1.310   2.289   5.096
 8570SOL    HW126609   1.406   2.313   5.101
 8570SOL    HW226610   1.278   2.298   5.001
 8571SOL     OW26611   1.240   5.060   5.858
 8571SOL    HW126612   1.247   5.126   5.784
 8571SOL    HW226613   1.324   5.006   5.863
 8572SOL     OW26614   3.357   5.077   6.125
 8572SOL    HW126615   3.267   5.122   6.133
 8572SOL    HW226616   3.390   5.053   6.216
 8573SOL     OW26617   3.342   6.792   6.004
 8573SOL    HW126618   3.255   6.750   6.028
 8573SOL    HW226619   3.358   6.871   6.063
 8574SOL     OW26620   0.088   6.166   5.978
 8574SOL    HW126621   0.181   6.147   5.947
 8574SOL    HW226622   0.029   6.181   5.898
 8575SOL     OW26623   3.239   2.824   5.596
 8575SOL    HW126624   3.325   2.863   5.565
 8575SOL    HW226625   3.163   2.873   5.553
 8576SOL     OW26626   1.396   5.717   0.005
 8576SOL    HW126627   1.435   5.804   0.036
 8576SOL    HW226628   1.469   5.661   6.980
 8577SOL     OW26629   0.228   5.842   4.458
 8577SOL    HW126630   0.284   5.822   4.539
 8577SOL    HW226631   0.256   5.782   4.383
 8578SOL     OW26632   5.484   0.804   4.288
 8578SOL    HW126633   5.522   0.812   4.380
 8578SOL    HW226634   5.556   0.823   4.221
 8579SOL     OW26635   1.246   6.987   3.407
 8579SOL    HW126636   1.273   6.989   3.503
 8579SOL    HW226637   1.258   0.062   3.367
 8580SOL     OW26638   2.117   6.935   2.345
 8580SOL    HW126639   2.049   6.896   2.283
 8580SOL    HW226640   2.070   6.981   2.420
 8581SOL     OW26641   3.253   3.238   1.663
 8581SOL    HW126642   3.220   3.313   1.604
 8581SOL    HW226643   3.187   3.222   1.736
 8582SOL     OW26644   4.121   4.754   2.401
 8582SOL    HW126645   4.065   4.807   2.465
 8582SOL    HW226646   4.193   4.706   2.451
 8583SOL     OW26647   5.498   0.501   5.012
 8583SOL    HW126648   5.459   0.517   5.103
 8583SOL    HW226649   5.532   0.587   4.976
 8584SOL     OW26650   6.945   3.656   5.799
 8584SOL    HW126651   6.866   3.690   5.750
 8584SOL    HW226652   6.918   3.577   5.855
 8585SOL     OW26653   0.545   6.125   5.676
 8585SOL    HW126654   0.598   6.209   5.659
 8585SOL    HW226655   0.497   6.099   5.592
 8586SOL     OW26656   3.106   0.535   3.539
 8586SOL    HW126657   3.012   0.516   3.509
 8586SOL    HW226658   3.169   0.475   3.490
 8587SOL     OW26659   1.787   6.777   2.923
 8587SOL    HW126660   1.803   6.680   2.907
 8587SOL    HW226661   1.867   6.818   2.967
 8588SOL     OW26662   2.669   0.540   0.123
 8588SOL    HW126663   2.624   0.469   0.069
 8588SOL    HW226664   2.647   0.528   0.220
 8589SOL     OW26665   5.214   2.714   4.334
 8589SOL    HW126666   5.263   2.643   4.284
 8589SOL    HW226667   5.174   2.675   4.417
 8590SOL     OW26668   6.678   6.639   3.963
 8590SOL    HW126669   6.692   6.738   3.966
 8590SOL    HW226670   6.650   6.611   3.871
 8591SOL     OW26671   0.949   4.642   6.353
 8591SOL    HW126672   0.936   4.716   6.419
 8591SOL    HW226673   0.961   4.555   6.402
 8592SOL     OW26674   0.169   3.648   6.920
 8592SOL    HW126675   0.126   3.720   6.866
 8592SOL    HW226676   0.144   3.660   0.001
 8593SOL     OW26677   1.559   0.618   2.001
 8593SOL    HW126678   1.584   0.608   2.098
 8593SOL    HW226679   1.574   0.712   1.972
 8594SOL     OW26680   3.914   3.193   5.083
 8594SOL    HW126681   3.846   3.249   5.036
 8594SOL    HW226682   4.005   3.232   5.069
 8595SOL     OW26683   1.748   2.178   3.167
 8595SOL    HW126684   1.701   2.187   3.256
 8595SOL    HW226685   1.812   2.101   3.171
 8596SOL     OW26686   6.311   5.224   3.465
 8596SOL    HW126687   6.336   5.128   3.457
 8596SOL    HW226688   6.389   5.281   3.440
 8597SOL     OW26689   4.548   1.420   1.204
 8597SOL    HW126690   4.636   1.392   1.168
 8597SOL    HW226691   4.475   1.376   1.153
 8598SOL     OW26692   6.967   5.751   1.168
 8598SOL    HW126693   6.914   5.683   1.118
 8598SOL    HW226694   0.010   5.704   1.235
 8599SOL     OW26695   0.982   2.585   3.735
 8599SOL    HW126696   0.974   2.589   3.835
 8599SOL    HW226697   0.893   2.561   3.696
 8600SOL     OW26698   5.414   5.088   6.169
 8600SOL    HW126699   5.402   5.098   6.268
 8600SOL    HW226700   5.356   5.154   6.121
 8601SOL     OW26701   1.153   0.838   5.354
 8601SOL    HW126702   1.061   0.815   5.386
 8601SOL    HW226703   1.147   0.889   5.269
 8602SOL     OW26704   2.974   5.631   3.599
 8602SOL    HW126705   2.907   5.614   3.670
 8602SOL    HW226706   3.056   5.577   3.617
 8603SOL     OW26707   3.574   5.590   0.522
 8603SOL    HW126708   3.490   5.577   0.468
 8603SOL    HW226709   3.580   5.517   0.591
 8604SOL     OW26710   0.402   3.152   3.679
 8604SOL    HW126711   0.342   3.098   3.738
 8604SOL    HW226712   0.480   3.184   3.731
 8605SOL     OW26713   3.179   4.891   4.435
 8605SOL    HW126714   3.175   4.850   4.344
 8605SOL    HW226715   3.102   4.860   4.490
 8606SOL     OW26716   2.046   4.661   6.333
 8606SOL    HW126717   1.961   4.702   6.301
 8606SOL    HW226718   2.113   4.659   6.258
 8607SOL     OW26719   3.806   5.789   0.633
 8607SOL    HW126720   3.708   5.806   0.625
 8607SOL    HW226721   3.821   5.697   0.669
 8608SOL     OW26722   4.280   5.424   3.055
 8608SOL    HW126723   4.274   5.419   3.154
 8608SOL    HW226724   4.347   5.492   3.028
 8609SOL     OW26725   5.287   0.886   3.353
 8609SOL    HW126726   5.346   0.852   3.280
 8609SOL    HW226727   5.229   0.811   3.385
 8610SOL     OW26728   1.148   1.629   2.763
 8610SOL    HW126729   1.118   1.701   2.701
 8610SOL    HW226730   1.246   1.612   2.749
 8611SOL     OW26731   1.990   1.791   4.143
 8611SOL    HW126732   2.051   1.858   4.100
 8611SOL    HW226733   1.949   1.733   4.072
 8612SOL     OW26734   3.369   2.943   0.341
 8612SOL    HW126735   3.307   2.867   0.322
 8612SOL    HW226736   3.349   2.982   0.431
 8613SOL     OW26737   2.118   1.963   1.322
 8613SOL    HW126738   2.167   2.004   1.245
 8613SOL    HW226739   2.182   1.909   1.377
 8614SOL     OW26740   0.606   3.444   2.916
 8614SOL    HW126741   0.539   3.517   2.900
 8614SOL    HW226742   0.560   3.355   2.913
 8615SOL     OW26743   5.007   1.809   5.530
 8615SOL    HW126744   4.971   1.885   5.586
 8615SOL    HW226745   5.081   1.843   5.472
 8616SOL     OW26746   2.503   5.237   1.431
 8616SOL    HW126747   2.530   5.146   1.464
 8616SOL    HW226748   2.425   5.228   1.368
 8617SOL     OW26749   6.825   0.907   6.630
 8617SOL    HW126750   6.812   0.913   6.531
 8617SOL    HW226751   6.810   0.996   6.671
 8618SOL     OW26752   6.078   6.511   1.211
 8618SOL    HW126753   6.022   6.492   1.130
 8618SOL    HW226754   6.101   6.424   1.256
 8619SOL     OW26755   3.393   5.100   2.143
 8619SOL    HW126756   3.316   5.147   2.186
 8619SOL    HW226757   3.360   5.033   2.078
 8620SOL     OW26758   0.854   0.129   3.447
 8620SOL    HW126759   0.904   0.152   3.363
 8620SOL    HW226760   0.763   0.097   3.423
 8621SOL     OW26761   6.267   1.497   2.856
 8621SOL    HW126762   6.169   1.481   2.848
 8621SOL    HW226763   6.284   1.586   2.898
 8622SOL     OW26764   4.918   3.924   0.550
 8622SOL    HW126765   4.982   3.997   0.572
 8622SOL    HW226766   4.841   3.961   0.497
 8623SOL     OW26767   0.915   3.897   3.256
 8623SOL    HW126768   0.945   3.818   3.203
 8623SOL    HW226769   0.857   3.867   3.332
 8624SOL     OW26770   1.439   3.624   4.013
 8624SOL    HW126771   1.372   3.607   4.085
 8624SOL    HW226772   1.526   3.580   4.038
 8625SOL     OW26773   4.867   6.785   4.955
 8625SOL    HW126774   4.813   6.839   4.891
 8625SOL    HW226775   4.948   6.836   4.983
 8626SOL     OW26776   3.868   2.936   5.010
 8626SOL    HW126777   3.926   3.017   5.017
 8626SOL    HW226778   3.852   2.915   4.914
 8627SOL     OW26779   0.097   0.758   3.852
 8627SOL    HW126780   0.104   0.842   3.799
 8627SOL    HW226781   0.099   0.679   3.791
 8628SOL     OW26782   5.892   7.007   1.403
 8628SOL    HW126783   5.844   6.920   1.393
 8628SOL    HW226784   5.908   0.031   1.313
 8629SOL     OW26785   1.157   4.724   5.506
 8629SOL    HW126786   1.173   4.648   5.569
 8629SOL    HW226787   1.080   4.779   5.539
 8630SOL     OW26788   5.616   4.249   4.309
 8630SOL    HW126789   5.678   4.298   4.371
 8630SOL    HW226790   5.521   4.269   4.334
 8631SOL     OW26791   3.161   5.669   6.053
 8631SOL    HW126792   3.190   5.600   6.120
 8631SOL    HW226793   3.225   5.746   6.055
 8632SOL     OW26794   3.090   0.156   4.075
 8632SOL    HW126795   3.076   0.218   3.998
 8632SOL    HW226796   3.187   0.153   4.098
 8633SOL     OW26797   5.055   1.852   4.627
 8633SOL    HW126798   5.007   1.766   4.611
 8633SOL    HW226799   5.153   1.839   4.612
 8634SOL     OW26800   5.530   3.172   0.377
 8634SOL    HW126801   5.541   3.203   0.283
 8634SOL    HW226802   5.458   3.225   0.422
 8635SOL     OW26803   6.168   4.509   6.424
 8635SOL    HW126804   6.085   4.514   6.368
 8635SOL    HW226805   6.156   4.438   6.493
 8636SOL     OW26806   5.004   5.957   0.630
 8636SOL    HW126807   4.947   6.007   0.565
 8636SOL    HW226808   4.974   5.862   0.635
 8637SOL     OW26809   2.085   1.231   0.007
 8637SOL    HW126810   2.159   1.177   6.981
 8637SOL    HW226811   2.021   1.260   6.951
 8638SOL     OW26812   2.826   2.945   6.580
 8638SOL    HW126813   2.858   3.036   6.605
 8638SOL    HW226814   2.727   2.942   6.583
 8639SOL     OW26815   5.649   2.212   1.787
 8639SOL    HW126816   5.726   2.214   1.724
 8639SOL    HW226817   5.580   2.278   1.758
 8640SOL     OW26818   4.396   3.883   0.851
 8640SOL    HW126819   4.380   3.801   0.906
 8640SOL    HW226820   4.365   3.868   0.758
 8641SOL     OW26821   6.527   4.970   4.107
 8641SOL    HW126822   6.528   5.031   4.186
 8641SOL    HW226823   6.511   4.876   4.137
 8642SOL     OW26824   3.486   1.316   2.646
 8642SOL    HW126825   3.518   1.267   2.727
 8642SOL    HW226826   3.466   1.251   2.573
 8643SOL     OW26827   3.656   0.259   6.677
 8643SOL    HW126828   3.700   0.342   6.643
 8643SOL    HW226829   3.693   0.235   6.766
 8644SOL     OW26830   4.746   2.376   5.468
 8644SOL    HW126831   4.650   2.402   5.456
 8644SOL    HW226832   4.801   2.416   5.394
 8645SOL     OW26833   4.609   4.305   1.345
 8645SOL    HW126834   4.569   4.322   1.435
 8645SOL    HW226835   4.605   4.389   1.290
 8646SOL     OW26836   6.505   1.458   1.583
 8646SOL    HW126837   6.436   1.406   1.634
 8646SOL    HW226838   6.463   1.500   1.503
 8647SOL     OW26839   2.598   5.463   5.867
 8647SOL    HW126840   2.556   5.413   5.943
 8647SOL    HW226841   2.566   5.424   5.780
 8648SOL     OW26842   6.185   0.675   3.988
 8648SOL    HW126843   6.121   0.603   4.016
 8648SOL    HW226844   6.234   0.645   3.905
 8649SOL     OW26845   5.547   4.391   6.985
 8649SOL    HW126846   5.612   4.340   6.929
 8649SOL    HW226847   5.587   4.409   0.059
 8650SOL     OW26848   1.937   4.168   6.258
 8650SOL    HW126849   2.028   4.147   6.224
 8650SOL    HW226850   1.902   4.091   6.311
 8651SOL     OW26851   3.577   1.087   0.624
 8651SOL    HW126852   3.500   1.051   0.572
 8651SOL    HW226853   3.660   1.035   0.603
 8652SOL     OW26854   1.122   3.645   3.586
 8652SOL    HW126855   1.125   3.614   3.491
 8652SOL    HW226856   1.213   3.639   3.627
 8653SOL     OW26857   5.746   1.093   6.765
 8653SOL    HW126858   5.792   1.175   6.733
 8653SOL    HW226859   5.712   1.041   6.687
 8654SOL     OW26860   1.124   5.611   1.080
 8654SOL    HW126861   1.201   5.558   1.044
 8654SOL    HW226862   1.145   5.639   1.174
 8655SOL     OW26863   5.935   1.363   3.751
 8655SOL    HW126864   5.918   1.297   3.678
 8655SOL    HW226865   5.930   1.317   3.839
 8656SOL     OW26866   6.437   0.873   0.555
 8656SOL    HW126867   6.385   0.851   0.473
 8656SOL    HW226868   6.419   0.968   0.582
 8657SOL     OW26869   4.807   4.864   0.126
 8657SOL    HW126870   4.870   4.941   0.138
 8657SOL    HW226871   4.842   4.784   0.174
 8658SOL     OW26872   4.022   6.579   0.226
 8658SOL    HW126873   4.072   6.647   0.173
 8658SOL    HW226874   3.989   6.506   0.165
 8659SOL     OW26875   4.417   1.826   3.523
 8659SOL    HW126876   4.402   1.727   3.528
 8659SOL    HW226877   4.379   1.861   3.438
 8660SOL     OW26878   5.693   3.773   0.839
 8660SOL    HW126879   5.736   3.818   0.761
 8660SOL    HW226880   5.757   3.769   0.915
 8661SOL     OW26881   5.903   4.060   1.392
 8661SOL    HW126882   5.950   3.973   1.375
 8661SOL    HW226883   5.829   4.070   1.325
 8662SOL     OW26884   4.727   5.701   1.532
 8662SOL    HW126885   4.761   5.739   1.447
 8662SOL    HW226886   4.678   5.771   1.583
 8663SOL     OW26887   2.680   5.910   1.107
 8663SOL    HW126888   2.611   5.923   1.179
 8663SOL    HW226889   2.740   5.834   1.131
 8664SOL     OW26890   3.035   5.840   1.021
 8664SOL    HW126891   3.111   5.782   0.990
 8664SOL    HW226892   2.993   5.886   0.943
 8665SOL     OW26893   5.246   6.046   5.024
 8665SOL    HW126894   5.338   6.085   5.021
 8665SOL    HW226895   5.243   5.975   5.094
 8666SOL     OW26896   4.640   1.834   4.689
 8666SOL    HW126897   4.542   1.818   4.677
 8666SOL    HW226898   4.673   1.784   4.769
 8667SOL     OW26899   4.992   2.706   3.008
 8667SOL    HW126900   5.036   2.617   3.011
 8667SOL    HW226901   4.947   2.719   2.920
 8668SOL     OW26902   5.795   3.418   3.060
 8668SOL    HW126903   5.772   3.512   3.085
 8668SOL    HW226904   5.830   3.417   2.966
 8669SOL     OW26905   2.407   6.030   0.004
 8669SOL    HW126906   2.326   5.997   6.972
 8669SOL    HW226907   2.410   6.130   7.015
 8670SOL     OW26908   3.668   4.770   5.473
 8670SOL    HW126909   3.654   4.764   5.572
 8670SOL    HW226910   3.725   4.850   5.453
 8671SOL     OW26911   5.712   2.055   3.443
 8671SOL    HW126912   5.627   2.106   3.428
 8671SOL    HW226913   5.715   2.022   3.538
 8672SOL     OW26914   1.800   5.123   3.789
 8672SOL    HW126915   1.745   5.174   3.723
 8672SOL    HW226916   1.879   5.179   3.816
 8673SOL     OW26917   6.607   2.000   6.548
 8673SOL    HW126918   6.705   1.984   6.536
 8673SOL    HW226919   6.581   2.084   6.502
 8674SOL     OW26920   5.897   5.724   2.476
 8674SOL    HW126921   5.864   5.671   2.398
 8674SOL    HW226922   5.895   5.667   2.558
 8675SOL     OW26923   3.464   1.916   4.926
 8675SOL    HW126924   3.370   1.890   4.951
 8675SOL    HW226925   3.469   1.926   4.826
 8676SOL     OW26926   4.120   0.292   2.760
 8676SOL    HW126927   4.119   0.313   2.858
 8676SOL    HW226928   4.215   0.277   2.730
 8677SOL     OW26929   2.631   6.431   5.746
 8677SOL    HW126930   2.630   6.348   5.689
 8677SOL    HW226931   2.537   6.459   5.766
 8678SOL     OW26932   0.220   0.110   1.635
 8678SOL    HW126933   0.193   0.172   1.561
 8678SOL    HW226934   0.143   0.100   1.698
 8679SOL     OW26935   6.409   2.498   4.137
 8679SOL    HW126936   6.339   2.448   4.187
 8679SOL    HW226937   6.413   2.593   4.169
 8680SOL     OW26938   0.928   4.344   2.149
 8680SOL    HW126939   1.013   4.310   2.190
 8680SOL    HW226940   0.947   4.427   2.097
 8681SOL     OW26941   4.973   5.349   6.667
 8681SOL    HW126942   4.975   5.410   6.587
 8681SOL    HW226943   4.898   5.375   6.727
 8682SOL     OW26944   4.892   6.750   1.761
 8682SOL    HW126945   4.850   6.800   1.685
 8682SOL    HW226946   4.831   6.751   1.839
 8683SOL     OW26947   1.606   2.462   2.342
 8683SOL    HW126948   1.689   2.431   2.294
 8683SOL    HW226949   1.589   2.402   2.420
 8684SOL     OW26950   0.774   2.661   4.819
 8684SOL    HW126951   0.737   2.568   4.813
 8684SOL    HW226952   0.735   2.718   4.748
 8685SOL     OW26953   0.786   2.286   5.086
 8685SOL    HW126954   0.881   2.263   5.103
 8685SOL    HW226955   0.727   2.230   5.144
 8686SOL     OW26956   0.104   1.216   1.021
 8686SOL    HW126957   0.199   1.208   0.989
 8686SOL    HW226958   0.103   1.237   1.119
 8687SOL     OW26959   3.734   5.671   2.720
 8687SOL    HW126960   3.665   5.613   2.763
 8687SOL    HW226961   3.825   5.630   2.732
 8688SOL     OW26962   2.889   6.047   6.868
 8688SOL    HW126963   2.801   6.096   6.875
 8688SOL    HW226964   2.963   6.109   6.895
 8689SOL     OW26965   3.175   4.246   1.550
 8689SOL    HW126966   3.217   4.221   1.637
 8689SOL    HW226967   3.130   4.166   1.510
 8690SOL     OW26968   1.670   2.838   3.217
 8690SOL    HW126969   1.759   2.856   3.175
 8690SOL    HW226970   1.679   2.844   3.317
 8691SOL     OW26971   3.490   1.894   6.847
 8691SOL    HW126972   3.535   1.899   6.758
 8691SOL    HW226973   3.555   1.920   6.919
 8692SOL     OW26974   2.277   1.317   3.227
 8692SOL    HW126975   2.364   1.364   3.237
 8692SOL    HW226976   2.225   1.323   3.313
 8693SOL     OW26977   6.572   1.417   6.993
 8693SOL    HW126978   6.639   1.349   6.964
 8693SOL    HW226979   6.607   1.467   0.057
 8694SOL     OW26980   3.654   1.174   4.845
 8694SOL    HW126981   3.659   1.204   4.750
 8694SOL    HW226982   3.566   1.202   4.884
 8695SOL     OW26983   3.965   2.616   5.738
 8695SOL    HW126984   4.054   2.591   5.777
 8695SOL    HW226985   3.899   2.629   5.812
 8696SOL     OW26986   2.209   5.885   0.439
 8696SOL    HW126987   2.197   5.796   0.485
 8696SOL    HW226988   2.239   5.870   0.345
 8697SOL     OW26989   6.594   2.963   0.220
 8697SOL    HW126990   6.553   2.944   0.131
 8697SOL    HW226991   6.668   2.899   0.238
 8698SOL     OW26992   5.916   5.603   4.546
 8698SOL    HW126993   5.917   5.516   4.593
 8698SOL    HW226994   6.000   5.615   4.494
 8699SOL     OW26995   2.270   2.307   5.375
 8699SOL    HW126996   2.367   2.287   5.384
 8699SOL    HW226997   2.257   2.376   5.303
 8700SOL     OW26998   0.909   0.578   4.328
 8700SOL    HW126999   0.958   0.628   4.256
 8700SOL    HW227000   0.886   0.486   4.295
 8701SOL     OW27001   1.721   0.587   0.300
 8701SOL    HW127002   1.790   0.626   0.361
 8701SOL    HW227003   1.692   0.656   0.233
 8702SOL     OW27004   5.547   4.336   0.411
 8702SOL    HW127005   5.612   4.381   0.350
 8702SOL    HW227006   5.524   4.397   0.486
 8703SOL     OW27007   3.290   5.784   0.918
 8703SOL    HW127008   3.313   5.882   0.920
 8703SOL    HW227009   3.346   5.736   0.986
 8704SOL     OW27010   6.826   3.648   2.627
 8704SOL    HW127011   6.921   3.678   2.632
 8704SOL    HW227012   6.807   3.609   2.536
 8705SOL     OW27013   5.052   0.756   0.450
 8705SOL    HW127014   5.138   0.801   0.473
 8705SOL    HW227015   5.055   0.661   0.479
 8706SOL     OW27016   4.420   2.047   5.929
 8706SOL    HW127017   4.420   2.016   6.024
 8706SOL    HW227018   4.498   2.108   5.914
 8707SOL     OW27019   6.310   2.145   6.751
 8707SOL    HW127020   6.393   2.109   6.792
 8707SOL    HW227021   6.333   2.211   6.680
 8708SOL     OW27022   4.240   1.865   2.270
 8708SOL    HW127023   4.254   1.949   2.323
 8708SOL    HW227024   4.320   1.806   2.281
 8709SOL     OW27025   6.826   5.769   0.464
 8709SOL    HW127026   6.850   5.711   0.387
 8709SOL    HW227027   6.907   5.819   0.494
 8710SOL     OW27028   2.200   2.627   3.833
 8710SOL    HW127029   2.209   2.681   3.916
 8710SOL    HW227030   2.110   2.582   3.832
 8711SOL     OW27031   1.400   5.938   3.015
 8711SOL    HW127032   1.367   6.028   3.044
 8711SOL    HW227033   1.432   5.887   3.094
 8712SOL     OW27034   4.200   2.190   4.959
 8712SOL    HW127035   4.145   2.204   4.877
 8712SOL    HW227036   4.191   2.269   5.020
 8713SOL     OW27037   0.698   3.929   3.990
 8713SOL    HW127038   0.613   3.958   4.033
 8713SOL    HW227039   0.707   3.973   3.901
 8714SOL     OW27040   1.413   0.678   6.547
 8714SOL    HW127041   1.325   0.719   6.572
 8714SOL    HW227042   1.459   0.736   6.480
 8715SOL     OW27043   4.907   0.813   0.885
 8715SOL    HW127044   4.862   0.879   0.945
 8715SOL    HW227045   4.907   0.847   0.791
 8716SOL     OW27046   0.602   0.261   1.213
 8716SOL    HW127047   0.592   0.190   1.143
 8716SOL    HW227048   0.514   0.308   1.225
 8717SOL     OW27049   3.682   3.159   3.693
 8717SOL    HW127050   3.690   3.249   3.736
 8717SOL    HW227051   3.700   3.167   3.595
 8718SOL     OW27052   0.640   3.989   4.618
 8718SOL    HW127053   0.665   3.944   4.532
 8718SOL    HW227054   0.695   4.072   4.629
 8719SOL     OW27055   2.657   0.126   6.262
 8719SOL    HW127056   2.756   0.135   6.270
 8719SOL    HW227057   2.621   0.204   6.211
 8720SOL     OW27058   6.215   5.283   5.815
 8720SOL    HW127059   6.218   5.358   5.881
 8720SOL    HW227060   6.180   5.317   5.728
 8721SOL     OW27061   6.813   2.482   2.803
 8721SOL    HW127062   6.718   2.474   2.832
 8721SOL    HW227063   6.871   2.507   2.881
 8722SOL     OW27064   3.762   1.449   6.229
 8722SOL    HW127065   3.798   1.375   6.286
 8722SOL    HW227066   3.675   1.481   6.268
 8723SOL     OW27067   4.998   5.707   1.554
 8723SOL    HW127068   5.011   5.718   1.455
 8723SOL    HW227069   4.900   5.700   1.574
 8724SOL     OW27070   5.708   0.195   6.110
 8724SOL    HW127071   5.765   0.216   6.190
 8724SOL    HW227072   5.702   0.276   6.052
 8725SOL     OW27073   2.051   0.125   7.008
 8725SOL    HW127074   1.976   0.064   0.017
 8725SOL    HW227075   2.015   0.207   6.963
 8726SOL     OW27076   6.420   0.069   1.945
 8726SOL    HW127077   6.394   0.098   1.853
 8726SOL    HW227078   6.403   6.987   1.956
 8727SOL     OW27079   0.415   6.224   2.185
 8727SOL    HW127080   0.479   6.259   2.117
 8727SOL    HW227081   0.391   6.129   2.161
 8728SOL     OW27082   4.154   0.413   4.302
 8728SOL    HW127083   4.059   0.386   4.319
 8728SOL    HW227084   4.215   0.348   4.347
 8729SOL     OW27085   4.830   6.246   3.987
 8729SOL    HW127086   4.822   6.222   3.890
 8729SOL    HW227087   4.785   6.176   4.042
 8730SOL     OW27088   6.506   4.112   2.391
 8730SOL    HW127089   6.565   4.032   2.404
 8730SOL    HW227090   6.430   4.088   2.331
 8731SOL     OW27091   2.014   2.686   2.770
 8731SOL    HW127092   1.954   2.731   2.704
 8731SOL    HW227093   2.108   2.689   2.738
 8732SOL     OW27094   5.664   4.280   1.980
 8732SOL    HW127095   5.638   4.377   1.973
 8732SOL    HW227096   5.603   4.234   2.045
 8733SOL     OW27097   2.311   5.473   1.558
 8733SOL    HW127098   2.212   5.468   1.569
 8733SOL    HW227099   2.348   5.380   1.553
 8734SOL     OW27100   1.488   4.530   2.244
 8734SOL    HW127101   1.535   4.470   2.179
 8734SOL    HW227102   1.442   4.474   2.313
 8735SOL     OW27103   1.350   1.779   0.203
 8735SOL    HW127104   1.418   1.745   0.137
 8735SOL    HW227105   1.354   1.879   0.206
 8736SOL     OW27106   0.639   6.062   5.927
 8736SOL    HW127107   0.612   6.078   5.832
 8736SOL    HW227108   0.588   6.123   5.987
 8737SOL     OW27109   2.569   6.267   6.058
 8737SOL    HW127110   2.605   6.250   6.149
 8737SOL    HW227111   2.541   6.363   6.050
 8738SOL     OW27112   1.982   5.479   4.206
 8738SOL    HW127113   1.950   5.386   4.227
 8738SOL    HW227114   1.951   5.542   4.277
 8739SOL     OW27115   5.600   5.406   6.246
 8739SOL    HW127116   5.611   5.409   6.146
 8739SOL    HW227117   5.659   5.335   6.284
 8740SOL     OW27118   5.186   0.854   5.230
 8740SOL    HW127119   5.174   0.890   5.137
 8740SOL    HW227120   5.224   0.925   5.288
 8741SOL     OW27121   2.817   1.356   1.484
 8741SOL    HW127122   2.914   1.365   1.505
 8741SOL    HW227123   2.806   1.333   1.387
 8742SOL     OW27124   5.769   6.362   1.752
 8742SOL    HW127125   5.806   6.325   1.837
 8742SOL    HW227126   5.821   6.443   1.724
 8743SOL     OW27127   1.810   0.486   2.249
 8743SOL    HW127128   1.882   0.481   2.317
 8743SOL    HW227129   1.840   0.543   2.172
 8744SOL     OW27130   3.827   2.688   5.977
 8744SOL    HW127131   3.884   2.769   5.992
 8744SOL    HW227132   3.734   2.717   5.953
 8745SOL     OW27133   6.008   3.187   6.218
 8745SOL    HW127134   5.936   3.187   6.149
 8745SOL    HW227135   6.096   3.171   6.174
 8746SOL     OW27136   5.083   3.644   4.972
 8746SOL    HW127137   5.122   3.714   5.031
 8746SOL    HW227138   4.985   3.658   4.962
 8747SOL     OW27139   0.048   2.154   2.508
 8747SOL    HW127140   0.135   2.123   2.547
 8747SOL    HW227141   0.016   2.235   2.558
 8748SOL     OW27142   0.111   1.584   5.363
 8748SOL    HW127143   0.209   1.571   5.353
 8748SOL    HW227144   0.080   1.653   5.298
 8749SOL     OW27145   2.557   0.239   6.488
 8749SOL    HW127146   2.625   0.299   6.529
 8749SOL    HW227147   2.600   0.186   6.415
 8750SOL     OW27148   2.849   3.737   5.513
 8750SOL    HW127149   2.801   3.658   5.474
 8750SOL    HW227150   2.920   3.768   5.450
 8751SOL     OW27151   6.626   0.232   2.774
 8751SOL    HW127152   6.529   0.233   2.751
 8751SOL    HW227153   6.670   0.155   2.727
 8752SOL     OW27154   2.424   4.723   0.145
 8752SOL    HW127155   2.336   4.733   0.099
 8752SOL    HW227156   2.444   4.806   0.197
 8753SOL     OW27157   4.999   1.447   5.106
 8753SOL    HW127158   5.046   1.530   5.138
 8753SOL    HW227159   4.904   1.468   5.087
 8754SOL     OW27160   1.193   2.330   4.841
 8754SOL    HW127161   1.225   2.290   4.755
 8754SOL    HW227162   1.097   2.307   4.855
 8755SOL     OW27163   2.470   0.807   0.304
 8755SOL    HW127164   2.421   0.803   0.391
 8755SOL    HW227165   2.529   0.888   0.302
 8756SOL     OW27166   2.246   2.996   3.564
 8756SOL    HW127167   2.218   2.907   3.528
 8756SOL    HW227168   2.332   2.984   3.616
 8757SOL     OW27169   4.607   6.417   5.616
 8757SOL    HW127170   4.703   6.430   5.640
 8757SOL    HW227171   4.562   6.362   5.686
 8758SOL     OW27172   4.359   6.840   2.074
 8758SOL    HW127173   4.297   6.768   2.103
 8758SOL    HW227174   4.415   6.870   2.152
 8759SOL     OW27175   3.692   2.214   0.362
 8759SOL    HW127176   3.748   2.281   0.313
 8759SOL    HW227177   3.604   2.205   0.317
 8760SOL     OW27178   1.429   1.924   5.258
 8760SOL    HW127179   1.479   2.000   5.215
 8760SOL    HW227180   1.386   1.869   5.187
 8761SOL     OW27181   4.785   1.752   2.373
 8761SOL    HW127182   4.808   1.703   2.457
 8761SOL    HW227183   4.694   1.723   2.342
 8762SOL     OW27184   0.713   4.344   1.792
 8762SOL    HW127185   0.619   4.327   1.822
 8762SOL    HW227186   0.751   4.261   1.752
 8763SOL     OW27187   5.992   6.166   6.130
 8763SOL    HW127188   5.954   6.247   6.087
 8763SOL    HW227189   5.962   6.161   6.225
 8764SOL     OW27190   4.874   0.971   4.508
 8764SOL    HW127191   4.850   0.889   4.457
 8764SOL    HW227192   4.958   1.010   4.471
 8765SOL     OW27193   6.319   6.395   5.400
 8765SOL    HW127194   6.277   6.485   5.412
 8765SOL    HW227195   6.403   6.405   5.346
 8766SOL     OW27196   4.543   4.463   3.451
 8766SOL    HW127197   4.569   4.425   3.539
 8766SOL    HW227198   4.478   4.537   3.465
 8767SOL     OW27199   4.010   6.932   3.147
 8767SOL    HW127200   4.047   6.952   3.238
 8767SOL    HW227201   3.929   6.873   3.156
 8768SOL     OW27202   1.038   2.966   0.882
 8768SOL    HW127203   1.113   2.939   0.822
 8768SOL    HW227204   0.951   2.956   0.835
 8769SOL     OW27205   1.344   6.696   4.383
 8769SOL    HW127206   1.267   6.669   4.325
 8769SOL    HW227207   1.401   6.762   4.335
 8770SOL     OW27208   5.415   3.641   2.055
 8770SOL    HW127209   5.406   3.612   2.150
 8770SOL    HW227210   5.429   3.561   1.996
 8771SOL     OW27211   0.956   0.375   6.494
 8771SOL    HW127212   0.873   0.330   6.527
 8771SOL    HW227213   0.972   0.458   6.547
 8772SOL     OW27214   4.907   6.183   6.911
 8772SOL    HW127215   4.831   6.143   6.859
 8772SOL    HW227216   4.932   6.271   6.870
 8773SOL     OW27217   4.435   2.479   3.802
 8773SOL    HW127218   4.480   2.396   3.834
 8773SOL    HW227219   4.341   2.458   3.775
 8774SOL     OW27220   1.950   1.583   6.972
 8774SOL    HW127221   2.039   1.545   6.948
 8774SOL    HW227222   1.940   1.585   0.056
 8775SOL     OW27223   6.602   0.433   4.898
 8775SOL    HW127224   6.513   0.415   4.856
 8775SOL    HW227225   6.657   0.489   4.836
 8776SOL     OW27226   3.811   3.645   4.919
 8776SOL    HW127227   3.843   3.669   4.827
 8776SOL    HW227228   3.861   3.698   4.987
 8777SOL     OW27229   0.071   3.788   1.130
 8777SOL    HW127230   7.005   3.844   1.121
 8777SOL    HW227231   0.133   3.808   1.054
 8778SOL     OW27232   6.080   1.963   4.557
 8778SOL    HW127233   6.149   1.989   4.624
 8778SOL    HW227234   6.049   2.044   4.507
 8779SOL     OW27235   3.144   5.119   2.281
 8779SOL    HW127236   3.086   5.147   2.205
 8779SOL    HW227237   3.140   5.019   2.291
 8780SOL     OW27238   1.001   5.521   3.214
 8780SOL    HW127239   0.911   5.512   3.170
 8780SOL    HW227240   0.994   5.585   3.291
 8781SOL     OW27241   6.336   1.883   3.470
 8781SOL    HW127242   6.334   1.784   3.486
 8781SOL    HW227243   6.250   1.923   3.502
 8782SOL     OW27244   5.211   6.863   2.061
 8782SOL    HW127245   5.255   6.943   2.103
 8782SOL    HW227246   5.144   6.824   2.124
 8783SOL     OW27247   6.367   3.747   3.399
 8783SOL    HW127248   6.293   3.808   3.431
 8783SOL    HW227249   6.403   3.696   3.477
 8784SOL     OW27250   5.803   4.191   6.454
 8784SOL    HW127251   5.732   4.258   6.477
 8784SOL    HW227252   5.801   4.117   6.521
 8785SOL     OW27253   6.729   3.383   6.488
 8785SOL    HW127254   6.768   3.295   6.515
 8785SOL    HW227255   6.801   3.451   6.481
 8786SOL     OW27256   2.121   6.794   0.507
 8786SOL    HW127257   2.212   6.780   0.546
 8786SOL    HW227258   2.113   6.889   0.476
 8787SOL     OW27259   2.299   2.841   1.823
 8787SOL    HW127260   2.297   2.741   1.817
 8787SOL    HW227261   2.246   2.880   1.748
 8788SOL     OW27262   0.260   2.425   5.515
 8788SOL    HW127263   0.303   2.502   5.564
 8788SOL    HW227264   0.180   2.458   5.466
 8789SOL     OW27265   6.347   0.068   5.749
 8789SOL    HW127266   6.253   0.066   5.783
 8789SOL    HW227267   6.375   6.991   5.722
 8790SOL     OW27268   0.046   0.768   6.680
 8790SOL    HW127269   6.968   0.803   6.677
 8790SOL    HW227270   0.078   0.749   6.587
 8791SOL     OW27271   5.886   6.965   4.960
 8791SOL    HW127272   5.818   6.892   4.951
 8791SOL    HW227273   5.965   6.932   5.011
 8792SOL     OW27274   3.173   6.261   3.531
 8792SOL    HW127275   3.104   6.317   3.486
 8792SOL    HW227276   3.137   6.168   3.545
 8793SOL     OW27277   0.878   5.099   3.841
 8793SOL    HW127278   0.840   5.123   3.930
 8793SOL    HW227279   0.944   5.169   3.813
 8794SOL     OW27280   4.084   6.675   1.725
 8794SOL    HW127281   4.121   6.751   1.778
 8794SOL    HW227282   4.116   6.681   1.631
 8795SOL     OW27283   1.080   6.822   5.066
 8795SOL    HW127284   1.151   6.810   5.135
 8795SOL    HW227285   0.990   6.810   5.108
 8796SOL     OW27286   4.209   1.457   4.676
 8796SOL    HW127287   4.244   1.550   4.666
 8796SOL    HW227288   4.272   1.393   4.634
 8797SOL     OW27289   0.751   0.278   5.148
 8797SOL    HW127290   0.829   0.226   5.182
 8797SOL    HW227291   0.739   0.360   5.204
 8798SOL     OW27292   4.828   5.246   5.696
 8798SOL    HW127293   4.839   5.152   5.728
 8798SOL    HW227294   4.736   5.278   5.719
 8799SOL     OW27295   1.805   4.411   3.520
 8799SOL    HW127296   1.759   4.407   3.608
 8799SOL    HW227297   1.903   4.428   3.534
 8800SOL     OW27298   6.142   4.463   5.434
 8800SOL    HW127299   6.103   4.526   5.501
 8800SOL    HW227300   6.098   4.475   5.346
 8801SOL     OW27301   0.824   1.378   4.813
 8801SOL    HW127302   0.827   1.448   4.884
 8801SOL    HW227303   0.769   1.410   4.737
 8802SOL     OW27304   1.626   0.138   1.050
 8802SOL    HW127305   1.670   0.137   1.140
 8802SOL    HW227306   1.533   0.174   1.059
 8803SOL     OW27307   0.177   5.245   6.240
 8803SOL    HW127308   0.091   5.242   6.189
 8803SOL    HW227309   0.209   5.340   6.246
 8804SOL     OW27310   3.528   0.791   2.305
 8804SOL    HW127311   3.591   0.868   2.301
 8804SOL    HW227312   3.480   0.792   2.392
 8805SOL     OW27313   2.919   0.177   4.498
 8805SOL    HW127314   2.864   0.243   4.447
 8805SOL    HW227315   3.000   0.152   4.445
 8806SOL     OW27316   2.376   5.036   2.142
 8806SOL    HW127317   2.425   5.076   2.065
 8806SOL    HW227318   2.308   4.971   2.108
 8807SOL     OW27319   5.278   0.116   6.382
 8807SOL    HW127320   5.184   0.091   6.361
 8807SOL    HW227321   5.339   0.078   6.313
 8808SOL     OW27322   5.430   2.414   0.327
 8808SOL    HW127323   5.446   2.326   0.372
 8808SOL    HW227324   5.404   2.482   0.396
 8809SOL     OW27325   4.729   4.985   3.481
 8809SOL    HW127326   4.772   4.894   3.489
 8809SOL    HW227327   4.638   4.975   3.442
 8810SOL     OW27328   5.808   0.622   6.354
 8810SOL    HW127329   5.738   0.551   6.352
 8810SOL    HW227330   5.828   0.646   6.449
 8811SOL     OW27331   2.585   1.314   3.817
 8811SOL    HW127332   2.663   1.328   3.756
 8811SOL    HW227333   2.572   1.396   3.873
 8812SOL     OW27334   2.084   6.938   1.395
 8812SOL    HW127335   2.166   6.961   1.447
 8812SOL    HW227336   2.051   0.004   1.348
 8813SOL     OW27337   1.382   4.494   1.500
 8813SOL    HW127338   1.462   4.546   1.472
 8813SOL    HW227339   1.309   4.558   1.528
 8814SOL     OW27340   5.634   0.402   0.629
 8814SOL    HW127341   5.578   0.466   0.577
 8814SOL    HW227342   5.731   0.425   0.618
 8815SOL     OW27343   6.742   6.206   1.094
 8815SOL    HW127344   6.696   6.128   1.136
 8815SOL    HW227345   6.680   6.283   1.090
 8816SOL     OW27346   1.489   0.841   0.456
 8816SOL    HW127347   1.504   0.806   0.549
 8816SOL    HW227348   1.556   0.912   0.435
 8817SOL     OW27349   0.842   6.228   5.261
 8817SOL    HW127350   0.867   6.225   5.165
 8817SOL    HW227351   0.842   6.135   5.299
 8818SOL     OW27352   0.565   3.711   4.530
 8818SOL    HW127353   0.605   3.707   4.439
 8818SOL    HW227354   0.522   3.623   4.551
 8819SOL     OW27355   5.094   4.768   4.793
 8819SOL    HW127356   5.180   4.735   4.753
 8819SOL    HW227357   5.084   4.731   4.886
 8820SOL     OW27358   2.137   1.187   5.121
 8820SOL    HW127359   2.076   1.152   5.192
 8820SOL    HW227360   2.115   1.144   5.034
 8821SOL     OW27361   2.904   6.282   0.225
 8821SOL    HW127362   2.834   6.231   0.174
 8821SOL    HW227363   2.945   6.222   0.294
 8822SOL     OW27364   0.668   0.286   4.896
 8822SOL    HW127365   0.691   0.273   4.992
 8822SOL    HW227366   0.751   0.311   4.845
 8823SOL     OW27367   2.238   0.867   1.198
 8823SOL    HW127368   2.321   0.922   1.212
 8823SOL    HW227369   2.225   0.851   1.100
 8824SOL     OW27370   0.970   3.581   1.318
 8824SOL    HW127371   0.916   3.663   1.334
 8824SOL    HW227372   1.048   3.580   1.380
 8825SOL     OW27373   1.577   0.493   3.194
 8825SOL    HW127374   1.578   0.591   3.212
 8825SOL    HW227375   1.668   0.455   3.211
 8826SOL     OW27376   6.517   3.031   0.676
 8826SOL    HW127377   6.598   2.996   0.629
 8826SOL    HW227378   6.443   2.965   0.669
 8827SOL     OW27379   3.591   1.019   3.320
 8827SOL    HW127380   3.617   0.969   3.403
 8827SOL    HW227381   3.497   1.053   3.330
 8828SOL     OW27382   4.371   5.349   5.179
 8828SOL    HW127383   4.355   5.277   5.112
 8828SOL    HW227384   4.356   5.438   5.137
 8829SOL     OW27385   6.623   2.261   0.417
 8829SOL    HW127386   6.540   2.311   0.390
 8829SOL    HW227387   6.607   2.218   0.507
 8830SOL     OW27388   0.541   1.662   2.180
 8830SOL    HW127389   0.459   1.720   2.183
 8830SOL    HW227390   0.576   1.659   2.086
 8831SOL     OW27391   5.257   1.215   3.959
 8831SOL    HW127392   5.306   1.131   3.983
 8831SOL    HW227393   5.176   1.224   4.017
 8832SOL     OW27394   0.005   6.031   2.849
 8832SOL    HW127395   6.975   6.065   2.932
 8832SOL    HW227396   0.012   5.931   2.854
 8833SOL     OW27397   2.620   6.140   5.791
 8833SOL    HW127398   2.573   6.184   5.867
 8833SOL    HW227399   2.557   6.078   5.744
 8834SOL     OW27400   5.398   3.384   4.591
 8834SOL    HW127401   5.345   3.434   4.660
 8834SOL    HW227402   5.365   3.290   4.586
 8835SOL     OW27403   5.926   1.015   6.211
 8835SOL    HW127404   6.006   1.063   6.174
 8835SOL    HW227405   5.926   1.023   6.310
 8836SOL     OW27406   4.499   2.325   6.925
 8836SOL    HW127407   4.563   2.248   6.935
 8836SOL    HW227408   4.438   2.307   6.848
 8837SOL     OW27409   0.300   6.249   3.505
 8837SOL    HW127410   0.319   6.168   3.560
 8837SOL    HW227411   0.294   6.223   3.408
 8838SOL     OW27412   2.510   4.534   3.042
 8838SOL    HW127413   2.452   4.455   3.063
 8838SOL    HW227414   2.453   4.612   3.018
 8839SOL     OW27415   5.378   5.148   2.940
 8839SOL    HW127416   5.474   5.177   2.938
 8839SOL    HW227417   5.350   5.133   3.035
 8840SOL     OW27418   6.919   1.950   1.643
 8840SOL    HW127419   6.985   1.875   1.640
 8840SOL    HW227420   6.963   2.033   1.675
 8841SOL     OW27421   0.647   0.391   5.552
 8841SOL    HW127422   0.602   0.428   5.471
 8841SOL    HW227423   0.654   0.463   5.622
 8842SOL     OW27424   3.307   2.918   2.081
 8842SOL    HW127425   3.400   2.901   2.112
 8842SOL    HW227426   3.285   2.858   2.004
 8843SOL     OW27427   1.926   3.454   5.523
 8843SOL    HW127428   1.873   3.402   5.456
 8843SOL    HW227429   2.019   3.469   5.488
 8844SOL     OW27430   5.939   2.344   6.521
 8844SOL    HW127431   5.969   2.394   6.603
 8844SOL    HW227432   5.999   2.367   6.444
 8845SOL     OW27433   3.873   3.737   0.208
 8845SOL    HW127434   3.872   3.671   0.133
 8845SOL    HW227435   3.889   3.689   0.294
 8846SOL     OW27436   3.264   5.854   3.703
 8846SOL    HW127437   3.363   5.857   3.720
 8846SOL    HW227438   3.228   5.767   3.737
 8847SOL     OW27439   2.810   1.693   2.986
 8847SOL    HW127440   2.800   1.597   3.013
 8847SOL    HW227441   2.809   1.751   3.067
 8848SOL     OW27442   2.384   0.752   1.910
 8848SOL    HW127443   2.329   0.835   1.894
 8848SOL    HW227444   2.401   0.707   1.822
 8849SOL     OW27445   3.534   6.134   2.824
 8849SOL    HW127446   3.615   6.188   2.802
 8849SOL    HW227447   3.544   6.042   2.786
 8850SOL     OW27448   1.390   2.461   0.198
 8850SOL    HW127449   1.408   2.554   0.232
 8850SOL    HW227450   1.294   2.439   0.212
 8851SOL     OW27451   1.296   4.182   3.064
 8851SOL    HW127452   1.253   4.117   3.126
 8851SOL    HW227453   1.394   4.164   3.058
 8852SOL     OW27454   0.547   2.028   4.883
 8852SOL    HW127455   0.511   1.971   4.809
 8852SOL    HW227456   0.603   2.101   4.844
 8853SOL     OW27457   2.785   0.679   1.808
 8853SOL    HW127458   2.715   0.623   1.852
 8853SOL    HW227459   2.874   0.634   1.816
 8854SOL     OW27460   2.284   2.519   5.576
 8854SOL    HW127461   2.370   2.523   5.525
 8854SOL    HW227462   2.212   2.483   5.517
 8855SOL     OW27463   6.492   4.972   1.288
 8855SOL    HW127464   6.504   4.882   1.245
 8855SOL    HW227465   6.577   5.025   1.278
 8856SOL     OW27466   0.920   6.384   6.458
 8856SOL    HW127467   0.936   6.479   6.486
 8856SOL    HW227468   1.006   6.332   6.466
 8857SOL     OW27469   6.191   1.572   4.181
 8857SOL    HW127470   6.184   1.664   4.220
 8857SOL    HW227471   6.279   1.563   4.133
 8858SOL     OW27472   0.083   3.804   4.533
 8858SOL    HW127473   0.015   3.742   4.493
 8858SOL    HW227474   0.040   3.892   4.551
 8859SOL     OW27475   1.137   1.268   4.241
 8859SOL    HW127476   1.117   1.242   4.336
 8859SOL    HW227477   1.194   1.198   4.199
 8860SOL     OW27478   6.773   2.313   1.330
 8860SOL    HW127479   6.852   2.318   1.270
 8860SOL    HW227480   6.780   2.232   1.388
 8861SOL     OW27481   3.752   1.113   5.831
 8861SOL    HW127482   3.704   1.167   5.900
 8861SOL    HW227483   3.804   1.174   5.772
 8862SOL     OW27484   5.623   6.773   3.720
 8862SOL    HW127485   5.606   6.788   3.623
 8862SOL    HW227486   5.655   6.679   3.734
 8863SOL     OW27487   2.875   4.817   3.651
 8863SOL    HW127488   2.852   4.802   3.747
 8863SOL    HW227489   2.800   4.785   3.593
 8864SOL     OW27490   3.528   4.566   6.256
 8864SOL    HW127491   3.462   4.541   6.326
 8864SOL    HW227492   3.567   4.656   6.278
 8865SOL     OW27493   2.898   1.068   4.663
 8865SOL    HW127494   2.830   1.140   4.678
 8865SOL    HW227495   2.969   1.073   4.734
 8866SOL     OW27496   5.741   6.807   2.949
 8866SOL    HW127497   5.709   6.899   2.929
 8866SOL    HW227498   5.727   6.749   2.869
 8867SOL     OW27499   5.751   4.632   3.792
 8867SOL    HW127500   5.826   4.691   3.762
 8867SOL    HW227501   5.693   4.682   3.857
 8868SOL     OW27502   6.933   2.968   2.204
 8868SOL    HW127503   6.978   2.934   2.121
 8868SOL    HW227504   6.977   2.929   2.285
 8869SOL     OW27505   4.112   6.097   5.355
 8869SOL    HW127506   4.116   6.012   5.302
 8869SOL    HW227507   4.028   6.099   5.409
 8870SOL     OW27508   2.131   6.570   2.078
 8870SOL    HW127509   2.130   6.649   2.017
 8870SOL    HW227510   2.167   6.597   2.168
 8871SOL     OW27511   2.127   0.245   3.403
 8871SOL    HW127512   2.112   0.338   3.369
 8871SOL    HW227513   2.068   0.229   3.482
 8872SOL     OW27514   1.478   4.889   5.868
 8872SOL    HW127515   1.501   4.934   5.782
 8872SOL    HW227516   1.526   4.935   5.943
 8873SOL     OW27517   2.304   0.082   2.228
 8873SOL    HW127518   2.251   0.167   2.223
 8873SOL    HW227519   2.247   0.010   2.268
 8874SOL     OW27520   2.348   5.849   2.393
 8874SOL    HW127521   2.359   5.819   2.488
 8874SOL    HW227522   2.382   5.777   2.332
 8875SOL     OW27523   6.685   3.482   4.614
 8875SOL    HW127524   6.589   3.483   4.586
 8875SOL    HW227525   6.712   3.574   4.641
 8876SOL     OW27526   2.551   0.846   6.001
 8876SOL    HW127527   2.571   0.782   6.075
 8876SOL    HW227528   2.637   0.886   5.969
 8877SOL     OW27529   2.081   2.534   4.093
 8877SOL    HW127530   1.983   2.538   4.078
 8877SOL    HW227531   2.116   2.627   4.109
 8878SOL     OW27532   3.646   5.175   1.397
 8878SOL    HW127533   3.571   5.172   1.463
 8878SOL    HW227534   3.688   5.266   1.398
 8879SOL     OW27535   4.713   4.945   2.421
 8879SOL    HW127536   4.753   4.856   2.398
 8879SOL    HW227537   4.720   4.960   2.520
 8880SOL     OW27538   3.945   6.589   4.748
 8880SOL    HW127539   4.034   6.587   4.793
 8880SOL    HW227540   3.957   6.600   4.650
 8881SOL     OW27541   5.329   5.794   4.529
 8881SOL    HW127542   5.311   5.876   4.475
 8881SOL    HW227543   5.316   5.713   4.472
 8882SOL     OW27544   4.890   1.174   1.280
 8882SOL    HW127545   4.840   1.124   1.350
 8882SOL    HW227546   4.988   1.173   1.302
 8883SOL     OW27547   1.980   6.528   6.328
 8883SOL    HW127548   1.895   6.476   6.320
 8883SOL    HW227549   1.959   6.624   6.342
 8884SOL     OW27550   5.811   3.581   5.868
 8884SOL    HW127551   5.911   3.581   5.878
 8884SOL    HW227552   5.769   3.606   5.955
 8885SOL     OW27553   4.622   4.800   0.535
 8885SOL    HW127554   4.597   4.754   0.620
 8885SOL    HW227555   4.699   4.861   0.551
 8886SOL     OW27556   3.259   5.715   5.721
 8886SOL    HW127557   3.277   5.773   5.642
 8886SOL    HW227558   3.174   5.665   5.706
 8887SOL     OW27559   4.127   0.967   0.670
 8887SOL    HW127560   4.132   0.867   0.669
 8887SOL    HW227561   4.183   1.004   0.595
 8888SOL     OW27562   2.079   1.882   5.016
 8888SOL    HW127563   2.096   1.968   4.967
 8888SOL    HW227564   2.153   1.818   4.997
 8889SOL     OW27565   6.456   6.704   6.936
 8889SOL    HW127566   6.505   6.763   6.872
 8889SOL    HW227567   6.496   6.613   6.935
 8890SOL     OW27568   0.399   5.775   5.723
 8890SOL    HW127569   0.373   5.817   5.811
 8890SOL    HW227570   0.455   5.839   5.671
 8891SOL     OW27571   3.723   3.848   0.432
 8891SOL    HW127572   3.750   3.800   0.349
 8891SOL    HW227573   3.708   3.783   0.506
 8892SOL     OW27574   3.508   5.003   3.300
 8892SOL    HW127575   3.574   5.031   3.230
 8892SOL    HW227576   3.546   5.022   3.391
 8893SOL     OW27577   1.046   5.122   4.820
 8893SOL    HW127578   0.946   5.113   4.821
 8893SOL    HW227579   1.078   5.131   4.726
 8894SOL     OW27580   3.297   2.058   6.948
 8894SOL    HW127581   3.236   2.032   0.007
 8894SOL    HW227582   3.345   1.977   6.915
 8895SOL     OW27583   6.748   2.086   1.475
 8895SOL    HW127584   6.653   2.102   1.503
 8895SOL    HW227585   6.795   2.033   1.545
 8896SOL     OW27586   2.089   3.151   4.684
 8896SOL    HW127587   2.096   3.185   4.778
 8896SOL    HW227588   2.097   3.052   4.684
 8897SOL     OW27589   2.221   2.343   3.655
 8897SOL    HW127590   2.232   2.323   3.752
 8897SOL    HW227591   2.289   2.411   3.627
 8898SOL     OW27592   5.218   3.307   1.951
 8898SOL    HW127593   5.196   3.316   2.048
 8898SOL    HW227594   5.178   3.223   1.916
 8899SOL     OW27595   1.617   4.384   0.310
 8899SOL    HW127596   1.683   4.414   0.241
 8899SOL    HW227597   1.524   4.399   0.276
 8900SOL     OW27598   5.152   3.239   3.019
 8900SOL    HW127599   5.228   3.188   3.058
 8900SOL    HW227600   5.066   3.197   3.047
 8901SOL     OW27601   0.703   1.304   4.179
 8901SOL    HW127602   0.753   1.244   4.117
 8901SOL    HW227603   0.640   1.362   4.127
 8902SOL     OW27604   1.136   5.675   6.983
 8902SOL    HW127605   1.233   5.691   7.003
 8902SOL    HW227606   1.080   5.726   0.033
 8903SOL     OW27607   0.553   2.089   4.264
 8903SOL    HW127608   0.569   2.093   4.165
 8903SOL    HW227609   0.523   2.178   4.296
 8904SOL     OW27610   0.448   0.999   4.661
 8904SOL    HW127611   0.447   0.904   4.691
 8904SOL    HW227612   0.450   1.003   4.561
 8905SOL     OW27613   2.017   3.220   2.675
 8905SOL    HW127614   1.980   3.273   2.598
 8905SOL    HW227615   2.098   3.170   2.645
 8906SOL     OW27616   0.971   6.385   1.532
 8906SOL    HW127617   0.987   6.458   1.465
 8906SOL    HW227618   0.897   6.327   1.501
 8907SOL     OW27619   3.386   2.973   5.829
 8907SOL    HW127620   3.311   3.029   5.864
 8907SOL    HW227621   3.355   2.925   5.746
 8908SOL     OW27622   1.867   6.039   0.353
 8908SOL    HW127623   1.939   5.978   0.387
 8908SOL    HW227624   1.778   5.994   0.363
 8909SOL     OW27625   2.908   1.203   6.025
 8909SOL    HW127626   2.935   1.297   6.046
 8909SOL    HW227627   2.964   1.139   6.079
 8910SOL     OW27628   0.639   2.930   5.292
 8910SOL    HW127629   0.583   2.959   5.215
 8910SOL    HW227630   0.629   2.831   5.305
 8911SOL     OW27631   4.930   3.500   4.757
 8911SOL    HW127632   4.891   3.525   4.846
 8911SOL    HW227633   4.978   3.579   4.719
 8912SOL     OW27634   2.476   3.155   6.204
 8912SOL    HW127635   2.566   3.194   6.225
 8912SOL    HW227636   2.444   3.192   6.117
 8913SOL     OW27637   4.252   5.319   6.688
 8913SOL    HW127638   4.171   5.367   6.657
 8913SOL    HW227639   4.225   5.236   6.737
 8914SOL     OW27640   4.787   0.482   4.794
 8914SOL    HW127641   4.879   0.519   4.783
 8914SOL    HW227642   4.793   0.387   4.828
 8915SOL     OW27643   1.515   2.183   3.918
 8915SOL    HW127644   1.444   2.225   3.862
 8915SOL    HW227645   1.472   2.133   3.994
 8916SOL     OW27646   6.813   2.739   6.916
 8916SOL    HW127647   6.889   2.776   6.968
 8916SOL    HW227648   6.750   2.691   6.977
 8917SOL     OW27649   5.703   2.691   0.784
 8917SOL    HW127650   5.634   2.757   0.813
 8917SOL    HW227651   5.699   2.611   0.844
 8918SOL     OW27652   1.103   4.916   0.698
 8918SOL    HW127653   1.113   5.000   0.750
 8918SOL    HW227654   1.028   4.861   0.736
 8919SOL     OW27655   5.099   4.460   6.971
 8919SOL    HW127656   5.020   4.521   6.984
 8919SOL    HW227657   5.066   4.367   6.955
 8920SOL     OW27658   0.133   2.342   0.136
 8920SOL    HW127659   0.125   2.250   0.097
 8920SOL    HW227660   0.125   2.410   0.064
 8921SOL     OW27661   1.812   3.062   2.642
 8921SOL    HW127662   1.819   2.974   2.595
 8921SOL    HW227663   1.903   3.095   2.667
 8922SOL     OW27664   3.921   5.647   2.223
 8922SOL    HW127665   3.946   5.692   2.137
 8922SOL    HW227666   3.991   5.579   2.246
 8923SOL     OW27667   1.543   1.379   6.580
 8923SOL    HW127668   1.479   1.452   6.606
 8923SOL    HW227669   1.636   1.415   6.580
 8924SOL     OW27670   3.959   5.325   5.234
 8924SOL    HW127671   3.954   5.235   5.190
 8924SOL    HW227672   3.986   5.313   5.330
 8925SOL     OW27673   0.661   1.132   2.421
 8925SOL    HW127674   0.610   1.144   2.506
 8925SOL    HW227675   0.749   1.177   2.428
 8926SOL     OW27676   7.006   3.092   5.655
 8926SOL    HW127677   0.086   3.078   5.630
 8926SOL    HW227678   6.959   3.003   5.659
 8927SOL     OW27679   6.122   1.090   4.140
 8927SOL    HW127680   6.151   1.171   4.088
 8927SOL    HW227681   6.186   1.015   4.123
 8928SOL     OW27682   1.417   0.438   6.099
 8928SOL    HW127683   1.490   0.499   6.129
 8928SOL    HW227684   1.433   0.346   6.137
 8929SOL     OW27685   5.768   2.078   5.046
 8929SOL    HW127686   5.754   2.052   5.141
 8929SOL    HW227687   5.866   2.087   5.028
 8930SOL     OW27688   1.067   2.782   3.553
 8930SOL    HW127689   0.981   2.793   3.503
 8930SOL    HW227690   1.056   2.710   3.622
 8931SOL     OW27691   3.210   3.767   1.150
 8931SOL    HW127692   3.254   3.823   1.079
 8931SOL    HW227693   3.167   3.688   1.107
 8932SOL     OW27694   6.220   2.207   2.299
 8932SOL    HW127695   6.156   2.264   2.350
 8932SOL    HW227696   6.234   2.121   2.347
 8933SOL     OW27697   2.534   2.716   6.054
 8933SOL    HW127698   2.557   2.632   6.005
 8933SOL    HW227699   2.617   2.771   6.066
 8934SOL     OW27700   2.753   5.370   4.600
 8934SOL    HW127701   2.817   5.332   4.666
 8934SOL    HW227702   2.798   5.376   4.510
 8935SOL     OW27703   0.706   4.437   0.217
 8935SOL    HW127704   0.610   4.437   0.243
 8935SOL    HW227705   0.739   4.343   0.210
 8936SOL     OW27706   1.707   4.329   1.739
 8936SOL    HW127707   1.609   4.333   1.758
 8936SOL    HW227708   1.722   4.288   1.649
 8937SOL     OW27709   0.536   0.209   5.752
 8937SOL    HW127710   0.599   0.245   5.821
 8937SOL    HW227711   0.539   0.268   5.671
 8938SOL     OW27712   0.210   5.762   0.832
 8938SOL    HW127713   0.124   5.812   0.837
 8938SOL    HW227714   0.236   5.749   0.736
 8939SOL     OW27715   5.055   2.741   4.046
 8939SOL    HW127716   5.070   2.769   4.141
 8939SOL    HW227717   4.961   2.764   4.019
 8940SOL     OW27718   0.332   1.402   2.546
 8940SOL    HW127719   0.290   1.312   2.559
 8940SOL    HW227720   0.341   1.421   2.448
 8941SOL     OW27721   6.349   2.561   5.290
 8941SOL    HW127722   6.294   2.638   5.324
 8941SOL    HW227723   6.358   2.569   5.190
 8942SOL     OW27724   6.809   4.543   5.062
 8942SOL    HW127725   6.777   4.570   5.153
 8942SOL    HW227726   6.873   4.466   5.072
 8943SOL     OW27727   3.538   4.275   6.174
 8943SOL    HW127728   3.614   4.262   6.111
 8943SOL    HW227729   3.501   4.367   6.164
 8944SOL     OW27730   5.280   4.725   5.222
 8944SOL    HW127731   5.301   4.749   5.317
 8944SOL    HW227732   5.343   4.655   5.190
 8945SOL     OW27733   0.654   0.606   3.186
 8945SOL    HW127734   0.664   0.644   3.094
 8945SOL    HW227735   0.582   0.654   3.235
 8946SOL     OW27736   3.195   1.233   5.265
 8946SOL    HW127737   3.280   1.281   5.288
 8946SOL    HW227738   3.119   1.298   5.267
 8947SOL     OW27739   1.970   3.425   5.186
 8947SOL    HW127740   1.972   3.524   5.200
 8947SOL    HW227741   2.043   3.382   5.240
 8948SOL     OW27742   6.475   6.623   4.203
 8948SOL    HW127743   6.512   6.535   4.232
 8948SOL    HW227744   6.533   6.662   4.132
 8949SOL     OW27745   2.590   7.011   1.195
 8949SOL    HW127746   2.673   7.004   1.141
 8949SOL    HW227747   2.588   6.938   1.263
 8950SOL     OW27748   4.647   3.871   6.426
 8950SOL    HW127749   4.651   3.845   6.330
 8950SOL    HW227750   4.619   3.966   6.435
 8951SOL     OW27751   0.592   2.099   5.153
 8951SOL    HW127752   0.587   2.058   5.243
 8951SOL    HW227753   0.574   2.030   5.083
 8952SOL     OW27754   1.446   6.879   2.359
 8952SOL    HW127755   1.442   6.963   2.414
 8952SOL    HW227756   1.487   6.806   2.414
 8953SOL     OW27757   1.453   4.449   6.694
 8953SOL    HW127758   1.443   4.475   6.790
 8953SOL    HW227759   1.539   4.486   6.659
 8954SOL     OW27760   0.746   0.010   6.251
 8954SOL    HW127761   0.779   0.104   6.238
 8954SOL    HW227762   0.823   6.963   6.256
 8955SOL     OW27763   0.277   5.135   2.246
 8955SOL    HW127764   0.187   5.111   2.283
 8955SOL    HW227765   0.348   5.096   2.304
 8956SOL     OW27766   0.827   1.877   6.489
 8956SOL    HW127767   0.912   1.929   6.484
 8956SOL    HW227768   0.816   1.820   6.408
 8957SOL     OW27769   2.853   4.083   1.649
 8957SOL    HW127770   2.928   4.057   1.710
 8957SOL    HW227771   2.871   4.174   1.611
 8958SOL     OW27772   0.221   0.582   4.849
 8958SOL    HW127773   0.294   0.524   4.813
 8958SOL    HW227774   0.171   0.624   4.773
 8959SOL     OW27775   1.833   4.946   1.632
 8959SOL    HW127776   1.750   4.941   1.688
 8959SOL    HW227777   1.856   5.042   1.615
 8960SOL     OW27778   4.235   5.261   2.839
 8960SOL    HW127779   4.282   5.322   2.903
 8960SOL    HW227780   4.137   5.281   2.839
 8961SOL     OW27781   2.735   1.855   4.699
 8961SOL    HW127782   2.720   1.852   4.600
 8961SOL    HW227783   2.707   1.944   4.734
 8962SOL     OW27784   6.721   6.423   2.051
 8962SOL    HW127785   6.811   6.380   2.052
 8962SOL    HW227786   6.731   6.521   2.033
 8963SOL     OW27787   5.333   6.608   4.255
 8963SOL    HW127788   5.315   6.619   4.353
 8963SOL    HW227789   5.313   6.693   4.207
 8964SOL     OW27790   4.851   3.682   3.204
 8964SOL    HW127791   4.885   3.633   3.124
 8964SOL    HW227792   4.870   3.628   3.287
 8965SOL     OW27793   2.513   4.747   0.556
 8965SOL    HW127794   2.493   4.654   0.588
 8965SOL    HW227795   2.602   4.776   0.592
 8966SOL     OW27796   6.836   3.852   5.968
 8966SOL    HW127797   6.916   3.813   5.924
 8966SOL    HW227798   6.756   3.838   5.911
 8967SOL     OW27799   3.541   0.058   2.021
 8967SOL    HW127800   3.443   0.052   2.000
 8967SOL    HW227801   3.556   0.033   2.116
 8968SOL     OW27802   5.019   5.052   3.157
 8968SOL    HW127803   4.956   5.111   3.207
 8968SOL    HW227804   4.994   4.956   3.171
 8969SOL     OW27805   6.735   1.126   4.372
 8969SOL    HW127806   6.786   1.103   4.454
 8969SOL    HW227807   6.740   1.049   4.307
 8970SOL     OW27808   2.779   3.252   0.018
 8970SOL    HW127809   2.683   3.281   0.024
 8970SOL    HW227810   2.786   3.156   0.047
 8971SOL     OW27811   5.049   5.249   2.290
 8971SOL    HW127812   4.975   5.183   2.277
 8971SOL    HW227813   5.098   5.261   2.203
 8972SOL     OW27814   4.588   4.220   6.705
 8972SOL    HW127815   4.513   4.285   6.709
 8972SOL    HW227816   4.589   4.175   6.616
 8973SOL     OW27817   1.207   3.378   2.299
 8973SOL    HW127818   1.209   3.472   2.266
 8973SOL    HW227819   1.215   3.377   2.398
 8974SOL     OW27820   1.975   4.509   5.878
 8974SOL    HW127821   1.983   4.605   5.852
 8974SOL    HW227822   1.893   4.470   5.838
 8975SOL     OW27823   2.022   0.096   6.549
 8975SOL    HW127824   2.040   0.040   6.629
 8975SOL    HW227825   2.089   0.170   6.543
 8976SOL     OW27826   0.307   4.764   4.966
 8976SOL    HW127827   0.311   4.852   5.014
 8976SOL    HW227828   0.215   4.727   4.972
 8977SOL     OW27829   5.894   1.979   6.874
 8977SOL    HW127830   5.799   2.009   6.873
 8977SOL    HW227831   5.954   2.058   6.861
 8978SOL     OW27832   5.712   0.190   5.740
 8978SOL    HW127833   5.744   0.160   5.830
 8978SOL    HW227834   5.730   0.288   5.729
 8979SOL     OW27835   0.894   3.334   4.646
 8979SOL    HW127836   0.843   3.394   4.707
 8979SOL    HW227837   0.962   3.282   4.698
 8980SOL     OW27838   2.433   2.878   5.655
 8980SOL    HW127839   2.531   2.866   5.672
 8980SOL    HW227840   2.415   2.874   5.557
 8981SOL     OW27841   4.288   1.869   5.619
 8981SOL    HW127842   4.205   1.815   5.604
 8981SOL    HW227843   4.332   1.839   5.703
 8982SOL     OW27844   1.457   2.366   0.811
 8982SOL    HW127845   1.425   2.461   0.809
 8982SOL    HW227846   1.436   2.322   0.723
 8983SOL     OW27847   1.598   6.729   0.258
 8983SOL    HW127848   1.598   6.754   0.161
 8983SOL    HW227849   1.504   6.710   0.287
 8984SOL     OW27850   0.275   0.396   4.645
 8984SOL    HW127851   0.189   0.353   4.672
 8984SOL    HW227852   0.292   0.378   4.549
 8985SOL     OW27853   2.306   3.746   0.360
 8985SOL    HW127854   2.405   3.755   0.376
 8985SOL    HW227855   2.261   3.717   0.445
 8986SOL     OW27856   5.257   5.350   2.438
 8986SOL    HW127857   5.337   5.294   2.422
 8986SOL    HW227858   5.178   5.311   2.391
 8987SOL     OW27859   4.610   6.849   1.478
 8987SOL    HW127860   4.534   6.846   1.543
 8987SOL    HW227861   4.624   6.757   1.440
 8988SOL     OW27862   1.597   3.951   5.099
 8988SOL    HW127863   1.498   3.936   5.108
 8988SOL    HW227864   1.639   3.950   5.190
 8989SOL     OW27865   5.072   3.786   0.727
 8989SOL    HW127866   5.021   3.829   0.652
 8989SOL    HW227867   5.170   3.790   0.707
 8990SOL     OW27868   1.507   6.076   4.060
 8990SOL    HW127869   1.508   5.993   4.004
 8990SOL    HW227870   1.592   6.080   4.113
 8991SOL     OW27871   1.863   2.284   6.041
 8991SOL    HW127872   1.769   2.288   6.076
 8991SOL    HW227873   1.896   2.377   6.024
 8992SOL     OW27874   5.376   1.460   6.991
 8992SOL    HW127875   5.434   1.491   0.051
 8992SOL    HW227876   5.286   1.434   0.010
 8993SOL     OW27877   5.633   2.487   2.238
 8993SOL    HW127878   5.690   2.456   2.162
 8993SOL    HW227879   5.539   2.501   2.205
 8994SOL     OW27880   1.167   4.337   4.984
 8994SOL    HW127881   1.257   4.318   4.946
 8994SOL    HW227882   1.176   4.387   5.070
 8995SOL     OW27883   1.393   3.019   0.309
 8995SOL    HW127884   1.398   3.072   0.225
 8995SOL    HW227885   1.316   3.050   0.364
 8996SOL     OW27886   6.072   5.336   0.425
 8996SOL    HW127887   6.143   5.295   0.481
 8996SOL    HW227888   6.052   5.428   0.457
 8997SOL     OW27889   5.211   1.516   6.164
 8997SOL    HW127890   5.241   1.473   6.080
 8997SOL    HW227891   5.279   1.583   6.194
 8998SOL     OW27892   5.955   3.633   3.716
 8998SOL    HW127893   5.915   3.649   3.625
 8998SOL    HW227894   5.884   3.602   3.778
 8999SOL     OW27895   4.569   6.014   6.481
 8999SOL    HW127896   4.503   5.940   6.494
 8999SOL    HW227897   4.520   6.100   6.468
 9000SOL     OW27898   1.634   4.109   1.300
 9000SOL    HW127899   1.546   4.154   1.316
 9000SOL    HW227900   1.627   4.012   1.325
 9001SOL     OW27901   1.358   5.487   2.277
 9001SOL    HW127902   1.347   5.389   2.293
 9001SOL    HW227903   1.402   5.502   2.189
 9002SOL     OW27904   0.682   5.019   5.404
 9002SOL    HW127905   0.717   4.971   5.323
 9002SOL    HW227906   0.717   5.113   5.405
 9003SOL     OW27907   5.540   3.164   1.639
 9003SOL    HW127908   5.580   3.112   1.564
 9003SOL    HW227909   5.613   3.208   1.693
 9004SOL     OW27910   3.964   6.302   1.415
 9004SOL    HW127911   3.942   6.399   1.403
 9004SOL    HW227912   4.059   6.293   1.447
 9005SOL     OW27913   5.680   2.558   4.462
 9005SOL    HW127914   5.662   2.461   4.445
 9005SOL    HW227915   5.773   2.569   4.497
 9006SOL     OW27916   2.600   5.444   1.278
 9006SOL    HW127917   2.553   5.415   1.195
 9006SOL    HW227918   2.585   5.377   1.350
 9007SOL     OW27919   3.049   1.210   3.567
 9007SOL    HW127920   3.014   1.125   3.526
 9007SOL    HW227921   3.063   1.278   3.495
 9008SOL     OW27922   1.437   5.768   3.797
 9008SOL    HW127923   1.416   5.856   3.755
 9008SOL    HW227924   1.405   5.694   3.736
 9009SOL     OW27925   3.106   6.369   0.750
 9009SOL    HW127926   3.112   6.457   0.704
 9009SOL    HW227927   3.037   6.312   0.704
 9010SOL     OW27928   1.458   6.443   4.219
 9010SOL    HW127929   1.505   6.389   4.149
 9010SOL    HW227930   1.479   6.540   4.206
 9011SOL     OW27931   5.020   1.798   2.138
 9011SOL    HW127932   4.923   1.811   2.119
 9011SOL    HW227933   5.046   1.847   2.221
 9012SOL     OW27934   2.141   4.004   0.393
 9012SOL    HW127935   2.062   4.005   0.332
 9012SOL    HW227936   2.187   3.915   0.387
 9013SOL     OW27937   0.302   6.715   5.317
 9013SOL    HW127938   0.295   6.762   5.230
 9013SOL    HW227939   0.397   6.692   5.336
 9014SOL     OW27940   6.597   1.964   0.063
 9014SOL    HW127941   6.543   2.016   0.129
 9014SOL    HW227942   6.558   1.873   0.053
 9015SOL     OW27943   4.498   1.847   1.994
 9015SOL    HW127944   4.474   1.798   2.078
 9015SOL    HW227945   4.506   1.782   1.919
 9016SOL     OW27946   0.313   6.583   6.630
 9016SOL    HW127947   0.335   6.605   6.535
 9016SOL    HW227948   0.216   6.599   6.647
 9017SOL     OW27949   4.249   1.974   3.904
 9017SOL    HW127950   4.196   2.049   3.944
 9017SOL    HW227951   4.284   2.003   3.815
 9018SOL     OW27952   3.675   2.823   6.827
 9018SOL    HW127953   3.600   2.757   6.836
 9018SOL    HW227954   3.762   2.774   6.819
 9019SOL     OW27955   1.469   5.518   2.011
 9019SOL    HW127956   1.409   5.542   1.935
 9019SOL    HW227957   1.524   5.597   2.037
 9020SOL     OW27958   0.081   3.553   0.344
 9020SOL    HW127959   0.061   3.506   0.257
 9020SOL    HW227960   0.009   3.532   0.410
 9021SOL     OW27961   6.607   6.759   3.295
 9021SOL    HW127962   6.575   6.844   3.337
 9021SOL    HW227963   6.528   6.701   3.275
 9022SOL     OW27964   3.226   1.408   6.873
 9022SOL    HW127965   3.302   1.344   6.884
 9022SOL    HW227966   3.261   1.496   6.841
 9023SOL     OW27967   3.328   2.894   2.355
 9023SOL    HW127968   3.240   2.902   2.308
 9023SOL    HW227969   3.397   2.863   2.290
 9024SOL     OW27970   0.689   4.242   4.795
 9024SOL    HW127971   0.780   4.232   4.836
 9024SOL    HW227972   0.625   4.180   4.840
 9025SOL     OW27973   0.779   5.374   0.879
 9025SOL    HW127974   0.694   5.355   0.929
 9025SOL    HW227975   0.857   5.335   0.929
 9026SOL     OW27976   3.860   2.634   0.456
 9026SOL    HW127977   3.777   2.689   0.459
 9026SOL    HW227978   3.886   2.609   0.549
 9027SOL     OW27979   1.570   2.405   2.961
 9027SOL    HW127980   1.655   2.453   2.942
 9027SOL    HW227981   1.585   2.306   2.952
 9028SOL     OW27982   3.070   3.513   5.348
 9028SOL    HW127983   3.070   3.611   5.367
 9028SOL    HW227984   2.975   3.481   5.337
 9029SOL     OW27985   4.092   6.959   4.664
 9029SOL    HW127986   4.075   6.896   4.740
 9029SOL    HW227987   4.191   6.973   4.654
 9030SOL     OW27988   2.865   1.662   3.577
 9030SOL    HW127989   2.845   1.679   3.480
 9030SOL    HW227990   2.783   1.679   3.632
 9031SOL     OW27991   3.917   6.396   4.466
 9031SOL    HW127992   3.991   6.330   4.471
 9031SOL    HW227993   3.833   6.355   4.502
 9032SOL     OW27994   3.724   3.561   0.740
 9032SOL    HW127995   3.696   3.495   0.670
 9032SOL    HW227996   3.814   3.598   0.716
 9033SOL     OW27997   0.228   3.951   2.892
 9033SOL    HW127998   0.256   3.930   2.986
 9033SOL    HW227999   0.142   3.904   2.872
 9034SOL     OW28000   3.163   6.750   5.104
 9034SOL    HW128001   3.259   6.725   5.099
 9034SOL    HW228002   3.108   6.682   5.057
 9035SOL     OW28003   1.949   4.908   6.620
 9035SOL    HW128004   1.982   4.814   6.628
 9035SOL    HW228005   2.019   4.970   6.655
 9036SOL     OW28006   1.950   1.770   5.734
 9036SOL    HW128007   1.976   1.758   5.830
 9036SOL    HW228008   2.014   1.720   5.675
 9037SOL     OW28009   1.032   3.978   4.708
 9037SOL    HW128010   0.968   4.008   4.779
 9037SOL    HW228011   1.125   3.982   4.743
 9038SOL     OW28012   4.063   0.940   6.061
 9038SOL    HW128013   4.024   0.918   5.972
 9038SOL    HW228014   3.995   0.925   6.133
 9039SOL     OW28015   2.128   5.589   5.452
 9039SOL    HW128016   2.140   5.491   5.467
 9039SOL    HW228017   2.062   5.605   5.378
 9040SOL     OW28018   3.696   2.069   2.786
 9040SOL    HW128019   3.649   1.994   2.738
 9040SOL    HW228020   3.632   2.113   2.849
 9041SOL     OW28021   1.117   2.189   1.795
 9041SOL    HW128022   1.124   2.288   1.807
 9041SOL    HW228023   1.112   2.168   1.697
 9042SOL     OW28024   3.739   6.805   5.465
 9042SOL    HW128025   3.834   6.832   5.480
 9042SOL    HW228026   3.736   6.712   5.430
 9043SOL     OW28027   1.114   0.583   7.000
 9043SOL    HW128028   1.160   0.495   6.997
 9043SOL    HW228029   1.178   0.655   6.971
 9044SOL     OW28030   6.203   0.474   0.297
 9044SOL    HW128031   6.128   0.531   0.262
 9044SOL    HW228032   6.221   0.400   0.232
 9045SOL     OW28033   2.644   2.063   2.551
 9045SOL    HW128034   2.595   2.032   2.632
 9045SOL    HW228035   2.685   2.152   2.568
 9046SOL     OW28036   3.367   3.576   2.746
 9046SOL    HW128037   3.356   3.486   2.789
 9046SOL    HW228038   3.464   3.597   2.736
 9047SOL     OW28039   1.959   3.982   4.903
 9047SOL    HW128040   1.892   4.055   4.893
 9047SOL    HW228041   2.047   4.020   4.931
 9048SOL     OW28042   5.565   3.413   5.915
 9048SOL    HW128043   5.652   3.370   5.891
 9048SOL    HW228044   5.567   3.509   5.887
 9049SOL     OW28045   3.642   6.623   6.062
 9049SOL    HW128046   3.693   6.688   6.005
 9049SOL    HW228047   3.569   6.671   6.110
 9050SOL     OW28048   0.775   3.002   0.821
 9050SOL    HW128049   0.704   3.060   0.861
 9050SOL    HW228050   0.760   2.994   0.722
 9051SOL     OW28051   3.922   0.394   1.080
 9051SOL    HW128052   4.016   0.372   1.108
 9051SOL    HW228053   3.922   0.422   0.984
 9052SOL     OW28054   2.805   2.321   4.471
 9052SOL    HW128055   2.752   2.308   4.387
 9052SOL    HW228056   2.811   2.419   4.491
 9053SOL     OW28057   2.233   0.853   2.551
 9053SOL    HW128058   2.227   0.764   2.504
 9053SOL    HW228059   2.241   0.838   2.649
 9054SOL     OW28060   2.858   6.198   3.726
 9054SOL    HW128061   2.763   6.165   3.723
 9054SOL    HW228062   2.920   6.121   3.714
 9055SOL     OW28063   6.365   2.739   4.270
 9055SOL    HW128064   6.387   2.822   4.220
 9055SOL    HW228065   6.280   2.752   4.321
 9056SOL     OW28066   0.513   2.600   1.928
 9056SOL    HW128067   0.487   2.678   1.984
 9056SOL    HW228068   0.571   2.539   1.982
 9057SOL     OW28069   4.853   3.457   6.190
 9057SOL    HW128070   4.824   3.434   6.096
 9057SOL    HW228071   4.953   3.465   6.193
 9058SOL     OW28072   2.237   1.016   1.825
 9058SOL    HW128073   2.175   1.091   1.803
 9058SOL    HW228074   2.327   1.053   1.850
 9059SOL     OW28075   1.179   1.521   3.399
 9059SOL    HW128076   1.247   1.594   3.404
 9059SOL    HW228077   1.224   1.433   3.408
 9060SOL     OW28078   6.031   2.860   3.972
 9060SOL    HW128079   6.032   2.760   3.978
 9060SOL    HW228080   5.942   2.890   3.937
 9061SOL     OW28081   2.212   5.303   1.909
 9061SOL    HW128082   2.305   5.287   1.878
 9061SOL    HW228083   2.200   5.401   1.929
 9062SOL     OW28084   1.894   6.470   2.138
 9062SOL    HW128085   1.895   6.456   2.237
 9062SOL    HW228086   1.959   6.541   2.113
 9063SOL     OW28087   3.503   0.581   3.897
 9063SOL    HW128088   3.424   0.617   3.947
 9063SOL    HW228089   3.574   0.554   3.962
 9064SOL     OW28090   6.166   2.459   5.628
 9064SOL    HW128091   6.263   2.439   5.644
 9064SOL    HW228092   6.120   2.376   5.597
 9065SOL     OW28093   4.060   0.431   6.378
 9065SOL    HW128094   4.095   0.357   6.435
 9065SOL    HW228095   4.016   0.499   6.437
 9066SOL     OW28096   5.031   6.564   0.812
 9066SOL    HW128097   5.014   6.480   0.761
 9066SOL    HW228098   4.946   6.616   0.822
 9067SOL     OW28099   0.900   0.350   4.737
 9067SOL    HW128100   0.898   0.430   4.799
 9067SOL    HW228101   0.906   0.382   4.643
 9068SOL     OW28102   2.297   6.596   4.739
 9068SOL    HW128103   2.201   6.611   4.766
 9068SOL    HW228104   2.303   6.588   4.640
 9069SOL     OW28105   1.358   3.385   1.712
 9069SOL    HW128106   1.260   3.381   1.696
 9069SOL    HW228107   1.403   3.428   1.634
 9070SOL     OW28108   1.284   3.248   4.931
 9070SOL    HW128109   1.311   3.256   5.027
 9070SOL    HW228110   1.363   3.266   4.873
 9071SOL     OW28111   6.041   6.594   1.868
 9071SOL    HW128112   6.009   6.638   1.951
 9071SOL    HW228113   5.974   6.608   1.795
 9072SOL     OW28114   6.831   1.943   0.991
 9072SOL    HW128115   6.810   1.923   1.087
 9072SOL    HW228116   6.924   1.911   0.971
 9073SOL     OW28117   2.817   6.996   2.639
 9073SOL    HW128118   2.813   7.009   2.738
 9073SOL    HW228119   2.854   6.905   2.619
 9074SOL     OW28120   1.088   1.443   1.768
 9074SOL    HW128121   1.152   1.519   1.769
 9074SOL    HW228122   1.006   1.470   1.718
 9075SOL     OW28123   0.047   1.200   1.825
 9075SOL    HW128124   0.037   1.218   1.727
 9075SOL    HW228125   0.092   1.278   1.869
 9076SOL     OW28126   0.388   2.781   5.416
 9076SOL    HW128127   0.294   2.813   5.403
 9076SOL    HW228128   0.443   2.852   5.459
 9077SOL     OW28129   4.743   0.362   0.389
 9077SOL    HW128130   4.709   0.448   0.353
 9077SOL    HW228131   4.687   0.287   0.354
 9078SOL     OW28132   3.957   3.703   5.147
 9078SOL    HW128133   3.967   3.793   5.190
 9078SOL    HW228134   3.884   3.652   5.193
 9079SOL     OW28135   2.628   0.540   4.450
 9079SOL    HW128136   2.631   0.577   4.543
 9079SOL    HW228137   2.700   0.471   4.439
 9080SOL     OW28138   4.701   2.450   5.920
 9080SOL    HW128139   4.772   2.472   5.986
 9080SOL    HW228140   4.611   2.460   5.963
 9081SOL     OW28141   3.991   0.297   2.303
 9081SOL    HW128142   3.904   0.337   2.332
 9081SOL    HW228143   4.011   0.217   2.359
 9082SOL     OW28144   1.959   0.396   5.271
 9082SOL    HW128145   1.873   0.360   5.233
 9082SOL    HW228146   2.011   0.442   5.199
 9083SOL     OW28147   3.618   5.178   6.041
 9083SOL    HW128148   3.658   5.088   6.028
 9083SOL    HW228149   3.518   5.170   6.048
 9084SOL     OW28150   3.536   3.881   2.964
 9084SOL    HW128151   3.515   3.978   2.977
 9084SOL    HW228152   3.450   3.830   2.957
 9085SOL     OW28153   2.459   0.675   1.636
 9085SOL    HW128154   2.497   0.604   1.577
 9085SOL    HW228155   2.533   0.735   1.666
 9086SOL     OW28156   0.598   4.761   6.792
 9086SOL    HW128157   0.506   4.756   6.753
 9086SOL    HW228158   0.601   4.708   6.876
 9087SOL     OW28159   4.895   2.595   1.353
 9087SOL    HW128160   4.848   2.525   1.406
 9087SOL    HW228161   4.966   2.553   1.296
 9088SOL     OW28162   0.147   6.780   1.547
 9088SOL    HW128163   0.235   6.734   1.540
 9088SOL    HW228164   0.096   6.744   1.625
 9089SOL     OW28165   5.425   5.732   5.516
 9089SOL    HW128166   5.405   5.775   5.428
 9089SOL    HW228167   5.484   5.653   5.502
 9090SOL     OW28168   6.256   1.503   4.949
 9090SOL    HW128169   6.351   1.527   4.969
 9090SOL    HW228170   6.215   1.460   5.029
 9091SOL     OW28171   2.878   4.157   0.424
 9091SOL    HW128172   2.860   4.232   0.488
 9091SOL    HW228173   2.875   4.192   0.330
 9092SOL     OW28174   6.730   0.818   6.891
 9092SOL    HW128175   6.763   0.837   6.798
 9092SOL    HW228176   6.689   0.727   6.893
 9093SOL     OW28177   1.390   5.883   5.455
 9093SOL    HW128178   1.356   5.934   5.376
 9093SOL    HW228179   1.463   5.935   5.499
 9094SOL     OW28180   6.148   4.803   3.153
 9094SOL    HW128181   6.176   4.854   3.072
 9094SOL    HW228182   6.206   4.829   3.230
 9095SOL     OW28183   4.865   4.722   6.267
 9095SOL    HW128184   4.876   4.669   6.183
 9095SOL    HW228185   4.940   4.701   6.330
 9096SOL     OW28186   6.636   4.873   2.673
 9096SOL    HW128187   6.698   4.815   2.726
 9096SOL    HW228188   6.610   4.953   2.728
 9097SOL     OW28189   2.045   1.912   0.627
 9097SOL    HW128190   2.001   1.990   0.582
 9097SOL    HW228191   1.987   1.878   0.701
 9098SOL     OW28192   3.159   1.844   4.734
 9098SOL    HW128193   3.159   1.771   4.802
 9098SOL    HW228194   3.075   1.897   4.741
 9099SOL     OW28195   2.695   3.155   5.501
 9099SOL    HW128196   2.640   3.104   5.436
 9099SOL    HW228197   2.778   3.188   5.456
 9100SOL     OW28198   0.508   3.622   3.238
 9100SOL    HW128199   0.489   3.565   3.318
 9100SOL    HW228200   0.542   3.564   3.164
 9101SOL     OW28201   2.600   1.884   1.987
 9101SOL    HW128202   2.631   1.937   2.067
 9101SOL    HW228203   2.524   1.826   2.013
 9102SOL     OW28204   2.827   6.639   1.788
 9102SOL    HW128205   2.785   6.730   1.796
 9102SOL    HW228206   2.925   6.646   1.805
 9103SOL     OW28207   5.804   1.749   6.723
 9103SOL    HW128208   5.739   1.695   6.776
 9103SOL    HW228209   5.848   1.817   6.783
 9104SOL     OW28210   6.790   6.402   1.367
 9104SOL    HW128211   6.878   6.443   1.388
 9104SOL    HW228212   6.723   6.474   1.348
 9105SOL     OW28213   0.858   0.213   5.561
 9105SOL    HW128214   0.789   0.285   5.551
 9105SOL    HW228215   0.821   0.140   5.617
 9106SOL     OW28216   6.257   2.646   1.004
 9106SOL    HW128217   6.318   2.704   1.058
 9106SOL    HW228218   6.311   2.590   0.941
 9107SOL     OW28219   1.892   0.629   6.766
 9107SOL    HW128220   1.816   0.589   6.817
 9107SOL    HW228221   1.959   0.557   6.745
 9108SOL     OW28222   4.883   4.276   5.207
 9108SOL    HW128223   4.848   4.193   5.250
 9108SOL    HW228224   4.809   4.321   5.157
 9109SOL     OW28225   4.855   3.550   2.769
 9109SOL    HW128226   4.889   3.634   2.726
 9109SOL    HW228227   4.842   3.480   2.699
 9110SOL     OW28228   1.490   5.296   4.257
 9110SOL    HW128229   1.530   5.206   4.277
 9110SOL    HW228230   1.549   5.367   4.296
 9111SOL     OW28231   4.472   2.758   6.702
 9111SOL    HW128232   4.450   2.853   6.680
 9111SOL    HW228233   4.514   2.754   6.792
 9112SOL     OW28234   1.547   4.872   2.548
 9112SOL    HW128235   1.493   4.792   2.570
 9112SOL    HW228236   1.523   4.947   2.610
 9113SOL     OW28237   5.138   2.139   2.916
 9113SOL    HW128238   5.171   2.211   2.977
 9113SOL    HW228239   5.048   2.163   2.882
 9114SOL     OW28240   0.471   5.664   3.861
 9114SOL    HW128241   0.559   5.697   3.828
 9114SOL    HW228242   0.425   5.737   3.912
 9115SOL     OW28243   5.731   5.682   5.269
 9115SOL    HW128244   5.775   5.657   5.182
 9115SOL    HW228245   5.730   5.602   5.330
 9116SOL     OW28246   0.302   0.379   2.932
 9116SOL    HW128247   0.324   0.383   2.835
 9116SOL    HW228248   0.227   0.314   2.947
 9117SOL     OW28249   3.865   2.381   6.468
 9117SOL    HW128250   3.795   2.426   6.413
 9117SOL    HW228251   3.937   2.446   6.491
 9118SOL     OW28252   6.485   3.342   0.153
 9118SOL    HW128253   6.464   3.305   0.244
 9118SOL    HW228254   6.557   3.287   0.111
 9119SOL     OW28255   4.243   1.320   1.330
 9119SOL    HW128256   4.192   1.243   1.368
 9119SOL    HW228257   4.267   1.385   1.402
 9120SOL     OW28258   6.511   2.938   5.213
 9120SOL    HW128259   6.568   2.864   5.176
 9120SOL    HW228260   6.428   2.899   5.254
 9121SOL     OW28261   3.706   6.527   5.657
 9121SOL    HW128262   3.743   6.436   5.675
 9121SOL    HW228263   3.705   6.543   5.558
 9122SOL     OW28264   2.297   4.022   1.961
 9122SOL    HW128265   2.297   4.121   1.953
 9122SOL    HW228266   2.278   3.996   2.056
 9123SOL     OW28267   1.702   0.285   4.398
 9123SOL    HW128268   1.694   0.320   4.305
 9123SOL    HW228269   1.794   0.249   4.412
 9124SOL     OW28270   3.685   5.415   1.934
 9124SOL    HW128271   3.667   5.380   1.842
 9124SOL    HW228272   3.775   5.383   1.965
 9125SOL     OW28273   4.164   4.522   1.029
 9125SOL    HW128274   4.202   4.556   1.115
 9125SOL    HW228275   4.139   4.599   0.970
 9126SOL     OW28276   4.804   4.095   0.877
 9126SOL    HW128277   4.779   4.178   0.927
 9126SOL    HW228278   4.858   4.120   0.796
 9127SOL     OW28279   6.704   2.705   5.266
 9127SOL    HW128280   6.654   2.684   5.181
 9127SOL    HW228281   6.669   2.647   5.340
 9128SOL     OW28282   6.257   2.380   4.621
 9128SOL    HW128283   6.243   2.391   4.523
 9128SOL    HW228284   6.268   2.470   4.663
 9129SOL     OW28285   0.222   1.888   0.593
 9129SOL    HW128286   0.269   1.865   0.678
 9129SOL    HW228287   0.267   1.965   0.549
 9130SOL     OW28288   0.662   4.093   5.941
 9130SOL    HW128289   0.587   4.142   5.987
 9130SOL    HW228290   0.731   4.159   5.911
 9131SOL     OW28291   5.374   3.499   6.834
 9131SOL    HW128292   5.311   3.452   6.896
 9131SOL    HW228293   5.369   3.598   6.850
 9132SOL     OW28294   0.788   4.371   4.297
 9132SOL    HW128295   0.814   4.441   4.231
 9132SOL    HW228296   0.732   4.301   4.253
 9133SOL     OW28297   3.343   0.910   0.911
 9133SOL    HW128298   3.265   0.958   0.873
 9133SOL    HW228299   3.427   0.959   0.887
 9134SOL     OW28300   4.073   5.813   1.640
 9134SOL    HW128301   4.068   5.882   1.568
 9134SOL    HW228302   4.137   5.842   1.711
 9135SOL     OW28303   1.622   6.227   1.619
 9135SOL    HW128304   1.671   6.230   1.706
 9135SOL    HW228305   1.570   6.311   1.607
 9136SOL     OW28306   4.072   5.856   5.600
 9136SOL    HW128307   4.160   5.901   5.617
 9136SOL    HW228308   4.074   5.765   5.641
 9137SOL     OW28309   4.258   0.234   5.846
 9137SOL    HW128310   4.274   0.147   5.799
 9137SOL    HW228311   4.311   0.237   5.930
 9138SOL     OW28312   2.012   3.099   0.323
 9138SOL    HW128313   2.069   3.090   0.242
 9138SOL    HW228314   2.065   3.142   0.396
 9139SOL     OW28315   0.770   1.048   1.617
 9139SOL    HW128316   0.682   1.095   1.627
 9139SOL    HW228317   0.826   1.097   1.549
 9140SOL     OW28318   0.450   4.954   2.365
 9140SOL    HW128319   0.490   4.910   2.446
 9140SOL    HW228320   0.438   4.887   2.293
 9141SOL     OW28321   6.847   5.983   6.571
 9141SOL    HW128322   6.793   6.015   6.649
 9141SOL    HW228323   6.928   6.041   6.560
 9142SOL     OW28324   0.091   2.726   2.882
 9142SOL    HW128325   0.041   2.656   2.934
 9142SOL    HW228326   0.064   2.817   2.913
 9143SOL     OW28327   0.759   4.181   1.340
 9143SOL    HW128328   0.844   4.177   1.287
 9143SOL    HW228329   0.730   4.276   1.349
 9144SOL     OW28330   2.751   4.860   4.833
 9144SOL    HW128331   2.758   4.770   4.874
 9144SOL    HW228332   2.681   4.913   4.879
 9145SOL     OW28333   1.509   6.823   6.599
 9145SOL    HW128334   1.464   6.888   6.660
 9145SOL    HW228335   1.466   6.827   6.508
 9146SOL     OW28336   5.477   2.892   2.952
 9146SOL    HW128337   5.396   2.838   2.931
 9146SOL    HW228338   5.538   2.839   3.011
 9147SOL     OW28339   6.463   1.056   5.100
 9147SOL    HW128340   6.499   1.010   5.180
 9147SOL    HW228341   6.472   0.996   5.020
 9148SOL     OW28342   5.826   0.140   2.048
 9148SOL    HW128343   5.803   0.201   1.971
 9148SOL    HW228344   5.919   0.106   2.036
 9149SOL     OW28345   5.431   3.156   2.134
 9149SOL    HW128346   5.461   3.162   2.230
 9149SOL    HW228347   5.343   3.203   2.124
 9150SOL     OW28348   3.240   4.254   0.545
 9150SOL    HW128349   3.163   4.294   0.594
 9150SOL    HW228350   3.322   4.258   0.603
 9151SOL     OW28351   2.067   4.140   3.618
 9151SOL    HW128352   2.057   4.233   3.581
 9151SOL    HW228353   2.074   4.075   3.542
 9152SOL     OW28354   1.933   4.338   4.065
 9152SOL    HW128355   1.876   4.300   4.138
 9152SOL    HW228356   2.025   4.298   4.072
 9153SOL     OW28357   0.723   3.713   6.482
 9153SOL    HW128358   0.750   3.622   6.451
 9153SOL    HW228359   0.628   3.709   6.515
 9154SOL     OW28360   4.777   5.177   3.272
 9154SOL    HW128361   4.754   5.162   3.368
 9154SOL    HW228362   4.725   5.112   3.215
 9155SOL     OW28363   1.544   4.649   2.789
 9155SOL    HW128364   1.546   4.587   2.867
 9155SOL    HW228365   1.449   4.671   2.766
 9156SOL     OW28366   6.661   2.618   0.750
 9156SOL    HW128367   6.585   2.566   0.788
 9156SOL    HW228368   6.711   2.562   0.684
 9157SOL     OW28369   3.234   3.985   6.466
 9157SOL    HW128370   3.139   3.984   6.435
 9157SOL    HW228371   3.273   4.075   6.447
 9158SOL     OW28372   6.462   4.731   4.341
 9158SOL    HW128373   6.496   4.684   4.259
 9158SOL    HW228374   6.401   4.670   4.391
 9159SOL     OW28375   2.117   6.940   3.031
 9159SOL    HW128376   2.086   6.884   3.108
 9159SOL    HW228377   2.169   0.003   3.066
 9160SOL     OW28378   0.413   5.061   6.514
 9160SOL    HW128379   0.339   5.038   6.577
 9160SOL    HW228380   0.383   5.042   6.420
 9161SOL     OW28381   5.801   4.940   3.201
 9161SOL    HW128382   5.713   4.987   3.209
 9161SOL    HW228383   5.853   4.978   3.125
 9162SOL     OW28384   3.816   0.992   3.168
 9162SOL    HW128385   3.733   1.005   3.222
 9162SOL    HW228386   3.879   1.069   3.184
 9163SOL     OW28387   6.946   2.471   1.727
 9163SOL    HW128388   6.857   2.464   1.773
 9163SOL    HW228389   6.933   2.490   1.630
 9164SOL     OW28390   1.969   0.655   0.011
 9164SOL    HW128391   1.959   0.621   6.934
 9164SOL    HW228392   1.893   0.716   0.033
 9165SOL     OW28393   5.262   2.291   5.740
 9165SOL    HW128394   5.361   2.289   5.728
 9165SOL    HW228395   5.219   2.233   5.670
 9166SOL     OW28396   4.056   5.641   0.944
 9166SOL    HW128397   4.017   5.729   0.914
 9166SOL    HW228398   4.143   5.657   0.989
 9167SOL     OW28399   1.088   2.014   6.516
 9167SOL    HW128400   1.161   2.063   6.564
 9167SOL    HW228401   1.098   2.028   6.418
 9168SOL     OW28402   6.540   5.582   6.100
 9168SOL    HW128403   6.558   5.489   6.067
 9168SOL    HW228404   6.541   5.583   6.200
 9169SOL     OW28405   6.827   6.356   6.249
 9169SOL    HW128406   6.824   6.346   6.349
 9169SOL    HW228407   6.906   6.306   6.213
 9170SOL     OW28408   2.038   1.552   6.447
 9170SOL    HW128409   2.065   1.484   6.378
 9170SOL    HW228410   2.074   1.641   6.422
 9171SOL     OW28411   2.487   4.906   0.909
 9171SOL    HW128412   2.468   4.960   0.991
 9171SOL    HW228413   2.545   4.959   0.847
 9172SOL     OW28414   4.403   1.701   4.818
 9172SOL    HW128415   4.427   1.782   4.871
 9172SOL    HW228416   4.457   1.623   4.851
 9173SOL     OW28417   6.791   3.259   4.394
 9173SOL    HW128418   6.816   3.314   4.314
 9173SOL    HW228419   6.868   3.256   4.458
 9174SOL     OW28420   0.673   5.948   6.978
 9174SOL    HW128421   0.625   6.036   6.971
 9174SOL    HW228422   0.687   5.925   0.058
 9175SOL     OW28423   1.404   6.307   0.677
 9175SOL    HW128424   1.473   6.236   0.661
 9175SOL    HW228425   1.450   6.393   0.701
 9176SOL     OW28426   2.222   0.543   2.502
 9176SOL    HW128427   2.283   0.513   2.429
 9176SOL    HW228428   2.266   0.532   2.590
 9177SOL     OW28429   1.939   2.904   3.903
 9177SOL    HW128430   1.957   2.841   3.979
 9177SOL    HW228431   1.840   2.918   3.894
 9178SOL     OW28432   2.226   5.590   6.504
 9178SOL    HW128433   2.242   5.519   6.571
 9178SOL    HW228434   2.308   5.648   6.496
 9179SOL     OW28435   3.263   6.188   4.502
 9179SOL    HW128436   3.201   6.123   4.544
 9179SOL    HW228437   3.275   6.165   4.405
 9180SOL     OW28438   6.318   1.982   4.255
 9180SOL    HW128439   6.386   1.925   4.301
 9180SOL    HW228440   6.353   2.010   4.166
 9181SOL     OW28441   4.957   2.736   3.728
 9181SOL    HW128442   4.872   2.767   3.685
 9181SOL    HW228443   4.940   2.653   3.782
 9182SOL     OW28444   2.498   1.197   2.666
 9182SOL    HW128445   2.529   1.102   2.668
 9182SOL    HW228446   2.496   1.230   2.572
 9183SOL     OW28447   4.644   3.549   6.831
 9183SOL    HW128448   4.656   3.608   6.752
 9183SOL    HW228449   4.668   3.455   6.808
 9184SOL     OW28450   3.164   2.086   0.726
 9184SOL    HW128451   3.134   2.121   0.815
 9184SOL    HW228452   3.169   1.986   0.730
 9185SOL     OW28453   0.215   0.064   6.088
 9185SOL    HW128454   0.161   0.090   6.008
 9185SOL    HW228455   0.284   7.012   6.061
 9186SOL     OW28456   4.890   0.561   5.919
 9186SOL    HW128457   4.963   0.616   5.878
 9186SOL    HW228458   4.801   0.591   5.883
 9187SOL     OW28459   4.486   2.069   6.846
 9187SOL    HW128460   4.535   2.071   6.933
 9187SOL    HW228461   4.388   2.072   6.862
 9188SOL     OW28462   1.583   0.710   1.374
 9188SOL    HW128463   1.505   0.762   1.408
 9188SOL    HW228464   1.604   0.736   1.280
 9189SOL     OW28465   3.338   1.144   3.392
 9189SOL    HW128466   3.347   1.234   3.349
 9189SOL    HW228467   3.243   1.113   3.384
 9190SOL     OW28468   5.991   3.936   5.428
 9190SOL    HW128469   5.926   3.939   5.504
 9190SOL    HW228470   6.061   4.006   5.442
 9191SOL     OW28471   5.305   6.819   6.660
 9191SOL    HW128472   5.222   6.844   6.711
 9191SOL    HW228473   5.333   6.897   6.603
 9192SOL     OW28474   5.934   3.910   5.864
 9192SOL    HW128475   5.884   3.930   5.779
 9192SOL    HW228476   6.016   3.857   5.842
 9193SOL     OW28477   3.137   3.483   3.693
 9193SOL    HW128478   3.229   3.459   3.663
 9193SOL    HW228479   3.134   3.483   3.793
 9194SOL     OW28480   3.630   6.050   2.258
 9194SOL    HW128481   3.549   6.096   2.222
 9194SOL    HW228482   3.604   5.962   2.297
 9195SOL     OW28483   1.665   2.893   4.076
 9195SOL    HW128484   1.749   2.866   4.124
 9195SOL    HW228485   1.593   2.911   4.143
 9196SOL     OW28486   4.424   0.084   4.042
 9196SOL    HW128487   4.347   0.148   4.043
 9196SOL    HW228488   4.443   0.056   3.947
 9197SOL     OW28489   2.792   3.416   0.429
 9197SOL    HW128490   2.757   3.407   0.522
 9197SOL    HW228491   2.843   3.502   0.421
 9198SOL     OW28492   5.755   4.257   5.959
 9198SOL    HW128493   5.774   4.198   6.037
 9198SOL    HW228494   5.722   4.346   5.992
 9199SOL     OW28495   0.858   3.370   6.657
 9199SOL    HW128496   0.832   3.417   6.573
 9199SOL    HW228497   0.777   3.332   6.701
 9200SOL     OW28498   1.264   6.083   0.314
 9200SOL    HW128499   1.211   6.086   0.230
 9200SOL    HW228500   1.285   6.176   0.344
 9201SOL     OW28501   0.781   4.086   1.630
 9201SOL    HW128502   0.856   4.024   1.653
 9201SOL    HW228503   0.783   4.106   1.532
 9202SOL     OW28504   2.507   5.473   4.729
 9202SOL    HW128505   2.607   5.474   4.735
 9202SOL    HW228506   2.473   5.384   4.758
 9203SOL     OW28507   5.370   1.879   6.219
 9203SOL    HW128508   5.413   1.800   6.262
 9203SOL    HW228509   5.328   1.851   6.132
 9204SOL     OW28510   5.622   4.105   3.528
 9204SOL    HW128511   5.611   4.010   3.557
 9204SOL    HW228512   5.664   4.107   3.438
 9205SOL     OW28513   5.186   3.353   2.533
 9205SOL    HW128514   5.156   3.382   2.623
 9205SOL    HW228515   5.110   3.361   2.468
 9206SOL     OW28516   2.992   0.145   4.755
 9206SOL    HW128517   2.961   0.058   4.795
 9206SOL    HW228518   2.989   0.138   4.655
 9207SOL     OW28519   3.493   6.207   5.865
 9207SOL    HW128520   3.448   6.275   5.808
 9207SOL    HW228521   3.588   6.234   5.881
 9208SOL     OW28522   4.909   3.294   2.240
 9208SOL    HW128523   4.875   3.202   2.222
 9208SOL    HW228524   4.913   3.345   2.154
 9209SOL     OW28525   4.054   1.348   2.009
 9209SOL    HW128526   3.983   1.395   1.956
 9209SOL    HW228527   4.048   1.250   1.991
 9210SOL     OW28528   2.331   0.248   1.877
 9210SOL    HW128529   2.343   0.155   1.911
 9210SOL    HW228530   2.299   0.307   1.951
 9211SOL     OW28531   5.710   1.659   6.244
 9211SOL    HW128532   5.793   1.699   6.206
 9211SOL    HW228533   5.709   1.560   6.226
 9212SOL     OW28534   4.568   4.403   4.763
 9212SOL    HW128535   4.592   4.477   4.699
 9212SOL    HW228536   4.502   4.438   4.830
 9213SOL     OW28537   5.849   0.011   4.551
 9213SOL    HW128538   5.886   6.974   4.628
 9213SOL    HW228539   5.862   0.109   4.568
 9214SOL     OW28540   1.483   2.359   4.801
 9214SOL    HW128541   1.385   2.378   4.798
 9214SOL    HW228542   1.529   2.413   4.731
 9215SOL     OW28543   7.007   4.402   2.246
 9215SOL    HW128544   7.005   4.415   2.147
 9215SOL    HW228545   0.087   4.399   2.277
 9216SOL     OW28546   2.351   6.349   4.379
 9216SOL    HW128547   2.377   6.324   4.472
 9216SOL    HW228548   2.433   6.357   4.322
 9217SOL     OW28549   5.241   1.135   6.276
 9217SOL    HW128550   5.191   1.195   6.338
 9217SOL    HW228551   5.218   1.040   6.296
 9218SOL     OW28552   4.392   0.168   6.308
 9218SOL    HW128553   4.318   0.206   6.252
 9218SOL    HW228554   4.458   0.241   6.329
 9219SOL     OW28555   4.184   2.941   5.446
 9219SOL    HW128556   4.279   2.919   5.421
 9219SOL    HW228557   4.147   3.006   5.379
 9220SOL     OW28558   2.325   6.215   3.095
 9220SOL    HW128559   2.394   6.204   3.024
 9220SOL    HW228560   2.253   6.147   3.083
 9221SOL     OW28561   2.296   0.882   5.887
 9221SOL    HW128562   2.394   0.881   5.906
 9221SOL    HW228563   2.278   0.935   5.805
 9222SOL     OW28564   2.396   4.550   4.081
 9222SOL    HW128565   2.426   4.537   4.176
 9222SOL    HW228566   2.328   4.481   4.058
 9223SOL     OW28567   0.720   3.317   4.124
 9223SOL    HW128568   0.789   3.358   4.065
 9223SOL    HW228569   0.732   3.349   4.217
 9224SOL     OW28570   0.933   3.456   3.994
 9224SOL    HW128571   0.964   3.549   4.015
 9224SOL    HW228572   1.012   3.395   3.992
 9225SOL     OW28573   3.455   6.844   6.309
 9225SOL    HW128574   3.540   6.811   6.349
 9225SOL    HW228575   3.391   6.868   6.382
 9226SOL     OW28576   1.267   0.065   1.758
 9226SOL    HW128577   1.205   0.076   1.835
 9226SOL    HW228578   1.327   0.145   1.752
 9227SOL     OW28579   1.360   5.507   0.976
 9227SOL    HW128580   1.402   5.452   1.048
 9227SOL    HW228581   1.408   5.594   0.967
 9228SOL     OW28582   2.241   2.610   6.243
 9228SOL    HW128583   2.285   2.594   6.155
 9228SOL    HW228584   2.282   2.689   6.288
 9229SOL     OW28585   1.201   5.324   6.693
 9229SOL    HW128586   1.149   5.348   6.611
 9229SOL    HW228587   1.168   5.377   6.770
 9230SOL     OW28588   4.674   2.307   4.159
 9230SOL    HW128589   4.744   2.299   4.088
 9230SOL    HW228590   4.584   2.290   4.118
 9231SOL     OW28591   0.332   5.165   5.926
 9231SOL    HW128592   0.249   5.198   5.972
 9231SOL    HW228593   0.412   5.206   5.970
 9232SOL     OW28594   1.896   5.204   1.612
 9232SOL    HW128595   1.983   5.239   1.577
 9232SOL    HW228596   1.870   5.256   1.694
 9233SOL     OW28597   0.866   6.660   0.759
 9233SOL    HW128598   0.939   6.602   0.723
 9233SOL    HW228599   0.901   6.713   0.837
 9234SOL     OW28600   2.431   5.113   1.070
 9234SOL    HW128601   2.453   5.065   1.155
 9234SOL    HW228602   2.372   5.191   1.091
 9235SOL     OW28603   2.519   2.469   3.440
 9235SOL    HW128604   2.599   2.466   3.501
 9235SOL    HW228605   2.456   2.540   3.472
 9236SOL     OW28606   1.936   3.530   6.954
 9236SOL    HW128607   1.870   3.568   0.003
 9236SOL    HW228608   1.888   3.471   6.889
 9237SOL     OW28609   6.922   6.244   3.047
 9237SOL    HW128610   6.911   6.208   3.139
 9237SOL    HW228611   6.844   6.302   3.023
 9238SOL     OW28612   2.341   2.866   5.917
 9238SOL    HW128613   2.378   2.874   5.824
 9238SOL    HW228614   2.413   2.835   5.979
 9239SOL     OW28615   6.846   4.531   6.735
 9239SOL    HW128616   6.807   4.615   6.772
 9239SOL    HW228617   6.800   4.508   6.649
 9240SOL     OW28618   5.137   3.414   2.800
 9240SOL    HW128619   5.056   3.472   2.792
 9240SOL    HW228620   5.124   3.349   2.874
 9241SOL     OW28621   0.188   5.905   6.910
 9241SOL    HW128622   0.181   5.875   6.815
 9241SOL    HW228623   0.273   5.871   6.950
 9242SOL     OW28624   1.602   2.461   1.692
 9242SOL    HW128625   1.687   2.456   1.638
 9242SOL    HW228626   1.586   2.373   1.736
 9243SOL     OW28627   1.123   0.358   2.050
 9243SOL    HW128628   1.215   0.376   2.014
 9243SOL    HW228629   1.129   0.293   2.126
 9244SOL     OW28630   2.707   6.567   6.064
 9244SOL    HW128631   2.611   6.594   6.058
 9244SOL    HW228632   2.754   6.626   6.129
 9245SOL     OW28633   0.949   3.785   3.753
 9245SOL    HW128634   1.031   3.753   3.705
 9245SOL    HW228635   0.873   3.721   3.735
 9246SOL     OW28636   6.006   0.500   4.068
 9246SOL    HW128637   5.933   0.560   4.101
 9246SOL    HW228638   6.016   0.422   4.131
 9247SOL     OW28639   3.804   5.339   2.821
 9247SOL    HW128640   3.865   5.392   2.880
 9247SOL    HW228641   3.839   5.341   2.727
 9248SOL     OW28642   2.913   1.237   4.971
 9248SOL    HW128643   2.947   1.297   5.043
 9248SOL    HW228644   2.864   1.160   5.012
 9249SOL     OW28645   3.739   4.586   1.566
 9249SOL    HW128646   3.737   4.486   1.567
 9249SOL    HW228647   3.675   4.622   1.635
 9250SOL     OW28648   6.642   4.100   3.548
 9250SOL    HW128649   6.670   4.064   3.458
 9250SOL    HW228650   6.721   4.142   3.593
 9251SOL     OW28651   3.577   2.754   1.381
 9251SOL    HW128652   3.486   2.716   1.399
 9251SOL    HW228653   3.641   2.680   1.363
 9252SOL     OW28654   4.730   0.731   4.899
 9252SOL    HW128655   4.734   0.645   4.850
 9252SOL    HW228656   4.639   0.744   4.938
 9253SOL     OW28657   5.661   5.025   5.661
 9253SOL    HW128658   5.716   5.095   5.615
 9253SOL    HW228659   5.620   4.965   5.592
 9254SOL     OW28660   5.347   4.225   2.377
 9254SOL    HW128661   5.342   4.142   2.322
 9254SOL    HW228662   5.443   4.248   2.395
 9255SOL     OW28663   5.931   3.583   6.473
 9255SOL    HW128664   5.951   3.574   6.570
 9255SOL    HW228665   5.901   3.495   6.436
 9256SOL     OW28666   2.101   6.858   1.922
 9256SOL    HW128667   2.081   6.851   1.824
 9256SOL    HW228668   2.017   6.845   1.974
 9257SOL     OW28669   6.233   5.851   3.340
 9257SOL    HW128670   6.254   5.945   3.368
 9257SOL    HW228671   6.302   5.820   3.274
 9258SOL     OW28672   3.501   3.286   0.415
 9258SOL    HW128673   3.545   3.200   0.440
 9258SOL    HW228674   3.571   3.350   0.382
 9259SOL     OW28675   2.063   1.680   0.343
 9259SOL    HW128676   2.057   1.593   0.292
 9259SOL    HW228677   2.001   1.678   0.420
 9260SOL     OW28678   6.969   3.093   6.225
 9260SOL    HW128679   6.999   3.082   6.131
 9260SOL    HW228680   6.880   3.139   6.227
 9261SOL     OW28681   4.661   1.393   0.150
 9261SOL    HW128682   4.706   1.350   0.228
 9261SOL    HW228683   4.727   1.448   0.099
 9262SOL     OW28684   0.778   6.974   4.872
 9262SOL    HW128685   0.759   6.952   4.777
 9262SOL    HW228686   0.838   0.039   4.876
 9263SOL     OW28687   3.140   5.703   3.041
 9263SOL    HW128688   3.197   5.634   3.086
 9263SOL    HW228689   3.173   5.719   2.949
 9264SOL     OW28690   5.061   3.632   6.572
 9264SOL    HW128691   4.994   3.560   6.553
 9264SOL    HW228692   5.153   3.597   6.558
 9265SOL     OW28693   3.885   2.151   6.640
 9265SOL    HW128694   3.980   2.121   6.650
 9265SOL    HW228695   3.879   2.219   6.567
 9266SOL     OW28696   0.454   5.845   0.972
 9266SOL    HW128697   0.368   5.830   0.923
 9266SOL    HW228698   0.525   5.784   0.935
 9267SOL     OW28699   0.938   1.832   4.080
 9267SOL    HW128700   0.917   1.736   4.067
 9267SOL    HW228701   1.013   1.859   4.018
 9268SOL     OW28702   1.112   6.378   2.635
 9268SOL    HW128703   1.161   6.462   2.659
 9268SOL    HW228704   1.020   6.380   2.675
 9269SOL     OW28705   4.341   0.477   6.125
 9269SOL    HW128706   4.254   0.435   6.099
 9269SOL    HW228707   4.344   0.570   6.089
 9270SOL     OW28708   3.375   0.996   5.470
 9270SOL    HW128709   3.408   1.035   5.384
 9270SOL    HW228710   3.289   0.948   5.455
 9271SOL     OW28711   0.646   0.129   0.624
 9271SOL    HW128712   0.546   0.119   0.628
 9271SOL    HW228713   0.685   0.107   0.713
 9272SOL     OW28714   0.679   6.621   6.756
 9272SOL    HW128715   0.774   6.625   6.786
 9272SOL    HW228716   0.622   6.671   6.821
 9273SOL     OW28717   5.109   6.189   3.887
 9273SOL    HW128718   5.060   6.268   3.850
 9273SOL    HW228719   5.044   6.130   3.935
 9274SOL     OW28720   0.052   3.164   0.375
 9274SOL    HW128721   6.997   3.228   0.344
 9274SOL    HW228722   0.115   3.213   0.436
 9275SOL     OW28723   0.300   6.549   0.767
 9275SOL    HW128724   0.334   6.456   0.781
 9275SOL    HW228725   0.237   6.573   0.841
 9276SOL     OW28726   2.845   4.699   0.102
 9276SOL    HW128727   2.793   4.728   0.182
 9276SOL    HW228728   2.892   4.612   0.122
 9277SOL     OW28729   4.047   4.809   3.080
 9277SOL    HW128730   4.130   4.753   3.071
 9277SOL    HW228731   4.031   4.828   3.177
 9278SOL     OW28732   0.099   0.438   5.610
 9278SOL    HW128733   0.143   0.348   5.622
 9278SOL    HW228734   0.152   0.493   5.547
 9279SOL     OW28735   3.381   6.266   1.698
 9279SOL    HW128736   3.412   6.244   1.605
 9279SOL    HW228737   3.453   6.316   1.746
 9280SOL     OW28738   2.082   2.208   2.006
 9280SOL    HW128739   2.181   2.197   2.007
 9280SOL    HW228740   2.048   2.213   2.101
 9281SOL     OW28741   3.535   3.780   5.698
 9281SOL    HW128742   3.564   3.694   5.741
 9281SOL    HW228743   3.450   3.766   5.648
 9282SOL     OW28744   4.644   1.013   4.327
 9282SOL    HW128745   4.576   1.079   4.359
 9282SOL    HW228746   4.718   1.006   4.393
 9283SOL     OW28747   5.615   0.431   6.350
 9283SOL    HW128748   5.598   0.412   6.254
 9283SOL    HW228749   5.537   0.480   6.389
 9284SOL     OW28750   2.900   3.884   5.057
 9284SOL    HW128751   2.878   3.861   5.152
 9284SOL    HW228752   2.864   3.814   4.996
 9285SOL     OW28753   5.426   3.601   1.307
 9285SOL    HW128754   5.364   3.606   1.385
 9285SOL    HW228755   5.373   3.584   1.224
 9286SOL     OW28756   5.082   5.557   0.478
 9286SOL    HW128757   5.179   5.566   0.456
 9286SOL    HW228758   5.061   5.461   0.497
 9287SOL     OW28759   2.107   4.110   5.826
 9287SOL    HW128760   2.118   4.038   5.894
 9287SOL    HW228761   2.134   4.075   5.736
 9288SOL     OW28762   4.618   2.581   3.252
 9288SOL    HW128763   4.613   2.509   3.183
 9288SOL    HW228764   4.694   2.563   3.314
 9289SOL     OW28765   4.687   0.783   6.264
 9289SOL    HW128766   4.696   0.776   6.364
 9289SOL    HW228767   4.749   0.718   6.221
 9290SOL     OW28768   6.097   0.538   3.697
 9290SOL    HW128769   6.038   0.461   3.674
 9290SOL    HW228770   6.041   0.618   3.717
 9291SOL     OW28771   1.245   6.321   5.915
 9291SOL    HW128772   1.230   6.222   5.914
 9291SOL    HW228773   1.244   6.354   6.009
 9292SOL     OW28774   1.933   1.146   6.399
 9292SOL    HW128775   1.860   1.213   6.412
 9292SOL    HW228776   1.997   1.152   6.476
 9293SOL     OW28777   5.027   2.467   6.381
 9293SOL    HW128778   5.025   2.526   6.461
 9293SOL    HW228779   5.033   2.371   6.410
 9294SOL     OW28780   5.057   1.180   0.377
 9294SOL    HW128781   5.053   1.250   0.448
 9294SOL    HW228782   4.970   1.131   0.375
 9295SOL     OW28783   0.208   0.898   5.290
 9295SOL    HW128784   0.277   0.970   5.282
 9295SOL    HW228785   0.219   0.833   5.215
 9296SOL     OW28786   2.498   3.666   0.570
 9296SOL    HW128787   2.582   3.660   0.624
 9296SOL    HW228788   2.439   3.738   0.608
 9297SOL     OW28789   0.770   5.868   3.202
 9297SOL    HW128790   0.783   5.947   3.263
 9297SOL    HW228791   0.683   5.878   3.154
 9298SOL     OW28792   1.132   6.851   5.904
 9298SOL    HW128793   1.151   6.777   5.969
 9298SOL    HW228794   1.035   6.851   5.881
 9299SOL     OW28795   2.011   1.443   4.044
 9299SOL    HW128796   2.015   1.392   4.130
 9299SOL    HW228797   2.084   1.411   3.984
 9300SOL     OW28798   0.324   5.961   5.165
 9300SOL    HW128799   0.386   6.006   5.102
 9300SOL    HW228800   0.358   5.869   5.185
 9301SOL     OW28801   0.184   4.085   4.547
 9301SOL    HW128802   0.145   4.128   4.628
 9301SOL    HW228803   0.182   4.150   4.471
 9302SOL     OW28804   2.240   2.609   4.803
 9302SOL    HW128805   2.179   2.537   4.770
 9302SOL    HW228806   2.217   2.631   4.898
 9303SOL     OW28807   3.238   4.621   0.170
 9303SOL    HW128808   3.300   4.543   0.164
 9303SOL    HW228809   3.143   4.589   0.172
 9304SOL     OW28810   4.756   5.191   1.008
 9304SOL    HW128811   4.749   5.287   1.035
 9304SOL    HW228812   4.678   5.167   0.950
 9305SOL     OW28813   3.514   1.598   0.597
 9305SOL    HW128814   3.527   1.503   0.625
 9305SOL    HW228815   3.460   1.600   0.513
 9306SOL     OW28816   6.683   3.738   4.716
 9306SOL    HW128817   6.586   3.742   4.691
 9306SOL    HW228818   6.734   3.805   4.662
 9307SOL     OW28819   1.819   3.998   0.677
 9307SOL    HW128820   1.902   4.047   0.648
 9307SOL    HW228821   1.800   3.925   0.613
 9308SOL     OW28822   1.305   4.998   1.320
 9308SOL    HW128823   1.378   4.970   1.383
 9308SOL    HW228824   1.249   4.918   1.297
 9309SOL     OW28825   4.311   6.486   6.348
 9309SOL    HW128826   4.304   6.542   6.265
 9309SOL    HW228827   4.327   6.545   6.427
 9310SOL     OW28828   5.027   5.657   5.767
 9310SOL    HW128829   4.980   5.610   5.841
 9310SOL    HW228830   4.977   5.740   5.742
 9311SOL     OW28831   4.702   4.023   1.391
 9311SOL    HW128832   4.684   4.116   1.360
 9311SOL    HW228833   4.619   3.984   1.432
 9312SOL     OW28834   1.529   2.443   1.267
 9312SOL    HW128835   1.626   2.462   1.254
 9312SOL    HW228836   1.503   2.364   1.212
 9313SOL     OW28837   1.034   0.697   1.491
 9313SOL    HW128838   1.040   0.600   1.466
 9313SOL    HW228839   1.085   0.713   1.575
 9314SOL     OW28840   5.605   3.535   0.733
 9314SOL    HW128841   5.636   3.625   0.764
 9314SOL    HW228842   5.597   3.473   0.811
 9315SOL     OW28843   6.189   0.768   6.768
 9315SOL    HW128844   6.181   0.812   6.679
 9315SOL    HW228845   6.184   0.668   6.757
 9316SOL     OW28846   6.228   0.162   4.890
 9316SOL    HW128847   6.229   0.091   4.819
 9316SOL    HW228848   6.237   0.119   4.980
 9317SOL     OW28849   3.166   5.442   3.607
 9317SOL    HW128850   3.163   5.359   3.551
 9317SOL    HW228851   3.236   5.504   3.572
 9318SOL     OW28852   4.727   5.727   0.129
 9318SOL    HW128853   4.639   5.751   0.088
 9318SOL    HW228854   4.715   5.714   0.228
 9319SOL     OW28855   2.509   3.279   0.796
 9319SOL    HW128856   2.542   3.186   0.812
 9319SOL    HW228857   2.483   3.321   0.883
 9320SOL     OW28858   4.752   6.964   5.819
 9320SOL    HW128859   4.680   6.894   5.822
 9320SOL    HW228860   4.721   0.026   5.765
 9321SOL     OW28861   1.225   2.032   4.990
 9321SOL    HW128862   1.248   2.110   5.048
 9321SOL    HW228863   1.126   2.033   4.971
 9322SOL     OW28864   6.190   4.796   6.097
 9322SOL    HW128865   6.215   4.879   6.046
 9322SOL    HW228866   6.138   4.735   6.037
 9323SOL     OW28867   2.435   2.553   4.604
 9323SOL    HW128868   2.472   2.461   4.597
 9323SOL    HW228869   2.348   2.551   4.654
 9324SOL     OW28870   1.880   3.695   0.674
 9324SOL    HW128871   1.832   3.644   0.602
 9324SOL    HW228872   1.862   3.652   0.762
 9325SOL     OW28873   2.000   6.357   1.530
 9325SOL    HW128874   2.066   6.282   1.525
 9325SOL    HW228875   1.974   6.384   1.437
 9326SOL     OW28876   3.359   5.532   0.362
 9326SOL    HW128877   3.266   5.500   0.375
 9326SOL    HW228878   3.359   5.612   0.301
 9327SOL     OW28879   4.425   0.024   3.126
 9327SOL    HW128880   4.415   0.109   3.074
 9327SOL    HW228881   4.512   0.025   3.175
 9328SOL     OW28882   2.081   6.833   5.243
 9328SOL    HW128883   2.091   6.910   5.179
 9328SOL    HW228884   2.168   6.784   5.250
 9329SOL     OW28885   0.221   5.787   6.632
 9329SOL    HW128886   0.317   5.788   6.605
 9329SOL    HW228887   0.169   5.730   6.568
 9330SOL     OW28888   0.621   0.033   6.866
 9330SOL    HW128889   0.592   0.015   6.772
 9330SOL    HW228890   0.640   0.131   6.877
 9331SOL     OW28891   1.990   2.670   5.381
 9331SOL    HW128892   2.040   2.756   5.390
 9331SOL    HW228893   1.937   2.653   5.463
 9332SOL     OW28894   4.112   5.530   0.155
 9332SOL    HW128895   4.076   5.564   0.069
 9332SOL    HW228896   4.212   5.523   0.149
 9333SOL     OW28897   3.545   5.913   0.613
 9333SOL    HW128898   3.482   5.836   0.629
 9333SOL    HW228899   3.527   5.985   0.679
 9334SOL     OW28900   5.305   0.502   4.261
 9334SOL    HW128901   5.394   0.516   4.305
 9334SOL    HW228902   5.288   0.404   4.253
 9335SOL     OW28903   1.945   2.214   1.066
 9335SOL    HW128904   1.996   2.128   1.068
 9335SOL    HW228905   1.930   2.247   1.160
 9336SOL     OW28906   5.787   0.233   4.175
 9336SOL    HW128907   5.796   0.137   4.200
 9336SOL    HW228908   5.874   0.280   4.190
 9337SOL     OW28909   4.889   0.163   6.869
 9337SOL    HW128910   4.835   0.179   6.952
 9337SOL    HW228911   4.853   0.219   6.794
 9338SOL     OW28912   0.208   6.159   0.060
 9338SOL    HW128913   0.129   6.109   0.024
 9338SOL    HW228914   0.287   6.099   0.065
 9339SOL     OW28915   5.596   5.471   0.318
 9339SOL    HW128916   5.569   5.393   0.261
 9339SOL    HW228917   5.639   5.541   0.261
 9340SOL     OW28918   4.051   4.819   2.725
 9340SOL    HW128919   4.020   4.912   2.742
 9340SOL    HW228920   3.976   4.755   2.745
 9341SOL     OW28921   6.581   4.551   6.477
 9341SOL    HW128922   6.493   4.572   6.519
 9341SOL    HW228923   6.579   4.576   6.380
 9342SOL     OW28924   3.019   0.413   4.780
 9342SOL    HW128925   3.092   0.421   4.847
 9342SOL    HW228926   3.004   0.317   4.758
 9343SOL     OW28927   4.859   3.862   2.026
 9343SOL    HW128928   4.901   3.921   1.956
 9343SOL    HW228929   4.771   3.828   1.992
 9344SOL     OW28930   5.378   5.367   6.843
 9344SOL    HW128931   5.337   5.278   6.826
 9344SOL    HW228932   5.443   5.389   6.771
 9345SOL     OW28933   6.567   6.263   6.914
 9345SOL    HW128934   6.497   6.203   6.876
 9345SOL    HW228935   6.527   6.353   6.933
 9346SOL     OW28936   4.725   5.548   2.547
 9346SOL    HW128937   4.728   5.598   2.634
 9346SOL    HW228938   4.787   5.470   2.551
 9347SOL     OW28939   3.311   5.700   0.652
 9347SOL    HW128940   3.299   5.668   0.746
 9347SOL    HW228941   3.347   5.626   0.596
 9348SOL     OW28942   2.626   5.328   3.222
 9348SOL    HW128943   2.549   5.353   3.164
 9348SOL    HW228944   2.670   5.246   3.186
 9349SOL     OW28945   6.455   5.427   2.053
 9349SOL    HW128946   6.406   5.485   2.118
 9349SOL    HW228947   6.454   5.470   1.963
 9350SOL     OW28948   6.834   1.263   4.096
 9350SOL    HW128949   6.860   1.343   4.042
 9350SOL    HW228950   6.738   1.270   4.123
 9351SOL     OW28951   2.240   1.013   5.649
 9351SOL    HW128952   2.316   1.072   5.622
 9351SOL    HW228953   2.154   1.064   5.642
 9352SOL     OW28954   1.508   2.761   5.456
 9352SOL    HW128955   1.411   2.737   5.452
 9352SOL    HW228956   1.526   2.816   5.538
 9353SOL     OW28957   1.595   4.345   2.079
 9353SOL    HW128958   1.664   4.401   2.033
 9353SOL    HW228959   1.640   4.286   2.146
 9354SOL     OW28960   6.433   1.814   1.044
 9354SOL    HW128961   6.409   1.892   0.985
 9354SOL    HW228962   6.490   1.750   0.992
 9355SOL     OW28963   6.360   1.133   3.743
 9355SOL    HW128964   6.363   1.231   3.763
 9355SOL    HW228965   6.280   1.093   3.786
 9356SOL     OW28966   4.863   5.061   2.194
 9356SOL    HW128967   4.847   4.997   2.119
 9356SOL    HW228968   4.811   5.031   2.274
 9357SOL     OW28969   2.309   4.377   0.111
 9357SOL    HW128970   2.258   4.359   0.196
 9357SOL    HW228971   2.381   4.309   0.100
 9358SOL     OW28972   5.497   3.545   1.723
 9358SOL    HW128973   5.401   3.524   1.705
 9358SOL    HW228974   5.539   3.470   1.775
 9359SOL     OW28975   0.236   3.337   5.426
 9359SOL    HW128976   0.283   3.414   5.381
 9359SOL    HW228977   0.293   3.255   5.420
 9360SOL     OW28978   1.282   0.044   5.915
 9360SOL    HW128979   1.238   6.973   5.941
 9360SOL    HW228980   1.332   0.080   5.994
 9361SOL     OW28981   2.628   0.356   3.355
 9361SOL    HW128982   2.660   0.266   3.384
 9361SOL    HW228983   2.687   0.426   3.395
 9362SOL     OW28984   1.084   1.177   1.753
 9362SOL    HW128985   1.097   1.276   1.757
 9362SOL    HW228986   0.987   1.157   1.736
 9363SOL     OW28987   3.932   5.304   2.021
 9363SOL    HW128988   3.996   5.310   2.097
 9363SOL    HW228989   3.980   5.322   1.935
 9364SOL     OW28990   3.860   3.357   6.293
 9364SOL    HW128991   3.927   3.382   6.363
 9364SOL    HW228992   3.906   3.306   6.220
 9365SOL     OW28993   2.453   1.838   4.761
 9365SOL    HW128994   2.410   1.894   4.690
 9365SOL    HW228995   2.543   1.875   4.784
 9366SOL     OW28996   3.337   1.672   6.865
 9366SOL    HW128997   3.421   1.725   6.851
 9366SOL    HW228998   3.258   1.728   6.840
 9367SOL     OW28999   7.014   6.097   3.742
 9367SOL    HW129000   6.934   6.106   3.800
 9367SOL    HW229001   0.026   6.001   3.738
 9368SOL     OW29002   3.085   1.574   3.183
 9368SOL    HW129003   3.098   1.498   3.120
 9368SOL    HW229004   3.174   1.617   3.201
 9369SOL     OW29005   0.377   0.534   5.995
 9369SOL    HW129006   0.375   0.456   6.058
 9369SOL    HW229007   0.463   0.584   6.007
 9370SOL     OW29008   5.430   0.384   2.206
 9370SOL    HW129009   5.423   0.379   2.107
 9370SOL    HW229010   5.479   0.304   2.240
 9371SOL     OW29011   2.304   5.180   0.377
 9371SOL    HW129012   2.296   5.189   0.278
 9371SOL    HW229013   2.217   5.204   0.419
 9372SOL     OW29014   5.881   6.083   2.972
 9372SOL    HW129015   5.863   6.054   2.878
 9372SOL    HW229016   5.889   6.003   3.031
 9373SOL     OW29017   4.872   2.184   2.849
 9373SOL    HW129018   4.790   2.128   2.858
 9373SOL    HW229019   4.846   2.277   2.822
 9374SOL     OW29020   6.005   2.983   6.919
 9374SOL    HW129021   6.066   2.904   6.926
 9374SOL    HW229022   5.915   2.959   6.956
 9375SOL     OW29023   6.720   1.704   3.824
 9375SOL    HW129024   6.711   1.612   3.861
 9375SOL    HW229025   6.752   1.699   3.729
 9376SOL     OW29026   2.691   3.694   1.011
 9376SOL    HW129027   2.595   3.698   1.037
 9376SOL    HW229028   2.741   3.769   1.055
 9377SOL     OW29029   1.327   5.568   4.101
 9377SOL    HW129030   1.292   5.594   4.192
 9377SOL    HW229031   1.324   5.468   4.092
 9378SOL     OW29032   1.093   0.341   5.695
 9378SOL    HW129033   1.139   0.373   5.612
 9378SOL    HW229034   1.004   0.303   5.670
 9379SOL     OW29035   4.632   5.265   5.168
 9379SOL    HW129036   4.704   5.334   5.158
 9379SOL    HW229037   4.545   5.310   5.189
 9380SOL     OW29038   5.802   4.859   4.608
 9380SOL    HW129039   5.901   4.872   4.606
 9380SOL    HW229040   5.767   4.882   4.699
 9381SOL     OW29041   2.250   3.111   5.719
 9381SOL    HW129042   2.336   3.060   5.711
 9381SOL    HW229043   2.173   3.048   5.713
 9382SOL     OW29044   3.477   1.565   2.993
 9382SOL    HW129045   3.415   1.562   2.914
 9382SOL    HW229046   3.502   1.660   3.012
 9383SOL     OW29047   2.606   6.331   4.793
 9383SOL    HW129048   2.586   6.412   4.848
 9383SOL    HW229049   2.661   6.267   4.847
 9384SOL     OW29050   3.808   6.097   1.302
 9384SOL    HW129051   3.892   6.146   1.327
 9384SOL    HW229052   3.814   6.067   1.207
 9385SOL     OW29053   4.415   1.344   2.445
 9385SOL    HW129054   4.436   1.439   2.419
 9385SOL    HW229055   4.470   1.319   2.525
 9386SOL     OW29056   2.234   6.227   5.297
 9386SOL    HW129057   2.268   6.194   5.385
 9386SOL    HW229058   2.134   6.225   5.298
 9387SOL     OW29059   3.758   0.432   7.014
 9387SOL    HW129060   3.836   0.475   6.966
 9387SOL    HW229061   3.681   0.496   7.015
 9388SOL     OW29062   2.044   5.351   2.610
 9388SOL    HW129063   2.047   5.449   2.588
 9388SOL    HW229064   1.982   5.337   2.687
 9389SOL     OW29065   1.908   6.955   5.445
 9389SOL    HW129066   1.972   6.919   5.377
 9389SOL    HW229067   1.956   0.002   5.507
 9390SOL     OW29068   4.078   5.767   4.837
 9390SOL    HW129069   4.049   5.733   4.926
 9390SOL    HW229070   4.074   5.694   4.769
 9391SOL     OW29071   2.414   0.686   5.235
 9391SOL    HW129072   2.349   0.751   5.195
 9391SOL    HW229073   2.441   0.619   5.166
 9392SOL     OW29074   7.010   0.491   5.145
 9392SOL    HW129075   6.941   0.503   5.216
 9392SOL    HW229076   0.015   0.579   5.103
 9393SOL     OW29077   3.099   0.882   5.473
 9393SOL    HW129078   3.047   0.818   5.530
 9393SOL    HW229079   3.140   0.833   5.396
 9394SOL     OW29080   6.502   1.737   2.358
 9394SOL    HW129081   6.483   1.642   2.333
 9394SOL    HW229082   6.580   1.771   2.305
 9395SOL     OW29083   2.496   2.743   0.502
 9395SOL    HW129084   2.408   2.771   0.464
 9395SOL    HW229085   2.537   2.820   0.552
 9396SOL     OW29086   0.424   5.553   3.595
 9396SOL    HW129087   0.438   5.625   3.663
 9396SOL    HW229088   0.500   5.488   3.598
 9397SOL     OW29089   2.622   0.457   0.374
 9397SOL    HW129090   2.528   0.455   0.408
 9397SOL    HW229091   2.672   0.378   0.409
 9398SOL     OW29092   1.727   0.160   5.479
 9398SOL    HW129093   1.734   0.223   5.401
 9398SOL    HW229094   1.800   0.091   5.474
 9399SOL     OW29095   0.501   1.499   0.077
 9399SOL    HW129096   0.541   1.589   0.058
 9399SOL    HW229097   0.509   1.441   7.012
 9400SOL     OW29098   5.633   2.731   1.398
 9400SOL    HW129099   5.540   2.700   1.418
 9400SOL    HW229100   5.681   2.663   1.344
 9401SOL     OW29101   3.852   6.693   3.180
 9401SOL    HW129102   3.830   6.646   3.095
 9401SOL    HW229103   3.932   6.651   3.222
 9402SOL     OW29104   0.865   4.868   4.592
 9402SOL    HW129105   0.883   4.916   4.506
 9402SOL    HW229106   0.951   4.836   4.630
 9403SOL     OW29107   5.548   1.479   3.085
 9403SOL    HW129108   5.627   1.419   3.091
 9403SOL    HW229109   5.578   1.572   3.064
 9404SOL     OW29110   0.663   3.392   6.022
 9404SOL    HW129111   0.620   3.396   6.113
 9404SOL    HW229112   0.594   3.412   5.952
 9405SOL     OW29113   0.528   6.549   2.459
 9405SOL    HW129114   0.622   6.581   2.474
 9405SOL    HW229115   0.528   6.466   2.404
 9406SOL     OW29116   0.207   3.126   6.347
 9406SOL    HW129117   0.115   3.111   6.311
 9406SOL    HW229118   0.220   3.071   6.430
 9407SOL     OW29119   2.420   5.243   3.623
 9407SOL    HW129120   2.489   5.314   3.606
 9407SOL    HW229121   2.464   5.154   3.631
 9408SOL     OW29122   3.888   1.899   6.306
 9408SOL    HW129123   3.944   1.982   6.310
 9408SOL    HW229124   3.886   1.865   6.212
 9409SOL     OW29125   5.972   4.614   6.232
 9409SOL    HW129126   5.883   4.644   6.264
 9409SOL    HW229127   6.033   4.693   6.222
 9410SOL     OW29128   3.584   6.359   1.862
 9410SOL    HW129129   3.631   6.436   1.820
 9410SOL    HW229130   3.643   6.317   1.932
 9411SOL     OW29131   4.009   3.839   1.387
 9411SOL    HW129132   4.103   3.855   1.358
 9411SOL    HW229133   4.005   3.836   1.487
 9412SOL     OW29134   0.156   3.301   1.508
 9412SOL    HW129135   0.114   3.288   1.598
 9412SOL    HW229136   0.099   3.364   1.454
 9413SOL     OW29137   4.190   6.460   4.269
 9413SOL    HW129138   4.194   6.402   4.350
 9413SOL    HW229139   4.235   6.414   4.193
 9414SOL     OW29140   3.020   1.144   3.852
 9414SOL    HW129141   3.026   1.154   3.753
 9414SOL    HW229142   3.033   1.048   3.878
 9415SOL     OW29143   2.534   0.080   2.613
 9415SOL    HW129144   2.620   0.030   2.624
 9415SOL    HW229145   2.548   0.176   2.635
 9416SOL     OW29146   0.880   1.510   1.180
 9416SOL    HW129147   0.859   1.607   1.189
 9416SOL    HW229148   0.808   1.456   1.225
 9417SOL     OW29149   4.032   6.968   5.756
 9417SOL    HW129150   3.966   0.027   5.751
 9417SOL    HW229151   4.020   6.917   5.841
 9418SOL     OW29152   3.258   6.812   1.066
 9418SOL    HW129153   3.329   6.882   1.057
 9418SOL    HW229154   3.200   6.833   1.145
 9419SOL     OW29155   3.011   5.192   5.700
 9419SOL    HW129156   3.051   5.202   5.609
 9419SOL    HW229157   2.965   5.277   5.725
 9420SOL     OW29158   6.952   2.115   4.316
 9420SOL    HW129159   0.017   2.066   4.351
 9420SOL    HW229160   6.976   2.211   4.301
 9421SOL     OW29161   2.369   6.558   5.017
 9421SOL    HW129162   2.407   6.468   5.039
 9421SOL    HW229163   2.305   6.550   4.941
 9422SOL     OW29164   4.212   6.140   2.656
 9422SOL    HW129165   4.214   6.041   2.664
 9422SOL    HW229166   4.136   6.176   2.710
 9423SOL     OW29167   4.596   0.981   3.438
 9423SOL    HW129168   4.497   0.968   3.440
 9423SOL    HW229169   4.642   0.892   3.448
 9424SOL     OW29170   4.921   0.890   5.340
 9424SOL    HW129171   4.842   0.888   5.278
 9424SOL    HW229172   4.999   0.847   5.296
 9425SOL     OW29173   0.434   3.761   6.067
 9425SOL    HW129174   0.513   3.822   6.068
 9425SOL    HW229175   0.400   3.752   5.973
 9426SOL     OW29176   2.674   1.903   0.317
 9426SOL    HW129177   2.656   1.932   0.223
 9426SOL    HW229178   2.614   1.953   0.379
 9427SOL     OW29179   3.516   5.370   4.758
 9427SOL    HW129180   3.585   5.351   4.689
 9427SOL    HW229181   3.518   5.299   4.828
 9428SOL     OW29182   5.289   1.141   0.938
 9428SOL    HW129183   5.252   1.067   0.882
 9428SOL    HW229184   5.218   1.209   0.955
 9429SOL     OW29185   1.820   4.515   2.131
 9429SOL    HW129186   1.895   4.462   2.170
 9429SOL    HW229187   1.857   4.588   2.074
 9430SOL     OW29188   0.189   4.651   1.722
 9430SOL    HW129189   0.221   4.616   1.634
 9430SOL    HW229190   0.199   4.751   1.724
 9431SOL     OW29191   5.419   4.180   0.661
 9431SOL    HW129192   5.467   4.099   0.693
 9431SOL    HW229193   5.442   4.258   0.719
 9432SOL     OW29194   5.168   0.427   2.290
 9432SOL    HW129195   5.268   0.430   2.292
 9432SOL    HW229196   5.131   0.492   2.356
 9433SOL     OW29197   3.623   5.142   3.519
 9433SOL    HW129198   3.576   5.223   3.483
 9433SOL    HW229199   3.644   5.155   3.616
 9434SOL     OW29200   5.636   5.249   2.983
 9434SOL    HW129201   5.656   5.281   3.076
 9434SOL    HW229202   5.721   5.233   2.934
 9435SOL     OW29203   0.873   1.924   4.617
 9435SOL    HW129204   0.890   1.861   4.693
 9435SOL    HW229205   0.903   1.882   4.531
 9436SOL     OW29206   1.132   4.055   2.078
 9436SOL    HW129207   1.146   4.152   2.095
 9436SOL    HW229208   1.048   4.042   2.025
 9437SOL     OW29209   1.551   6.340   3.973
 9437SOL    HW129210   1.643   6.356   3.936
 9437SOL    HW229211   1.526   6.244   3.959
 9438SOL     OW29212   1.016   6.813   1.785
 9438SOL    HW129213   0.979   6.855   1.868
 9438SOL    HW229214   0.987   6.718   1.780
 9439SOL     OW29215   0.406   2.488   2.292
 9439SOL    HW129216   0.319   2.537   2.282
 9439SOL    HW229217   0.480   2.544   2.256
 9440SOL     OW29218   4.509   5.925   4.188
 9440SOL    HW129219   4.501   5.884   4.279
 9440SOL    HW229220   4.488   5.857   4.118
 9441SOL     OW29221   1.735   3.468   4.983
 9441SOL    HW129222   1.785   3.535   5.039
 9441SOL    HW229223   1.643   3.502   4.967
 9442SOL     OW29224   4.966   3.320   0.159
 9442SOL    HW129225   4.889   3.275   0.115
 9442SOL    HW229226   4.934   3.398   0.213
 9443SOL     OW29227   3.015   5.925   1.540
 9443SOL    HW129228   3.032   5.827   1.546
 9443SOL    HW229229   2.926   5.946   1.579
 9444SOL     OW29230   1.436   3.831   6.342
 9444SOL    HW129231   1.443   3.885   6.426
 9444SOL    HW229232   1.509   3.763   6.340
 9445SOL     OW29233   5.563   3.750   2.605
 9445SOL    HW129234   5.565   3.652   2.627
 9445SOL    HW229235   5.478   3.789   2.638
 9446SOL     OW29236   6.478   6.812   3.704
 9446SOL    HW129237   6.545   6.835   3.775
 9446SOL    HW229238   6.390   6.790   3.747
 9447SOL     OW29239   6.176   3.110   3.387
 9447SOL    HW129240   6.141   3.180   3.325
 9447SOL    HW229241   6.273   3.093   3.369
 9448SOL     OW29242   6.600   6.701   6.101
 9448SOL    HW129243   6.545   6.750   6.169
 9448SOL    HW229244   6.578   6.603   6.105
 9449SOL     OW29245   6.625   5.926   6.401
 9449SOL    HW129246   6.684   5.917   6.320
 9449SOL    HW229247   6.682   5.928   6.483
 9450SOL     OW29248   3.477   4.967   4.462
 9450SOL    HW129249   3.477   5.024   4.544
 9450SOL    HW229250   3.389   4.920   4.453
 9451SOL     OW29251   3.798   5.911   5.941
 9451SOL    HW129252   3.779   5.897   6.038
 9451SOL    HW229253   3.732   5.861   5.885
 9452SOL     OW29254   0.811   3.714   0.887
 9452SOL    HW129255   0.907   3.689   0.874
 9452SOL    HW229256   0.802   3.813   0.889
 9453SOL     OW29257   2.116   5.202   3.905
 9453SOL    HW129258   2.124   5.103   3.892
 9453SOL    HW229259   2.152   5.249   3.824
 9454SOL     OW29260   2.043   3.406   5.948
 9454SOL    HW129261   1.949   3.439   5.944
 9454SOL    HW229262   2.074   3.403   6.044
 9455SOL     OW29263   3.845   1.636   2.835
 9455SOL    HW129264   3.811   1.650   2.742
 9455SOL    HW229265   3.795   1.696   2.898
 9456SOL     OW29266   0.775   4.107   0.111
 9456SOL    HW129267   0.771   4.170   0.034
 9456SOL    HW229268   0.855   4.047   0.101
 9457SOL     OW29269   2.439   4.116   5.645
 9457SOL    HW129270   2.493   4.080   5.721
 9457SOL    HW229271   2.354   4.065   5.637
 9458SOL     OW29272   1.312   3.076   6.322
 9458SOL    HW129273   1.229   3.128   6.304
 9458SOL    HW229274   1.293   2.978   6.311
 9459SOL     OW29275   5.905   4.654   2.648
 9459SOL    HW129276   5.875   4.560   2.630
 9459SOL    HW229277   5.936   4.660   2.743
 9460SOL     OW29278   6.774   1.429   5.035
 9460SOL    HW129279   6.864   1.408   5.074
 9460SOL    HW229280   6.735   1.508   5.083
 9461SOL     OW29281   6.697   1.925   2.935
 9461SOL    HW129282   6.622   1.860   2.943
 9461SOL    HW229283   6.765   1.890   2.872
 9462SOL     OW29284   2.142   3.729   3.582
 9462SOL    HW129285   2.191   3.791   3.521
 9462SOL    HW229286   2.109   3.780   3.661
 9463SOL     OW29287   0.448   0.844   1.086
 9463SOL    HW129288   0.468   0.793   1.169
 9463SOL    HW229289   0.488   0.936   1.093
 9464SOL     OW29290   5.678   6.324   0.682
 9464SOL    HW129291   5.699   6.402   0.742
 9464SOL    HW229292   5.598   6.275   0.718
 9465SOL     OW29293   0.595   6.436   3.029
 9465SOL    HW129294   0.579   6.458   3.125
 9465SOL    HW229295   0.508   6.412   2.985
 9466SOL     OW29296   3.753   4.225   5.200
 9466SOL    HW129297   3.681   4.165   5.235
 9466SOL    HW229298   3.747   4.228   5.100
 9467SOL     OW29299   1.383   2.571   1.866
 9467SOL    HW129300   1.459   2.555   1.804
 9467SOL    HW229301   1.412   2.554   1.960
 9468SOL     OW29302   5.747   2.727   6.093
 9468SOL    HW129303   5.794   2.663   6.153
 9468SOL    HW229304   5.699   2.795   6.147
 9469SOL     OW29305   5.734   5.971   1.382
 9469SOL    HW129306   5.638   5.979   1.356
 9469SOL    HW229307   5.747   5.888   1.435
 9470SOL     OW29308   4.772   4.113   5.606
 9470SOL    HW129309   4.720   4.112   5.521
 9470SOL    HW229310   4.753   4.030   5.658
 9471SOL     OW29311   5.976   1.211   4.325
 9471SOL    HW129312   5.895   1.164   4.360
 9471SOL    HW229313   6.040   1.144   4.287
 9472SOL     OW29314   5.883   2.874   4.394
 9472SOL    HW129315   5.947   2.949   4.378
 9472SOL    HW229316   5.826   2.861   4.313
 9473SOL     OW29317   2.423   4.935   5.555
 9473SOL    HW129318   2.505   4.881   5.573
 9473SOL    HW229319   2.445   5.008   5.490
 9474SOL     OW29320   6.382   2.601   6.937
 9474SOL    HW129321   6.479   2.606   6.961
 9474SOL    HW229322   6.341   2.521   6.979
 9475SOL     OW29323   3.002   3.588   0.415
 9475SOL    HW129324   2.958   3.657   0.358
 9475SOL    HW229325   3.095   3.616   0.437
 9476SOL     OW29326   2.959   3.275   5.013
 9476SOL    HW129327   3.005   3.211   4.952
 9476SOL    HW229328   2.895   3.226   5.072
 9477SOL     OW29329   0.417   3.213   2.813
 9477SOL    HW129330   0.398   3.255   2.724
 9477SOL    HW229331   0.332   3.205   2.866
 9478SOL     OW29332   4.528   3.047   5.664
 9478SOL    HW129333   4.466   3.109   5.712
 9478SOL    HW229334   4.501   2.953   5.682
 9479SOL     OW29335   5.602   6.373   6.893
 9479SOL    HW129336   5.567   6.309   6.824
 9479SOL    HW229337   5.659   6.442   6.849
 9480SOL     OW29338   4.965   4.270   0.258
 9480SOL    HW129339   5.035   4.208   0.295
 9480SOL    HW229340   4.984   4.364   0.288
 9481SOL     OW29341   5.776   3.555   1.497
 9481SOL    HW129342   5.685   3.534   1.533
 9481SOL    HW229343   5.782   3.526   1.401
 9482SOL     OW29344   6.510   0.831   3.038
 9482SOL    HW129345   6.559   0.746   3.058
 9482SOL    HW229346   6.454   0.856   3.117
 9483SOL     OW29347   1.555   1.884   1.283
 9483SOL    HW129348   1.478   1.821   1.278
 9483SOL    HW229349   1.610   1.863   1.364
 9484SOL     OW29350   4.228   1.555   3.171
 9484SOL    HW129351   4.296   1.590   3.235
 9484SOL    HW229352   4.136   1.568   3.211
 9485SOL     OW29353   0.852   0.027   2.422
 9485SOL    HW129354   0.797   6.984   2.481
 9485SOL    HW229355   0.932   6.991   2.389
 9486SOL     OW29356   2.570   4.981   1.513
 9486SOL    HW129357   2.506   4.907   1.495
 9486SOL    HW229358   2.637   4.950   1.582
 9487SOL     OW29359   2.914   3.305   2.870
 9487SOL    HW129360   2.818   3.297   2.842
 9487SOL    HW229361   2.923   3.380   2.936
 9488SOL     OW29362   2.519   6.227   1.103
 9488SOL    HW129363   2.469   6.252   1.021
 9488SOL    HW229364   2.473   6.264   1.184
 9489SOL     OW29365   3.944   4.124   1.428
 9489SOL    HW129366   3.848   4.100   1.422
 9489SOL    HW229367   3.997   4.068   1.364
 9490SOL     OW29368   6.203   5.964   1.066
 9490SOL    HW129369   6.234   5.921   0.981
 9490SOL    HW229370   6.139   6.037   1.044
 9491SOL     OW29371   6.912   4.128   3.638
 9491SOL    HW129372   6.981   4.056   3.638
 9491SOL    HW229373   6.942   4.203   3.580
 9492SOL     OW29374   3.546   3.170   2.794
 9492SOL    HW129375   3.591   3.090   2.834
 9492SOL    HW229376   3.522   3.150   2.699
 9493SOL     OW29377   4.066   5.286   4.144
 9493SOL    HW129378   4.002   5.210   4.152
 9493SOL    HW229379   4.148   5.256   4.096
 9494SOL     OW29380   4.492   4.309   1.602
 9494SOL    HW129381   4.448   4.263   1.678
 9494SOL    HW229382   4.591   4.297   1.608
 9495SOL     OW29383   5.718   1.594   4.724
 9495SOL    HW129384   5.809   1.613   4.689
 9495SOL    HW229385   5.686   1.672   4.778
 9496SOL     OW29386   5.326   4.920   0.771
 9496SOL    HW129387   5.337   4.986   0.845
 9496SOL    HW229388   5.260   4.851   0.797
 9497SOL     OW29389   5.950   4.560   0.118
 9497SOL    HW129390   5.911   4.577   0.027
 9497SOL    HW229391   6.035   4.612   0.129
 9498SOL     OW29392   5.173   0.133   5.616
 9498SOL    HW129393   5.155   0.055   5.674
 9498SOL    HW229394   5.227   0.201   5.666
 9499SOL     OW29395   2.544   4.155   5.923
 9499SOL    HW129396   2.542   4.249   5.955
 9499SOL    HW229397   2.509   4.094   5.994
 9500SOL     OW29398   4.283   0.627   1.462
 9500SOL    HW129399   4.217   0.574   1.409
 9500SOL    HW229400   4.299   0.715   1.416
 9501SOL     OW29401   3.126   1.605   4.866
 9501SOL    HW129402   3.168   1.580   4.779
 9501SOL    HW229403   3.029   1.625   4.852
 9502SOL     OW29404   0.289   2.006   4.332
 9502SOL    HW129405   0.389   2.011   4.335
 9502SOL    HW229406   0.258   2.034   4.241
 9503SOL     OW29407   0.430   1.619   1.338
 9503SOL    HW129408   0.362   1.546   1.337
 9503SOL    HW229409   0.488   1.613   1.257
 9504SOL     OW29410   0.446   1.620   0.555
 9504SOL    HW129411   0.443   1.556   0.478
 9504SOL    HW229412   0.353   1.646   0.581
 9505SOL     OW29413   5.428   3.963   4.179
 9505SOL    HW129414   5.476   3.935   4.262
 9505SOL    HW229415   5.476   4.040   4.137
 9506SOL     OW29416   0.496   3.747   6.662
 9506SOL    HW129417   0.513   3.828   6.718
 9506SOL    HW229418   0.467   3.672   6.720
 9507SOL     OW29419   1.221   1.065   3.826
 9507SOL    HW129420   1.191   1.160   3.828
 9507SOL    HW229421   1.320   1.061   3.841
 9508SOL     OW29422   5.666   3.293   1.015
 9508SOL    HW129423   5.701   3.201   0.996
 9508SOL    HW229424   5.566   3.289   1.025
 9509SOL     OW29425   0.738   0.487   5.803
 9509SOL    HW129426   0.741   0.388   5.816
 9509SOL    HW229427   0.649   0.522   5.832
 9510SOL     OW29428   0.926   4.552   1.967
 9510SOL    HW129429   0.893   4.616   2.037
 9510SOL    HW229430   0.890   4.578   1.878
 9511SOL     OW29431   0.266   1.343   0.052
 9511SOL    HW129432   0.233   1.348   6.973
 9511SOL    HW229433   0.351   1.396   0.060
 9512SOL     OW29434   5.641   1.049   2.114
 9512SOL    HW129435   5.625   0.998   2.199
 9512SOL    HW229436   5.606   0.996   2.037
 9513SOL     OW29437   1.624   3.051   5.220
 9513SOL    HW129438   1.663   3.037   5.310
 9513SOL    HW229439   1.672   2.994   5.153
 9514SOL     OW29440   2.497   4.592   6.887
 9514SOL    HW129441   2.404   4.600   6.852
 9514SOL    HW229442   2.495   4.586   6.987
 9515SOL     OW29443   1.388   5.747   0.469
 9515SOL    HW129444   1.322   5.722   0.398
 9515SOL    HW229445   1.343   5.750   0.558
 9516SOL     OW29446   5.553   3.739   5.311
 9516SOL    HW129447   5.510   3.681   5.243
 9516SOL    HW229448   5.653   3.731   5.304
 9517SOL     OW29449   1.749   4.541   0.085
 9517SOL    HW129450   1.765   4.478   0.010
 9517SOL    HW229451   1.832   4.550   0.140
 9518SOL     OW29452   1.114   2.072   6.969
 9518SOL    HW129453   1.041   2.117   6.918
 9518SOL    HW229454   1.183   2.140   6.995
 9519SOL     OW29455   3.938   3.317   4.211
 9519SOL    HW129456   4.010   3.387   4.210
 9519SOL    HW229457   3.915   3.295   4.306
 9520SOL     OW29458   0.156   1.042   2.406
 9520SOL    HW129459   0.067   1.000   2.392
 9520SOL    HW229460   0.146   1.142   2.406
 9521SOL     OW29461   3.776   4.187   1.163
 9521SOL    HW129462   3.874   4.188   1.139
 9521SOL    HW229463   3.765   4.158   1.258
 9522SOL     OW29464   4.390   5.920   2.350
 9522SOL    HW129465   4.308   5.913   2.293
 9522SOL    HW229466   4.364   5.950   2.442
 9523SOL     OW29467   2.667   5.170   4.983
 9523SOL    HW129468   2.698   5.120   5.064
 9523SOL    HW229469   2.587   5.124   4.944
 9524SOL     OW29470   2.218   2.443   0.481
 9524SOL    HW129471   2.148   2.385   0.440
 9524SOL    HW229472   2.267   2.392   0.551
 9525SOL     OW29473   1.872   2.120   5.229
 9525SOL    HW129474   1.797   2.057   5.251
 9525SOL    HW229475   1.943   2.113   5.299
 9526SOL     OW29476   6.294   4.154   1.490
 9526SOL    HW129477   6.227   4.171   1.563
 9526SOL    HW229478   6.328   4.060   1.497
 9527SOL     OW29479   2.055   0.746   5.301
 9527SOL    HW129480   2.098   0.660   5.273
 9527SOL    HW229481   2.126   0.809   5.334
 9528SOL     OW29482   6.881   1.786   6.891
 9528SOL    HW129483   6.892   1.724   6.813
 9528SOL    HW229484   6.942   1.865   6.879
 9529SOL     OW29485   6.165   3.422   6.584
 9529SOL    HW129486   6.219   3.340   6.565
 9529SOL    HW229487   6.209   3.475   6.657
 9530SOL     OW29488   1.440   3.100   3.617
 9530SOL    HW129489   1.400   3.135   3.702
 9530SOL    HW229490   1.382   3.027   3.581
 9531SOL     OW29491   5.006   4.291   2.225
 9531SOL    HW129492   4.914   4.285   2.186
 9531SOL    HW229493   5.047   4.200   2.229
 9532SOL     OW29494   7.007   5.347   1.071
 9532SOL    HW129495   6.936   5.328   1.003
 9532SOL    HW229496   0.035   5.435   1.050
 9533SOL     OW29497   0.789   5.952   4.828
 9533SOL    HW129498   0.789   6.050   4.847
 9533SOL    HW229499   0.847   5.905   4.894
 9534SOL     OW29500   6.049   4.280   5.108
 9534SOL    HW129501   6.016   4.244   5.021
 9534SOL    HW229502   6.124   4.222   5.141
 9535SOL     OW29503   2.182   0.484   5.663
 9535SOL    HW129504   2.099   0.460   5.613
 9535SOL    HW229505   2.252   0.513   5.598
 9536SOL     OW29506   3.067   3.787   5.354
 9536SOL    HW129507   3.032   3.880   5.362
 9536SOL    HW229508   3.154   3.787   5.305
 9537SOL     OW29509   2.240   0.717   4.491
 9537SOL    HW129510   2.318   0.708   4.553
 9537SOL    HW229511   2.199   0.627   4.476
 9538SOL     OW29512   5.123   1.067   4.449
 9538SOL    HW129513   5.168   0.986   4.412
 9538SOL    HW229514   5.190   1.126   4.494
 9539SOL     OW29515   3.511   4.135   4.273
 9539SOL    HW129516   3.563   4.075   4.334
 9539SOL    HW229517   3.422   4.155   4.314
 9540SOL     OW29518   5.696   4.544   4.261
 9540SOL    HW129519   5.754   4.483   4.316
 9540SOL    HW229520   5.706   4.638   4.294
 9541SOL     OW29521   2.837   0.318   6.037
 9541SOL    HW129522   2.886   0.296   5.953
 9541SOL    HW229523   2.893   0.295   6.116
 9542SOL     OW29524   5.079   4.319   5.377
 9542SOL    HW129525   5.169   4.347   5.343
 9542SOL    HW229526   5.013   4.318   5.301
 9543SOL     OW29527   3.593   0.851   6.214
 9543SOL    HW129528   3.574   0.892   6.303
 9543SOL    HW229529   3.545   0.763   6.207
 9544SOL     OW29530   5.783   2.928   3.879
 9544SOL    HW129531   5.796   3.024   3.856
 9544SOL    HW229532   5.728   2.884   3.807
 9545SOL     OW29533   5.694   5.554   3.519
 9545SOL    HW129534   5.787   5.592   3.514
 9545SOL    HW229535   5.672   5.507   3.434
 9546SOL     OW29536   3.663   2.032   6.085
 9546SOL    HW129537   3.653   2.097   6.160
 9546SOL    HW229538   3.671   1.939   6.123
 9547SOL     OW29539   2.235   5.517   4.130
 9547SOL    HW129540   2.137   5.499   4.129
 9547SOL    HW229541   2.275   5.480   4.214
 9548SOL     OW29542   0.085   4.647   5.102
 9548SOL    HW129543   0.096   4.733   5.153
 9548SOL    HW229544   0.137   4.574   5.147
 9549SOL     OW29545   3.099   2.349   1.477
 9549SOL    HW129546   3.107   2.446   1.454
 9549SOL    HW229547   3.006   2.317   1.457
 9550SOL     OW29548   0.200   0.540   0.324
 9550SOL    HW129549   0.199   0.474   0.399
 9550SOL    HW229550   0.126   0.607   0.339
 9551SOL     OW29551   5.967   2.954   6.046
 9551SOL    HW129552   5.902   2.891   6.088
 9551SOL    HW229553   5.982   3.032   6.106
 9552SOL     OW29554   2.162   6.155   4.747
 9552SOL    HW129555   2.116   6.067   4.755
 9552SOL    HW229556   2.134   6.214   4.823
 9553SOL     OW29557   5.716   2.508   6.490
 9553SOL    HW129558   5.795   2.448   6.475
 9553SOL    HW229559   5.652   2.464   6.552
 9554SOL     OW29560   2.868   0.068   2.910
 9554SOL    HW129561   2.949   0.122   2.889
 9554SOL    HW229562   2.826   0.102   2.995
 9555SOL     OW29563   1.098   1.734   2.147
 9555SOL    HW129564   1.014   1.691   2.181
 9555SOL    HW229565   1.111   1.822   2.192
 9556SOL     OW29566   1.964   4.110   2.156
 9556SOL    HW129567   1.936   4.109   2.060
 9556SOL    HW229568   2.023   4.189   2.173
 9557SOL     OW29569   6.692   6.109   1.653
 9557SOL    HW129570   6.681   6.159   1.568
 9557SOL    HW229571   6.649   6.160   1.728
 9558SOL     OW29572   6.063   5.987   5.936
 9558SOL    HW129573   5.992   5.931   5.979
 9558SOL    HW229574   6.067   6.077   5.980
 9559SOL     OW29575   0.490   4.446   0.707
 9559SOL    HW129576   0.497   4.423   0.610
 9559SOL    HW229577   0.524   4.539   0.722
 9560SOL     OW29578   2.897   1.065   3.155
 9560SOL    HW129579   2.969   1.039   3.220
 9560SOL    HW229580   2.816   1.096   3.205
 9561SOL     OW29581   1.845   0.706   0.923
 9561SOL    HW129582   1.905   0.786   0.927
 9561SOL    HW229583   1.900   0.623   0.921
 9562SOL     OW29584   2.729   0.387   5.693
 9562SOL    HW129585   2.780   0.423   5.772
 9562SOL    HW229586   2.764   0.429   5.610
 9563SOL     OW29587   7.005   6.331   0.692
 9563SOL    HW129588   6.972   6.319   0.785
 9563SOL    HW229589   6.928   6.356   0.633
 9564SOL     OW29590   2.436   1.095   0.962
 9564SOL    HW129591   2.369   1.148   1.015
 9564SOL    HW229592   2.457   1.010   1.011
 9565SOL     OW29593   4.448   1.239   4.811
 9565SOL    HW129594   4.359   1.203   4.784
 9565SOL    HW229595   4.520   1.185   4.769
 9566SOL     OW29596   2.917   5.282   6.703
 9566SOL    HW129597   2.858   5.362   6.694
 9566SOL    HW229598   2.886   5.227   6.781
 9567SOL     OW29599   4.644   5.109   0.613
 9567SOL    HW129600   4.581   5.097   0.689
 9567SOL    HW229601   4.728   5.056   0.629
 9568SOL     OW29602   4.210   2.466   6.069
 9568SOL    HW129603   4.164   2.382   6.039
 9568SOL    HW229604   4.221   2.528   5.990
 9569SOL     OW29605   6.423   1.039   2.530
 9569SOL    HW129606   6.395   0.949   2.563
 9569SOL    HW229607   6.457   1.093   2.606
 9570SOL     OW29608   0.799   3.499   1.864
 9570SOL    HW129609   0.871   3.513   1.933
 9570SOL    HW229610   0.710   3.513   1.907
 9571SOL     OW29611   3.592   3.683   6.217
 9571SOL    HW129612   3.498   3.714   6.232
 9571SOL    HW229613   3.596   3.583   6.226
 9572SOL     OW29614   2.344   4.535   2.074
 9572SOL    HW129615   2.289   4.594   2.134
 9572SOL    HW229616   2.435   4.574   2.064
 9573SOL     OW29617   1.242   2.683   6.611
 9573SOL    HW129618   1.310   2.686   6.539
 9573SOL    HW229619   1.280   2.639   6.692
 9574SOL     OW29620   3.906   3.592   3.207
 9574SOL    HW129621   3.906   3.528   3.130
 9574SOL    HW229622   3.995   3.590   3.252
 9575SOL     OW29623   0.500   0.776   1.372
 9575SOL    HW129624   0.584   0.768   1.427
 9575SOL    HW229625   0.422   0.786   1.433
 9576SOL     OW29626   1.750   1.562   1.251
 9576SOL    HW129627   1.652   1.546   1.247
 9576SOL    HW229628   1.767   1.657   1.277
 9577SOL     OW29629   1.046   0.450   6.151
 9577SOL    HW129630   1.073   0.426   6.244
 9577SOL    HW229631   1.105   0.401   6.086
 9578SOL     OW29632   0.721   4.052   3.115
 9578SOL    HW129633   0.790   3.997   3.162
 9578SOL    HW229634   0.671   3.995   3.050
 9579SOL     OW29635   1.130   5.108   3.150
 9579SOL    HW129636   1.103   5.066   3.237
 9579SOL    HW229637   1.132   5.208   3.160
 9580SOL     OW29638   4.969   3.502   0.897
 9580SOL    HW129639   4.910   3.558   0.956
 9580SOL    HW229640   4.924   3.414   0.879
 9581SOL     OW29641   0.428   6.432   5.788
 9581SOL    HW129642   0.428   6.520   5.740
 9581SOL    HW229643   0.337   6.416   5.826
 9582SOL     OW29644   4.578   5.302   5.927
 9582SOL    HW129645   4.551   5.207   5.912
 9582SOL    HW229646   4.557   5.356   5.846
 9583SOL     OW29647   3.517   4.384   1.395
 9583SOL    HW129648   3.536   4.416   1.488
 9583SOL    HW229649   3.562   4.297   1.379
 9584SOL     OW29650   0.072   5.625   6.453
 9584SOL    HW129651   0.150   5.612   6.392
 9584SOL    HW229652   0.044   5.537   6.491
 9585SOL     OW29653   6.458   6.870   4.613
 9585SOL    HW129654   6.508   6.950   4.579
 9585SOL    HW229655   6.361   6.892   4.617
 9586SOL     OW29656   5.702   4.812   2.281
 9586SOL    HW129657   5.784   4.834   2.333
 9586SOL    HW229658   5.687   4.713   2.282
 9587SOL     OW29659   0.762   0.563   1.744
 9587SOL    HW129660   0.676   0.527   1.706
 9587SOL    HW229661   0.747   0.591   1.839
 9588SOL     OW29662   6.815   0.611   1.142
 9588SOL    HW129663   6.730   0.613   1.194
 9588SOL    HW229664   6.812   0.536   1.076
 9589SOL     OW29665   2.327   4.996   6.833
 9589SOL    HW129666   2.320   4.940   6.916
 9589SOL    HW229667   2.392   4.953   6.769
 9590SOL     OW29668   6.555   2.834   1.859
 9590SOL    HW129669   6.522   2.763   1.923
 9590SOL    HW229670   6.631   2.883   1.901
 9591SOL     OW29671   3.084   5.988   5.842
 9591SOL    HW129672   3.012   5.982   5.772
 9591SOL    HW229673   3.173   5.983   5.798
 9592SOL     OW29674   3.671   4.501   0.589
 9592SOL    HW129675   3.624   4.585   0.563
 9592SOL    HW229676   3.685   4.500   0.688
 9593SOL     OW29677   0.524   0.833   5.990
 9593SOL    HW129678   0.589   0.764   6.023
 9593SOL    HW229679   0.434   0.817   6.030
 9594SOL     OW29680   1.162   5.115   2.682
 9594SOL    HW129681   1.111   5.063   2.614
 9594SOL    HW229682   1.250   5.141   2.644
 9595SOL     OW29683   0.674   3.124   4.800
 9595SOL    HW129684   0.623   3.210   4.804
 9595SOL    HW229685   0.712   3.112   4.708
 9596SOL     OW29686   0.260   5.506   6.184
 9596SOL    HW129687   0.180   5.565   6.167
 9596SOL    HW229688   0.333   5.529   6.120
 9597SOL     OW29689   0.939   4.305   1.595
 9597SOL    HW129690   0.867   4.351   1.542
 9597SOL    HW229691   0.904   4.219   1.632
 9598SOL     OW29692   1.427   4.247   4.038
 9598SOL    HW129693   1.343   4.211   3.996
 9598SOL    HW229694   1.501   4.182   4.022
 9599SOL     OW29695   3.314   0.030   4.821
 9599SOL    HW129696   3.361   0.104   4.870
 9599SOL    HW229697   3.328   0.040   4.723
 9600SOL     OW29698   2.571   6.789   6.749
 9600SOL    HW129699   2.496   6.752   6.804
 9600SOL    HW229700   2.549   6.779   6.652
 9601SOL     OW29701   4.638   4.060   0.647
 9601SOL    HW129702   4.625   4.029   0.553
 9601SOL    HW229703   4.722   4.114   0.653
 9602SOL     OW29704   6.227   5.054   5.971
 9602SOL    HW129705   6.322   5.053   6.004
 9602SOL    HW229706   6.210   5.139   5.921
 9603SOL     OW29707   3.633   1.742   4.039
 9603SOL    HW129708   3.710   1.702   4.089
 9603SOL    HW229709   3.637   1.711   3.944
 9604SOL     OW29710   4.759   0.327   6.616
 9604SOL    HW129711   4.758   0.256   6.545
 9604SOL    HW229712   4.852   0.363   6.624
 9605SOL     OW29713   0.678   5.327   3.572
 9605SOL    HW129714   0.693   5.417   3.533
 9605SOL    HW229715   0.758   5.269   3.555
 9606SOL     OW29716   1.733   6.409   6.722
 9606SOL    HW129717   1.760   6.404   6.818
 9606SOL    HW229718   1.664   6.481   6.711
 9607SOL     OW29719   1.573   1.842   0.472
 9607SOL    HW129720   1.531   1.896   0.399
 9607SOL    HW229721   1.556   1.886   0.560
 9608SOL     OW29722   6.830   5.169   2.788
 9608SOL    HW129723   6.904   5.124   2.839
 9608SOL    HW229724   6.870   5.235   2.724
 9609SOL     OW29725   2.506   4.324   6.832
 9609SOL    HW129726   2.485   4.420   6.848
 9609SOL    HW229727   2.475   4.297   6.741
 9610SOL     OW29728   1.303   4.826   4.169
 9610SOL    HW129729   1.239   4.816   4.246
 9610SOL    HW229730   1.282   4.910   4.119
 9611SOL     OW29731   0.811   6.279   6.697
 9611SOL    HW129732   0.855   6.330   6.624
 9611SOL    HW229733   0.739   6.335   6.738
 9612SOL     OW29734   0.693   4.029   1.890
 9612SOL    HW129735   0.739   4.045   1.802
 9612SOL    HW229736   0.598   4.002   1.873
 9613SOL     OW29737   5.360   6.544   3.113
 9613SOL    HW129738   5.428   6.528   3.185
 9613SOL    HW229739   5.271   6.512   3.144
 9614SOL     OW29740   2.811   1.931   0.734
 9614SOL    HW129741   2.755   1.866   0.684
 9614SOL    HW229742   2.902   1.892   0.749
 9615SOL     OW29743   1.317   0.014   7.008
 9615SOL    HW129744   1.254   6.967   0.038
 9615SOL    HW229745   1.382   0.050   0.059
 9616SOL     OW29746   4.275   3.712   1.441
 9616SOL    HW129747   4.188   3.666   1.458
 9616SOL    HW229748   4.322   3.728   1.527
 9617SOL     OW29749   2.274   2.856   2.932
 9617SOL    HW129750   2.194   2.857   2.991
 9617SOL    HW229751   2.349   2.903   2.977
 9618SOL     OW29752   3.997   6.905   5.491
 9618SOL    HW129753   4.081   6.862   5.459
 9618SOL    HW229754   4.004   6.923   5.589
 9619SOL     OW29755   1.126   0.332   0.333
 9619SOL    HW129756   1.034   0.340   0.372
 9619SOL    HW229757   1.158   0.237   0.342
 9620SOL     OW29758   4.534   2.052   6.543
 9620SOL    HW129759   4.490   1.968   6.512
 9620SOL    HW229760   4.517   2.064   6.641
 9621SOL     OW29761   0.995   0.975   2.051
 9621SOL    HW129762   0.912   0.991   1.997
 9621SOL    HW229763   1.067   1.038   2.020
 9622SOL     OW29764   6.737   1.221   6.931
 9622SOL    HW129765   6.726   1.184   6.839
 9622SOL    HW229766   6.810   1.172   6.978
 9623SOL     OW29767   2.958   4.436   6.035
 9623SOL    HW129768   3.039   4.494   6.034
 9623SOL    HW229769   2.963   4.369   5.961
 9624SOL     OW29770   0.160   4.865   2.215
 9624SOL    HW129771   0.089   4.934   2.229
 9624SOL    HW229772   0.136   4.809   2.135
 9625SOL     OW29773   5.248   5.317   0.239
 9625SOL    HW129774   5.178   5.349   0.175
 9625SOL    HW229775   5.264   5.388   0.308
 9626SOL     OW29776   2.976   5.842   0.013
 9626SOL    HW129777   2.952   5.888   0.099
 9626SOL    HW229778   2.941   5.895   6.952
 9627SOL     OW29779   6.664   6.066   3.063
 9627SOL    HW129780   6.667   6.012   3.147
 9627SOL    HW229781   6.655   6.163   3.085
 9628SOL     OW29782   5.606   4.713   0.313
 9628SOL    HW129783   5.700   4.682   0.325
 9628SOL    HW229784   5.574   4.689   0.221
 9629SOL     OW29785   0.506   6.967   2.388
 9629SOL    HW129786   0.539   6.909   2.313
 9629SOL    HW229787   0.565   6.954   2.468
 9630SOL     OW29788   6.248   6.114   6.211
 9630SOL    HW129789   6.150   6.092   6.205
 9630SOL    HW229790   6.273   6.175   6.137
 9631SOL     OW29791   6.249   6.861   0.014
 9631SOL    HW129792   6.198   6.828   0.094
 9631SOL    HW229793   6.339   6.817   0.012
 9632SOL     OW29794   2.372   5.634   2.629
 9632SOL    HW129795   2.443   5.566   2.643
 9632SOL    HW229796   2.346   5.675   2.716
 9633SOL     OW29797   5.501   5.200   0.256
 9633SOL    HW129798   5.403   5.221   0.254
 9633SOL    HW229799   5.518   5.129   0.324
 9634SOL     OW29800   0.832   0.098   3.720
 9634SOL    HW129801   0.833   0.117   3.621
 9634SOL    HW229802   0.809   0.182   3.770
 9635SOL     OW29803   1.529   5.063   5.645
 9635SOL    HW129804   1.526   5.153   5.690
 9635SOL    HW229805   1.608   5.060   5.584
 9636SOL     OW29806   3.696   1.958   6.619
 9636SOL    HW129807   3.772   2.023   6.616
 9636SOL    HW229808   3.629   1.982   6.549
 9637SOL     OW29809   3.126   1.791   6.802
 9637SOL    HW129810   3.040   1.805   6.852
 9637SOL    HW229811   3.113   1.814   6.706
 9638SOL     OW29812   6.809   3.091   6.606
 9638SOL    HW129813   6.899   3.127   6.578
 9638SOL    HW229814   6.757   3.065   6.525
 9639SOL     OW29815   3.992   1.753   2.276
 9639SOL    HW129816   3.906   1.764   2.226
 9639SOL    HW229817   4.065   1.802   2.229
 9640SOL     OW29818   2.881   1.909   2.832
 9640SOL    HW129819   2.815   1.977   2.866
 9640SOL    HW229820   2.870   1.824   2.884
 9641SOL     OW29821   5.080   6.018   1.070
 9641SOL    HW129822   5.039   5.930   1.047
 9641SOL    HW229823   5.068   6.035   1.168
 9642SOL     OW29824   3.425   6.259   5.519
 9642SOL    HW129825   3.419   6.337   5.581
 9642SOL    HW229826   3.517   6.254   5.480
 9643SOL     OW29827   5.999   4.939   4.277
 9643SOL    HW129828   5.974   5.018   4.220
 9643SOL    HW229829   6.008   4.967   4.372
 9644SOL     OW29830   1.045   4.885   5.784
 9644SOL    HW129831   1.001   4.905   5.697
 9644SOL    HW229832   1.085   4.969   5.821
 9645SOL     OW29833   3.963   4.830   3.789
 9645SOL    HW129834   3.964   4.784   3.878
 9645SOL    HW229835   4.038   4.796   3.733
 9646SOL     OW29836   2.835   4.719   2.223
 9646SOL    HW129837   2.839   4.664   2.139
 9646SOL    HW229838   2.759   4.784   2.216
 9647SOL     OW29839   6.505   5.310   1.535
 9647SOL    HW129840   6.446   5.383   1.501
 9647SOL    HW229841   6.600   5.330   1.511
 9648SOL     OW29842   3.699   2.227   6.884
 9648SOL    HW129843   3.742   2.139   6.902
 9648SOL    HW229844   3.612   2.232   6.932
 9649SOL     OW29845   2.704   5.652   0.126
 9649SOL    HW129846   2.675   5.606   0.043
 9649SOL    HW229847   2.708   5.750   0.111
 9650SOL     OW29848   5.394   4.798   3.097
 9650SOL    HW129849   5.433   4.741   3.024
 9650SOL    HW229850   5.372   4.740   3.176
 9651SOL     OW29851   0.086   0.599   6.460
 9651SOL    HW129852   0.102   0.543   6.378
 9651SOL    HW229853   7.009   0.582   6.494
 9652SOL     OW29854   2.092   4.861   0.429
 9652SOL    HW129855   2.114   4.880   0.525
 9652SOL    HW229856   2.176   4.864   0.375
 9653SOL     OW29857   4.096   5.146   4.832
 9653SOL    HW129858   4.134   5.145   4.739
 9653SOL    HW229859   4.032   5.222   4.840
 9654SOL     OW29860   4.099   3.473   1.653
 9654SOL    HW129861   4.139   3.440   1.738
 9654SOL    HW229862   4.002   3.448   1.649
 9655SOL     OW29863   0.473   1.764   6.792
 9655SOL    HW129864   0.497   1.831   6.722
 9655SOL    HW229865   0.529   1.779   6.873
 9656SOL     OW29866   3.278   2.548   0.828
 9656SOL    HW129867   3.368   2.534   0.868
 9656SOL    HW229868   3.231   2.623   0.877
 9657SOL     OW29869   6.328   1.974   3.784
 9657SOL    HW129870   6.395   2.015   3.722
 9657SOL    HW229871   6.359   1.883   3.811
 9658SOL     OW29872   6.106   1.527   2.535
 9658SOL    HW129873   6.177   1.462   2.561
 9658SOL    HW229874   6.140   1.620   2.543
 9659SOL     OW29875   0.088   4.358   0.189
 9659SOL    HW129876   0.109   4.322   0.098
 9659SOL    HW229877   7.006   4.351   0.206
 9660SOL     OW29878   0.388   5.862   1.249
 9660SOL    HW129879   0.408   5.835   1.155
 9660SOL    HW229880   0.345   5.785   1.297
 9661SOL     OW29881   3.805   6.327   2.052
 9661SOL    HW129882   3.848   6.373   1.975
 9661SOL    HW229883   3.852   6.352   2.137
 9662SOL     OW29884   4.902   2.887   5.143
 9662SOL    HW129885   4.912   2.806   5.202
 9662SOL    HW229886   4.850   2.862   5.061
 9663SOL     OW29887   0.855   6.442   4.587
 9663SOL    HW129888   0.943   6.439   4.540
 9663SOL    HW229889   0.869   6.467   4.683
 9664SOL     OW29890   6.170   6.249   3.761
 9664SOL    HW129891   6.162   6.159   3.719
 9664SOL    HW229892   6.264   6.281   3.754
 9665SOL     OW29893   5.699   5.938   0.071
 9665SOL    HW129894   5.607   5.901   0.081
 9665SOL    HW229895   5.696   6.038   0.079
 9666SOL     OW29896   5.835   4.611   1.566
 9666SOL    HW129897   5.753   4.557   1.547
 9666SOL    HW229898   5.910   4.580   1.508
 9667SOL     OW29899   3.482   3.877   4.435
 9667SOL    HW129900   3.466   3.854   4.339
 9667SOL    HW229901   3.577   3.854   4.459
 9668SOL     OW29902   6.347   1.658   6.691
 9668SOL    HW129903   6.437   1.701   6.695
 9668SOL    HW229904   6.280   1.717   6.734
 9669SOL     OW29905   1.407   0.309   1.768
 9669SOL    HW129906   1.505   0.313   1.785
 9669SOL    HW229907   1.359   0.370   1.831
 9670SOL     OW29908   5.440   4.808   6.740
 9670SOL    HW129909   5.415   4.773   6.831
 9670SOL    HW229910   5.539   4.825   6.737
 9671SOL     OW29911   6.115   5.530   6.633
 9671SOL    HW129912   6.060   5.501   6.711
 9671SOL    HW229913   6.065   5.512   6.548
 9672SOL     OW29914   1.168   6.220   4.766
 9672SOL    HW129915   1.222   6.297   4.803
 9672SOL    HW229916   1.071   6.244   4.768
 9673SOL     OW29917   6.031   3.809   0.379
 9673SOL    HW129918   6.064   3.771   0.465
 9673SOL    HW229919   6.024   3.736   0.311
 9674SOL     OW29920   2.231   5.642   3.528
 9674SOL    HW129921   2.214   5.731   3.486
 9674SOL    HW229922   2.144   5.599   3.551
 9675SOL     OW29923   5.822   1.824   0.534
 9675SOL    HW129924   5.791   1.730   0.545
 9675SOL    HW229925   5.921   1.824   0.518
 9676SOL     OW29926   1.460   3.549   5.036
 9676SOL    HW129927   1.453   3.455   5.070
 9676SOL    HW229928   1.443   3.612   5.112
 9677SOL     OW29929   1.925   5.599   5.279
 9677SOL    HW129930   1.898   5.523   5.219
 9677SOL    HW229931   1.853   5.668   5.280
 9678SOL     OW29932   3.341   3.341   2.864
 9678SOL    HW129933   3.405   3.267   2.843
 9678SOL    HW229934   3.264   3.305   2.917
 9679SOL     OW29935   1.902   1.043   2.397
 9679SOL    HW129936   1.899   0.944   2.386
 9679SOL    HW229937   1.996   1.075   2.382
 9680SOL     OW29938   5.886   0.726   3.241
 9680SOL    HW129939   5.983   0.703   3.247
 9680SOL    HW229940   5.840   0.659   3.182
 9681SOL     OW29941   3.969   1.363   0.051
 9681SOL    HW129942   3.964   1.463   0.047
 9681SOL    HW229943   3.883   1.325   0.015
 9682SOL     OW29944   5.089   4.980   3.883
 9682SOL    HW129945   5.112   5.016   3.793
 9682SOL    HW229946   4.991   4.993   3.900
 9683SOL     OW29947   2.827   5.445   1.070
 9683SOL    HW129948   2.839   5.541   1.046
 9683SOL    HW229949   2.730   5.422   1.067
 9684SOL     OW29950   0.412   2.350   4.936
 9684SOL    HW129951   0.481   2.289   4.974
 9684SOL    HW229952   0.380   2.413   5.007
 9685SOL     OW29953   1.681   3.714   1.069
 9685SOL    HW129954   1.647   3.785   1.130
 9685SOL    HW229955   1.765   3.674   1.106
 9686SOL     OW29956   6.743   1.735   0.343
 9686SOL    HW129957   6.814   1.746   0.412
 9686SOL    HW229958   6.670   1.801   0.360
 9687SOL     OW29959   2.222   1.086   4.192
 9687SOL    HW129960   2.303   1.102   4.135
 9687SOL    HW229961   2.251   1.050   4.281
 9688SOL     OW29962   6.697   2.138   3.336
 9688SOL    HW129963   6.672   2.199   3.261
 9688SOL    HW229964   6.733   2.053   3.299
 9689SOL     OW29965   1.777   5.729   0.240
 9689SOL    HW129966   1.740   5.666   0.308
 9689SOL    HW229967   1.745   5.822   0.260
 9690SOL     OW29968   5.603   6.003   6.494
 9690SOL    HW129969   5.691   5.981   6.537
 9690SOL    HW229970   5.529   5.976   6.555
 9691SOL     OW29971   3.071   4.850   2.262
 9691SOL    HW129972   3.088   4.845   2.164
 9691SOL    HW229973   2.982   4.811   2.282
 9692SOL     OW29974   3.028   5.463   2.726
 9692SOL    HW129975   3.032   5.413   2.639
 9692SOL    HW229976   2.954   5.427   2.782
 9693SOL     OW29977   6.457   5.949   1.609
 9693SOL    HW129978   6.545   5.992   1.630
 9693SOL    HW229979   6.383   6.015   1.624
 9694SOL     OW29980   2.404   0.544   6.648
 9694SOL    HW129981   2.397   0.514   6.553
 9694SOL    HW229982   2.327   0.508   6.701
 9695SOL     OW29983   6.864   3.667   1.797
 9695SOL    HW129984   6.826   3.681   1.888
 9695SOL    HW229985   6.795   3.688   1.728
 9696SOL     OW29986   5.098   3.285   1.043
 9696SOL    HW129987   5.008   3.243   1.030
 9696SOL    HW229988   5.087   3.381   1.068
 9697SOL     OW29989   0.080   6.415   6.440
 9697SOL    HW129990   0.060   6.487   6.374
 9697SOL    HW229991   7.010   6.371   6.468
 9698SOL     OW29992   5.149   1.880   6.020
 9698SOL    HW129993   5.212   1.841   5.952
 9698SOL    HW229994   5.121   1.810   6.084
 9699SOL     OW29995   0.051   4.688   6.477
 9699SOL    HW129996   0.091   4.652   6.561
 9699SOL    HW229997   6.970   4.712   6.494
 9700SOL     OW29998   4.354   5.149   4.985
 9700SOL    HW129999   4.274   5.151   4.924
 9700SOL    HW230000   4.437   5.146   4.930
 9701SOL     OW30001   3.863   5.055   5.173
 9701SOL    HW130002   3.853   5.011   5.084
 9701SOL    HW230003   3.801   5.133   5.179
 9702SOL     OW30004   5.114   0.549   6.861
 9702SOL    HW130005   5.179   0.600   6.805
 9702SOL    HW230006   5.058   0.613   6.915
 9703SOL     OW30007   4.203   5.079   4.581
 9703SOL    HW130008   4.301   5.081   4.559
 9703SOL    HW230009   4.169   4.986   4.567
 9704SOL     OW30010   2.915   0.810   3.037
 9704SOL    HW130011   2.909   0.888   3.100
 9704SOL    HW230012   2.923   0.843   2.943
 9705SOL     OW30013   4.797   5.577   6.247
 9705SOL    HW130014   4.743   5.654   6.213
 9705SOL    HW230015   4.743   5.494   6.241
 9706SOL     OW30016   0.807   2.406   0.821
 9706SOL    HW130017   0.807   2.366   0.729
 9706SOL    HW230018   0.886   2.468   0.830
 9707SOL     OW30019   6.294   4.407   1.357
 9707SOL    HW130020   6.285   4.316   1.398
 9707SOL    HW230021   6.323   4.398   1.261
 9708SOL     OW30022   1.239   2.127   2.420
 9708SOL    HW130023   1.315   2.076   2.380
 9708SOL    HW230024   1.268   2.220   2.441
 9709SOL     OW30025   5.905   5.974   2.701
 9709SOL    HW130026   5.973   5.912   2.661
 9709SOL    HW230027   5.825   5.978   2.642
 9710SOL     OW30028   0.600   1.654   1.918
 9710SOL    HW130029   0.558   1.718   1.854
 9710SOL    HW230030   0.700   1.666   1.915
 9711SOL     OW30031   2.196   4.106   6.184
 9711SOL    HW130032   2.211   4.181   6.120
 9711SOL    HW230033   2.275   4.045   6.183
 9712SOL     OW30034   6.058   4.639   5.923
 9712SOL    HW130035   6.099   4.562   5.875
 9712SOL    HW230036   5.958   4.629   5.924
 9713SOL     OW30037   1.112   5.136   3.642
 9713SOL    HW130038   1.128   5.115   3.545
 9713SOL    HW230039   1.103   5.235   3.653
 9714SOL     OW30040   2.942   1.035   1.701
 9714SOL    HW130041   2.976   0.991   1.618
 9714SOL    HW230042   3.019   1.077   1.750
 9715SOL     OW30043   5.205   4.247   6.398
 9715SOL    HW130044   5.272   4.318   6.374
 9715SOL    HW230045   5.171   4.263   6.490
 9716SOL     OW30046   4.272   2.521   6.326
 9716SOL    HW130047   4.266   2.504   6.228
 9716SOL    HW230048   4.334   2.598   6.343
 9717SOL     OW30049   5.679   5.554   5.725
 9717SOL    HW130050   5.610   5.529   5.793
 9717SOL    HW230051   5.752   5.607   5.768
 9718SOL     OW30052   4.960   2.833   1.502
 9718SOL    HW130053   4.959   2.755   1.439
 9718SOL    HW230054   4.876   2.886   1.491
 9719SOL     OW30055   0.214   2.231   6.588
 9719SOL    HW130056   0.235   2.250   6.683
 9719SOL    HW230057   0.115   2.239   6.573
 9720SOL     OW30058   6.867   5.346   2.294
 9720SOL    HW130059   6.878   5.316   2.389
 9720SOL    HW230060   6.954   5.379   2.258
 9721SOL     OW30061   0.527   3.246   1.195
 9721SOL    HW130062   0.497   3.187   1.270
 9721SOL    HW230063   0.624   3.270   1.209
 9722SOL     OW30064   6.996   0.083   4.069
 9722SOL    HW130065   7.013   0.050   4.162
 9722SOL    HW230066   7.007   0.007   4.004
 9723SOL     OW30067   2.155   6.131   3.724
 9723SOL    HW130068   2.209   6.199   3.674
 9723SOL    HW230069   2.075   6.175   3.764
 9724SOL     OW30070   2.028   3.514   0.293
 9724SOL    HW130071   2.083   3.579   0.344
 9724SOL    HW230072   2.084   3.470   0.223
 9725SOL     OW30073   3.737   4.267   6.459
 9725SOL    HW130074   3.682   4.329   6.403
 9725SOL    HW230075   3.812   4.318   6.501
 9726SOL     OW30076   5.306   0.594   3.985
 9726SOL    HW130077   5.232   0.545   3.939
 9726SOL    HW230078   5.287   0.597   4.084
 9727SOL     OW30079   0.446   3.529   5.440
 9727SOL    HW130080   0.459   3.477   5.524
 9727SOL    HW230081   0.530   3.527   5.385
 9728SOL     OW30082   0.279   0.322   6.133
 9728SOL    HW130083   0.211   0.389   6.160
 9728SOL    HW230084   0.234   0.233   6.117
 9729SOL     OW30085   0.862   4.334   3.135
 9729SOL    HW130086   0.885   4.389   3.055
 9729SOL    HW230087   0.799   4.261   3.109
 9730SOL     OW30088   0.365   3.244   3.142
 9730SOL    HW130089   0.460   3.250   3.110
 9730SOL    HW230090   0.319   3.168   3.096
 9731SOL     OW30091   4.623   3.923   1.108
 9731SOL    HW130092   4.683   3.934   1.187
 9731SOL    HW230093   4.549   3.859   1.130
 9732SOL     OW30094   5.555   5.789   3.645
 9732SOL    HW130095   5.562   5.707   3.588
 9732SOL    HW230096   5.509   5.765   3.731
 9733SOL     OW30097   5.362   5.101   0.500
 9733SOL    HW130098   5.401   5.167   0.565
 9733SOL    HW230099   5.429   5.029   0.482
 9734SOL     OW30100   5.974   1.474   2.932
 9734SOL    HW130101   5.883   1.442   2.905
 9734SOL    HW230102   5.965   1.548   2.998
 9735SOL     OW30103   1.646   4.458   2.983
 9735SOL    HW130104   1.667   4.472   3.079
 9735SOL    HW230105   1.716   4.399   2.942
 9736SOL     OW30106   6.070   1.795   5.987
 9736SOL    HW130107   6.013   1.838   6.057
 9736SOL    HW230108   6.137   1.735   6.031
 9737SOL     OW30109   6.485   3.100   4.624
 9737SOL    HW130110   6.510   3.051   4.707
 9737SOL    HW230111   6.417   3.170   4.645
 9738SOL     OW30112   2.082   0.241   2.213
 9738SOL    HW130113   2.007   0.223   2.277
 9738SOL    HW230114   2.052   0.222   2.120
 9739SOL     OW30115   6.188   5.424   2.250
 9739SOL    HW130116   6.150   5.414   2.158
 9739SOL    HW230117   6.217   5.334   2.283
 9740SOL     OW30118   6.110   2.144   3.845
 9740SOL    HW130119   6.156   2.091   3.774
 9740SOL    HW230120   6.073   2.228   3.804
 9741SOL     OW30121   5.046   1.858   2.879
 9741SOL    HW130122   4.966   1.913   2.856
 9741SOL    HW230123   5.106   1.910   2.939
 9742SOL     OW30124   3.710   0.471   1.971
 9742SOL    HW130125   3.634   0.495   2.032
 9742SOL    HW230126   3.692   0.507   1.880
 9743SOL     OW30127   1.160   1.650   4.601
 9743SOL    HW130128   1.132   1.738   4.640
 9743SOL    HW230129   1.087   1.583   4.614
 9744SOL     OW30130   0.473   0.604   2.581
 9744SOL    HW130131   0.428   0.690   2.555
 9744SOL    HW230132   0.561   0.598   2.535
 9745SOL     OW30133   6.412   3.004   6.265
 9745SOL    HW130134   6.491   2.961   6.309
 9745SOL    HW230135   6.368   3.065   6.331
 9746SOL     OW30136   6.209   1.135   6.294
 9746SOL    HW130137   6.223   1.039   6.270
 9746SOL    HW230138   6.288   1.167   6.347
 9747SOL     OW30139   1.655   0.374   1.907
 9747SOL    HW130140   1.629   0.455   1.959
 9747SOL    HW230141   1.754   0.361   1.913
 9748SOL     OW30142   1.276   1.023   3.543
 9748SOL    HW130143   1.194   1.058   3.499
 9748SOL    HW230144   1.283   1.059   3.636
 9749SOL     OW30145   1.999   1.803   5.259
 9749SOL    HW130146   1.907   1.836   5.285
 9749SOL    HW230147   2.022   1.838   5.169
 9750SOL     OW30148   5.562   4.650   3.350
 9750SOL    HW130149   5.644   4.694   3.313
 9750SOL    HW230150   5.511   4.716   3.404
 9751SOL     OW30151   1.384   1.187   0.614
 9751SOL    HW130152   1.471   1.156   0.575
 9751SOL    HW230153   1.397   1.210   0.710
 9752SOL     OW30154   5.413   1.791   0.139
 9752SOL    HW130155   5.450   1.707   0.179
 9752SOL    HW230156   5.418   1.786   0.040
 9753SOL     OW30157   6.153   5.437   5.576
 9753SOL    HW130158   6.078   5.498   5.601
 9753SOL    HW230159   6.157   5.428   5.476
 9754SOL     OW30160   0.919   1.249   6.325
 9754SOL    HW130161   0.944   1.219   6.233
 9754SOL    HW230162   0.820   1.264   6.329
 9755SOL     OW30163   3.957   3.917   5.318
 9755SOL    HW130164   3.892   3.944   5.389
 9755SOL    HW230165   3.997   3.999   5.276
 9756SOL     OW30166   6.108   3.383   0.313
 9756SOL    HW130167   6.171   3.445   0.360
 9756SOL    HW230168   6.022   3.379   0.364
 9757SOL     OW30169   5.595   3.584   3.363
 9757SOL    HW130170   5.632   3.610   3.274
 9757SOL    HW230171   5.499   3.559   3.353
 9758SOL     OW30172   2.876   0.151   6.981
 9758SOL    HW130173   2.863   0.165   0.064
 9758SOL    HW230174   2.805   0.090   6.946
 9759SOL     OW30175   2.305   0.062   0.006
 9759SOL    HW130176   2.210   0.092   7.015
 9759SOL    HW230177   2.341   0.047   6.929
 9760SOL     OW30178   4.598   3.218   5.368
 9760SOL    HW130179   4.609   3.318   5.369
 9760SOL    HW230180   4.687   3.175   5.366
 9761SOL     OW30181   6.006   0.229   1.817
 9761SOL    HW130182   6.090   0.174   1.809
 9761SOL    HW230183   6.016   0.293   1.894
 9762SOL     OW30184   2.639   2.270   4.261
 9762SOL    HW130185   2.561   2.259   4.323
 9762SOL    HW230186   2.623   2.217   4.178
 9763SOL     OW30187   4.789   2.117   1.908
 9763SOL    HW130188   4.733   2.130   1.990
 9763SOL    HW230189   4.742   2.155   1.829
 9764SOL     OW30190   0.792   2.720   3.423
 9764SOL    HW130191   0.789   2.656   3.499
 9764SOL    HW230192   0.701   2.730   3.383
 9765SOL     OW30193   6.329   2.213   2.965
 9765SOL    HW130194   6.381   2.180   3.043
 9765SOL    HW230195   6.368   2.175   2.881
 9766SOL     OW30196   2.982   0.437   3.169
 9766SOL    HW130197   2.891   0.435   3.128
 9766SOL    HW230198   3.033   0.516   3.133
 9767SOL     OW30199   5.382   1.984   5.199
 9767SOL    HW130200   5.388   2.042   5.117
 9767SOL    HW230201   5.388   2.042   5.280
 9768SOL     OW30202   4.716   1.412   2.345
 9768SOL    HW130203   4.690   1.480   2.276
 9768SOL    HW230204   4.683   1.322   2.318
 9769SOL     OW30205   2.071   1.219   2.157
 9769SOL    HW130206   1.990   1.161   2.157
 9769SOL    HW230207   2.153   1.162   2.149
 9770SOL     OW30208   5.356   0.112   6.898
 9770SOL    HW130209   5.379   0.114   6.801
 9770SOL    HW230210   5.259   0.131   6.910
 9771SOL     OW30211   3.517   4.887   1.321
 9771SOL    HW130212   3.594   4.847   1.370
 9771SOL    HW230213   3.517   4.986   1.331
 9772SOL     OW30214   1.392   5.866   2.755
 9772SOL    HW130215   1.487   5.849   2.731
 9772SOL    HW230216   1.386   5.894   2.851
 9773SOL     OW30217   5.568   6.522   4.624
 9773SOL    HW130218   5.554   6.570   4.711
 9773SOL    HW230219   5.515   6.438   4.623
 9774SOL     OW30220   6.232   4.811   1.726
 9774SOL    HW130221   6.279   4.856   1.650
 9774SOL    HW230222   6.283   4.730   1.753
 9775SOL     OW30223   2.669   1.084   3.330
 9775SOL    HW130224   2.663   1.180   3.303
 9775SOL    HW230225   2.591   1.061   3.389
 9776SOL     OW30226   0.055   5.616   4.658
 9776SOL    HW130227   0.011   5.687   4.714
 9776SOL    HW230228   0.143   5.650   4.625
 9777SOL     OW30229   5.514   4.749   6.449
 9777SOL    HW130230   5.486   4.845   6.443
 9777SOL    HW230231   5.481   4.710   6.535
 9778SOL     OW30232   0.240   0.909   3.430
 9778SOL    HW130233   0.153   0.865   3.408
 9778SOL    HW230234   0.238   1.004   3.402
 9779SOL     OW30235   2.474   1.545   5.145
 9779SOL    HW130236   2.389   1.494   5.159
 9779SOL    HW230237   2.547   1.482   5.121
 9780SOL     OW30238   2.393   1.853   1.387
 9780SOL    HW130239   2.368   1.774   1.442
 9780SOL    HW230240   2.487   1.880   1.409
 9781SOL     OW30241   1.248   3.569   4.234
 9781SOL    HW130242   1.285   3.520   4.313
 9781SOL    HW230243   1.210   3.656   4.264
 9782SOL     OW30244   0.024   0.656   1.290
 9782SOL    HW130245   6.946   0.639   1.259
 9782SOL    HW230246   0.088   0.631   1.218
 9783SOL     OW30247   5.420   2.125   2.481
 9783SOL    HW130248   5.335   2.119   2.429
 9783SOL    HW230249   5.404   2.176   2.565
 9784SOL     OW30250   3.918   1.452   3.840
 9784SOL    HW130251   3.989   1.384   3.821
 9784SOL    HW230252   3.839   1.435   3.781
 9785SOL     OW30253   6.934   4.303   5.137
 9785SOL    HW130254   0.012   4.278   5.163
 9785SOL    HW230255   6.874   4.293   5.215
 9786SOL     OW30256   2.320   4.956   6.468
 9786SOL    HW130257   2.406   4.984   6.512
 9786SOL    HW230258   2.290   4.869   6.507
 9787SOL     OW30259   4.698   3.895   1.760
 9787SOL    HW130260   4.740   3.811   1.727
 9787SOL    HW230261   4.768   3.965   1.772
 9788SOL     OW30262   0.279   0.491   3.509
 9788SOL    HW130263   0.363   0.499   3.563
 9788SOL    HW230264   0.200   0.483   3.570
 9789SOL     OW30265   1.304   5.950   6.655
 9789SOL    HW130266   1.404   5.951   6.664
 9789SOL    HW230267   1.278   5.984   6.565
 9790SOL     OW30268   5.750   4.058   6.142
 9790SOL    HW130269   5.739   4.089   6.236
 9790SOL    HW230270   5.810   3.978   6.139
 9791SOL     OW30271   0.263   1.310   3.053
 9791SOL    HW130272   0.319   1.248   3.108
 9791SOL    HW230273   0.289   1.405   3.072
 9792SOL     OW30274   5.550   5.334   1.716
 9792SOL    HW130275   5.607   5.357   1.795
 9792SOL    HW230276   5.539   5.415   1.658
 9793SOL     OW30277   5.491   4.840   3.560
 9793SOL    HW130278   5.495   4.916   3.495
 9793SOL    HW230279   5.521   4.871   3.650
 9794SOL     OW30280   6.685   4.037   6.085
 9794SOL    HW130281   6.631   4.068   6.007
 9794SOL    HW230282   6.750   3.967   6.056
 9795SOL     OW30283   1.228   1.976   4.258
 9795SOL    HW130284   1.129   1.981   4.249
 9795SOL    HW230285   1.252   1.941   4.349
 9796SOL     OW30286   4.021   2.812   1.282
 9796SOL    HW130287   4.109   2.786   1.320
 9796SOL    HW230288   4.031   2.897   1.230
 9797SOL     OW30289   3.130   4.387   6.517
 9797SOL    HW130290   3.160   4.320   6.450
 9797SOL    HW230291   3.034   4.370   6.541
 9798SOL     OW30292   2.014   0.930   0.877
 9798SOL    HW130293   1.979   1.015   0.916
 9798SOL    HW230294   2.100   0.906   0.922
 9799SOL     OW30295   3.466   3.489   3.371
 9799SOL    HW130296   3.401   3.419   3.340
 9799SOL    HW230297   3.435   3.579   3.339
 9800SOL     OW30298   3.247   6.541   5.363
 9800SOL    HW130299   3.225   6.635   5.387
 9800SOL    HW230300   3.194   6.478   5.421
 9801SOL     OW30301   4.121   4.641   0.621
 9801SOL    HW130302   4.139   4.694   0.538
 9801SOL    HW230303   4.134   4.544   0.601
 9802SOL     OW30304   0.670   2.608   2.669
 9802SOL    HW130305   0.765   2.636   2.678
 9802SOL    HW230306   0.630   2.593   2.760
 9803SOL     OW30307   6.000   1.611   6.943
 9803SOL    HW130308   5.940   1.572   7.013
 9803SOL    HW230309   5.990   1.559   6.858
 9804SOL     OW30310   0.736   5.537   3.439
 9804SOL    HW130311   0.679   5.619   3.444
 9804SOL    HW230312   0.750   5.512   3.343
 9805SOL     OW30313   1.165   5.808   5.569
 9805SOL    HW130314   1.138   5.894   5.612
 9805SOL    HW230315   1.253   5.820   5.524
 9806SOL     OW30316   1.030   1.746   0.237
 9806SOL    HW130317   1.129   1.739   0.225
 9806SOL    HW230318   0.992   1.655   0.254
 9807SOL     OW30319   2.099   2.662   7.001
 9807SOL    HW130320   2.138   2.661   0.078
 9807SOL    HW230321   2.017   2.605   6.999
 9808SOL     OW30322   5.698   0.982   5.466
 9808SOL    HW130323   5.632   0.917   5.428
 9808SOL    HW230324   5.706   0.967   5.565
 9809SOL     OW30325   0.986   1.714   6.194
 9809SOL    HW130326   1.081   1.735   6.171
 9809SOL    HW230327   0.982   1.629   6.246
 9810SOL     OW30328   2.696   2.333   3.775
 9810SOL    HW130329   2.649   2.421   3.769
 9810SOL    HW230330   2.657   2.280   3.851
 9811SOL     OW30331   6.247   5.472   3.983
 9811SOL    HW130332   6.191   5.486   4.064
 9811SOL    HW230333   6.198   5.413   3.918
 9812SOL     OW30334   3.197   2.683   5.999
 9812SOL    HW130335   3.274   2.621   5.984
 9812SOL    HW230336   3.148   2.657   6.082
 9813SOL     OW30337   5.950   6.465   6.982
 9813SOL    HW130338   5.885   6.444   0.040
 9813SOL    HW230339   5.950   6.391   6.916
 9814SOL     OW30340   0.522   1.302   6.828
 9814SOL    HW130341   0.605   1.255   6.797
 9814SOL    HW230342   0.460   1.235   6.870
 9815SOL     OW30343   6.654   2.969   2.267
 9815SOL    HW130344   6.751   2.990   2.253
 9815SOL    HW230345   6.645   2.878   2.308
 9816SOL     OW30346   6.627   1.341   6.351
 9816SOL    HW130347   6.556   1.274   6.369
 9816SOL    HW230348   6.710   1.295   6.320
 9817SOL     OW30349   2.976   5.728   1.909
 9817SOL    HW130350   3.072   5.748   1.891
 9817SOL    HW230351   2.965   5.697   2.003
 9818SOL     OW30352   1.501   0.974   3.811
 9818SOL    HW130353   1.514   0.959   3.909
 9818SOL    HW230354   1.539   1.063   3.786
 9819SOL     OW30355   5.011   3.150   4.910
 9819SOL    HW130356   5.019   3.195   4.821
 9819SOL    HW230357   4.948   3.201   4.968
 9820SOL     OW30358   3.606   2.887   6.531
 9820SOL    HW130359   3.560   2.975   6.530
 9820SOL    HW230360   3.639   2.867   6.623
 9821SOL     OW30361   4.032   1.830   0.746
 9821SOL    HW130362   4.106   1.764   0.731
 9821SOL    HW230363   3.978   1.801   0.826
 9822SOL     OW30364   3.538   5.683   4.272
 9822SOL    HW130365   3.500   5.722   4.355
 9822SOL    HW230366   3.636   5.667   4.284
 9823SOL     OW30367   1.694   0.040   2.202
 9823SOL    HW130368   1.769   0.054   2.267
 9823SOL    HW230369   1.618   0.101   2.225
 9824SOL     OW30370   2.257   5.840   5.379
 9824SOL    HW130371   2.172   5.892   5.382
 9824SOL    HW230372   2.244   5.751   5.423
 9825SOL     OW30373   5.567   6.228   4.896
 9825SOL    HW130374   5.647   6.224   4.835
 9825SOL    HW230375   5.529   6.136   4.905
 9826SOL     OW30376   3.609   6.547   5.135
 9826SOL    HW130377   3.645   6.560   5.227
 9826SOL    HW230378   3.584   6.451   5.123
 9827SOL     OW30379   1.816   3.941   3.236
 9827SOL    HW130380   1.792   3.934   3.139
 9827SOL    HW230381   1.734   3.922   3.291
 9828SOL     OW30382   3.424   2.135   5.121
 9828SOL    HW130383   3.343   2.191   5.101
 9828SOL    HW230384   3.419   2.050   5.068
 9829SOL     OW30385   4.636   5.676   5.931
 9829SOL    HW130386   4.719   5.620   5.936
 9829SOL    HW230387   4.580   5.646   5.854
 9830SOL     OW30388   5.105   1.760   1.827
 9830SOL    HW130389   5.199   1.733   1.809
 9830SOL    HW230390   5.090   1.765   1.926
 9831SOL     OW30391   0.760   4.629   1.749
 9831SOL    HW130392   0.669   4.662   1.775
 9831SOL    HW230393   0.757   4.529   1.741
 9832SOL     OW30394   4.489   5.430   3.494
 9832SOL    HW130395   4.453   5.508   3.546
 9832SOL    HW230396   4.565   5.389   3.546
 9833SOL     OW30397   3.418   3.128   3.395
 9833SOL    HW130398   3.416   3.141   3.296
 9833SOL    HW230399   3.509   3.150   3.430
 9834SOL     OW30400   1.972   4.792   5.787
 9834SOL    HW130401   1.930   4.867   5.735
 9834SOL    HW230402   2.068   4.783   5.761
 9835SOL     OW30403   3.888   3.043   4.141
 9835SOL    HW130404   3.946   3.018   4.064
 9835SOL    HW230405   3.907   3.137   4.168
 9836SOL     OW30406   0.901   4.471   4.849
 9836SOL    HW130407   0.902   4.372   4.859
 9836SOL    HW230408   0.873   4.495   4.756
 9837SOL     OW30409   5.719   1.448   2.795
 9837SOL    HW130410   5.694   1.411   2.706
 9837SOL    HW230411   5.637   1.478   2.843
 9838SOL     OW30412   1.599   6.983   0.837
 9838SOL    HW130413   1.582   6.892   0.876
 9838SOL    HW230414   1.615   0.033   0.911
 9839SOL     OW30415   4.073   6.917   3.422
 9839SOL    HW130416   4.142   6.871   3.478
 9839SOL    HW230417   4.005   6.960   3.482
 9840SOL     OW30418   4.518   1.821   0.413
 9840SOL    HW130419   4.540   1.728   0.444
 9840SOL    HW230420   4.591   1.854   0.353
 9841SOL     OW30421   1.029   4.932   3.366
 9841SOL    HW130422   1.098   4.879   3.416
 9841SOL    HW230423   0.953   4.871   3.342
 9842SOL     OW30424   3.611   2.971   0.202
 9842SOL    HW130425   3.513   2.972   0.225
 9842SOL    HW230426   3.626   3.024   0.119
 9843SOL     OW30427   6.592   0.414   1.866
 9843SOL    HW130428   6.681   0.422   1.910
 9843SOL    HW230429   6.522   0.394   1.934
 9844SOL     OW30430   6.084   0.980   3.794
 9844SOL    HW130431   5.991   1.014   3.809
 9844SOL    HW230432   6.101   0.901   3.852
 9845SOL     OW30433   0.975   2.510   3.290
 9845SOL    HW130434   0.941   2.595   3.250
 9845SOL    HW230435   0.922   2.433   3.253
 9846SOL     OW30436   5.039   1.605   0.228
 9846SOL    HW130437   5.038   1.640   0.322
 9846SOL    HW230438   5.063   1.508   0.229
 9847SOL     OW30439   3.790   3.009   2.114
 9847SOL    HW130440   3.737   2.947   2.058
 9847SOL    HW230441   3.747   3.018   2.204
 9848SOL     OW30442   3.329   4.556   5.367
 9848SOL    HW130443   3.376   4.495   5.431
 9848SOL    HW230444   3.239   4.518   5.346
 9849SOL     OW30445   0.923   6.643   6.929
 9849SOL    HW130446   0.985   6.569   6.956
 9849SOL    HW230447   0.863   6.665   7.006
 9850SOL     OW30448   6.730   0.451   3.689
 9850SOL    HW130449   6.651   0.443   3.630
 9850SOL    HW230450   6.745   0.365   3.738
 9851SOL     OW30451   2.843   6.345   4.631
 9851SOL    HW130452   2.744   6.346   4.647
 9851SOL    HW230453   2.870   6.258   4.591
 9852SOL     OW30454   1.481   1.094   5.355
 9852SOL    HW130455   1.427   1.144   5.422
 9852SOL    HW230456   1.461   1.127   5.263
 9853SOL     OW30457   6.820   3.594   5.210
 9853SOL    HW130458   6.808   3.503   5.168
 9853SOL    HW230459   6.795   3.664   5.144
 9854SOL     OW30460   0.822   5.248   5.114
 9854SOL    HW130461   0.824   5.265   5.213
 9854SOL    HW230462   0.911   5.216   5.084
 9855SOL     OW30463   1.041   3.544   0.997
 9855SOL    HW130464   1.003   3.563   1.087
 9855SOL    HW230465   1.054   3.445   0.987
 9856SOL     OW30466   5.784   4.313   3.931
 9856SOL    HW130467   5.833   4.252   3.993
 9856SOL    HW230468   5.795   4.408   3.962
 9857SOL     OW30469   5.741   3.108   2.767
 9857SOL    HW130470   5.674   3.127   2.696
 9857SOL    HW230471   5.809   3.181   2.770
 9858SOL     OW30472   1.050   6.682   1.409
 9858SOL    HW130473   0.975   6.749   1.403
 9858SOL    HW230474   1.120   6.717   1.471
 9859SOL     OW30475   6.592   4.893   4.862
 9859SOL    HW130476   6.670   4.865   4.919
 9859SOL    HW230477   6.613   4.981   4.819
 9860SOL     OW30478   1.742   2.273   4.833
 9860SOL    HW130479   1.647   2.303   4.843
 9860SOL    HW230480   1.790   2.283   4.919
 9861SOL     OW30481   3.065   0.976   3.387
 9861SOL    HW130482   3.095   0.892   3.342
 9861SOL    HW230483   2.998   0.955   3.458
 9862SOL     OW30484   3.043   4.071   0.772
 9862SOL    HW130485   3.038   4.159   0.726
 9862SOL    HW230486   3.120   4.019   0.735
 9863SOL     OW30487   3.331   5.652   1.166
 9863SOL    HW130488   3.365   5.731   1.217
 9863SOL    HW230489   3.234   5.637   1.188
 9864SOL     OW30490   2.973   0.103   5.634
 9864SOL    HW130491   2.966   0.166   5.557
 9864SOL    HW230492   3.001   0.013   5.601
 9865SOL     OW30493   0.581   6.327   5.294
 9865SOL    HW130494   0.551   6.237   5.261
 9865SOL    HW230495   0.681   6.331   5.290
 9866SOL     OW30496   6.006   4.550   5.234
 9866SOL    HW130497   5.912   4.582   5.239
 9866SOL    HW230498   6.013   4.473   5.171
 9867SOL     OW30499   6.227   2.609   2.389
 9867SOL    HW130500   6.295   2.678   2.365
 9867SOL    HW230501   6.237   2.529   2.329
 9868SOL     OW30502   0.703   3.712   4.189
 9868SOL    HW130503   0.791   3.691   4.231
 9868SOL    HW230504   0.717   3.760   4.103
 9869SOL     OW30505   0.551   2.443   0.949
 9869SOL    HW130506   0.637   2.478   0.910
 9869SOL    HW230507   0.563   2.430   1.047
 9870SOL     OW30508   4.443   0.736   2.943
 9870SOL    HW130509   4.470   0.647   2.905
 9870SOL    HW230510   4.418   0.797   2.868
 9871SOL     OW30511   6.725   3.222   6.249
 9871SOL    HW130512   6.646   3.210   6.188
 9871SOL    HW230513   6.706   3.296   6.313
 9872SOL     OW30514   2.050   5.266   4.972
 9872SOL    HW130515   2.022   5.197   4.905
 9872SOL    HW230516   2.105   5.336   4.926
 9873SOL     OW30517   2.248   2.229   6.167
 9873SOL    HW130518   2.240   2.291   6.089
 9873SOL    HW230519   2.180   2.156   6.159
 9874SOL     OW30520   0.506   3.478   4.630
 9874SOL    HW130521   0.408   3.461   4.645
 9874SOL    HW230522   0.555   3.469   4.716
 9875SOL     OW30523   0.037   5.818   2.039
 9875SOL    HW130524   0.070   5.732   2.001
 9875SOL    HW230525   0.112   5.863   2.089
 9876SOL     OW30526   4.785   0.301   4.026
 9876SOL    HW130527   4.875   0.263   4.046
 9876SOL    HW230528   4.729   0.301   4.109
 9877SOL     OW30529   6.808   4.603   4.292
 9877SOL    HW130530   6.899   4.566   4.310
 9877SOL    HW230531   6.738   4.535   4.312
 9878SOL     OW30532   1.688   3.415   6.794
 9878SOL    HW130533   1.602   3.457   6.765
 9878SOL    HW230534   1.726   3.361   6.719
 9879SOL     OW30535   0.531   4.814   5.811
 9879SOL    HW130536   0.549   4.817   5.712
 9879SOL    HW230537   0.539   4.720   5.843
 9880SOL     OW30538   2.640   1.030   0.378
 9880SOL    HW130539   2.642   1.070   0.287
 9880SOL    HW230540   2.610   1.099   0.444
 9881SOL     OW30541   5.674   0.597   4.669
 9881SOL    HW130542   5.721   0.619   4.754
 9881SOL    HW230543   5.592   0.542   4.690
 9882SOL     OW30544   3.678   3.439   4.685
 9882SOL    HW130545   3.678   3.400   4.777
 9882SOL    HW230546   3.618   3.519   4.683
 9883SOL     OW30547   2.087   6.153   1.734
 9883SOL    HW130548   2.111   6.082   1.801
 9883SOL    HW230549   2.094   6.243   1.777
 9884SOL     OW30550   3.101   2.849   6.696
 9884SOL    HW130551   3.004   2.824   6.693
 9884SOL    HW230552   3.141   2.835   6.605
 9885SOL     OW30553   0.578   3.097   4.097
 9885SOL    HW130554   0.635   3.175   4.124
 9885SOL    HW230555   0.627   3.040   4.031
 9886SOL     OW30556   5.977   6.709   2.102
 9886SOL    HW130557   5.936   6.663   2.180
 9886SOL    HW230558   5.906   6.759   2.052
 9887SOL     OW30559   3.626   0.168   0.422
 9887SOL    HW130560   3.683   0.248   0.407
 9887SOL    HW230561   3.531   0.196   0.435
 9888SOL     OW30562   6.012   6.139   3.234
 9888SOL    HW130563   5.990   6.169   3.141
 9888SOL    HW230564   5.929   6.105   3.278
 9889SOL     OW30565   0.440   4.808   2.644
 9889SOL    HW130566   0.537   4.823   2.663
 9889SOL    HW230567   0.386   4.831   2.725
 9890SOL     OW30568   6.227   2.863   0.256
 9890SOL    HW130569   6.252   2.817   0.170
 9890SOL    HW230570   6.213   2.960   0.239
 9891SOL     OW30571   5.121   4.665   1.368
 9891SOL    HW130572   5.127   4.571   1.401
 9891SOL    HW230573   5.080   4.723   1.439
 9892SOL     OW30574   2.168   5.373   3.700
 9892SOL    HW130575   2.106   5.433   3.650
 9892SOL    HW230576   2.199   5.299   3.641
 9893SOL     OW30577   7.012   5.729   2.812
 9893SOL    HW130578   6.967   5.674   2.741
 9893SOL    HW230579   0.062   5.672   2.862
 9894SOL     OW30580   2.738   1.344   6.788
 9894SOL    HW130581   2.833   1.313   6.783
 9894SOL    HW230582   2.725   1.397   6.872
 9895SOL     OW30583   5.939   2.170   5.788
 9895SOL    HW130584   5.998   2.229   5.843
 9895SOL    HW230585   5.848   2.168   5.827
 9896SOL     OW30586   3.900   2.705   1.059
 9896SOL    HW130587   3.969   2.662   1.001
 9896SOL    HW230588   3.945   2.746   1.139
 9897SOL     OW30589   5.336   1.311   2.534
 9897SOL    HW130590   5.367   1.392   2.584
 9897SOL    HW230591   5.316   1.238   2.599
 9898SOL     OW30592   0.756   5.249   5.679
 9898SOL    HW130593   0.766   5.204   5.768
 9898SOL    HW230594   0.676   5.309   5.681
 9899SOL     OW30595   6.027   4.073   2.128
 9899SOL    HW130596   6.008   3.975   2.125
 9899SOL    HW230597   6.051   4.105   2.036
 9900SOL     OW30598   1.954   1.993   2.661
 9900SOL    HW130599   1.919   1.901   2.681
 9900SOL    HW230600   1.918   2.057   2.728
 9901SOL     OW30601   1.345   2.223   7.008
 9901SOL    HW130602   1.435   2.180   7.015
 9901SOL    HW230603   1.346   2.311   0.039
 9902SOL     OW30604   3.352   3.064   0.785
 9902SOL    HW130605   3.432   3.007   0.801
 9902SOL    HW230606   3.338   3.123   0.865
 9903SOL     OW30607   4.701   0.600   2.223
 9903SOL    HW130608   4.632   0.564   2.161
 9903SOL    HW230609   4.780   0.539   2.224
 9904SOL     OW30610   0.365   3.902   6.462
 9904SOL    HW130611   0.292   3.859   6.409
 9904SOL    HW230612   0.413   3.832   6.515
 9905SOL     OW30613   1.540   6.514   0.792
 9905SOL    HW130614   1.565   6.577   0.718
 9905SOL    HW230615   1.621   6.493   0.846
 9906SOL     OW30616   1.610   3.147   6.913
 9906SOL    HW130617   1.673   3.112   6.982
 9906SOL    HW230618   1.626   3.245   6.901
 9907SOL     OW30619   2.728   6.276   3.424
 9907SOL    HW130620   2.633   6.265   3.397
 9907SOL    HW230621   2.766   6.187   3.451
 9908SOL     OW30622   0.776   3.450   6.388
 9908SOL    HW130623   0.691   3.482   6.346
 9908SOL    HW230624   0.819   3.382   6.329
 9909SOL     OW30625   3.482   0.907   3.101
 9909SOL    HW130626   3.532   0.857   3.030
 9909SOL    HW230627   3.546   0.945   3.167
 9910SOL     OW30628   0.117   5.158   1.437
 9910SOL    HW130629   0.137   5.202   1.525
 9910SOL    HW230630   0.130   5.059   1.446
 9911SOL     OW30631   4.857   5.414   3.203
 9911SOL    HW130632   4.822   5.325   3.229
 9911SOL    HW230633   4.812   5.445   3.119
 9912SOL     OW30634   3.980   0.506   2.689
 9912SOL    HW130635   3.883   0.484   2.700
 9912SOL    HW230636   4.034   0.422   2.693
 9913SOL     OW30637   5.804   2.909   1.886
 9913SOL    HW130638   5.873   2.907   1.813
 9913SOL    HW230639   5.714   2.890   1.847
 9914SOL     OW30640   0.970   0.595   5.691
 9914SOL    HW130641   1.030   0.519   5.667
 9914SOL    HW230642   0.878   0.561   5.711
 9915SOL     OW30643   5.822   3.771   4.340
 9915SOL    HW130644   5.918   3.788   4.320
 9915SOL    HW230645   5.777   3.730   4.261
 9916SOL     OW30646   2.725   2.087   3.378
 9916SOL    HW130647   2.783   2.168   3.388
 9916SOL    HW230648   2.629   2.113   3.382
 9917SOL     OW30649   3.180   3.159   4.818
 9917SOL    HW130650   3.162   3.179   4.721
 9917SOL    HW230651   3.229   3.072   4.825
 9918SOL     OW30652   1.456   1.073   0.012
 9918SOL    HW130653   1.504   0.995   0.052
 9918SOL    HW230654   1.487   1.157   0.056
 9919SOL     OW30655   2.200   4.687   2.262
 9919SOL    HW130656   2.119   4.706   2.319
 9919SOL    HW230657   2.280   4.678   2.321
 9920SOL     OW30658   3.731   0.753   2.608
 9920SOL    HW130659   3.715   0.821   2.537
 9920SOL    HW230660   3.805   0.784   2.668
 9921SOL     OW30661   6.707   6.115   3.679
 9921SOL    HW130662   6.723   6.059   3.760
 9921SOL    HW230663   6.682   6.057   3.601
 9922SOL     OW30664   4.286   4.326   0.847
 9922SOL    HW130665   4.283   4.346   0.749
 9922SOL    HW230666   4.237   4.397   0.897
 9923SOL     OW30667   6.697   2.558   0.055
 9923SOL    HW130668   6.717   2.462   0.039
 9923SOL    HW230669   6.736   2.585   0.144
 9924SOL     OW30670   5.789   1.802   1.746
 9924SOL    HW130671   5.764   1.708   1.769
 9924SOL    HW230672   5.709   1.861   1.761
 9925SOL     OW30673   2.212   4.299   5.112
 9925SOL    HW130674   2.248   4.216   5.069
 9925SOL    HW230675   2.215   4.288   5.212
 9926SOL     OW30676   3.188   2.336   1.149
 9926SOL    HW130677   3.286   2.323   1.137
 9926SOL    HW230678   3.170   2.425   1.190
 9927SOL     OW30679   0.891   2.311   1.224
 9927SOL    HW130680   0.961   2.382   1.218
 9927SOL    HW230681   0.922   2.239   1.287
 9928SOL     OW30682   5.948   4.202   2.338
 9928SOL    HW130683   6.004   4.148   2.274
 9928SOL    HW230684   5.961   4.167   2.431
 9929SOL     OW30685   2.690   4.218   5.532
 9929SOL    HW130686   2.643   4.152   5.474
 9929SOL    HW230687   2.729   4.291   5.475
 9930SOL     OW30688   6.907   0.484   5.791
 9930SOL    HW130689   6.987   0.479   5.730
 9930SOL    HW230690   6.874   0.391   5.810
 9931SOL     OW30691   0.111   5.821   5.356
 9931SOL    HW130692   0.048   5.753   5.318
 9931SOL    HW230693   0.160   5.867   5.282
 9932SOL     OW30694   1.453   2.028   0.303
 9932SOL    HW130695   1.519   2.085   0.253
 9932SOL    HW230696   1.371   2.081   0.322
 9933SOL     OW30697   2.694   0.795   3.340
 9933SOL    HW130698   2.712   0.894   3.337
 9933SOL    HW230699   2.596   0.779   3.332
 9934SOL     OW30700   5.838   1.868   0.145
 9934SOL    HW130701   5.864   1.888   0.050
 9934SOL    HW230702   5.787   1.946   0.183
 9935SOL     OW30703   2.828   2.195   0.824
 9935SOL    HW130704   2.816   2.109   0.775
 9935SOL    HW230705   2.754   2.206   0.890
 9936SOL     OW30706   5.572   4.375   6.520
 9936SOL    HW130707   5.596   4.461   6.565
 9936SOL    HW230708   5.520   4.394   6.437
 9937SOL     OW30709   1.189   0.800   3.055
 9937SOL    HW130710   1.186   0.795   2.955
 9937SOL    HW230711   1.274   0.843   3.084
 9938SOL     OW30712   5.610   0.515   3.667
 9938SOL    HW130713   5.677   0.470   3.726
 9938SOL    HW230714   5.647   0.520   3.574
 9939SOL     OW30715   1.351   3.261   1.032
 9939SOL    HW130716   1.420   3.223   0.970
 9939SOL    HW230717   1.390   3.268   1.124
 9940SOL     OW30718   6.881   7.014   3.667
 9940SOL    HW130719   6.969   0.034   3.699
 9940SOL    HW230720   6.810   0.067   3.684
 9941SOL     OW30721   3.789   5.498   5.103
 9941SOL    HW130722   3.851   5.435   5.149
 9941SOL    HW230723   3.696   5.462   5.106
 9942SOL     OW30724   4.702   4.597   2.647
 9942SOL    HW130725   4.637   4.584   2.573
 9942SOL    HW230726   4.794   4.578   2.614
 9943SOL     OW30727   1.192   4.433   6.133
 9943SOL    HW130728   1.265   4.485   6.088
 9943SOL    HW230729   1.106   4.482   6.125
 9944SOL     OW30730   6.756   5.586   6.465
 9944SOL    HW130731   6.809   5.547   6.390
 9944SOL    HW230732   6.799   5.671   6.496
 9945SOL     OW30733   5.808   3.993   6.627
 9945SOL    HW130734   5.889   3.935   6.620
 9945SOL    HW230735   5.730   3.939   6.659
 9946SOL     OW30736   5.876   0.014   3.142
 9946SOL    HW130737   5.893   0.008   3.044
 9946SOL    HW230738   5.961   0.038   3.190
 9947SOL     OW30739   1.523   1.274   3.725
 9947SOL    HW130740   1.530   1.338   3.802
 9947SOL    HW230741   1.613   1.258   3.686
 9948SOL     OW30742   6.622   5.779   5.147
 9948SOL    HW130743   6.658   5.690   5.175
 9948SOL    HW230744   6.627   5.842   5.224
 9949SOL     OW30745   0.154   4.973   4.318
 9949SOL    HW130746   0.231   4.931   4.270
 9949SOL    HW230747   0.151   5.071   4.299
 9950SOL     OW30748   6.504   5.074   6.133
 9950SOL    HW130749   6.413   5.077   6.175
 9950SOL    HW230750   6.554   4.995   6.169
 9951SOL     OW30751   1.533   2.662   2.539
 9951SOL    HW130752   1.441   2.677   2.501
 9951SOL    HW230753   1.598   2.651   2.464
 9952SOL     OW30754   0.632   3.594   2.178
 9952SOL    HW130755   0.577   3.657   2.233
 9952SOL    HW230756   0.594   3.589   2.086
 9953SOL     OW30757   6.390   2.489   3.649
 9953SOL    HW130758   6.458   2.437   3.598
 9953SOL    HW230759   6.336   2.545   3.585
 9954SOL     OW30760   2.568   1.722   5.329
 9954SOL    HW130761   2.574   1.653   5.257
 9954SOL    HW230762   2.517   1.801   5.295
 9955SOL     OW30763   4.756   3.183   0.062
 9955SOL    HW130764   4.771   3.107   7.015
 9955SOL    HW230765   4.678   3.237   0.031
 9956SOL     OW30766   0.522   4.147   2.250
 9956SOL    HW130767   0.506   4.064   2.305
 9956SOL    HW230768   0.617   4.148   2.219
 9957SOL     OW30769   5.494   0.057   1.140
 9957SOL    HW130770   5.429   0.045   1.215
 9957SOL    HW230771   5.583   0.021   1.167
 9958SOL     OW30772   3.307   5.406   6.095
 9958SOL    HW130773   3.308   5.470   6.018
 9958SOL    HW230774   3.385   5.426   6.155
 9959SOL     OW30775   4.502   3.591   1.668
 9959SOL    HW130776   4.429   3.634   1.722
 9959SOL    HW230777   4.493   3.491   1.674
 9960SOL     OW30778   0.067   6.173   1.605
 9960SOL    HW130779   0.115   6.189   1.692
 9960SOL    HW230780   7.010   6.106   1.619
 9961SOL     OW30781   1.830   4.441   2.647
 9961SOL    HW130782   1.848   4.540   2.645
 9961SOL    HW230783   1.889   4.396   2.580
 9962SOL     OW30784   3.493   0.653   1.794
 9962SOL    HW130785   3.455   0.564   1.821
 9962SOL    HW230786   3.422   0.723   1.802
 9963SOL     OW30787   2.474   2.062   0.445
 9963SOL    HW130788   2.395   2.056   0.505
 9963SOL    HW230789   2.499   2.158   0.431
 9964SOL     OW30790   3.852   4.991   5.800
 9964SOL    HW130791   3.920   4.917   5.804
 9964SOL    HW230792   3.780   4.973   5.867
 9965SOL     OW30793   3.817   5.568   4.499
 9965SOL    HW130794   3.888   5.626   4.461
 9965SOL    HW230795   3.772   5.614   4.575
 9966SOL     OW30796   2.603   4.920   2.535
 9966SOL    HW130797   2.601   4.919   2.635
 9966SOL    HW230798   2.550   4.998   2.502
 9967SOL     OW30799   6.253   5.510   3.118
 9967SOL    HW130800   6.178   5.468   3.168
 9967SOL    HW230801   6.248   5.610   3.128
 9968SOL     OW30802   4.722   5.480   6.800
 9968SOL    HW130803   4.780   5.509   6.877
 9968SOL    HW230804   4.689   5.561   6.752
 9969SOL     OW30805   1.564   2.922   4.609
 9969SOL    HW130806   1.656   2.930   4.647
 9969SOL    HW230807   1.497   2.929   4.683
 9970SOL     OW30808   6.007   4.972   1.706
 9970SOL    HW130809   6.071   4.901   1.737
 9970SOL    HW230810   5.932   4.930   1.656
 9971SOL     OW30811   1.386   2.896   1.459
 9971SOL    HW130812   1.395   2.941   1.548
 9971SOL    HW230813   1.376   2.798   1.472
 9972SOL     OW30814   2.826   3.913   1.151
 9972SOL    HW130815   2.903   3.968   1.118
 9972SOL    HW230816   2.771   3.967   1.214
 9973SOL     OW30817   4.862   3.022   4.479
 9973SOL    HW130818   4.801   2.979   4.546
 9973SOL    HW230819   4.856   3.122   4.489
 9974SOL     OW30820   6.687   1.762   3.390
 9974SOL    HW130821   6.595   1.734   3.361
 9974SOL    HW230822   6.741   1.788   3.310
 9975SOL     OW30823   0.528   5.394   6.334
 9975SOL    HW130824   0.581   5.324   6.382
 9975SOL    HW230825   0.512   5.366   6.240
 9976SOL     OW30826   0.773   5.146   5.928
 9976SOL    HW130827   0.707   5.166   6.001
 9976SOL    HW230828   0.866   5.148   5.966
 9977SOL     OW30829   5.092   4.683   5.683
 9977SOL    HW130830   5.169   4.678   5.746
 9977SOL    HW230831   5.013   4.635   5.722
 9978SOL     OW30832   0.068   2.009   5.279
 9978SOL    HW130833   0.027   2.099   5.265
 9978SOL    HW230834   0.016   1.959   5.348
 9979SOL     OW30835   6.092   4.387   6.152
 9979SOL    HW130836   6.150   4.419   6.078
 9979SOL    HW230837   6.014   4.449   6.163
 9980SOL     OW30838   2.155   0.331   1.155
 9980SOL    HW130839   2.089   0.258   1.172
 9980SOL    HW230840   2.187   0.368   1.242
 9981SOL     OW30841   1.502   2.247   1.068
 9981SOL    HW130842   1.546   2.161   1.043
 9981SOL    HW230843   1.490   2.303   0.986
 9982SOL     OW30844   1.531   1.026   4.384
 9982SOL    HW130845   1.631   1.026   4.381
 9982SOL    HW230846   1.500   1.000   4.475
 9983SOL     OW30847   6.685   1.869   2.181
 9983SOL    HW130848   6.784   1.867   2.163
 9983SOL    HW230849   6.659   1.962   2.206
 9984SOL     OW30850   0.774   6.172   0.250
 9984SOL    HW130851   0.746   6.185   0.345
 9984SOL    HW230852   0.796   6.076   0.234
 9985SOL     OW30853   2.911   5.247   1.266
 9985SOL    HW130854   2.967   5.203   1.196
 9985SOL    HW230855   2.870   5.330   1.229
 9986SOL     OW30856   6.119   4.897   0.761
 9986SOL    HW130857   6.098   4.937   0.672
 9986SOL    HW230858   6.199   4.837   0.752
 9987SOL     OW30859   5.745   2.722   2.398
 9987SOL    HW130860   5.824   2.703   2.457
 9987SOL    HW230861   5.728   2.643   2.339
 9988SOL     OW30862   6.856   5.161   4.335
 9988SOL    HW130863   6.850   5.063   4.315
 9988SOL    HW230864   6.943   5.196   4.302
 9989SOL     OW30865   5.829   3.822   2.236
 9989SOL    HW130866   5.791   3.914   2.247
 9989SOL    HW230867   5.758   3.754   2.254
 9990SOL     OW30868   2.143   6.502   3.389
 9990SOL    HW130869   2.082   6.483   3.312
 9990SOL    HW230870   2.172   6.598   3.386
 9991SOL     OW30871   2.068   3.817   3.843
 9991SOL    HW130872   2.081   3.718   3.834
 9991SOL    HW230873   1.998   3.835   3.913
 9992SOL     OW30874   3.323   3.411   0.726
 9992SOL    HW130875   3.409   3.391   0.679
 9992SOL    HW230876   3.310   3.346   0.800
 9993SOL     OW30877   3.674   6.307   3.775
 9993SOL    HW130878   3.637   6.305   3.868
 9993SOL    HW230879   3.601   6.288   3.710
 9994SOL     OW30880   6.965   3.917   2.792
 9994SOL    HW130881   6.890   3.861   2.827
 9994SOL    HW230882   6.944   3.945   2.698
 9995SOL     OW30883   3.296   1.692   3.299
 9995SOL    HW130884   3.294   1.638   3.382
 9995SOL    HW230885   3.379   1.748   3.298
 9996SOL     OW30886   3.356   4.135   0.955
 9996SOL    HW130887   3.431   4.090   1.003
 9996SOL    HW230888   3.374   4.135   0.857
 9997SOL     OW30889   5.942   0.712   2.928
 9997SOL    HW130890   5.871   0.644   2.948
 9997SOL    HW230891   5.909   0.776   2.859
 9998SOL     OW30892   5.389   3.881   1.923
 9998SOL    HW130893   5.391   3.794   1.973
 9998SOL    HW230894   5.483   3.914   1.912
 9999SOL     OW30895   7.007   6.432   4.794
 9999SOL    HW130896   6.964   6.428   4.884
 9999SOL    HW230897   0.038   6.345   4.776
10000SOL     OW30898   5.589   1.967   0.896
10000SOL    HW130899   5.675   2.000   0.856
10000SOL    HW230900   5.607   1.884   0.948
10001SOL     OW30901   3.373   0.431   1.634
10001SOL    HW130902   3.390   0.335   1.653
10001SOL    HW230903   3.391   0.450   1.537
10002SOL     OW30904   2.206   1.204   1.048
10002SOL    HW130905   2.226   1.302   1.053
10002SOL    HW230906   2.111   1.191   1.019
10003SOL     OW30907   3.290   2.129   2.646
10003SOL    HW130908   3.305   2.116   2.548
10003SOL    HW230909   3.334   2.214   2.675
10004SOL     OW30910   5.258   3.392   5.378
10004SOL    HW130911   5.307   3.311   5.410
10004SOL    HW230912   5.160   3.372   5.373
10005SOL     OW30913   3.547   5.465   2.736
10005SOL    HW130914   3.629   5.419   2.770
10005SOL    HW230915   3.486   5.398   2.694
10006SOL     OW30916   5.612   0.003   5.560
10006SOL    HW130917   5.631   0.069   5.487
10006SOL    HW230918   5.630   0.045   5.648
10007SOL     OW30919   1.138   3.134   4.245
10007SOL    HW130920   1.210   3.119   4.313
10007SOL    HW230921   1.052   3.154   4.291
10008SOL     OW30922   4.951   1.301   3.249
10008SOL    HW130923   4.900   1.310   3.335
10008SOL    HW230924   5.003   1.215   3.250
10009SOL     OW30925   2.039   4.606   1.891
10009SOL    HW130926   2.074   4.531   1.835
10009SOL    HW230927   2.106   4.680   1.893
10010SOL     OW30928   2.517   6.162   0.691
10010SOL    HW130929   2.595   6.100   0.692
10010SOL    HW230930   2.541   6.245   0.641
10011SOL     OW30931   0.192   4.216   6.960
10011SOL    HW130932   0.286   4.251   6.955
10011SOL    HW230933   0.178   4.149   6.887
10012SOL     OW30934   5.340   0.061   2.187
10012SOL    HW130935   5.428   0.107   2.198
10012SOL    HW230936   5.287   0.107   2.115
10013SOL     OW30937   1.925   2.869   4.216
10013SOL    HW130938   1.930   2.954   4.269
10013SOL    HW230939   1.968   2.795   4.267
10014SOL     OW30940   1.220   0.492   1.637
10014SOL    HW130941   1.143   0.474   1.698
10014SOL    HW230942   1.303   0.452   1.676
10015SOL     OW30943   4.289   5.130   0.339
10015SOL    HW130944   4.329   5.039   0.351
10015SOL    HW230945   4.216   5.143   0.406
10016SOL     OW30946   2.604   1.180   4.504
10016SOL    HW130947   2.655   1.100   4.473
10016SOL    HW230948   2.638   1.210   4.593
10017SOL     OW30949   1.702   1.456   2.837
10017SOL    HW130950   1.791   1.454   2.792
10017SOL    HW230951   1.629   1.447   2.769
10018SOL     OW30952   6.906   4.930   5.794
10018SOL    HW130953   6.847   4.965   5.867
10018SOL    HW230954   6.885   4.834   5.777
10019SOL     OW30955   7.004   1.332   3.009
10019SOL    HW130956   0.088   1.337   3.001
10019SOL    HW230957   6.964   1.310   2.920
10020SOL     OW30958   0.046   1.274   1.554
10020SOL    HW130959   0.106   1.344   1.593
10020SOL    HW230960   6.969   1.311   1.546
10021SOL     OW30961   0.605   3.002   2.818
10021SOL    HW130962   0.688   3.057   2.827
10021SOL    HW230963   0.526   3.063   2.809
10022SOL     OW30964   3.486   6.725   0.538
10022SOL    HW130965   3.574   6.766   0.512
10022SOL    HW230966   3.469   6.741   0.636
10023SOL     OW30967   2.175   5.713   4.501
10023SOL    HW130968   2.235   5.707   4.581
10023SOL    HW230969   2.081   5.691   4.528
10024SOL     OW30970   1.387   5.633   2.525
10024SOL    HW130971   1.377   5.594   2.434
10024SOL    HW230972   1.310   5.693   2.545
10025SOL     OW30973   1.117   2.913   2.467
10025SOL    HW130974   1.033   2.927   2.414
10025SOL    HW230975   1.194   2.950   2.416
10026SOL     OW30976   5.337   0.267   3.224
10026SOL    HW130977   5.378   0.345   3.175
10026SOL    HW230978   5.401   0.233   3.292
10027SOL     OW30979   0.674   2.436   4.764
10027SOL    HW130980   0.586   2.482   4.771
10027SOL    HW230981   0.664   2.352   4.710
10028SOL     OW30982   2.108   1.631   1.984
10028SOL    HW130983   2.067   1.610   1.896
10028SOL    HW230984   2.208   1.631   1.976
10029SOL     OW30985   1.860   2.501   3.722
10029SOL    HW130986   1.797   2.559   3.773
10029SOL    HW230987   1.838   2.405   3.738
10030SOL     OW30988   3.270   0.424   5.256
10030SOL    HW130989   3.362   0.441   5.222
10030SOL    HW230990   3.275   0.389   5.350
10031SOL     OW30991   5.291   4.447   4.810
10031SOL    HW130992   5.375   4.403   4.778
10031SOL    HW230993   5.300   4.546   4.803
10032SOL     OW30994   4.655   0.602   5.792
10032SOL    HW130995   4.697   0.579   5.705
10032SOL    HW230996   4.567   0.556   5.800
10033SOL     OW30997   4.565   2.618   4.498
10033SOL    HW130998   4.467   2.617   4.476
10033SOL    HW230999   4.604   2.528   4.477
10034SOL     OW31000   2.936   0.450   4.095
10034SOL    HW131001   2.868   0.450   4.022
10034SOL    HW231002   3.026   0.468   4.056
10035SOL     OW31003   6.883   5.049   0.825
10035SOL    HW131004   6.892   4.965   0.770
10035SOL    HW231005   6.897   5.027   0.922
10036SOL     OW31006   6.570   0.729   0.942
10036SOL    HW131007   6.635   0.803   0.928
10036SOL    HW231008   6.489   0.745   0.885
10037SOL     OW31009   6.446   0.768   0.211
10037SOL    HW131010   6.384   0.731   0.142
10037SOL    HW231011   6.499   0.843   0.172
10038SOL     OW31012   4.258   6.820   6.770
10038SOL    HW131013   4.311   6.869   6.839
10038SOL    HW231014   4.165   6.804   6.803
10039SOL     OW31015   4.420   6.584   5.300
10039SOL    HW131016   4.508   6.631   5.289
10039SOL    HW231017   4.419   6.503   5.241
10040SOL     OW31018   4.118   5.658   6.085
10040SOL    HW131019   4.025   5.644   6.051
10040SOL    HW231020   4.154   5.745   6.051
10041SOL     OW31021   4.891   5.895   6.520
10041SOL    HW131022   4.915   5.873   6.614
10041SOL    HW231023   4.803   5.853   6.497
10042SOL     OW31024   0.953   1.624   5.253
10042SOL    HW131025   0.918   1.677   5.330
10042SOL    HW231026   1.052   1.610   5.264
10043SOL     OW31027   0.207   1.621   4.191
10043SOL    HW131028   0.162   1.706   4.163
10043SOL    HW231029   0.274   1.641   4.262
10044SOL     OW31030   2.438   2.209   3.391
10044SOL    HW131031   2.443   2.305   3.418
10044SOL    HW231032   2.373   2.161   3.450
10045SOL     OW31033   5.124   6.723   3.652
10045SOL    HW131034   5.132   6.823   3.662
10045SOL    HW231035   5.032   6.694   3.677
10046SOL     OW31036   1.145   3.578   1.587
10046SOL    HW131037   1.057   3.609   1.623
10046SOL    HW231038   1.152   3.479   1.597
10047SOL     OW31039   5.968   4.079   4.917
10047SOL    HW131040   5.950   3.987   4.952
10047SOL    HW231041   5.893   4.106   4.857
10048SOL     OW31042   4.624   1.993   2.400
10048SOL    HW131043   4.675   2.079   2.395
10048SOL    HW231044   4.685   1.919   2.428
10049SOL     OW31045   0.349   0.572   6.850
10049SOL    HW131046   0.379   0.563   6.945
10049SOL    HW231047   0.254   0.600   6.847
10050SOL     OW31048   6.819   2.290   5.166
10050SOL    HW131049   6.886   2.335   5.107
10050SOL    HW231050   6.817   2.192   5.145
10051SOL     OW31051   6.413   2.259   5.226
10051SOL    HW131052   6.313   2.259   5.215
10051SOL    HW231053   6.436   2.307   5.311
10052SOL     OW31054   3.148   2.183   2.878
10052SOL    HW131055   3.201   2.159   2.797
10052SOL    HW231056   3.062   2.226   2.850
10053SOL     OW31057   3.609   5.846   1.807
10053SOL    HW131058   3.542   5.866   1.735
10053SOL    HW231059   3.679   5.918   1.808
10054SOL     OW31060   4.613   5.382   6.217
10054SOL    HW131061   4.554   5.444   6.268
10054SOL    HW231062   4.608   5.403   6.119
10055SOL     OW31063   6.025   2.561   5.231
10055SOL    HW131064   6.092   2.616   5.181
10055SOL    HW231065   6.070   2.479   5.268
10056SOL     OW31066   5.711   4.746   1.230
10056SOL    HW131067   5.755   4.836   1.232
10056SOL    HW231068   5.660   4.732   1.314
10057SOL     OW31069   3.873   1.952   4.703
10057SOL    HW131070   3.948   2.018   4.696
10057SOL    HW231071   3.802   1.990   4.762
10058SOL     OW31072   0.796   3.762   4.689
10058SOL    HW131073   0.709   3.715   4.676
10058SOL    HW231074   0.789   3.855   4.653
10059SOL     OW31075   5.431   6.208   1.112
10059SOL    HW131076   5.333   6.198   1.093
10059SOL    HW231077   5.443   6.273   1.187
10060SOL     OW31078   1.965   1.586   1.761
10060SOL    HW131079   1.878   1.600   1.808
10060SOL    HW231080   1.947   1.556   1.668
10061SOL     OW31081   5.500   1.295   4.793
10061SOL    HW131082   5.442   1.303   4.712
10061SOL    HW231083   5.584   1.246   4.769
10062SOL     OW31084   6.535   0.202   4.373
10062SOL    HW131085   6.555   0.171   4.466
10062SOL    HW231086   6.568   0.296   4.362
10063SOL     OW31087   1.827   1.298   3.880
10063SOL    HW131088   1.862   1.322   3.970
10063SOL    HW231089   1.810   1.200   3.875
10064SOL     OW31090   5.378   6.480   6.975
10064SOL    HW131091   5.392   6.568   0.004
10064SOL    HW231092   5.468   6.441   6.950
10065SOL     OW31093   2.018   6.617   2.624
10065SOL    HW131094   2.018   6.710   2.662
10065SOL    HW231095   2.111   6.591   2.601
10066SOL     OW31096   0.702   1.151   3.310
10066SOL    HW131097   0.788   1.174   3.264
10066SOL    HW231098   0.699   1.053   3.326
10067SOL     OW31099   6.346   4.282   4.824
10067SOL    HW131100   6.405   4.337   4.883
10067SOL    HW231101   6.321   4.197   4.872
10068SOL     OW31102   6.561   2.958   2.695
10068SOL    HW131103   6.600   2.882   2.643
10068SOL    HW231104   6.504   3.014   2.635
10069SOL     OW31105   1.730   5.539   3.795
10069SOL    HW131106   1.634   5.511   3.797
10069SOL    HW231107   1.784   5.477   3.851
10070SOL     OW31108   6.575   0.205   5.046
10070SOL    HW131109   6.599   0.293   5.006
10070SOL    HW231110   6.627   0.192   5.131
10071SOL     OW31111   6.268   5.647   3.767
10071SOL    HW131112   6.175   5.628   3.736
10071SOL    HW231113   6.299   5.575   3.828
10072SOL     OW31114   0.426   6.567   3.993
10072SOL    HW131115   0.452   6.483   3.945
10072SOL    HW231116   0.375   6.626   3.930
10073SOL     OW31117   6.195   4.789   5.283
10073SOL    HW131118   6.278   4.732   5.286
10073SOL    HW231119   6.119   4.739   5.324
10074SOL     OW31120   1.423   0.818   5.376
10074SOL    HW131121   1.326   0.828   5.397
10074SOL    HW231122   1.465   0.908   5.369
10075SOL     OW31123   1.295   2.905   3.493
10075SOL    HW131124   1.209   2.860   3.513
10075SOL    HW231125   1.319   2.890   3.397
10076SOL     OW31126   6.886   0.491   3.241
10076SOL    HW131127   6.968   0.546   3.255
10076SOL    HW231128   6.827   0.498   3.322
10077SOL     OW31129   3.843   2.874   6.222
10077SOL    HW131130   3.908   2.881   6.147
10077SOL    HW231131   3.749   2.881   6.187
10078SOL     OW31132   0.182   5.449   3.696
10078SOL    HW131133   0.137   5.493   3.773
10078SOL    HW231134   0.263   5.502   3.670
10079SOL     OW31135   0.254   3.739   2.082
10079SOL    HW131136   0.195   3.658   2.078
10079SOL    HW231137   0.288   3.760   1.990
10080SOL     OW31138   3.463   1.090   5.189
10080SOL    HW131139   3.474   1.189   5.196
10080SOL    HW231140   3.427   1.067   5.098
10081SOL     OW31141   7.014   6.900   0.692
10081SOL    HW131142   6.954   6.886   0.771
10081SOL    HW231143   0.087   6.934   0.722
10082SOL     OW31144   0.068   4.708   1.976
10082SOL    HW131145   0.122   4.717   1.893
10082SOL    HW231146   0.063   4.612   2.004
10083SOL     OW31147   5.377   0.502   3.027
10083SOL    HW131148   5.428   0.448   2.960
10083SOL    HW231149   5.336   0.581   2.981
10084SOL     OW31150   2.844   1.146   5.762
10084SOL    HW131151   2.919   1.143   5.696
10084SOL    HW231152   2.879   1.163   5.854
10085SOL     OW31153   1.691   6.049   2.251
10085SOL    HW131154   1.696   6.139   2.207
10085SOL    HW231155   1.648   6.058   2.341
10086SOL     OW31156   5.526   5.473   2.580
10086SOL    HW131157   5.478   5.393   2.542
10086SOL    HW231158   5.517   5.472   2.680
10087SOL     OW31159   0.320   0.271   3.333
10087SOL    HW131160   0.296   0.352   3.387
10087SOL    HW231161   0.390   0.296   3.266
10088SOL     OW31162   6.606   0.387   0.655
10088SOL    HW131163   6.661   0.304   0.639
10088SOL    HW231164   6.522   0.381   0.600
10089SOL     OW31165   3.178   1.912   2.154
10089SOL    HW131166   3.126   1.828   2.171
10089SOL    HW231167   3.165   1.975   2.231
10090SOL     OW31168   1.346   4.558   0.904
10090SOL    HW131169   1.434   4.571   0.950
10090SOL    HW231170   1.277   4.535   0.972
10091SOL     OW31171   1.486   3.656   5.668
10091SOL    HW131172   1.473   3.751   5.697
10091SOL    HW231173   1.553   3.652   5.594
10092SOL     OW31174   1.964   2.970   5.063
10092SOL    HW131175   2.001   3.025   5.139
10092SOL    HW231176   2.040   2.927   5.014
10093SOL     OW31177   6.761   3.721   4.972
10093SOL    HW131178   6.734   3.727   4.876
10093SOL    HW231179   6.837   3.784   4.990
10094SOL     OW31180   2.213   5.585   1.977
10094SOL    HW131181   2.136   5.608   1.917
10094SOL    HW231182   2.178   5.563   2.069
10095SOL     OW31183   5.778   1.711   5.179
10095SOL    HW131184   5.805   1.623   5.218
10095SOL    HW231185   5.856   1.754   5.134
10096SOL     OW31186   5.313   5.031   2.337
10096SOL    HW131187   5.392   5.067   2.386
10096SOL    HW231188   5.261   4.971   2.398
10097SOL     OW31189   0.743   1.107   0.796
10097SOL    HW131190   0.827   1.132   0.747
10097SOL    HW231191   0.715   1.015   0.769
10098SOL     OW31192   2.791   0.994   5.048
10098SOL    HW131193   2.872   0.951   5.088
10098SOL    HW231194   2.710   0.967   5.101
10099SOL     OW31195   6.916   4.942   1.073
10099SOL    HW131196   7.005   4.986   1.066
10099SOL    HW231197   6.926   4.853   1.118
10100SOL     OW31198   5.131   0.193   4.805
10100SOL    HW131199   5.183   0.265   4.759
10100SOL    HW231200   5.033   0.211   4.794
10101SOL     OW31201   6.089   4.211   1.649
10101SOL    HW131202   6.069   4.194   1.745
10101SOL    HW231203   6.093   4.310   1.632
10102SOL     OW31204   1.227   1.130   1.980
10102SOL    HW131205   1.201   1.156   1.887
10102SOL    HW231206   1.273   1.207   2.023
10103SOL     OW31207   2.568   0.787   6.656
10103SOL    HW131208   2.570   0.824   6.563
10103SOL    HW231209   2.535   0.693   6.654
10104SOL     OW31210   1.673   1.934   3.909
10104SOL    HW131211   1.594   1.996   3.915
10104SOL    HW231212   1.678   1.878   3.992
10105SOL     OW31213   1.377   0.780   0.770
10105SOL    HW131214   1.471   0.761   0.742
10105SOL    HW231215   1.314   0.754   0.696
10106SOL     OW31216   4.251   6.688   0.979
10106SOL    HW131217   4.224   6.681   0.883
10106SOL    HW231218   4.344   6.722   0.985
10107SOL     OW31219   6.736   1.211   6.662
10107SOL    HW131220   6.651   1.244   6.621
10107SOL    HW231221   6.801   1.287   6.669
10108SOL     OW31222   6.472   6.527   0.576
10108SOL    HW131223   6.553   6.571   0.537
10108SOL    HW231224   6.471   6.539   0.675
10109SOL     OW31225   4.991   0.246   0.621
10109SOL    HW131226   5.002   0.324   0.560
10109SOL    HW231227   4.941   0.274   0.703
10110SOL     OW31228   4.169   6.169   4.442
10110SOL    HW131229   4.145   6.115   4.361
10110SOL    HW231230   4.265   6.152   4.466
10111SOL     OW31231   5.227   3.703   3.301
10111SOL    HW131232   5.143   3.691   3.354
10111SOL    HW231233   5.286   3.769   3.347
10112SOL     OW31234   5.601   3.872   3.649
10112SOL    HW131235   5.574   3.868   3.744
10112SOL    HW231236   5.664   3.796   3.629
10113SOL     OW31237   4.494   0.176   5.981
10113SOL    HW131238   4.565   0.168   5.911
10113SOL    HW231239   4.503   0.100   6.046
10114SOL     OW31240   6.039   1.341   0.932
10114SOL    HW131241   6.001   1.255   0.965
10114SOL    HW231242   5.979   1.380   0.862
10115SOL     OW31243   3.804   1.664   4.250
10115SOL    HW131244   3.853   1.702   4.328
10115SOL    HW231245   3.708   1.647   4.275
10116SOL     OW31246   0.350   6.290   0.873
10116SOL    HW131247   0.394   6.226   0.936
10116SOL    HW231248   0.315   6.239   0.794
10117SOL     OW31249   6.502   6.105   5.628
10117SOL    HW131250   6.453   6.192   5.637
10117SOL    HW231251   6.436   6.029   5.629
10118SOL     OW31252   2.171   4.935   2.873
10118SOL    HW131253   2.198   5.013   2.816
10118SOL    HW231254   2.140   4.969   2.962
10119SOL     OW31255   0.206   6.114   4.510
10119SOL    HW131256   0.185   6.020   4.482
10119SOL    HW231257   0.302   6.135   4.489
10120SOL     OW31258   1.748   3.806   4.913
10120SOL    HW131259   1.686   3.845   4.981
10120SOL    HW231260   1.815   3.875   4.884
10121SOL     OW31261   6.483   4.052   6.575
10121SOL    HW131262   6.441   4.100   6.651
10121SOL    HW231263   6.491   4.114   6.497
10122SOL     OW31264   6.287   3.191   1.279
10122SOL    HW131265   6.384   3.174   1.299
10122SOL    HW231266   6.234   3.109   1.301
10123SOL     OW31267   5.816   7.005   0.054
10123SOL    HW131268   5.801   0.084   0.081
10123SOL    HW231269   5.730   6.965   0.022
10124SOL     OW31270   1.379   4.137   0.387
10124SOL    HW131271   1.311   4.069   0.412
10124SOL    HW231272   1.447   4.145   0.460
10125SOL     OW31273   1.896   1.696   2.175
10125SOL    HW131274   1.949   1.651   2.103
10125SOL    HW231275   1.818   1.638   2.199
10126SOL     OW31276   0.365   6.815   6.096
10126SOL    HW131277   0.454   6.833   6.053
10126SOL    HW231278   0.294   6.810   6.025
10127SOL     OW31279   2.690   4.758   6.349
10127SOL    HW131280   2.677   4.681   6.411
10127SOL    HW231281   2.788   4.768   6.330
10128SOL     OW31282   2.691   1.205   1.662
10128SOL    HW131283   2.730   1.278   1.607
10128SOL    HW231284   2.758   1.131   1.671
10129SOL     OW31285   5.639   1.961   2.373
10129SOL    HW131286   5.588   2.009   2.444
10129SOL    HW231287   5.601   1.984   2.283
10130SOL     OW31288   1.357   3.590   1.877
10130SOL    HW131289   1.446   3.582   1.921
10130SOL    HW231290   1.346   3.517   1.810
10131SOL     OW31291   1.149   6.865   4.172
10131SOL    HW131292   1.055   6.834   4.182
10131SOL    HW231293   1.152   6.952   4.123
10132SOL     OW31294   3.627   0.099   4.868
10132SOL    HW131295   3.685   0.063   4.941
10132SOL    HW231296   3.652   0.057   4.781
10133SOL     OW31297   3.695   6.445   1.174
10133SOL    HW131298   3.656   6.475   1.087
10133SOL    HW231299   3.652   6.360   1.203
10134SOL     OW31300   0.082   6.589   3.765
10134SOL    HW131301   0.061   6.493   3.752
10134SOL    HW231302   0.024   6.645   3.705
10135SOL     OW31303   4.966   3.325   3.336
10135SOL    HW131304   4.926   3.273   3.411
10135SOL    HW231305   4.916   3.304   3.251
10136SOL     OW31306   5.263   0.628   2.614
10136SOL    HW131307   5.258   0.660   2.519
10136SOL    HW231308   5.279   0.529   2.615
10137SOL     OW31309   6.288   4.071   4.172
10137SOL    HW131310   6.260   4.129   4.248
10137SOL    HW231311   6.300   4.126   4.090
10138SOL     OW31312   5.091   3.450   0.509
10138SOL    HW131313   5.102   3.448   0.608
10138SOL    HW231314   5.078   3.544   0.478
10139SOL     OW31315   3.201   3.938   3.077
10139SOL    HW131316   3.250   3.855   3.050
10139SOL    HW231317   3.182   3.935   3.175
10140SOL     OW31318   5.747   6.214   0.047
10140SOL    HW131319   5.689   6.254   6.992
10140SOL    HW231320   5.782   6.286   0.107
10141SOL     OW31321   3.719   1.520   5.142
10141SOL    HW131322   3.766   1.602   5.173
10141SOL    HW231323   3.769   1.439   5.171
10142SOL     OW31324   6.088   6.485   5.129
10142SOL    HW131325   6.106   6.516   5.223
10142SOL    HW231326   6.173   6.454   5.088
10143SOL     OW31327   4.883   1.211   6.622
10143SOL    HW131328   4.892   1.186   6.718
10143SOL    HW231329   4.806   1.161   6.582
10144SOL     OW31330   3.224   0.342   6.128
10144SOL    HW131331   3.201   0.413   6.194
10144SOL    HW231332   3.187   0.255   6.158
10145SOL     OW31333   2.408   5.563   4.396
10145SOL    HW131334   2.344   5.603   4.461
10145SOL    HW231335   2.486   5.624   4.384
10146SOL     OW31336   4.313   4.669   4.716
10146SOL    HW131337   4.338   4.605   4.789
10146SOL    HW231338   4.238   4.728   4.748
10147SOL     OW31339   5.080   3.787   5.303
10147SOL    HW131340   5.107   3.852   5.374
10147SOL    HW231341   5.062   3.698   5.344
10148SOL     OW31342   5.319   5.066   6.788
10148SOL    HW131343   5.288   5.116   6.707
10148SOL    HW231344   5.350   4.975   6.761
10149SOL     OW31345   5.889   3.350   0.463
10149SOL    HW131346   5.827   3.292   0.411
10149SOL    HW231347   5.901   3.312   0.555
10150SOL     OW31348   3.467   3.908   0.195
10150SOL    HW131349   3.460   3.842   0.269
10150SOL    HW231350   3.512   3.992   0.228
10151SOL     OW31351   0.903   6.201   6.956
10151SOL    HW131352   0.844   6.139   7.007
10151SOL    HW231353   0.847   6.254   6.891
10152SOL     OW31354   6.673   6.093   4.439
10152SOL    HW131355   6.700   6.139   4.355
10152SOL    HW231356   6.754   6.060   4.487
10153SOL     OW31357   4.813   6.189   3.720
10153SOL    HW131358   4.780   6.237   3.639
10153SOL    HW231359   4.896   6.138   3.697
10154SOL     OW31360   4.568   6.770   5.823
10154SOL    HW131361   4.507   6.782   5.902
10154SOL    HW231362   4.515   6.735   5.745
10155SOL     OW31363   3.756   2.355   5.419
10155SOL    HW131364   3.774   2.447   5.455
10155SOL    HW231365   3.842   2.312   5.393
10156SOL     OW31366   5.737   0.832   2.335
10156SOL    HW131367   5.770   0.744   2.370
10156SOL    HW231368   5.814   0.883   2.297
10157SOL     OW31369   6.681   1.716   0.849
10157SOL    HW131370   6.753   1.767   0.895
10157SOL    HW231371   6.622   1.780   0.799
10158SOL     OW31372   5.813   5.048   0.547
10158SOL    HW131373   5.818   5.147   0.537
10158SOL    HW231374   5.742   5.024   0.614
10159SOL     OW31375   2.172   3.450   0.061
10159SOL    HW131376   2.202   3.355   0.064
10159SOL    HW231377   2.097   3.459   7.011
10160SOL     OW31378   1.833   3.030   2.291
10160SOL    HW131379   1.863   2.986   2.206
10160SOL    HW231380   1.894   3.107   2.312
10161SOL     OW31381   2.844   2.732   0.415
10161SOL    HW131382   2.898   2.782   0.484
10161SOL    HW231383   2.906   2.691   0.348
10162SOL     OW31384   3.692   4.530   0.850
10162SOL    HW131385   3.658   4.488   0.934
10162SOL    HW231386   3.716   4.625   0.867
10163SOL     OW31387   6.291   4.168   6.775
10163SOL    HW131388   6.217   4.130   6.720
10163SOL    HW231389   6.264   4.257   6.811
10164SOL     OW31390   6.096   3.477   4.356
10164SOL    HW131391   6.162   3.415   4.313
10164SOL    HW231392   6.013   3.426   4.378
10165SOL     OW31393   6.811   1.902   3.186
10165SOL    HW131394   6.753   1.922   3.107
10165SOL    HW231395   6.902   1.941   3.172
10166SOL     OW31396   3.094   1.954   1.880
10166SOL    HW131397   3.020   1.889   1.900
10166SOL    HW231398   3.139   1.981   1.965
10167SOL     OW31399   2.094   4.314   6.983
10167SOL    HW131400   2.093   4.254   6.903
10167SOL    HW231401   2.186   4.316   0.007
10168SOL     OW31402   5.833   3.314   6.413
10168SOL    HW131403   5.737   3.325   6.390
10168SOL    HW231404   5.875   3.249   6.350
10169SOL     OW31405   6.726   4.395   3.783
10169SOL    HW131406   6.777   4.327   3.730
10169SOL    HW231407   6.788   4.468   3.812
10170SOL     OW31408   6.960   5.912   5.642
10170SOL    HW131409   0.037   5.949   5.648
10170SOL    HW231410   6.964   5.817   5.611
10171SOL     OW31411   6.802   2.402   4.819
10171SOL    HW131412   6.857   2.399   4.903
10171SOL    HW231413   6.862   2.393   4.739
10172SOL     OW31414   6.993   5.855   4.795
10172SOL    HW131415   0.068   5.831   4.832
10172SOL    HW231416   6.929   5.869   4.870
10173SOL     OW31417   1.516   2.922   0.719
10173SOL    HW131418   1.559   2.944   0.631
10173SOL    HW231419   1.417   2.928   0.710
10174SOL     OW31420   5.030   4.777   3.180
10174SOL    HW131421   5.032   4.691   3.130
10174SOL    HW231422   5.052   4.760   3.276
10175SOL     OW31423   6.002   1.611   3.807
10175SOL    HW131424   5.967   1.530   3.760
10175SOL    HW231425   5.957   1.620   3.896
10176SOL     OW31426   0.646   3.740   5.043
10176SOL    HW131427   0.722   3.799   5.015
10176SOL    HW231428   0.566   3.760   4.986
10177SOL     OW31429   2.722   0.408   1.164
10177SOL    HW131430   2.683   0.406   1.072
10177SOL    HW231431   2.671   0.347   1.223
10178SOL     OW31432   0.808   0.930   6.075
10178SOL    HW131433   0.869   0.857   6.042
10178SOL    HW231434   0.713   0.902   6.061
10179SOL     OW31435   1.014   2.758   6.491
10179SOL    HW131436   0.964   2.820   6.552
10179SOL    HW231437   1.084   2.708   6.544
10180SOL     OW31438   4.200   0.856   5.776
10180SOL    HW131439   4.259   0.935   5.797
10180SOL    HW231440   4.163   0.819   5.860
10181SOL     OW31441   6.563   3.032   0.938
10181SOL    HW131442   6.642   3.094   0.940
10181SOL    HW231443   6.516   3.041   0.851
10182SOL     OW31444   4.728   0.885   2.161
10182SOL    HW131445   4.648   0.920   2.210
10182SOL    HW231446   4.726   0.785   2.160
10183SOL     OW31447   0.178   3.006   6.600
10183SOL    HW131448   0.134   2.919   6.576
10183SOL    HW231449   0.165   3.024   6.698
10184SOL     OW31450   3.882   1.619   6.037
10184SOL    HW131451   3.979   1.644   6.036
10184SOL    HW231452   3.871   1.534   6.089
10185SOL     OW31453   6.325   5.960   2.861
10185SOL    HW131454   6.413   5.914   2.871
10185SOL    HW231455   6.337   6.048   2.816
10186SOL     OW31456   5.738   3.666   4.108
10186SOL    HW131457   5.677   3.598   4.147
10186SOL    HW231458   5.828   3.626   4.095
10187SOL     OW31459   1.222   3.666   0.689
10187SOL    HW131460   1.312   3.710   0.689
10187SOL    HW231461   1.184   3.668   0.781
10188SOL     OW31462   3.933   5.395   0.584
10188SOL    HW131463   3.882   5.309   0.591
10188SOL    HW231464   3.883   5.468   0.631
10189SOL     OW31465   1.245   0.982   5.975
10189SOL    HW131466   1.336   0.952   6.002
10189SOL    HW231467   1.214   0.927   5.897
10190SOL     OW31468   4.936   3.423   2.006
10190SOL    HW131469   4.904   3.426   1.911
10190SOL    HW231470   5.006   3.492   2.020
10191SOL     OW31471   4.416   6.196   6.707
10191SOL    HW131472   4.386   6.212   6.614
10191SOL    HW231473   4.509   6.157   6.706
10192SOL     OW31474   4.089   1.403   4.920
10192SOL    HW131475   4.130   1.438   4.836
10192SOL    HW231476   4.107   1.466   4.995
10193SOL     OW31477   3.938   3.114   1.886
10193SOL    HW131478   3.847   3.129   1.847
10193SOL    HW231479   3.929   3.071   1.976
10194SOL     OW31480   5.662   6.270   5.503
10194SOL    HW131481   5.646   6.235   5.411
10194SOL    HW231482   5.759   6.291   5.514
10195SOL     OW31483   6.023   6.022   0.497
10195SOL    HW131484   6.006   5.947   0.434
10195SOL    HW231485   6.039   5.986   0.589
10196SOL     OW31486   4.380   2.049   3.668
10196SOL    HW131487   4.473   2.086   3.662
10196SOL    HW231488   4.372   1.969   3.608
10197SOL     OW31489   5.869   1.464   5.229
10197SOL    HW131490   5.921   1.424   5.154
10197SOL    HW231491   5.905   1.430   5.316
10198SOL     OW31492   2.736   6.552   2.847
10198SOL    HW131493   2.754   6.455   2.861
10198SOL    HW231494   2.717   6.596   2.935
10199SOL     OW31495   2.103   3.692   0.514
10199SOL    HW131496   2.162   3.648   0.582
10199SOL    HW231497   2.013   3.710   0.554
10200SOL     OW31498   4.759   2.644   6.472
10200SOL    HW131499   4.828   2.598   6.416
10200SOL    HW231500   4.674   2.590   6.470
10201SOL     OW31501   1.357   5.095   0.456
10201SOL    HW131502   1.432   5.112   0.392
10201SOL    HW231503   1.334   4.997   0.455
10202SOL     OW31504   3.396   4.728   1.113
10202SOL    HW131505   3.454   4.648   1.121
10202SOL    HW231506   3.431   4.802   1.171
10203SOL     OW31507   6.528   2.507   2.530
10203SOL    HW131508   6.474   2.534   2.609
10203SOL    HW231509   6.511   2.570   2.454
10204SOL     OW31510   5.047   6.324   0.415
10204SOL    HW131511   4.990   6.243   0.429
10204SOL    HW231512   5.144   6.299   0.424
10205SOL     OW31513   2.278   0.502   2.009
10205SOL    HW131514   2.202   0.509   1.944
10205SOL    HW231515   2.340   0.579   1.997
10206SOL     OW31516   6.481   0.427   6.730
10206SOL    HW131517   6.514   0.382   6.647
10206SOL    HW231518   6.559   0.452   6.787
10207SOL     OW31519   1.191   1.781   6.687
10207SOL    HW131520   1.147   1.854   6.635
10207SOL    HW231521   1.289   1.802   6.697
10208SOL     OW31522   6.348   4.590   3.818
10208SOL    HW131523   6.418   4.619   3.753
10208SOL    HW231524   6.368   4.497   3.850
10209SOL     OW31525   0.189   6.782   0.352
10209SOL    HW131526   0.224   6.824   0.435
10209SOL    HW231527   0.186   6.682   0.364
10210SOL     OW31528   4.433   6.855   1.764
10210SOL    HW131529   4.333   6.854   1.765
10210SOL    HW231530   4.467   6.880   1.854
10211SOL     OW31531   4.198   6.466   4.840
10211SOL    HW131532   4.219   6.369   4.824
10211SOL    HW231533   4.283   6.518   4.844
10212SOL     OW31534   0.234   0.205   5.654
10212SOL    HW131535   0.272   0.191   5.562
10212SOL    HW231536   0.301   0.251   5.712
10213SOL     OW31537   5.987   2.692   1.561
10213SOL    HW131538   6.062   2.694   1.627
10213SOL    HW231539   6.024   2.694   1.468
10214SOL     OW31540   0.718   1.861   1.665
10214SOL    HW131541   0.667   1.943   1.690
10214SOL    HW231542   0.811   1.867   1.701
10215SOL     OW31543   3.731   2.909   3.515
10215SOL    HW131544   3.694   2.948   3.599
10215SOL    HW231545   3.660   2.859   3.467
10216SOL     OW31546   0.327   1.385   1.557
10216SOL    HW131547   0.318   1.411   1.461
10216SOL    HW231548   0.399   1.441   1.600
10217SOL     OW31549   3.104   1.302   3.008
10217SOL    HW131550   3.168   1.324   2.934
10217SOL    HW231551   3.119   1.209   3.040
10218SOL     OW31552   1.211   1.681   1.756
10218SOL    HW131553   1.211   1.726   1.667
10218SOL    HW231554   1.283   1.719   1.814
10219SOL     OW31555   0.650   1.493   3.572
10219SOL    HW131556   0.657   1.593   3.575
10219SOL    HW231557   0.592   1.467   3.495
10220SOL     OW31558   4.897   1.736   0.745
10220SOL    HW131559   4.997   1.743   0.741
10220SOL    HW231560   4.860   1.810   0.801
10221SOL     OW31561   1.129   4.441   3.912
10221SOL    HW131562   1.155   4.418   4.005
10221SOL    HW231563   1.029   4.442   3.905
10222SOL     OW31564   3.098   4.223   5.224
10222SOL    HW131565   3.096   4.307   5.278
10222SOL    HW231566   3.025   4.162   5.254
10223SOL     OW31567   2.008   4.621   1.063
10223SOL    HW131568   2.097   4.668   1.062
10223SOL    HW231569   2.015   4.538   1.118
10224SOL     OW31570   5.821   3.196   5.769
10224SOL    HW131571   5.863   3.105   5.773
10224SOL    HW231572   5.768   3.204   5.684
10225SOL     OW31573   0.999   5.596   5.558
10225SOL    HW131574   0.915   5.635   5.520
10225SOL    HW231575   1.069   5.668   5.564
10226SOL     OW31576   2.450   0.408   5.904
10226SOL    HW131577   2.505   0.417   5.821
10226SOL    HW231578   2.353   0.406   5.879
10227SOL     OW31579   5.726   5.045   0.925
10227SOL    HW131580   5.715   5.065   1.022
10227SOL    HW231581   5.822   5.023   0.906
10228SOL     OW31582   0.578   6.360   1.975
10228SOL    HW131583   0.487   6.393   1.947
10228SOL    HW231584   0.646   6.430   1.956
10229SOL     OW31585   1.797   2.949   4.790
10229SOL    HW131586   1.781   3.043   4.818
10229SOL    HW231587   1.801   2.890   4.871
10230SOL     OW31588   5.997   6.404   3.009
10230SOL    HW131589   6.045   6.376   2.926
10230SOL    HW231590   5.906   6.365   3.011
10231SOL     OW31591   6.661   4.675   5.273
10231SOL    HW131592   6.563   4.657   5.262
10231SOL    HW231593   6.674   4.759   5.325
10232SOL     OW31594   3.333   1.667   3.591
10232SOL    HW131595   3.361   1.584   3.638
10232SOL    HW231596   3.247   1.699   3.628
10233SOL     OW31597   3.702   4.208   4.906
10233SOL    HW131598   3.605   4.227   4.893
10233SOL    HW231599   3.749   4.213   4.818
10234SOL     OW31600   6.050   0.896   0.824
10234SOL    HW131601   6.074   0.901   0.727
10234SOL    HW231602   5.964   0.944   0.840
10235SOL     OW31603   2.786   2.411   1.142
10235SOL    HW131604   2.866   2.428   1.085
10235SOL    HW231605   2.798   2.454   1.232
10236SOL     OW31606   2.322   1.228   0.230
10236SOL    HW131607   2.335   1.267   0.139
10236SOL    HW231608   2.287   1.135   0.222
10237SOL     OW31609   0.976   4.063   6.427
10237SOL    HW131610   0.879   4.043   6.416
10237SOL    HW231611   1.029   4.007   6.363
10238SOL     OW31612   3.847   4.273   1.715
10238SOL    HW131613   3.752   4.302   1.707
10238SOL    HW231614   3.856   4.208   1.791
10239SOL     OW31615   1.706   3.164   5.665
10239SOL    HW131616   1.662   3.142   5.751
10239SOL    HW231617   1.798   3.201   5.683
10240SOL     OW31618   1.965   4.762   2.420
10240SOL    HW131619   1.963   4.854   2.459
10240SOL    HW231620   1.885   4.749   2.361
10241SOL     OW31621   6.861   6.630   3.065
10241SOL    HW131622   6.829   6.712   3.018
10241SOL    HW231623   6.829   6.549   3.016
10242SOL     OW31624   0.501   1.191   0.911
10242SOL    HW131625   0.600   1.191   0.908
10242SOL    HW231626   0.466   1.109   0.865
10243SOL     OW31627   2.078   4.379   2.165
10243SOL    HW131628   2.161   4.347   2.210
10243SOL    HW231629   2.100   4.417   2.076
10244SOL     OW31630   1.668   4.402   0.582
10244SOL    HW131631   1.654   4.399   0.483
10244SOL    HW231632   1.668   4.497   0.612
10245SOL     OW31633   3.465   3.804   1.614
10245SOL    HW131634   3.550   3.753   1.620
10245SOL    HW231635   3.449   3.833   1.519
10246SOL     OW31636   3.359   3.219   3.861
10246SOL    HW131637   3.317   3.185   3.777
10246SOL    HW231638   3.434   3.281   3.839
10247SOL     OW31639   6.646   4.170   5.596
10247SOL    HW131640   6.587   4.142   5.521
10247SOL    HW231641   6.590   4.204   5.671
10248SOL     OW31642   1.502   6.058   2.495
10248SOL    HW131643   1.470   6.130   2.556
10248SOL    HW231644   1.586   6.017   2.532
10249SOL     OW31645   3.628   5.841   6.589
10249SOL    HW131646   3.589   5.925   6.552
10249SOL    HW231647   3.707   5.813   6.533
10250SOL     OW31648   6.850   3.020   1.618
10250SOL    HW131649   6.771   3.007   1.678
10250SOL    HW231650   6.928   2.970   1.655
10251SOL     OW31651   2.127   1.593   5.384
10251SOL    HW131652   2.072   1.660   5.334
10251SOL    HW231653   2.157   1.521   5.322
10252SOL     OW31654   4.198   4.168   6.375
10252SOL    HW131655   4.108   4.147   6.337
10252SOL    HW231656   4.216   4.109   6.454
10253SOL     OW31657   3.024   6.131   0.446
10253SOL    HW131658   2.962   6.152   0.522
10253SOL    HW231659   3.118   6.123   0.482
10254SOL     OW31660   5.057   1.071   5.668
10254SOL    HW131661   5.038   1.090   5.764
10254SOL    HW231662   5.084   1.155   5.621
10255SOL     OW31663   2.440   6.414   1.507
10255SOL    HW131664   2.427   6.334   1.449
10255SOL    HW231665   2.492   6.388   1.589
10256SOL     OW31666   4.740   2.230   2.341
10256SOL    HW131667   4.795   2.301   2.298
10256SOL    HW231668   4.676   2.272   2.406
10257SOL     OW31669   1.851   4.994   4.370
10257SOL    HW131670   1.879   4.933   4.295
10257SOL    HW231671   1.880   4.954   4.457
10258SOL     OW31672   3.651   2.063   3.377
10258SOL    HW131673   3.661   2.085   3.280
10258SOL    HW231674   3.739   2.075   3.422
10259SOL     OW31675   1.181   4.369   2.527
10259SOL    HW131676   1.210   4.435   2.597
10259SOL    HW231677   1.200   4.276   2.559
10260SOL     OW31678   1.456   1.109   3.347
10260SOL    HW131679   1.434   1.075   3.438
10260SOL    HW231680   1.420   1.201   3.336
10261SOL     OW31681   6.592   4.515   1.380
10261SOL    HW131682   6.525   4.441   1.383
10261SOL    HW231683   6.596   4.560   1.470
10262SOL     OW31684   2.350   6.522   5.742
10262SOL    HW131685   2.345   6.551   5.646
10262SOL    HW231686   2.384   6.597   5.798
10263SOL     OW31687   5.365   0.286   0.367
10263SOL    HW131688   5.285   0.321   0.319
10263SOL    HW231689   5.389   0.196   0.332
10264SOL     OW31690   6.160   0.034   6.833
10264SOL    HW131691   6.230   0.103   6.850
10264SOL    HW231692   6.173   6.973   6.897
10265SOL     OW31693   2.794   2.561   1.364
10265SOL    HW131694   2.717   2.610   1.405
10265SOL    HW231695   2.878   2.614   1.377
10266SOL     OW31696   3.432   2.880   3.549
10266SOL    HW131697   3.474   2.889   3.459
10266SOL    HW231698   3.354   2.817   3.543
10267SOL     OW31699   5.543   2.660   6.940
10267SOL    HW131700   5.446   2.650   6.918
10267SOL    HW231701   5.553   2.688   0.019
10268SOL     OW31702   6.615   5.714   2.535
10268SOL    HW131703   6.568   5.626   2.539
10268SOL    HW231704   6.712   5.702   2.553
10269SOL     OW31705   0.998   3.820   6.844
10269SOL    HW131706   1.049   3.905   6.830
10269SOL    HW231707   0.991   3.771   6.757
10270SOL     OW31708   2.904   4.890   2.719
10270SOL    HW131709   2.872   4.823   2.653
10270SOL    HW231710   2.951   4.843   2.794
10271SOL     OW31711   3.813   2.734   6.487
10271SOL    HW131712   3.815   2.826   6.525
10271SOL    HW231713   3.821   2.738   6.387
10272SOL     OW31714   1.250   1.311   5.549
10272SOL    HW131715   1.300   1.268   5.624
10272SOL    HW231716   1.262   1.411   5.554
10273SOL     OW31717   2.898   5.791   2.894
10273SOL    HW131718   2.962   5.801   2.970
10273SOL    HW231719   2.948   5.774   2.809
10274SOL     OW31720   0.784   4.863   6.075
10274SOL    HW131721   0.884   4.861   6.087
10274SOL    HW231722   0.762   4.908   5.988
10275SOL     OW31723   0.755   6.578   2.306
10275SOL    HW131724   0.804   6.616   2.227
10275SOL    HW231725   0.763   6.479   2.306
10276SOL     OW31726   5.337   5.442   5.564
10276SOL    HW131727   5.371   5.466   5.655
10276SOL    HW231728   5.243   5.475   5.554
10277SOL     OW31729   1.705   5.882   4.741
10277SOL    HW131730   1.619   5.841   4.772
10277SOL    HW231731   1.686   5.955   4.675
10278SOL     OW31732   1.408   1.681   3.400
10278SOL    HW131733   1.436   1.776   3.411
10278SOL    HW231734   1.483   1.620   3.425
10279SOL     OW31735   1.493   4.633   4.214
10279SOL    HW131736   1.433   4.712   4.202
10279SOL    HW231737   1.506   4.588   4.126
10280SOL     OW31738   0.092   2.705   6.931
10280SOL    HW131739   0.151   2.669   6.860
10280SOL    HW231740   0.053   2.792   6.903
10281SOL     OW31741   5.514   1.217   2.897
10281SOL    HW131742   5.455   1.165   2.836
10281SOL    HW231743   5.458   1.261   2.968
10282SOL     OW31744   5.332   3.748   4.506
10282SOL    HW131745   5.374   3.837   4.491
10282SOL    HW231746   5.400   3.684   4.540
10283SOL     OW31747   1.923   3.460   0.890
10283SOL    HW131748   1.944   3.402   0.811
10283SOL    HW231749   1.873   3.406   0.958
10284SOL     OW31750   4.949   2.567   5.023
10284SOL    HW131751   4.880   2.570   4.951
10284SOL    HW231752   5.028   2.623   4.996
10285SOL     OW31753   5.380   6.645   2.559
10285SOL    HW131754   5.465   6.627   2.509
10285SOL    HW231755   5.328   6.716   2.511
10286SOL     OW31756   3.446   2.030   3.572
10286SOL    HW131757   3.513   2.043   3.500
10286SOL    HW231758   3.360   2.000   3.532
10287SOL     OW31759   3.121   6.278   1.705
10287SOL    HW131760   3.075   6.200   1.661
10287SOL    HW231761   3.219   6.272   1.689
10288SOL     OW31762   4.553   5.563   3.255
10288SOL    HW131763   4.644   5.533   3.225
10288SOL    HW231764   4.525   5.510   3.334
10289SOL     OW31765   2.621   6.198   6.896
10289SOL    HW131766   2.594   6.280   6.845
10289SOL    HW231767   2.622   6.219   6.994
10290SOL     OW31768   2.903   3.533   2.693
10290SOL    HW131769   2.934   3.443   2.725
10290SOL    HW231770   2.911   3.537   2.593
10291SOL     OW31771   4.038   1.462   2.582
10291SOL    HW131772   3.943   1.460   2.553
10291SOL    HW231773   4.095   1.501   2.510
10292SOL     OW31774   1.755   2.113   5.829
10292SOL    HW131775   1.794   2.165   5.905
10292SOL    HW231776   1.699   2.039   5.864
10293SOL     OW31777   1.814   3.755   2.482
10293SOL    HW131778   1.837   3.700   2.561
10293SOL    HW231779   1.889   3.818   2.461
10294SOL     OW31780   5.133   2.867   3.218
10294SOL    HW131781   5.081   2.802   3.162
10294SOL    HW231782   5.230   2.844   3.213
10295SOL     OW31783   0.198   3.492   5.756
10295SOL    HW131784   0.145   3.431   5.697
10295SOL    HW231785   0.202   3.582   5.714
10296SOL     OW31786   5.260   1.587   6.784
10296SOL    HW131787   5.288   1.552   6.873
10296SOL    HW231788   5.226   1.511   6.728
10297SOL     OW31789   1.775   0.207   6.613
10297SOL    HW131790   1.843   0.134   6.606
10297SOL    HW231791   1.709   0.185   6.685
10298SOL     OW31792   2.511   4.476   0.958
10298SOL    HW131793   2.565   4.555   0.928
10298SOL    HW231794   2.556   4.392   0.927
10299SOL     OW31795   4.539   4.818   2.928
10299SOL    HW131796   4.470   4.866   2.874
10299SOL    HW231797   4.498   4.738   2.971
10300SOL     OW31798   0.903   4.007   2.364
10300SOL    HW131799   0.850   4.035   2.285
10300SOL    HW231800   0.969   3.937   2.337
10301SOL     OW31801   5.083   2.362   4.279
10301SOL    HW131802   5.058   2.433   4.345
10301SOL    HW231803   5.021   2.366   4.201
10302SOL     OW31804   2.119   6.273   4.993
10302SOL    HW131805   2.178   6.286   5.073
10302SOL    HW231806   2.046   6.341   4.993
10303SOL     OW31807   1.570   5.592   2.984
10303SOL    HW131808   1.478   5.588   2.944
10303SOL    HW231809   1.568   5.647   3.067
10304SOL     OW31810   5.359   0.022   1.381
10304SOL    HW131811   5.277   7.001   1.425
10304SOL    HW231812   5.435   0.022   1.447
10305SOL     OW31813   1.306   4.203   6.650
10305SOL    HW131814   1.255   4.228   6.568
10305SOL    HW231815   1.369   4.277   6.674
10306SOL     OW31816   5.097   6.070   0.060
10306SOL    HW131817   5.150   6.145   0.100
10306SOL    HW231818   5.036   6.106   7.005
10307SOL     OW31819   2.785   2.356   5.236
10307SOL    HW131820   2.802   2.454   5.245
10307SOL    HW231821   2.860   2.305   5.278
10308SOL     OW31822   1.629   3.777   2.849
10308SOL    HW131823   1.675   3.690   2.868
10308SOL    HW231824   1.624   3.792   2.751
10309SOL     OW31825   6.923   1.728   6.361
10309SOL    HW131826   6.828   1.756   6.352
10309SOL    HW231827   6.949   1.673   6.282
10310SOL     OW31828   3.110   3.525   1.011
10310SOL    HW131829   3.024   3.474   1.009
10310SOL    HW231830   3.120   3.577   0.926
10311SOL     OW31831   6.835   5.843   0.741
10311SOL    HW131832   6.809   5.784   0.664
10311SOL    HW231833   6.759   5.848   0.806
10312SOL     OW31834   3.424   5.165   2.686
10312SOL    HW131835   3.403   5.178   2.783
10312SOL    HW231836   3.442   5.069   2.668
10313SOL     OW31837   4.350   6.271   2.352
10313SOL    HW131838   4.387   6.339   2.289
10313SOL    HW231839   4.253   6.256   2.331
10314SOL     OW31840   6.250   0.509   1.695
10314SOL    HW131841   6.227   0.603   1.668
10314SOL    HW231842   6.230   0.498   1.792
10315SOL     OW31843   5.049   5.546   5.185
10315SOL    HW131844   5.086   5.578   5.272
10315SOL    HW231845   5.081   5.453   5.167
10316SOL     OW31846   5.395   1.574   5.158
10316SOL    HW131847   5.375   1.518   5.078
10316SOL    HW231848   5.442   1.519   5.227
10317SOL     OW31849   4.762   5.731   5.306
10317SOL    HW131850   4.704   5.789   5.248
10317SOL    HW231851   4.856   5.738   5.275
10318SOL     OW31852   5.226   6.653   6.454
10318SOL    HW131853   5.229   6.687   6.548
10318SOL    HW231854   5.167   6.572   6.450
10319SOL     OW31855   1.154   2.517   5.392
10319SOL    HW131856   1.113   2.441   5.443
10319SOL    HW231857   1.137   2.505   5.295
10320SOL     OW31858   0.033   0.746   2.228
10320SOL    HW131859   0.029   0.845   2.214
10320SOL    HW231860   0.110   0.724   2.288
10321SOL     OW31861   3.596   1.830   1.873
10321SOL    HW131862   3.618   1.920   1.836
10321SOL    HW231863   3.523   1.839   1.941
10322SOL     OW31864   6.400   5.579   5.652
10322SOL    HW131865   6.437   5.538   5.736
10322SOL    HW231866   6.309   5.541   5.634
10323SOL     OW31867   5.462   3.632   5.743
10323SOL    HW131868   5.411   3.641   5.657
10323SOL    HW231869   5.434   3.704   5.806
10324SOL     OW31870   3.159   3.488   1.952
10324SOL    HW131871   3.093   3.508   2.025
10324SOL    HW231872   3.130   3.407   1.903
10325SOL     OW31873   6.656   3.853   1.951
10325SOL    HW131874   6.665   3.856   1.851
10325SOL    HW231875   6.583   3.914   1.980
10326SOL     OW31876   3.139   5.357   0.365
10326SOL    HW131877   3.136   5.323   0.271
10326SOL    HW231878   3.204   5.302   0.418
10327SOL     OW31879   1.944   1.189   0.921
10327SOL    HW131880   1.987   1.204   0.832
10327SOL    HW231881   1.897   1.273   0.950
10328SOL     OW31882   6.189   2.180   0.759
10328SOL    HW131883   6.211   2.233   0.678
10328SOL    HW231884   6.126   2.231   0.818
10329SOL     OW31885   3.700   0.992   3.942
10329SOL    HW131886   3.625   0.943   3.898
10329SOL    HW231887   3.741   0.933   4.012
10330SOL     OW31888   5.003   0.672   2.012
10330SOL    HW131889   5.097   0.640   2.003
10330SOL    HW231890   4.955   0.615   2.078
10331SOL     OW31891   6.540   0.695   5.985
10331SOL    HW131892   6.517   0.790   6.006
10331SOL    HW231893   6.606   0.693   5.909
10332SOL     OW31894   6.889   6.815   1.207
10332SOL    HW131895   6.908   6.863   1.292
10332SOL    HW231896   6.815   6.749   1.222
10333SOL     OW31897   6.491   4.728   4.653
10333SOL    HW131898   6.511   4.800   4.720
10333SOL    HW231899   6.459   4.769   4.568
10334SOL     OW31900   3.539   0.022   3.902
10334SOL    HW131901   3.471   7.000   3.840
10334SOL    HW231902   3.549   0.120   3.887
10335SOL     OW31903   3.199   4.399   6.900
10335SOL    HW131904   3.228   4.352   6.816
10335SOL    HW231905   3.243   4.488   6.906
10336SOL     OW31906   6.881   6.891   1.766
10336SOL    HW131907   6.922   6.982   1.775
10336SOL    HW231908   6.818   6.890   1.689
10337SOL     OW31909   0.129   6.694   5.937
10337SOL    HW131910   0.047   6.745   5.963
10337SOL    HW231911   0.103   6.602   5.908
10338SOL     OW31912   2.394   6.477   2.849
10338SOL    HW131913   2.347   6.389   2.849
10338SOL    HW231914   2.328   6.550   2.866
10339SOL     OW31915   3.490   4.587   6.942
10339SOL    HW131916   3.497   4.685   6.922
10339SOL    HW231917   3.489   4.535   6.856
10340SOL     OW31918   1.824   4.228   1.143
10340SOL    HW131919   1.749   4.180   1.190
10340SOL    HW231920   1.804   4.234   1.045
10341SOL     OW31921   2.150   2.994   2.022
10341SOL    HW131922   2.199   2.922   1.972
10341SOL    HW231923   2.052   2.974   2.019
10342SOL     OW31924   0.954   0.502   5.317
10342SOL    HW131925   1.025   0.526   5.251
10342SOL    HW231926   0.903   0.584   5.342
10343SOL     OW31927   3.339   5.878   6.550
10343SOL    HW131928   3.371   5.785   6.568
10343SOL    HW231929   3.249   5.874   6.506
10344SOL     OW31930   4.469   3.940   1.613
10344SOL    HW131931   4.545   3.921   1.676
10344SOL    HW231932   4.421   4.023   1.643
10345SOL     OW31933   1.895   1.264   6.837
10345SOL    HW131934   1.827   1.191   6.837
10345SOL    HW231935   1.852   1.348   6.802
10346SOL     OW31936   6.620   6.004   2.044
10346SOL    HW131937   6.681   5.928   2.066
10346SOL    HW231938   6.527   5.971   2.037
10347SOL     OW31939   4.694   2.182   3.181
10347SOL    HW131940   4.719   2.085   3.188
10347SOL    HW231941   4.666   2.216   3.271
10348SOL     OW31942   6.464   1.697   6.953
10348SOL    HW131943   6.529   1.630   6.989
10348SOL    HW231944   6.503   1.741   6.872
10349SOL     OW31945   0.367   0.341   0.950
10349SOL    HW131946   0.421   0.422   0.928
10349SOL    HW231947   0.270   0.364   0.949
10350SOL     OW31948   1.696   6.798   5.396
10350SOL    HW131949   1.726   6.737   5.470
10350SOL    HW231950   1.758   6.876   5.390
10351SOL     OW31951   4.244   4.719   6.411
10351SOL    HW131952   4.269   4.804   6.366
10351SOL    HW231953   4.311   4.698   6.482
10352SOL     OW31954   4.115   1.753   6.032
10352SOL    HW131955   4.183   1.764   6.104
10352SOL    HW231956   4.065   1.838   6.020
10353SOL     OW31957   6.561   2.532   5.445
10353SOL    HW131958   6.589   2.436   5.439
10353SOL    HW231959   6.474   2.544   5.397
10354SOL     OW31960   6.028   2.329   2.052
10354SOL    HW131961   5.938   2.364   2.024
10354SOL    HW231962   6.064   2.270   1.981
10355SOL     OW31963   1.695   6.741   2.181
10355SOL    HW131964   1.705   6.713   2.276
10355SOL    HW231965   1.663   6.836   2.177
10356SOL     OW31966   0.666   4.398   6.162
10356SOL    HW131967   0.603   4.323   6.142
10356SOL    HW231968   0.698   4.390   6.256
10357SOL     OW31969   2.309   3.194   5.974
10357SOL    HW131970   2.259   3.186   5.888
10357SOL    HW231971   2.260   3.142   6.045
10358SOL     OW31972   6.161   2.861   2.856
10358SOL    HW131973   6.141   2.953   2.888
10358SOL    HW231974   6.169   2.861   2.756
10359SOL     OW31975   0.251   1.867   1.238
10359SOL    HW131976   0.266   1.835   1.332
10359SOL    HW231977   0.206   1.956   1.240
10360SOL     OW31978   5.128   5.521   3.154
10360SOL    HW131979   5.040   5.476   3.139
10360SOL    HW231980   5.121   5.585   3.230
10361SOL     OW31981   3.437   0.331   3.431
10361SOL    HW131982   3.361   0.310   3.370
10361SOL    HW231983   3.403   0.377   3.513
10362SOL     OW31984   0.782   5.076   4.772
10362SOL    HW131985   0.686   5.094   4.795
10362SOL    HW231986   0.786   5.011   4.696
10363SOL     OW31987   4.794   1.579   1.039
10363SOL    HW131988   4.725   1.644   1.072
10363SOL    HW231989   4.812   1.596   0.942
10364SOL     OW31990   3.462   3.467   1.644
10364SOL    HW131991   3.533   3.447   1.577
10364SOL    HW231992   3.372   3.459   1.600
10365SOL     OW31993   4.594   4.563   6.039
10365SOL    HW131994   4.599   4.521   5.949
10365SOL    HW231995   4.651   4.512   6.103
10366SOL     OW31996   4.205   0.254   4.066
10366SOL    HW131997   4.106   0.238   4.067
10366SOL    HW231998   4.232   0.301   4.149
10367SOL     OW31999   6.637   1.703   2.684
10367SOL    HW132000   6.599   1.721   2.593
10367SOL    HW232001   6.721   1.756   2.696
10368SOL     OW32002   1.808   1.163   1.740
10368SOL    HW132003   1.736   1.230   1.751
10368SOL    HW232004   1.791   1.108   1.658
10369SOL     OW32005   3.905   1.330   5.268
10369SOL    HW132006   3.870   1.272   5.194
10369SOL    HW232007   4.005   1.331   5.265
10370SOL     OW32008   5.207   1.869   5.349
10370SOL    HW132009   5.270   1.915   5.286
10370SOL    HW232010   5.181   1.780   5.312
10371SOL     OW32011   2.390   6.251   4.627
10371SOL    HW132012   2.308   6.204   4.662
10371SOL    HW232013   2.454   6.265   4.702
10372SOL     OW32014   1.081   1.515   0.020
10372SOL    HW132015   1.140   1.494   0.098
10372SOL    HW232016   1.029   1.434   7.010
10373SOL     OW32017   2.080   5.908   4.726
10373SOL    HW132018   1.996   5.856   4.742
10373SOL    HW232019   2.158   5.846   4.728
10374SOL     OW32020   4.145   1.248   2.455
10374SOL    HW132021   4.100   1.306   2.522
10374SOL    HW232022   4.237   1.283   2.437
10375SOL     OW32023   3.075   1.889   6.527
10375SOL    HW132024   2.975   1.898   6.529
10375SOL    HW232025   3.109   1.925   6.440
10376SOL     OW32026   1.201   6.356   4.200
10376SOL    HW132027   1.146   6.430   4.162
10376SOL    HW232028   1.297   6.386   4.207
10377SOL     OW32029   6.885   0.435   4.234
10377SOL    HW132030   6.951   0.509   4.240
10377SOL    HW232031   6.905   0.366   4.304
10378SOL     OW32032   6.285   6.932   6.085
10378SOL    HW132033   6.318   0.011   6.094
10378SOL    HW232034   6.243   6.903   6.171
10379SOL     OW32035   3.225   6.586   4.551
10379SOL    HW132036   3.246   6.650   4.625
10379SOL    HW232037   3.134   6.547   4.566
10380SOL     OW32038   0.525   1.531   4.051
10380SOL    HW132039   0.554   1.619   4.088
10380SOL    HW232040   0.591   1.501   3.982
10381SOL     OW32041   4.302   5.773   6.792
10381SOL    HW132042   4.375   5.714   6.757
10381SOL    HW232043   4.276   5.838   6.720
10382SOL     OW32044   2.284   4.577   0.344
10382SOL    HW132045   2.238   4.492   0.318
10382SOL    HW232046   2.333   4.613   0.265
10383SOL     OW32047   0.795   3.460   0.411
10383SOL    HW132048   0.805   3.411   0.324
10383SOL    HW232049   0.745   3.545   0.395
10384SOL     OW32050   0.838   0.254   1.017
10384SOL    HW132051   0.812   0.335   0.965
10384SOL    HW232052   0.811   0.265   1.113
10385SOL     OW32053   3.751   6.842   5.924
10385SOL    HW132054   3.744   6.930   5.971
10385SOL    HW232055   3.714   6.851   5.831
10386SOL     OW32056   6.043   3.190   5.431
10386SOL    HW132057   5.998   3.102   5.449
10386SOL    HW232058   6.009   3.227   5.344
10387SOL     OW32059   4.147   2.281   2.414
10387SOL    HW132060   4.087   2.286   2.494
10387SOL    HW232061   4.200   2.196   2.418
10388SOL     OW32062   1.694   5.733   2.769
10388SOL    HW132063   1.677   5.711   2.866
10388SOL    HW232064   1.673   5.653   2.713
10389SOL     OW32065   0.659   6.792   1.759
10389SOL    HW132066   0.725   6.834   1.698
10389SOL    HW232067   0.567   6.806   1.723
10390SOL     OW32068   1.561   3.209   1.814
10390SOL    HW132069   1.618   3.250   1.885
10390SOL    HW232070   1.492   3.275   1.784
10391SOL     OW32071   1.262   5.777   5.028
10391SOL    HW132072   1.190   5.709   5.035
10391SOL    HW232073   1.322   5.755   4.951
10392SOL     OW32074   6.378   3.844   0.401
10392SOL    HW132075   6.396   3.746   0.391
10392SOL    HW232076   6.300   3.869   0.344
10393SOL     OW32077   2.191   2.174   2.873
10393SOL    HW132078   2.253   2.244   2.906
10393SOL    HW232079   2.098   2.194   2.903
10394SOL     OW32080   2.653   6.581   5.459
10394SOL    HW132081   2.680   6.664   5.508
10394SOL    HW232082   2.558   6.559   5.480
10395SOL     OW32083   6.481   0.407   3.560
10395SOL    HW132084   6.462   0.310   3.549
10395SOL    HW232085   6.443   0.439   3.647
10396SOL     OW32086   2.339   0.667   4.818
10396SOL    HW132087   2.424   0.682   4.766
10396SOL    HW232088   2.361   0.627   4.907
10397SOL     OW32089   2.834   2.291   3.559
10397SOL    HW132090   2.788   2.297   3.647
10397SOL    HW232091   2.933   2.297   3.572
10398SOL     OW32092   5.730   3.074   0.502
10398SOL    HW132093   5.682   3.049   0.586
10398SOL    HW232094   5.667   3.120   0.439
10399SOL     OW32095   4.473   1.979   4.333
10399SOL    HW132096   4.402   2.050   4.331
10399SOL    HW232097   4.563   2.022   4.344
10400SOL     OW32098   3.426   5.880   2.034
10400SOL    HW132099   3.458   5.964   2.077
10400SOL    HW232100   3.503   5.835   1.988
10401SOL     OW32101   6.718   6.999   2.646
10401SOL    HW132102   6.765   7.010   2.559
10401SOL    HW232103   6.773   6.939   2.706
10402SOL     OW32104   0.053   2.636   5.184
10402SOL    HW132105   7.002   2.707   5.164
10402SOL    HW232106   0.071   2.633   5.282
10403SOL     OW32107   5.134   1.439   2.401
10403SOL    HW132108   5.131   1.453   2.302
10403SOL    HW232109   5.215   1.385   2.424
10404SOL     OW32110   0.584   6.491   3.339
10404SOL    HW132111   0.652   6.565   3.339
10404SOL    HW232112   0.494   6.528   3.360
10405SOL     OW32113   1.163   5.384   4.880
10405SOL    HW132114   1.104   5.306   4.862
10405SOL    HW232115   1.180   5.434   4.794
10406SOL     OW32116   2.141   3.815   5.121
10406SOL    HW132117   2.168   3.899   5.073
10406SOL    HW232118   2.192   3.807   5.206
10407SOL     OW32119   1.619   0.326   6.431
10407SOL    HW132120   1.670   0.263   6.489
10407SOL    HW232121   1.679   0.360   6.358
10408SOL     OW32122   4.129   5.944   2.267
10408SOL    HW132123   4.123   5.963   2.169
10408SOL    HW232124   4.037   5.947   2.307
10409SOL     OW32125   0.671   4.458   1.037
10409SOL    HW132126   0.594   4.476   1.098
10409SOL    HW232127   0.637   4.424   0.949
10410SOL     OW32128   5.553   1.860   1.276
10410SOL    HW132129   5.524   1.855   1.371
10410SOL    HW232130   5.638   1.912   1.270
10411SOL     OW32131   3.496   5.447   4.149
10411SOL    HW132132   3.467   5.364   4.197
10411SOL    HW232133   3.504   5.522   4.214
10412SOL     OW32134   0.431   1.446   0.338
10412SOL    HW132135   0.467   1.467   0.247
10412SOL    HW232136   0.447   1.349   0.359
10413SOL     OW32137   0.130   2.240   0.619
10413SOL    HW132138   0.116   2.317   0.557
10413SOL    HW232139   0.051   2.179   0.615
10414SOL     OW32140   4.629   6.296   5.381
10414SOL    HW132141   4.621   6.362   5.455
10414SOL    HW232142   4.610   6.204   5.415
10415SOL     OW32143   2.129   4.933   3.861
10415SOL    HW132144   2.165   4.902   3.773
10415SOL    HW232145   2.103   4.853   3.916
10416SOL     OW32146   6.621   1.532   5.787
10416SOL    HW132147   6.667   1.457   5.740
10416SOL    HW232148   6.617   1.512   5.885
10417SOL     OW32149   4.802   4.320   4.207
10417SOL    HW132150   4.859   4.339   4.287
10417SOL    HW232151   4.833   4.235   4.164
10418SOL     OW32152   6.437   4.346   5.332
10418SOL    HW132153   6.419   4.306   5.242
10418SOL    HW232154   6.383   4.298   5.401
10419SOL     OW32155   2.836   0.474   5.435
10419SOL    HW132156   2.916   0.414   5.441
10419SOL    HW232157   2.825   0.505   5.340
10420SOL     OW32158   6.872   3.737   3.510
10420SOL    HW132159   6.837   3.790   3.588
10420SOL    HW232160   6.958   3.694   3.535
10421SOL     OW32161   1.454   3.026   4.215
10421SOL    HW132162   1.383   2.985   4.158
10421SOL    HW232163   1.475   3.118   4.182
10422SOL     OW32164   6.417   3.674   5.702
10422SOL    HW132165   6.440   3.734   5.625
10422SOL    HW232166   6.335   3.621   5.679
10423SOL     OW32167   4.121   4.871   4.841
10423SOL    HW132168   4.115   4.971   4.842
10423SOL    HW232169   4.096   4.836   4.931
10424SOL     OW32170   4.880   2.098   6.769
10424SOL    HW132171   4.865   2.195   6.788
10424SOL    HW232172   4.918   2.088   6.677
10425SOL     OW32173   0.953   6.553   1.743
10425SOL    HW132174   0.945   6.481   1.674
10425SOL    HW232175   0.879   6.545   1.809
10426SOL     OW32176   5.029   3.644   5.831
10426SOL    HW132177   5.108   3.644   5.892
10426SOL    HW232178   5.000   3.550   5.814
10427SOL     OW32179   5.363   5.935   5.687
10427SOL    HW132180   5.394   6.027   5.665
10427SOL    HW232181   5.373   5.876   5.607
10428SOL     OW32182   1.334   1.706   4.101
10428SOL    HW132183   1.278   1.650   4.040
10428SOL    HW232184   1.301   1.800   4.100
10429SOL     OW32185   1.301   3.527   2.884
10429SOL    HW132186   1.362   3.563   2.813
10429SOL    HW232187   1.302   3.427   2.882
10430SOL     OW32188   3.262   6.112   4.238
10430SOL    HW132189   3.222   6.103   4.147
10430SOL    HW232190   3.358   6.083   4.235
10431SOL     OW32191   2.625   0.829   3.894
10431SOL    HW132192   2.638   0.862   3.800
10431SOL    HW232193   2.640   0.904   3.958
10432SOL     OW32194   0.784   1.071   5.538
10432SOL    HW132195   0.702   1.097   5.589
10432SOL    HW232196   0.776   1.103   5.443
10433SOL     OW32197   0.473   6.434   1.521
10433SOL    HW132198   0.388   6.391   1.489
10433SOL    HW232199   0.540   6.434   1.448
10434SOL     OW32200   4.873   6.262   4.556
10434SOL    HW132201   4.926   6.243   4.474
10434SOL    HW232202   4.879   6.185   4.619
10435SOL     OW32203   1.242   1.834   6.122
10435SOL    HW132204   1.338   1.811   6.137
10435SOL    HW232205   1.213   1.799   6.033
10436SOL     OW32206   6.045   3.814   3.911
10436SOL    HW132207   6.016   3.748   3.841
10436SOL    HW232208   6.143   3.803   3.929
10437SOL     OW32209   5.483   5.088   5.297
10437SOL    HW132210   5.398   5.101   5.349
10437SOL    HW232211   5.513   5.176   5.261
10438SOL     OW32212   0.126   6.427   5.723
10438SOL    HW132213   0.044   6.372   5.734
10438SOL    HW232214   0.118   6.483   5.640
10439SOL     OW32215   5.908   1.002   4.840
10439SOL    HW132216   5.997   0.977   4.801
10439SOL    HW232217   5.878   1.089   4.800
10440SOL     OW32218   6.869   6.849   6.966
10440SOL    HW132219   6.866   6.832   0.049
10440SOL    HW232220   6.877   6.948   6.950
10441SOL     OW32221   2.824   1.384   0.722
10441SOL    HW132222   2.745   1.375   0.783
10441SOL    HW232223   2.897   1.323   0.753
10442SOL     OW32224   4.069   0.826   4.928
10442SOL    HW132225   3.991   0.810   4.989
10442SOL    HW232226   4.124   0.901   4.964
10443SOL     OW32227   6.586   2.405   2.981
10443SOL    HW132228   6.512   2.368   3.037
10443SOL    HW232229   6.609   2.497   3.014
10444SOL     OW32230   2.990   5.082   3.205
10444SOL    HW132231   3.058   5.020   3.246
10444SOL    HW232232   3.033   5.169   3.184
10445SOL     OW32233   0.555   3.626   2.655
10445SOL    HW132234   0.535   3.587   2.565
10445SOL    HW232235   0.469   3.648   2.702
10446SOL     OW32236   1.824   4.364   6.104
10446SOL    HW132237   1.852   4.285   6.158
10446SOL    HW232238   1.894   4.384   6.035
10447SOL     OW32239   6.585   0.847   1.793
10447SOL    HW132240   6.669   0.841   1.847
10447SOL    HW232241   6.606   0.837   1.696
10448SOL     OW32242   3.369   0.396   3.105
10448SOL    HW132243   3.442   0.447   3.150
10448SOL    HW232244   3.399   0.302   3.090
10449SOL     OW32245   3.420   5.606   6.618
10449SOL    HW132246   3.493   5.600   6.686
10449SOL    HW232247   3.366   5.522   6.621
10450SOL     OW32248   6.717   0.633   6.208
10450SOL    HW132249   6.805   0.602   6.172
10450SOL    HW232250   6.645   0.616   6.140
10451SOL     OW32251   3.637   0.562   2.902
10451SOL    HW132252   3.572   0.533   2.971
10451SOL    HW232253   3.726   0.579   2.945
10452SOL     OW32254   0.016   2.424   2.635
10452SOL    HW132255   0.037   2.513   2.596
10452SOL    HW232256   6.954   2.433   2.698
10453SOL     OW32257   4.427   6.276   2.818
10453SOL    HW132258   4.421   6.371   2.789
10453SOL    HW232259   4.363   6.221   2.764
10454SOL     OW32260   6.063   1.119   0.493
10454SOL    HW132261   6.144   1.087   0.443
10454SOL    HW232262   5.999   1.160   0.429
10455SOL     OW32263   6.974   5.892   4.305
10455SOL    HW132264   6.958   5.926   4.398
10455SOL    HW232265   6.974   5.969   4.241
10456SOL     OW32266   0.302   5.418   0.518
10456SOL    HW132267   0.356   5.446   0.597
10456SOL    HW232268   0.331   5.470   0.438
10457SOL     OW32269   4.143   3.313   6.914
10457SOL    HW132270   4.163   3.396   6.861
10457SOL    HW232271   4.214   3.245   6.895
10458SOL     OW32272   6.684   0.311   6.476
10458SOL    HW132273   6.607   0.257   6.440
10458SOL    HW232274   6.685   0.304   6.576
10459SOL     OW32275   5.999   5.041   0.956
10459SOL    HW132276   6.043   4.991   0.881
10459SOL    HW232277   6.065   5.105   0.996
10460SOL     OW32278   0.141   3.503   1.906
10460SOL    HW132279   0.233   3.464   1.909
10460SOL    HW232280   0.132   3.562   1.826
10461SOL     OW32281   6.528   4.833   5.578
10461SOL    HW132282   6.522   4.734   5.587
10461SOL    HW232283   6.440   4.875   5.604
10462SOL     OW32284   4.885   2.098   2.589
10462SOL    HW132285   4.925   2.096   2.681
10462SOL    HW232286   4.786   2.113   2.597
10463SOL     OW32287   5.049   1.488   6.374
10463SOL    HW132288   5.080   1.504   6.280
10463SOL    HW232289   5.083   1.400   6.405
10464SOL     OW32290   5.841   5.417   2.201
10464SOL    HW132291   5.936   5.423   2.169
10464SOL    HW232292   5.828   5.331   2.251
10465SOL     OW32293   4.875   5.306   2.528
10465SOL    HW132294   4.945   5.280   2.462
10465SOL    HW232295   4.789   5.260   2.505
10466SOL     OW32296   4.505   4.133   6.445
10466SOL    HW132297   4.529   4.221   6.404
10466SOL    HW232298   4.406   4.128   6.458
10467SOL     OW32299   1.372   2.720   0.261
10467SOL    HW132300   1.369   2.736   0.360
10467SOL    HW232301   1.349   2.806   0.214
10468SOL     OW32302   3.876   5.053   3.484
10468SOL    HW132303   3.777   5.068   3.493
10468SOL    HW232304   3.923   5.090   3.565
10469SOL     OW32305   4.522   4.272   5.716
10469SOL    HW132306   4.432   4.238   5.744
10469SOL    HW232307   4.573   4.200   5.670
10470SOL     OW32308   2.291   1.528   3.063
10470SOL    HW132309   2.231   1.470   3.118
10470SOL    HW232310   2.384   1.525   3.100
10471SOL     OW32311   3.362   0.220   0.413
10471SOL    HW132312   3.305   0.245   0.335
10471SOL    HW232313   3.329   0.268   0.495
10472SOL     OW32314   2.769   5.671   1.275
10472SOL    HW132315   2.717   5.736   1.330
10472SOL    HW232316   2.713   5.590   1.257
10473SOL     OW32317   5.937   6.510   5.749
10473SOL    HW132318   5.969   6.490   5.841
10473SOL    HW232319   5.935   6.425   5.695
10474SOL     OW32320   4.707   1.871   3.617
10474SOL    HW132321   4.612   1.901   3.604
10474SOL    HW232322   4.718   1.833   3.709
10475SOL     OW32323   3.116   7.004   1.764
10475SOL    HW132324   3.025   0.031   1.772
10475SOL    HW232325   3.105   6.906   1.749
10476SOL     OW32326   4.421   6.247   6.412
10476SOL    HW132327   4.472   6.227   6.328
10476SOL    HW232328   4.367   6.330   6.400
10477SOL     OW32329   6.943   0.520   4.853
10477SOL    HW132330   6.898   0.553   4.936
10477SOL    HW232331   7.004   0.445   4.876
10478SOL     OW32332   6.829   6.258   0.040
10478SOL    HW132333   6.740   6.272   7.013
10478SOL    HW232334   6.820   6.194   0.117
10479SOL     OW32335   6.469   1.039   2.002
10479SOL    HW132336   6.377   1.053   1.966
10479SOL    HW232337   6.522   0.984   1.938
10480SOL     OW32338   1.367   0.894   1.928
10480SOL    HW132339   1.357   0.838   2.011
10480SOL    HW232340   1.322   0.982   1.942
10481SOL     OW32341   2.015   5.767   3.279
10481SOL    HW132342   2.061   5.843   3.324
10481SOL    HW232343   2.020   5.779   3.180
10482SOL     OW32344   6.173   5.285   4.840
10482SOL    HW132345   6.245   5.339   4.882
10482SOL    HW232346   6.168   5.307   4.742
10483SOL     OW32347   5.664   5.787   0.438
10483SOL    HW132348   5.609   5.866   0.410
10483SOL    HW232349   5.742   5.777   0.376
10484SOL     OW32350   4.500   1.869   1.630
10484SOL    HW132351   4.500   1.812   1.712
10484SOL    HW232352   4.452   1.954   1.647
10485SOL     OW32353   3.353   4.827   0.331
10485SOL    HW132354   3.383   4.794   0.421
10485SOL    HW232355   3.323   4.750   0.275
10486SOL     OW32356   6.833   0.849   0.130
10486SOL    HW132357   6.785   0.860   0.043
10486SOL    HW232358   6.773   0.877   0.204
10487SOL     OW32359   5.065   6.730   2.310
10487SOL    HW132360   5.148   6.758   2.359
10487SOL    HW232361   4.989   6.789   2.338
10488SOL     OW32362   3.093   1.943   6.269
10488SOL    HW132363   3.066   1.887   6.191
10488SOL    HW232364   3.117   2.035   6.237
10489SOL     OW32365   0.299   6.727   4.699
10489SOL    HW132366   0.217   6.676   4.672
10489SOL    HW232367   0.302   6.738   4.798
10490SOL     OW32368   6.218   1.507   2.077
10490SOL    HW132369   6.249   1.592   2.034
10490SOL    HW232370   6.125   1.486   2.047
10491SOL     OW32371   1.395   3.512   0.003
10491SOL    HW132372   1.462   3.448   0.040
10491SOL    HW232373   1.303   3.483   0.027
10492SOL     OW32374   5.374   4.187   6.048
10492SOL    HW132375   5.419   4.139   5.972
10492SOL    HW232376   5.276   4.165   6.047
10493SOL     OW32377   3.557   1.120   1.253
10493SOL    HW132378   3.551   1.166   1.342
10493SOL    HW232379   3.504   1.172   1.185
10494SOL     OW32380   4.627   3.633   5.577
10494SOL    HW132381   4.634   3.725   5.537
10494SOL    HW232382   4.666   3.567   5.513
10495SOL     OW32383   2.208   6.311   0.408
10495SOL    HW132384   2.162   6.388   0.453
10495SOL    HW232385   2.194   6.228   0.463
10496SOL     OW32386   0.254   5.068   0.027
10496SOL    HW132387   0.203   5.144   7.003
10496SOL    HW232388   0.271   5.085   0.124
10497SOL     OW32389   2.544   0.037   2.334
10497SOL    HW132390   2.453   0.067   2.305
10497SOL    HW232391   2.560   0.063   2.429
10498SOL     OW32392   3.094   6.713   1.770
10498SOL    HW132393   3.170   6.680   1.825
10498SOL    HW232394   3.082   6.655   1.690
10499SOL     OW32395   3.325   6.871   2.434
10499SOL    HW132396   3.230   6.850   2.411
10499SOL    HW232397   3.346   6.965   2.406
10500SOL     OW32398   0.141   0.414   0.003
10500SOL    HW132399   0.067   0.474   0.033
10500SOL    HW232400   0.228   0.463   0.006
10501SOL     OW32401   2.021   4.980   3.100
10501SOL    HW132402   2.000   5.043   3.175
10501SOL    HW232403   2.019   4.886   3.134
10502SOL     OW32404   2.979   0.605   0.902
10502SOL    HW132405   3.038   0.641   0.974
10502SOL    HW232406   2.900   0.666   0.890
10503SOL     OW32407   4.128   3.065   0.091
10503SOL    HW132408   4.070   2.995   0.051
10503SOL    HW232409   4.132   3.144   0.030
10504SOL     OW32410   1.885   1.871   0.241
10504SOL    HW132411   1.836   1.795   0.283
10504SOL    HW232412   1.981   1.845   0.227
10505SOL     OW32413   5.679   5.931   0.683
10505SOL    HW132414   5.590   5.965   0.654
10505SOL    HW232415   5.707   5.856   0.624
10506SOL     OW32416   6.717   5.332   6.593
10506SOL    HW132417   6.787   5.265   6.571
10506SOL    HW232418   6.736   5.417   6.544
10507SOL     OW32419   2.155   0.267   0.193
10507SOL    HW132420   2.134   0.211   0.274
10507SOL    HW232421   2.126   0.219   0.111
10508SOL     OW32422   6.110   6.141   4.397
10508SOL    HW132423   6.016   6.167   4.421
10508SOL    HW232424   6.170   6.159   4.475
10509SOL     OW32425   0.900   6.439   5.457
10509SOL    HW132426   0.885   6.363   5.394
10509SOL    HW232427   0.916   6.523   5.405
10510SOL     OW32428   4.865   5.865   5.768
10510SOL    HW132429   4.906   5.926   5.700
10510SOL    HW232430   4.835   5.918   5.847
10511SOL     OW32431   4.378   1.788   1.399
10511SOL    HW132432   4.402   1.802   1.495
10511SOL    HW232433   4.340   1.872   1.361
10512SOL     OW32434   4.039   0.396   5.734
10512SOL    HW132435   4.005   0.449   5.812
10512SOL    HW232436   4.104   0.327   5.767
10513SOL     OW32437   6.804   2.164   4.630
10513SOL    HW132438   6.746   2.234   4.670
10513SOL    HW232439   6.893   2.204   4.605
10514SOL     OW32440   0.225   3.701   0.182
10514SOL    HW132441   0.196   3.797   0.171
10514SOL    HW232442   0.177   3.660   0.259
10515SOL     OW32443   6.866   3.028   3.085
10515SOL    HW132444   6.774   3.004   3.056
10515SOL    HW232445   6.922   2.945   3.089
10516SOL     OW32446   4.218   0.801   6.877
10516SOL    HW132447   4.295   0.861   6.861
10516SOL    HW232448   4.216   0.729   6.808
10517SOL     OW32449   0.038   1.994   3.122
10517SOL    HW132450   0.047   2.055   3.043
10517SOL    HW232451   0.085   2.034   3.200
10518SOL     OW32452   1.040   4.881   6.151
10518SOL    HW132453   1.109   4.845   6.089
10518SOL    HW232454   1.071   4.871   6.245
10519SOL     OW32455   2.339   2.877   6.351
10519SOL    HW132456   2.331   2.967   6.393
10519SOL    HW232457   2.436   2.856   6.335
10520SOL     OW32458   1.476   2.177   6.469
10520SOL    HW132459   1.396   2.235   6.453
10520SOL    HW232460   1.456   2.084   6.438
10521SOL     OW32461   5.640   5.638   1.913
10521SOL    HW132462   5.681   5.548   1.927
10521SOL    HW232463   5.540   5.631   1.917
10522SOL     OW32464   5.813   0.488   6.832
10522SOL    HW132465   5.871   0.434   6.894
10522SOL    HW232466   5.768   0.426   6.767
10523SOL     OW32467   0.501   5.115   4.826
10523SOL    HW132468   0.451   5.033   4.799
10523SOL    HW232469   0.474   5.192   4.767
10524SOL     OW32470   1.909   0.818   5.081
10524SOL    HW132471   1.813   0.820   5.053
10524SOL    HW232472   1.915   0.787   5.176
10525SOL     OW32473   3.132   0.088   6.007
10525SOL    HW132474   3.210   0.050   6.057
10525SOL    HW232475   3.078   0.014   5.967
10526SOL     OW32476   0.434   0.060   2.717
10526SOL    HW132477   0.445   0.153   2.753
10526SOL    HW232478   0.391   0.064   2.626
10527SOL     OW32479   6.341   2.351   4.961
10527SOL    HW132480   6.363   2.343   5.058
10527SOL    HW232481   6.254   2.305   4.942
10528SOL     OW32482   1.083   3.212   5.750
10528SOL    HW132483   1.182   3.200   5.754
10528SOL    HW232484   1.054   3.215   5.655
10529SOL     OW32485   2.292   6.298   3.573
10529SOL    HW132486   2.387   6.326   3.589
10529SOL    HW232487   2.243   6.372   3.527
10530SOL     OW32488   2.222   0.904   6.311
10530SOL    HW132489   2.150   0.835   6.302
10530SOL    HW232490   2.199   0.967   6.385
10531SOL     OW32491   0.908   2.916   4.262
10531SOL    HW132492   0.930   3.005   4.302
10531SOL    HW232493   0.955   2.844   4.312
10532SOL     OW32494   1.875   4.409   6.854
10532SOL    HW132495   1.959   4.367   6.886
10532SOL    HW232496   1.818   4.340   6.808
10533SOL     OW32497   2.920   1.454   4.624
10533SOL    HW132498   2.842   1.392   4.612
10533SOL    HW232499   2.890   1.538   4.669
10534SOL     OW32500   5.851   5.695   1.736
10534SOL    HW132501   5.938   5.688   1.786
10534SOL    HW232502   5.776   5.665   1.796
10535SOL     OW32503   0.973   1.678   0.755
10535SOL    HW132504   0.893   1.699   0.811
10535SOL    HW232505   0.964   1.724   0.666
10536SOL     OW32506   4.341   0.971   3.442
10536SOL    HW132507   4.271   0.965   3.513
10536SOL    HW232508   4.321   0.905   3.370
10537SOL     OW32509   3.381   5.248   4.323
10537SOL    HW132510   3.301   5.243   4.383
10537SOL    HW232511   3.443   5.172   4.344
10538SOL     OW32512   4.855   2.536   0.227
10538SOL    HW132513   4.808   2.623   0.214
10538SOL    HW232514   4.914   2.517   0.149
10539SOL     OW32515   0.763   4.151   6.670
10539SOL    HW132516   0.728   4.108   6.587
10539SOL    HW232517   0.851   4.109   6.694
10540SOL     OW32518   1.557   2.420   5.133
10540SOL    HW132519   1.649   2.459   5.142
10540SOL    HW232520   1.496   2.488   5.092
10541SOL     OW32521   3.744   3.752   1.973
10541SOL    HW132522   3.760   3.656   1.950
10541SOL    HW232523   3.659   3.761   2.025
10542SOL     OW32524   6.630   1.788   6.367
10542SOL    HW132525   6.584   1.855   6.426
10542SOL    HW232526   6.606   1.695   6.397
10543SOL     OW32527   6.733   1.163   5.080
10543SOL    HW132528   6.745   1.256   5.044
10543SOL    HW232529   6.641   1.131   5.059
10544SOL     OW32530   1.531   6.896   2.674
10544SOL    HW132531   1.524   6.972   2.610
10544SOL    HW232532   1.520   6.929   2.767
10545SOL     OW32533   6.008   1.216   2.752
10545SOL    HW132534   5.989   1.307   2.788
10545SOL    HW232535   5.939   1.151   2.784
10546SOL     OW32536   0.662   0.934   6.503
10546SOL    HW132537   0.565   0.914   6.515
10546SOL    HW232538   0.704   0.867   6.442
10547SOL     OW32539   4.996   2.196   2.106
10547SOL    HW132540   4.935   2.158   2.036
10547SOL    HW232541   4.997   2.135   2.185
10548SOL     OW32542   5.059   4.377   4.988
10548SOL    HW132543   5.141   4.384   4.932
10548SOL    HW232544   5.057   4.289   5.034
10549SOL     OW32545   6.201   6.843   2.159
10549SOL    HW132546   6.270   6.833   2.087
10549SOL    HW232547   6.117   6.798   2.130
10550SOL     OW32548   4.464   6.415   4.683
10550SOL    HW132549   4.541   6.402   4.621
10550SOL    HW232550   4.426   6.327   4.708
10551SOL     OW32551   1.994   2.541   5.968
10551SOL    HW132552   1.965   2.588   6.051
10551SOL    HW232553   2.042   2.605   5.908
10552SOL     OW32554   3.957   1.978   6.043
10552SOL    HW132555   3.928   2.025   5.959
10552SOL    HW232556   3.939   2.038   6.121
10553SOL     OW32557   0.984   5.025   1.479
10553SOL    HW132558   1.070   4.991   1.440
10553SOL    HW232559   1.003   5.097   1.545
10554SOL     OW32560   4.840   5.292   0.109
10554SOL    HW132561   4.893   5.234   0.048
10554SOL    HW232562   4.840   5.386   0.074
10555SOL     OW32563   2.327   2.997   0.642
10555SOL    HW132564   2.419   3.020   0.610
10555SOL    HW232565   2.312   2.899   0.632
10556SOL     OW32566   2.192   2.393   5.124
10556SOL    HW132567   2.102   2.353   5.108
10556SOL    HW232568   2.189   2.491   5.106
10557SOL     OW32569   1.866   2.196   2.854
10557SOL    HW132570   1.773   2.163   2.869
10557SOL    HW232571   1.890   2.262   2.925
10558SOL     OW32572   4.148   0.536   3.885
10558SOL    HW132573   4.221   0.527   3.818
10558SOL    HW232574   4.105   0.447   3.900
10559SOL     OW32575   4.495   0.609   1.143
10559SOL    HW132576   4.544   0.625   1.057
10559SOL    HW232577   4.557   0.570   1.210
10560SOL     OW32578   3.079   6.949   3.610
10560SOL    HW132579   3.019   0.001   3.567
10560SOL    HW232580   3.099   6.876   3.546
10561SOL     OW32581   2.837   4.487   0.876
10561SOL    HW132582   2.771   4.420   0.911
10561SOL    HW232583   2.830   4.571   0.929
10562SOL     OW32584   5.323   6.241   0.504
10562SOL    HW132585   5.387   6.303   0.459
10562SOL    HW232586   5.373   6.175   0.560
10563SOL     OW32587   0.851   0.633   3.987
10563SOL    HW132588   0.798   0.633   3.902
10563SOL    HW232589   0.948   0.644   3.965
10564SOL     OW32590   5.910   6.195   2.516
10564SOL    HW132591   5.935   6.159   2.606
10564SOL    HW232592   5.929   6.126   2.446
10565SOL     OW32593   0.045   0.854   5.953
10565SOL    HW132594   6.973   0.891   5.982
10565SOL    HW232595   0.075   0.899   5.869
10566SOL     OW32596   4.256   2.805   6.860
10566SOL    HW132597   4.316   2.778   6.785
10566SOL    HW232598   4.162   2.815   6.826
10567SOL     OW32599   2.400   1.871   4.466
10567SOL    HW132600   2.352   1.894   4.381
10567SOL    HW232601   2.497   1.855   4.446
10568SOL     OW32602   5.960   1.769   1.493
10568SOL    HW132603   5.896   1.784   1.569
10568SOL    HW232604   6.049   1.807   1.517
10569SOL     OW32605   6.087   2.193   1.436
10569SOL    HW132606   6.104   2.288   1.461
10569SOL    HW232607   6.051   2.188   1.343
10570SOL     OW32608   1.405   4.548   3.495
10570SOL    HW132609   1.365   4.473   3.548
10570SOL    HW232610   1.440   4.618   3.557
10571SOL     OW32611   6.901   4.733   4.604
10571SOL    HW132612   6.808   4.701   4.584
10571SOL    HW232613   6.958   4.722   4.523
10572SOL     OW32614   6.792   4.081   3.907
10572SOL    HW132615   6.834   4.055   3.820
10572SOL    HW232616   6.701   4.039   3.913
10573SOL     OW32617   4.730   6.974   4.710
10573SOL    HW132618   4.661   6.932   4.769
10573SOL    HW232619   4.685   0.015   4.641
10574SOL     OW32620   1.274   1.457   4.410
10574SOL    HW132621   1.221   1.461   4.495
10574SOL    HW232622   1.254   1.538   4.355
10575SOL     OW32623   0.231   1.210   2.800
10575SOL    HW132624   0.229   1.242   2.895
10575SOL    HW232625   0.148   1.239   2.753
10576SOL     OW32626   6.803   6.492   5.539
10576SOL    HW132627   6.798   6.415   5.475
10576SOL    HW232628   6.714   6.537   5.544
10577SOL     OW32629   1.845   2.395   6.946
10577SOL    HW132630   1.882   2.402   0.023
10577SOL    HW232631   1.915   2.422   6.880
10578SOL     OW32632   6.343   0.591   3.180
10578SOL    HW132633   6.287   0.652   3.236
10578SOL    HW232634   6.324   0.608   3.083
10579SOL     OW32635   3.646   1.818   0.507
10579SOL    HW132636   3.745   1.834   0.504
10579SOL    HW232637   3.628   1.723   0.534
10580SOL     OW32638   6.691   0.158   0.495
10580SOL    HW132639   6.702   0.062   0.469
10580SOL    HW232640   6.680   0.214   0.412
10581SOL     OW32641   6.644   6.828   3.036
10581SOL    HW132642   6.622   6.793   3.127
10581SOL    HW232643   6.567   6.812   2.974
10582SOL     OW32644   4.402   4.736   6.617
10582SOL    HW132645   4.467   4.687   6.675
10582SOL    HW232646   4.383   4.825   6.657
10583SOL     OW32647   3.708   0.926   5.251
10583SOL    HW132648   3.740   0.832   5.237
10583SOL    HW232649   3.609   0.930   5.238
10584SOL     OW32650   6.439   6.624   1.495
10584SOL    HW132651   6.383   6.707   1.500
10584SOL    HW232652   6.456   6.590   1.587
10585SOL     OW32653   2.120   2.900   5.443
10585SOL    HW132654   2.212   2.913   5.404
10585SOL    HW232655   2.124   2.914   5.541
10586SOL     OW32656   0.622   5.439   5.026
10586SOL    HW132657   0.638   5.500   5.103
10586SOL    HW232658   0.691   5.366   5.026
10587SOL     OW32659   6.307   3.862   0.686
10587SOL    HW132660   6.223   3.808   0.676
10587SOL    HW232661   6.364   3.851   0.606
10588SOL     OW32662   0.194   3.808   2.384
10588SOL    HW132663   0.194   3.896   2.337
10588SOL    HW232664   0.151   3.739   2.325
10589SOL     OW32665   5.998   1.338   4.808
10589SOL    HW132666   6.061   1.392   4.865
10589SOL    HW232667   6.016   1.356   4.712
10590SOL     OW32668   1.516   0.070   1.563
10590SOL    HW132669   1.496   0.072   1.661
10590SOL    HW232670   1.458   0.003   1.519
10591SOL     OW32671   1.190   1.262   6.426
10591SOL    HW132672   1.095   1.241   6.400
10591SOL    HW232673   1.193   1.290   6.522
10592SOL     OW32674   6.315   2.781   0.731
10592SOL    HW132675   6.247   2.786   0.658
10592SOL    HW232676   6.271   2.793   0.820
10593SOL     OW32677   2.661   5.063   0.753
10593SOL    HW132678   2.632   5.113   0.671
10593SOL    HW232679   2.749   5.099   0.784
10594SOL     OW32680   5.197   1.074   2.259
10594SOL    HW132681   5.283   1.080   2.309
10594SOL    HW232682   5.121   1.085   2.322
10595SOL     OW32683   3.487   0.485   5.784
10595SOL    HW132684   3.457   0.485   5.689
10595SOL    HW232685   3.436   0.416   5.835
10596SOL     OW32686   5.022   7.015   0.479
10596SOL    HW132687   5.072   0.006   0.393
10596SOL    HW232688   5.033   0.085   0.530
10597SOL     OW32689   3.380   1.019   4.942
10597SOL    HW132690   3.428   0.939   4.905
10597SOL    HW232691   3.390   1.096   4.878
10598SOL     OW32692   2.466   2.680   6.669
10598SOL    HW132693   2.472   2.694   6.768
10598SOL    HW232694   2.466   2.582   6.649
10599SOL     OW32695   5.034   2.551   6.664
10599SOL    HW132696   4.979   2.477   6.701
10599SOL    HW232697   4.984   2.637   6.672
10600SOL     OW32698   1.744   2.705   0.369
10600SOL    HW132699   1.689   2.698   0.286
10600SOL    HW232700   1.722   2.629   0.431
10601SOL     OW32701   1.663   4.601   6.653
10601SOL    HW132702   1.616   4.689   6.643
10601SOL    HW232703   1.734   4.610   6.723
10602SOL     OW32704   5.282   1.890   3.184
10602SOL    HW132705   5.357   1.951   3.156
10602SOL    HW232706   5.229   1.934   3.257
10603SOL     OW32707   2.189   5.718   3.947
10603SOL    HW132708   2.279   5.762   3.957
10603SOL    HW232709   2.194   5.624   3.981
10604SOL     OW32710   5.829   3.744   5.293
10604SOL    HW132711   5.826   3.673   5.364
10604SOL    HW232712   5.864   3.829   5.332
10605SOL     OW32713   1.539   5.032   0.890
10605SOL    HW132714   1.457   5.008   0.941
10605SOL    HW232715   1.561   5.129   0.905
10606SOL     OW32716   6.337   0.002   2.334
10606SOL    HW132717   6.280   6.981   2.261
10606SOL    HW232718   6.430   0.016   2.300
10607SOL     OW32719   4.137   4.039   5.988
10607SOL    HW132720   4.152   3.997   6.078
10607SOL    HW232721   4.057   4.098   5.992
10608SOL     OW32722   5.433   2.156   5.439
10608SOL    HW132723   5.428   2.256   5.451
10608SOL    HW232724   5.500   2.119   5.503
10609SOL     OW32725   3.420   6.690   1.776
10609SOL    HW132726   3.371   6.669   1.860
10609SOL    HW232727   3.471   6.775   1.786
10610SOL     OW32728   0.426   3.436   5.870
10610SOL    HW132729   0.339   3.478   5.846
10610SOL    HW232730   0.492   3.452   5.796
10611SOL     OW32731   4.211   3.828   5.421
10611SOL    HW132732   4.177   3.922   5.427
10611SOL    HW232733   4.193   3.793   5.329
10612SOL     OW32734   2.614   0.087   5.946
10612SOL    HW132735   2.670   0.130   6.016
10612SOL    HW232736   2.673   0.038   5.882
10613SOL     OW32737   6.852   0.547   5.378
10613SOL    HW132738   6.764   0.569   5.334
10613SOL    HW232739   6.909   0.628   5.382
10614SOL     OW32740   6.694   1.893   4.658
10614SOL    HW132741   6.746   1.978   4.661
10614SOL    HW232742   6.741   1.823   4.711
10615SOL     OW32743   3.039   6.174   6.025
10615SOL    HW132744   2.965   6.236   6.000
10615SOL    HW232745   3.065   6.119   5.946
10616SOL     OW32746   2.797   6.478   1.020
10616SOL    HW132747   2.792   6.379   1.011
10616SOL    HW232748   2.793   6.503   1.117
10617SOL     OW32749   2.260   2.705   0.664
10617SOL    HW132750   2.256   2.696   0.763
10617SOL    HW232751   2.244   2.615   0.622
10618SOL     OW32752   5.955   3.572   6.746
10618SOL    HW132753   5.982   3.515   6.824
10618SOL    HW232754   5.940   3.666   6.778
10619SOL     OW32755   0.303   3.766   1.821
10619SOL    HW132756   0.382   3.712   1.792
10619SOL    HW232757   0.231   3.759   1.753
10620SOL     OW32758   1.048   5.548   5.918
10620SOL    HW132759   1.030   5.477   5.849
10620SOL    HW232760   1.123   5.607   5.886
10621SOL     OW32761   1.306   6.520   1.407
10621SOL    HW132762   1.257   6.606   1.390
10621SOL    HW232763   1.357   6.495   1.325
10622SOL     OW32764   5.326   0.874   1.105
10622SOL    HW132765   5.343   0.792   1.049
10622SOL    HW232766   5.258   0.931   1.060
10623SOL     OW32767   6.802   4.870   4.251
10623SOL    HW132768   6.792   4.772   4.268
10623SOL    HW232769   6.870   4.885   4.180
10624SOL     OW32770   0.419   1.312   4.669
10624SOL    HW132771   0.418   1.314   4.769
10624SOL    HW232772   0.379   1.226   4.637
10625SOL     OW32773   0.435   4.800   0.188
10625SOL    HW132774   0.344   4.811   0.148
10625SOL    HW232775   0.491   4.880   0.167
10626SOL     OW32776   1.087   3.238   0.918
10626SOL    HW132777   1.093   3.140   0.934
10626SOL    HW232778   1.178   3.274   0.895
10627SOL     OW32779   5.341   5.701   1.314
10627SOL    HW132780   5.375   5.745   1.398
10627SOL    HW232781   5.412   5.642   1.277
10628SOL     OW32782   5.245   5.321   6.085
10628SOL    HW132783   5.169   5.364   6.135
10628SOL    HW232784   5.256   5.366   5.996
10629SOL     OW32785   2.454   4.733   4.752
10629SOL    HW132786   2.362   4.758   4.782
10629SOL    HW232787   2.472   4.772   4.661
10630SOL     OW32788   6.463   1.413   3.725
10630SOL    HW132789   6.420   1.502   3.744
10630SOL    HW232790   6.508   1.416   3.636
10631SOL     OW32791   1.502   4.715   5.431
10631SOL    HW132792   1.549   4.801   5.412
10631SOL    HW232793   1.407   4.733   5.454
10632SOL     OW32794   5.456   1.992   4.006
10632SOL    HW132795   5.363   2.007   3.973
10632SOL    HW232796   5.455   1.983   4.105
10633SOL     OW32797   2.236   3.592   1.251
10633SOL    HW132798   2.233   3.520   1.321
10633SOL    HW232799   2.191   3.560   1.168
10634SOL     OW32800   3.220   5.404   1.404
10634SOL    HW132801   3.179   5.444   1.322
10634SOL    HW232802   3.317   5.425   1.407
10635SOL     OW32803   3.318   1.689   0.964
10635SOL    HW132804   3.272   1.601   0.951
10635SOL    HW232805   3.256   1.753   1.009
10636SOL     OW32806   1.152   2.158   1.520
10636SOL    HW132807   1.148   2.252   1.486
10636SOL    HW232808   1.246   2.136   1.548
10637SOL     OW32809   3.336   5.042   5.450
10637SOL    HW132810   3.385   5.024   5.365
10637SOL    HW232811   3.326   4.956   5.501
10638SOL     OW32812   0.247   5.744   2.993
10638SOL    HW132813   0.231   5.669   3.057
10638SOL    HW232814   0.224   5.831   3.037
10639SOL     OW32815   0.272   2.526   2.955
10639SOL    HW132816   0.280   2.444   2.899
10639SOL    HW232817   0.243   2.603   2.898
10640SOL     OW32818   4.096   0.337   6.126
10640SOL    HW132819   4.071   0.381   6.212
10640SOL    HW232820   4.025   0.271   6.101
10641SOL     OW32821   3.456   2.081   0.248
10641SOL    HW132822   3.490   1.990   0.225
10641SOL    HW232823   3.473   2.144   0.172
10642SOL     OW32824   0.288   2.518   1.752
10642SOL    HW132825   0.313   2.602   1.705
10642SOL    HW232826   0.355   2.498   1.824
10643SOL     OW32827   1.872   4.799   5.449
10643SOL    HW132828   1.909   4.762   5.363
10643SOL    HW232829   1.926   4.765   5.526
10644SOL     OW32830   5.828   1.908   3.209
10644SOL    HW132831   5.780   1.939   3.291
10644SOL    HW232832   5.764   1.903   3.132
10645SOL     OW32833   0.367   0.972   4.380
10645SOL    HW132834   0.300   1.027   4.330
10645SOL    HW232835   0.321   0.895   4.424
10646SOL     OW32836   0.585   1.641   5.618
10646SOL    HW132837   0.626   1.632   5.709
10646SOL    HW232838   0.652   1.615   5.548
10647SOL     OW32839   4.134   5.585   6.906
10647SOL    HW132840   4.183   5.625   6.829
10647SOL    HW232841   4.173   5.495   6.927
10648SOL     OW32842   4.668   3.674   6.586
10648SOL    HW132843   4.626   3.747   6.532
10648SOL    HW232844   4.730   3.621   6.528
10649SOL     OW32845   0.425   4.178   2.910
10649SOL    HW132846   0.417   4.136   3.001
10649SOL    HW232847   0.370   4.126   2.845
10650SOL     OW32848   1.360   6.138   3.360
10650SOL    HW132849   1.396   6.200   3.429
10650SOL    HW232850   1.260   6.141   3.362
10651SOL     OW32851   4.944   6.898   5.991
10651SOL    HW132852   4.912   6.825   6.052
10651SOL    HW232853   4.868   6.932   5.936
10652SOL     OW32854   3.400   0.046   6.123
10652SOL    HW132855   3.496   0.062   6.100
10652SOL    HW232856   3.394   0.005   6.214
10653SOL     OW32857   5.361   4.346   4.476
10653SOL    HW132858   5.388   4.320   4.569
10653SOL    HW232859   5.267   4.379   4.476
10654SOL     OW32860   4.400   1.176   0.745
10654SOL    HW132861   4.474   1.149   0.806
10654SOL    HW232862   4.367   1.096   0.695
10655SOL     OW32863   3.061   5.613   1.285
10655SOL    HW132864   2.966   5.639   1.265
10655SOL    HW232865   3.080   5.627   1.382
10656SOL     OW32866   5.989   2.350   0.474
10656SOL    HW132867   5.993   2.281   0.401
10656SOL    HW232868   6.019   2.438   0.438
10657SOL     OW32869   6.297   6.444   6.981
10657SOL    HW132870   6.221   6.381   7.002
10657SOL    HW232871   6.265   6.538   6.990
10658SOL     OW32872   6.454   3.952   4.438
10658SOL    HW132873   6.484   4.030   4.493
10658SOL    HW232874   6.354   3.948   4.439
10659SOL     OW32875   6.322   6.315   0.868
10659SOL    HW132876   6.253   6.289   0.935
10659SOL    HW232877   6.375   6.393   0.902
10660SOL     OW32878   5.339   4.480   6.810
10660SOL    HW132879   5.374   4.392   6.779
10660SOL    HW232880   5.246   4.469   6.843
10661SOL     OW32881   0.588   6.776   2.179
10661SOL    HW132882   0.551   6.727   2.100
10661SOL    HW232883   0.636   6.712   2.238
10662SOL     OW32884   5.838   0.870   2.003
10662SOL    HW132885   5.786   0.793   2.040
10662SOL    HW232886   5.935   0.860   2.027
10663SOL     OW32887   0.438   6.696   1.533
10663SOL    HW132888   0.480   6.743   1.455
10663SOL    HW232889   0.459   6.598   1.528
10664SOL     OW32890   1.962   4.207   5.513
10664SOL    HW132891   2.037   4.144   5.490
10664SOL    HW232892   1.915   4.173   5.594
10665SOL     OW32893   0.739   0.389   0.623
10665SOL    HW132894   0.712   0.460   0.558
10665SOL    HW232895   0.692   0.303   0.601
10666SOL     OW32896   3.712   4.715   0.177
10666SOL    HW132897   3.765   4.694   0.259
10666SOL    HW232898   3.635   4.651   0.170
10667SOL     OW32899   3.564   2.545   5.351
10667SOL    HW132900   3.599   2.452   5.338
10667SOL    HW232901   3.505   2.547   5.432
10668SOL     OW32902   1.154   1.347   5.135
10668SOL    HW132903   1.164   1.430   5.189
10668SOL    HW232904   1.245   1.307   5.118
10669SOL     OW32905   6.056   6.649   0.721
10669SOL    HW132906   6.041   6.698   0.636
10669SOL    HW232907   6.110   6.566   0.703
10670SOL     OW32908   4.962   4.300   5.622
10670SOL    HW132909   4.885   4.236   5.625
10670SOL    HW232910   5.001   4.300   5.530
10671SOL     OW32911   2.432   2.663   2.417
10671SOL    HW132912   2.429   2.598   2.342
10671SOL    HW232913   2.439   2.756   2.380
10672SOL     OW32914   0.013   2.609   0.591
10672SOL    HW132915   0.085   2.558   0.638
10672SOL    HW232916   7.005   2.690   0.643
10673SOL     OW32917   1.624   2.251   6.151
10673SOL    HW132918   1.555   2.202   6.098
10673SOL    HW232919   1.655   2.193   6.227
10674SOL     OW32920   3.719   3.062   0.529
10674SOL    HW132921   3.740   2.975   0.573
10674SOL    HW232922   3.768   3.068   0.442
10675SOL     OW32923   1.996   0.737   6.307
10675SOL    HW132924   1.932   0.776   6.240
10675SOL    HW232925   1.955   0.740   6.398
10676SOL     OW32926   6.405   6.907   6.445
10676SOL    HW132927   6.365   6.821   6.414
10676SOL    HW232928   6.497   6.916   6.407
10677SOL     OW32929   0.494   0.273   2.154
10677SOL    HW132930   0.406   0.225   2.153
10677SOL    HW232931   0.481   0.368   2.124
10678SOL     OW32932   3.581   5.352   3.231
10678SOL    HW132933   3.530   5.378   3.149
10678SOL    HW232934   3.641   5.275   3.210
10679SOL     OW32935   4.955   4.569   6.046
10679SOL    HW132936   4.927   4.480   6.083
10679SOL    HW232937   4.939   4.571   5.948
10680SOL     OW32938   2.351   2.320   3.934
10680SOL    HW132939   2.320   2.296   4.026
10680SOL    HW232940   2.399   2.407   3.936
10681SOL     OW32941   6.959   3.887   6.335
10681SOL    HW132942   0.016   3.915   6.272
10681SOL    HW232943   6.981   3.919   6.427
10682SOL     OW32944   1.652   1.794   3.221
10682SOL    HW132945   1.674   1.846   3.303
10682SOL    HW232946   1.736   1.778   3.169
10683SOL     OW32947   3.084   1.816   3.704
10683SOL    HW132948   3.001   1.762   3.687
10683SOL    HW232949   3.087   1.892   3.639
10684SOL     OW32950   4.468   3.773   0.236
10684SOL    HW132951   4.472   3.687   0.287
10684SOL    HW232952   4.374   3.805   0.232
10685SOL     OW32953   6.855   4.212   1.929
10685SOL    HW132954   6.833   4.116   1.913
10685SOL    HW232955   6.878   4.225   2.026
10686SOL     OW32956   4.215   5.639   6.363
10686SOL    HW132957   4.173   5.663   6.275
10686SOL    HW232958   4.155   5.576   6.413
10687SOL     OW32959   6.952   5.088   1.844
10687SOL    HW132960   6.935   5.010   1.783
10687SOL    HW232961   0.025   5.077   1.889
10688SOL     OW32962   5.948   4.108   2.605
10688SOL    HW132963   5.953   4.010   2.586
10688SOL    HW232964   5.855   4.133   2.632
10689SOL     OW32965   0.509   0.387   3.124
10689SOL    HW132966   0.421   0.413   3.084
10689SOL    HW232967   0.566   0.468   3.134
10690SOL     OW32968   6.166   5.274   3.772
10690SOL    HW132969   6.210   5.232   3.851
10690SOL    HW232970   6.230   5.279   3.696
10691SOL     OW32971   6.952   1.885   2.132
10691SOL    HW132972   6.974   1.981   2.149
10691SOL    HW232973   0.003   1.847   2.068
10692SOL     OW32974   3.247   5.200   3.474
10692SOL    HW132975   3.271   5.134   3.403
10692SOL    HW232976   3.330   5.248   3.503
10693SOL     OW32977   1.621   0.846   1.850
10693SOL    HW132978   1.532   0.889   1.861
10693SOL    HW232979   1.663   0.878   1.765
10694SOL     OW32980   3.549   6.213   1.189
10694SOL    HW132981   3.470   6.212   1.127
10694SOL    HW232982   3.566   6.120   1.223
10695SOL     OW32983   6.433   2.082   4.023
10695SOL    HW132984   6.523   2.123   4.007
10695SOL    HW232985   6.399   2.043   3.938
10696SOL     OW32986   6.911   5.326   1.664
10696SOL    HW132987   6.909   5.254   1.733
10696SOL    HW232988   6.823   5.375   1.665
10697SOL     OW32989   0.233   6.248   4.121
10697SOL    HW132990   0.298   6.176   4.146
10697SOL    HW232991   0.258   6.333   4.168
10698SOL     OW32992   3.091   6.748   3.959
10698SOL    HW132993   2.998   6.780   3.978
10698SOL    HW232994   3.097   6.722   3.862
10699SOL     OW32995   4.773   1.621   2.730
10699SOL    HW132996   4.819   1.566   2.660
10699SOL    HW232997   4.832   1.631   2.810
10700SOL     OW32998   1.019   0.359   0.704
10700SOL    HW132999   1.059   0.292   0.641
10700SOL    HW233000   0.919   0.355   0.697
10701SOL     OW33001   4.236   6.196   0.233
10701SOL    HW133002   4.175   6.192   0.154
10701SOL    HW233003   4.264   6.290   0.249
10702SOL     OW33004   5.616   2.523   1.861
10702SOL    HW133005   5.617   2.613   1.818
10702SOL    HW233006   5.523   2.488   1.865
10703SOL     OW33007   3.541   2.937   3.783
10703SOL    HW133008   3.592   3.021   3.763
10703SOL    HW233009   3.491   2.908   3.701
10704SOL     OW33010   4.931   6.082   2.183
10704SOL    HW133011   4.942   6.167   2.133
10704SOL    HW233012   4.865   6.095   2.258
10705SOL     OW33013   0.962   3.661   0.162
10705SOL    HW133014   0.995   3.641   0.255
10705SOL    HW233015   1.024   3.621   0.095
10706SOL     OW33016   4.822   0.238   1.617
10706SOL    HW133017   4.842   0.256   1.521
10706SOL    HW233018   4.817   0.325   1.667
10707SOL     OW33019   0.333   6.769   5.035
10707SOL    HW133020   0.281   6.847   5.000
10707SOL    HW233021   0.430   6.782   5.014
10708SOL     OW33022   4.957   1.051   1.621
10708SOL    HW133023   4.992   1.142   1.602
10708SOL    HW233024   4.977   1.026   1.716
10709SOL     OW33025   6.517   0.921   5.355
10709SOL    HW133026   6.511   0.859   5.434
10709SOL    HW233027   6.454   0.997   5.367
10710SOL     OW33028   0.553   6.382   4.826
10710SOL    HW133029   0.453   6.378   4.814
10710SOL    HW233030   0.581   6.477   4.836
10711SOL     OW33031   1.740   0.109   3.993
10711SOL    HW133032   1.775   0.148   3.908
10711SOL    HW233033   1.811   0.053   4.035
10712SOL     OW33034   3.972   1.079   3.866
10712SOL    HW133035   3.879   1.042   3.856
10712SOL    HW233036   3.999   1.077   3.962
10713SOL     OW33037   2.042   5.459   1.618
10713SOL    HW133038   2.019   5.530   1.552
10713SOL    HW233039   1.988   5.471   1.701
10714SOL     OW33040   0.221   4.075   5.151
10714SOL    HW133041   0.189   4.076   5.056
10714SOL    HW233042   0.228   3.981   5.183
10715SOL     OW33043   5.337   0.019   2.928
10715SOL    HW133044   5.375   6.962   2.986
10715SOL    HW233045   5.382   0.106   2.950
10716SOL     OW33046   0.345   1.386   3.724
10716SOL    HW133047   0.397   1.301   3.715
10716SOL    HW233048   0.269   1.385   3.659
10717SOL     OW33049   0.199   1.468   1.314
10717SOL    HW133050   0.219   1.439   1.221
10717SOL    HW233051   0.128   1.539   1.313
10718SOL     OW33052   6.640   4.721   0.571
10718SOL    HW133053   6.567   4.788   0.560
10718SOL    HW233054   6.644   4.662   0.490
10719SOL     OW33055   5.139   6.468   2.227
10719SOL    HW133056   5.121   6.565   2.240
10719SOL    HW233057   5.175   6.428   2.312
10720SOL     OW33058   6.444   3.506   5.972
10720SOL    HW133059   6.375   3.551   5.915
10720SOL    HW233060   6.447   3.548   6.062
10721SOL     OW33061   6.092   2.149   4.098
10721SOL    HW133062   6.171   2.114   4.147
10721SOL    HW233063   6.103   2.132   4.000
10722SOL     OW33064   0.427   3.620   6.904
10722SOL    HW133065   0.334   3.585   6.916
10722SOL    HW233066   0.433   3.714   6.940
10723SOL     OW33067   5.617   3.817   6.732
10723SOL    HW133068   5.520   3.818   6.756
10723SOL    HW233069   5.635   3.740   6.671
10724SOL     OW33070   4.245   6.584   6.080
10724SOL    HW133071   4.276   6.663   6.026
10724SOL    HW233072   4.159   6.607   6.126
10725SOL     OW33073   6.811   5.343   4.517
10725SOL    HW133074   6.817   5.263   4.457
10725SOL    HW233075   6.787   5.423   4.463
10726SOL     OW33076   5.833   0.375   4.700
10726SOL    HW133077   5.795   0.468   4.698
10726SOL    HW233078   5.903   0.370   4.772
10727SOL     OW33079   1.340   5.074   5.439
10727SOL    HW133080   1.388   5.108   5.359
10727SOL    HW233081   1.406   5.052   5.511
10728SOL     OW33082   5.464   6.319   2.996
10728SOL    HW133083   5.432   6.406   3.035
10728SOL    HW233084   5.438   6.314   2.900
10729SOL     OW33085   6.357   1.960   2.450
10729SOL    HW133086   6.429   1.989   2.513
10729SOL    HW233087   6.384   1.875   2.406
10730SOL     OW33088   2.678   6.225   2.269
10730SOL    HW133089   2.717   6.206   2.178
10730SOL    HW233090   2.737   6.184   2.339
10731SOL     OW33091   2.597   5.799   0.864
10731SOL    HW133092   2.567   5.718   0.914
10731SOL    HW233093   2.593   5.878   0.924
10732SOL     OW33094   6.768   0.047   3.147
10732SOL    HW133095   6.868   0.044   3.137
10732SOL    HW233096   6.727   6.991   3.091
10733SOL     OW33097   6.051   2.220   6.785
10733SOL    HW133098   6.150   2.207   6.780
10733SOL    HW233099   6.008   2.187   6.700
10734SOL     OW33100   0.571   0.376   6.308
10734SOL    HW133101   0.518   0.460   6.304
10734SOL    HW233102   0.513   0.298   6.282
10735SOL     OW33103   0.690   5.094   2.363
10735SOL    HW133104   0.597   5.071   2.335
10735SOL    HW233105   0.696   5.191   2.385
10736SOL     OW33106   0.412   0.781   3.276
10736SOL    HW133107   0.350   0.810   3.349
10736SOL    HW233108   0.362   0.776   3.190
10737SOL     OW33109   0.743   1.669   0.905
10737SOL    HW133110   0.747   1.583   0.957
10737SOL    HW233111   0.775   1.744   0.963
10738SOL     OW33112   2.310   0.433   2.750
10738SOL    HW133113   2.268   0.400   2.834
10738SOL    HW233114   2.408   0.415   2.752
10739SOL     OW33115   6.579   2.031   1.884
10739SOL    HW133116   6.525   2.017   1.967
10739SOL    HW233117   6.660   2.086   1.905
10740SOL     OW33118   1.187   6.476   5.685
10740SOL    HW133119   1.095   6.515   5.680
10740SOL    HW233120   1.193   6.413   5.762
10741SOL     OW33121   1.950   1.785   3.405
10741SOL    HW133122   2.014   1.829   3.341
10741SOL    HW233123   1.882   1.852   3.434
10742SOL     OW33124   5.697   6.314   2.392
10742SOL    HW133125   5.788   6.300   2.431
10742SOL    HW233126   5.635   6.243   2.425
10743SOL     OW33127   3.676   1.526   4.867
10743SOL    HW133128   3.683   1.544   4.965
10743SOL    HW233129   3.758   1.477   4.835
10744SOL     OW33130   3.389   1.287   2.040
10744SOL    HW133131   3.297   1.271   2.076
10744SOL    HW233132   3.441   1.202   2.042
10745SOL     OW33133   2.239   4.859   0.670
10745SOL    HW133134   2.235   4.915   0.753
10745SOL    HW233135   2.334   4.844   0.645
10746SOL     OW33136   2.489   5.627   1.444
10746SOL    HW133137   2.414   5.568   1.474
10746SOL    HW233138   2.555   5.574   1.392
10747SOL     OW33139   5.405   1.764   3.428
10747SOL    HW133140   5.392   1.672   3.389
10747SOL    HW233141   5.316   1.810   3.436
10748SOL     OW33142   5.344   5.382   1.131
10748SOL    HW133143   5.312   5.337   1.215
10748SOL    HW233144   5.435   5.348   1.108
10749SOL     OW33145   6.592   4.460   2.914
10749SOL    HW133146   6.588   4.472   3.014
10749SOL    HW233147   6.675   4.409   2.891
10750SOL     OW33148   4.700   4.148   4.509
10750SOL    HW133149   4.631   4.213   4.476
10750SOL    HW233150   4.698   4.145   4.609
10751SOL     OW33151   1.338   2.968   5.112
10751SOL    HW133152   1.408   2.947   5.180
10751SOL    HW233153   1.323   3.067   5.109
10752SOL     OW33154   5.946   4.433   6.818
10752SOL    HW133155   5.902   4.353   6.858
10752SOL    HW233156   6.023   4.461   6.875
10753SOL     OW33157   5.113   0.249   4.001
10753SOL    HW133158   5.167   0.220   3.922
10753SOL    HW233159   5.101   0.349   3.999
10754SOL     OW33160   0.967   2.807   1.990
10754SOL    HW133161   1.014   2.808   1.902
10754SOL    HW233162   0.928   2.897   2.009
10755SOL     OW33163   6.900   2.084   0.598
10755SOL    HW133164   6.912   1.988   0.624
10755SOL    HW233165   6.847   2.089   0.513
10756SOL     OW33166   6.771   2.295   6.937
10756SOL    HW133167   6.820   2.223   6.987
10756SOL    HW233168   6.683   2.259   6.905
10757SOL     OW33169   0.194   3.915   0.473
10757SOL    HW133170   0.130   3.932   0.398
10757SOL    HW233171   0.213   4.002   0.520
10758SOL     OW33172   0.448   5.554   5.937
10758SOL    HW133173   0.397   5.541   5.852
10758SOL    HW233174   0.420   5.640   5.981
10759SOL     OW33175   1.777   3.471   6.015
10759SOL    HW133176   1.704   3.522   5.970
10759SOL    HW233177   1.798   3.514   6.103
10760SOL     OW33178   0.964   5.586   0.768
10760SOL    HW133179   0.979   5.684   0.782
10760SOL    HW233180   0.893   5.554   0.831
10761SOL     OW33181   1.357   2.659   6.215
10761SOL    HW133182   1.435   2.658   6.278
10761SOL    HW233183   1.381   2.713   6.134
10762SOL     OW33184   4.902   0.917   6.005
10762SOL    HW133185   4.921   0.920   6.103
10762SOL    HW233186   4.804   0.902   5.990
10763SOL     OW33187   5.153   0.300   1.636
10763SOL    HW133188   5.112   0.361   1.568
10763SOL    HW233189   5.120   0.325   1.727
10764SOL     OW33190   5.332   1.181   5.630
10764SOL    HW133191   5.421   1.215   5.599
10764SOL    HW233192   5.338   1.082   5.647
10765SOL     OW33193   5.603   1.605   2.446
10765SOL    HW133194   5.672   1.653   2.501
10765SOL    HW233195   5.596   1.511   2.477
10766SOL     OW33196   2.149   4.319   0.320
10766SOL    HW133197   2.057   4.288   0.295
10766SOL    HW233198   2.184   4.261   0.393
10767SOL     OW33199   2.103   6.218   0.806
10767SOL    HW133200   2.024   6.256   0.758
10767SOL    HW233201   2.171   6.187   0.740
10768SOL     OW33202   5.339   5.570   0.430
10768SOL    HW133203   5.431   5.539   0.405
10768SOL    HW233204   5.341   5.669   0.444
10769SOL     OW33205   2.802   4.377   5.352
10769SOL    HW133206   2.830   4.456   5.298
10769SOL    HW233207   2.740   4.319   5.298
10770SOL     OW33208   5.432   0.417   4.739
10770SOL    HW133209   5.418   0.407   4.838
10770SOL    HW233210   5.421   0.329   4.694
10771SOL     OW33211   4.447   0.395   5.348
10771SOL    HW133212   4.396   0.323   5.395
10771SOL    HW233213   4.489   0.456   5.416
10772SOL     OW33214   6.823   6.219   3.967
10772SOL    HW133215   6.878   6.302   3.957
10772SOL    HW233216   6.729   6.244   3.989
10773SOL     OW33217   6.906   4.225   6.778
10773SOL    HW133218   6.973   4.219   6.852
10773SOL    HW233219   6.849   4.306   6.791
10774SOL     OW33220   1.882   2.430   1.576
10774SOL    HW133221   1.958   2.486   1.608
10774SOL    HW233222   1.846   2.467   1.490
10775SOL     OW33223   2.087   4.533   1.604
10775SOL    HW133224   2.130   4.535   1.514
10775SOL    HW233225   2.070   4.627   1.635
10776SOL     OW33226   0.331   6.635   2.258
10776SOL    HW133227   0.353   6.664   2.165
10776SOL    HW233228   0.412   6.645   2.316
10777SOL     OW33229   4.144   0.462   3.309
10777SOL    HW133230   4.227   0.517   3.319
10777SOL    HW233231   4.115   0.430   3.400
10778SOL     OW33232   6.128   6.022   4.726
10778SOL    HW133233   6.089   6.077   4.800
10778SOL    HW233234   6.208   6.068   4.688
10779SOL     OW33235   6.376   4.334   2.540
10779SOL    HW133236   6.405   4.247   2.501
10779SOL    HW233237   6.455   4.395   2.549
10780SOL     OW33238   0.064   5.326   4.304
10780SOL    HW133239   0.073   5.317   4.403
10780SOL    HW233240   0.154   5.318   4.262
10781SOL     OW33241   5.173   0.830   4.322
10781SOL    HW133242   5.124   0.744   4.309
10781SOL    HW233243   5.272   0.813   4.313
10782SOL     OW33244   6.095   3.047   4.304
10782SOL    HW133245   6.126   3.057   4.209
10782SOL    HW233246   6.122   3.127   4.357
10783SOL     OW33247   2.181   3.128   2.438
10783SOL    HW133248   2.217   3.045   2.396
10783SOL    HW233249   2.155   3.193   2.367
10784SOL     OW33250   2.577   6.524   2.184
10784SOL    HW133251   2.676   6.511   2.171
10784SOL    HW233252   2.546   6.471   2.263
10785SOL     OW33253   1.637   5.546   1.346
10785SOL    HW133254   1.566   5.613   1.322
10785SOL    HW233255   1.615   5.505   1.435
10786SOL     OW33256   4.326   2.069   2.440
10786SOL    HW133257   4.411   2.029   2.405
10786SOL    HW233258   4.328   2.068   2.540
10787SOL     OW33259   3.194   1.296   3.988
10787SOL    HW133260   3.153   1.239   3.916
10787SOL    HW233261   3.276   1.341   3.952
10788SOL     OW33262   1.924   3.971   0.226
10788SOL    HW133263   1.853   3.913   0.265
10788SOL    HW233264   1.948   3.938   0.134
10789SOL     OW33265   6.641   1.129   0.533
10789SOL    HW133266   6.716   1.178   0.577
10789SOL    HW233267   6.559   1.137   0.589
10790SOL     OW33268   6.554   1.077   5.792
10790SOL    HW133269   6.636   1.123   5.758
10790SOL    HW233270   6.473   1.117   5.750
10791SOL     OW33271   2.000   1.918   1.881
10791SOL    HW133272   2.072   1.987   1.891
10791SOL    HW233273   2.039   1.827   1.896
10792SOL     OW33274   3.595   2.807   1.113
10792SOL    HW133275   3.666   2.873   1.088
10792SOL    HW233276   3.583   2.807   1.212
10793SOL     OW33277   5.211   2.114   4.324
10793SOL    HW133278   5.155   2.044   4.281
10793SOL    HW233279   5.169   2.204   4.309
10794SOL     OW33280   4.030   3.927   1.877
10794SOL    HW133281   4.040   3.858   1.949
10794SOL    HW233282   3.945   3.978   1.891
10795SOL     OW33283   6.624   3.861   2.398
10795SOL    HW133284   6.691   3.797   2.360
10795SOL    HW233285   6.596   3.831   2.489
10796SOL     OW33286   4.286   6.949   6.205
10796SOL    HW133287   4.342   0.007   6.243
10796SOL    HW233288   4.230   6.908   6.277
10797SOL     OW33289   3.772   2.483   6.883
10797SOL    HW133290   3.773   2.383   6.891
10797SOL    HW233291   3.717   2.522   6.957
10798SOL     OW33292   2.357   0.156   6.752
10798SOL    HW133293   2.449   0.156   6.714
10798SOL    HW233294   2.322   0.250   6.756
10799SOL     OW33295   3.689   2.074   2.447
10799SOL    HW133296   3.631   2.047   2.370
10799SOL    HW233297   3.631   2.110   2.521
10800SOL     OW33298   2.475   6.774   0.901
10800SOL    HW133299   2.408   6.848   0.911
10800SOL    HW233300   2.436   6.689   0.937
10801SOL     OW33301   1.998   6.183   5.427
10801SOL    HW133302   2.011   6.176   5.525
10801SOL    HW233303   1.978   6.093   5.389
10802SOL     OW33304   2.138   3.352   3.698
10802SOL    HW133305   2.131   3.398   3.610
10802SOL    HW233306   2.109   3.257   3.689
10803SOL     OW33307   5.376   4.745   5.493
10803SOL    HW133308   5.460   4.799   5.499
10803SOL    HW233309   5.305   4.789   5.548
10804SOL     OW33310   6.860   3.728   0.525
10804SOL    HW133311   6.853   3.802   0.592
10804SOL    HW233312   6.914   3.654   0.564
10805SOL     OW33313   3.492   6.781   6.805
10805SOL    HW133314   3.427   6.717   6.764
10805SOL    HW233315   3.447   6.833   6.877
10806SOL     OW33316   6.063   4.044   0.259
10806SOL    HW133317   6.026   3.959   0.297
10806SOL    HW233318   6.158   4.030   0.231
10807SOL     OW33319   3.178   6.728   3.470
10807SOL    HW133320   3.242   6.683   3.533
10807SOL    HW233321   3.156   6.666   3.395
10808SOL     OW33322   0.510   3.879   6.918
10808SOL    HW133323   0.542   3.970   6.890
10808SOL    HW233324   0.511   3.873   0.003
10809SOL     OW33325   2.759   0.970   4.445
10809SOL    HW133326   2.814   0.977   4.528
10809SOL    HW233327   2.802   1.023   4.372
10810SOL     OW33328   0.272   1.372   5.844
10810SOL    HW133329   0.307   1.290   5.889
10810SOL    HW233330   0.204   1.416   5.903
10811SOL     OW33331   3.970   5.221   5.782
10811SOL    HW133332   3.888   5.276   5.770
10811SOL    HW233333   3.945   5.124   5.785
10812SOL     OW33334   0.381   2.553   2.565
10812SOL    HW133335   0.476   2.577   2.587
10812SOL    HW233336   0.379   2.497   2.483
10813SOL     OW33337   3.206   6.082   1.469
10813SOL    HW133338   3.148   6.004   1.494
10813SOL    HW233339   3.149   6.154   1.429
10814SOL     OW33340   1.733   0.177   5.806
10814SOL    HW133341   1.827   0.161   5.776
10814SOL    HW233342   1.713   0.119   5.885
10815SOL     OW33343   4.769   4.756   3.088
10815SOL    HW133344   4.787   4.731   2.993
10815SOL    HW233345   4.843   4.815   3.121
10816SOL     OW33346   1.417   1.693   2.223
10816SOL    HW133347   1.354   1.642   2.282
10816SOL    HW233348   1.369   1.719   2.139
10817SOL     OW33349   5.436   6.833   3.082
10817SOL    HW133350   5.511   6.807   3.021
10817SOL    HW233351   5.385   6.751   3.109
10818SOL     OW33352   5.677   2.932   6.270
10818SOL    HW133353   5.596   2.873   6.269
10818SOL    HW233354   5.649   3.027   6.265
10819SOL     OW33355   0.979   3.721   6.593
10819SOL    HW133356   0.884   3.723   6.561
10819SOL    HW233357   1.041   3.739   6.516
10820SOL     OW33358   0.058   6.885   3.918
10820SOL    HW133359   0.144   6.844   3.948
10820SOL    HW233360   0.011   6.823   3.855
10821SOL     OW33361   0.036   6.056   2.339
10821SOL    HW133362   0.034   6.028   2.435
10821SOL    HW233363   6.966   6.102   2.315
10822SOL     OW33364   1.556   3.513   2.284
10822SOL    HW133365   1.561   3.446   2.359
10822SOL    HW233366   1.460   3.532   2.263
10823SOL     OW33367   2.113   6.118   1.447
10823SOL    HW133368   2.052   6.156   1.377
10823SOL    HW233369   2.059   6.096   1.528
10824SOL     OW33370   5.301   6.722   3.457
10824SOL    HW133371   5.249   6.727   3.541
10824SOL    HW233372   5.262   6.784   3.389
10825SOL     OW33373   2.245   1.464   1.047
10825SOL    HW133374   2.192   1.497   1.126
10825SOL    HW233375   2.200   1.493   0.963
10826SOL     OW33376   6.765   3.693   2.187
10826SOL    HW133377   6.723   3.613   2.145
10826SOL    HW233378   6.750   3.773   2.129
10827SOL     OW33379   6.185   3.419   3.945
10827SOL    HW133380   6.139   3.358   3.880
10827SOL    HW233381   6.244   3.483   3.895
10828SOL     OW33382   0.874   6.075   1.630
10828SOL    HW133383   0.822   6.096   1.713
10828SOL    HW233384   0.849   6.140   1.558
10829SOL     OW33385   2.267   3.236   1.282
10829SOL    HW133386   2.356   3.213   1.321
10829SOL    HW233387   2.219   3.299   1.344
10830SOL     OW33388   5.951   2.589   4.463
10830SOL    HW133389   6.012   2.529   4.410
10830SOL    HW233390   5.967   2.684   4.437
10831SOL     OW33391   5.388   0.207   1.722
10831SOL    HW133392   5.307   0.241   1.673
10831SOL    HW233393   5.411   0.116   1.689
10832SOL     OW33394   0.574   1.952   0.780
10832SOL    HW133395   0.632   2.033   0.767
10832SOL    HW233396   0.609   1.877   0.723
10833SOL     OW33397   1.996   0.202   3.635
10833SOL    HW133398   1.984   0.286   3.687
10833SOL    HW233399   1.911   0.150   3.635
10834SOL     OW33400   0.304   1.633   5.136
10834SOL    HW133401   0.245   1.628   5.056
10834SOL    HW233402   0.277   1.710   5.194
10835SOL     OW33403   6.831   1.767   1.895
10835SOL    HW133404   6.841   1.850   1.841
10835SOL    HW233405   6.734   1.746   1.907
10836SOL     OW33406   7.000   1.722   5.171
10836SOL    HW133407   6.900   1.732   5.163
10836SOL    HW233408   0.025   1.810   5.194
10837SOL     OW33409   6.958   4.561   0.408
10837SOL    HW133410   0.009   4.487   0.423
10837SOL    HW233411   6.996   4.646   0.443
10838SOL     OW33412   5.411   0.271   5.745
10838SOL    HW133413   5.409   0.367   5.717
10838SOL    HW233414   5.498   0.231   5.720
10839SOL     OW33415   2.798   2.219   0.154
10839SOL    HW133416   2.820   2.247   0.248
10839SOL    HW233417   2.738   2.287   0.112
10840SOL     OW33418   3.711   5.910   1.485
10840SOL    HW133419   3.770   5.915   1.565
10840SOL    HW233420   3.746   5.970   1.414
10841SOL     OW33421   3.628   6.039   5.608
10841SOL    HW133422   3.628   6.124   5.556
10841SOL    HW233423   3.561   6.045   5.682
10842SOL     OW33424   6.441   2.859   1.104
10842SOL    HW133425   6.453   2.885   1.200
10842SOL    HW233426   6.480   2.931   1.046
10843SOL     OW33427   0.994   1.901   1.670
10843SOL    HW133428   1.068   1.857   1.619
10843SOL    HW233429   1.032   1.964   1.737
10844SOL     OW33430   6.533   6.372   4.318
10844SOL    HW133431   6.620   6.338   4.282
10844SOL    HW233432   6.529   6.356   4.417
10845SOL     OW33433   1.286   1.186   1.546
10845SOL    HW133434   1.197   1.162   1.586
10845SOL    HW233435   1.338   1.102   1.529
10846SOL     OW33436   4.906   1.729   0.477
10846SOL    HW133437   4.877   1.813   0.432
10846SOL    HW233438   4.907   1.742   0.576
10847SOL     OW33439   2.621   1.846   6.169
10847SOL    HW133440   2.710   1.824   6.207
10847SOL    HW233441   2.549   1.815   6.232
10848SOL     OW33442   2.636   1.876   6.742
10848SOL    HW133443   2.654   1.803   6.808
10848SOL    HW233444   2.588   1.951   6.788
10849SOL     OW33445   3.716   5.035   3.764
10849SOL    HW133446   3.783   4.964   3.781
10849SOL    HW233447   3.630   5.013   3.810
10850SOL     OW33448   3.897   6.801   6.929
10850SOL    HW133449   3.953   6.872   6.971
10850SOL    HW233450   3.801   6.829   6.931
10851SOL     OW33451   3.162   3.141   5.900
10851SOL    HW133452   3.127   3.235   5.895
10851SOL    HW233453   3.133   3.100   5.987
10852SOL     OW33454   0.293   0.948   6.623
10852SOL    HW133455   0.356   0.876   6.653
10852SOL    HW233456   0.237   0.915   6.547
10853SOL     OW33457   3.526   2.116   4.320
10853SOL    HW133458   3.543   2.165   4.406
10853SOL    HW233459   3.428   2.103   4.309
10854SOL     OW33460   5.720   0.214   6.709
10854SOL    HW133461   5.752   0.132   6.757
10854SOL    HW233462   5.621   0.220   6.718
10855SOL     OW33463   2.810   6.043   2.434
10855SOL    HW133464   2.771   6.080   2.518
10855SOL    HW233465   2.909   6.030   2.447
10856SOL     OW33466   6.015   6.990   0.870
10856SOL    HW133467   5.982   0.069   0.866
10856SOL    HW233468   6.073   6.979   0.950
10857SOL     OW33469   6.353   2.710   2.984
10857SOL    HW133470   6.365   2.746   3.076
10857SOL    HW233471   6.284   2.764   2.935
10858SOL     OW33472   1.812   3.037   0.060
10858SOL    HW133473   1.769   2.950   0.038
10858SOL    HW233474   1.857   3.032   0.149
10859SOL     OW33475   1.563   3.437   3.010
10859SOL    HW133476   1.557   3.356   3.069
10859SOL    HW233477   1.481   3.493   3.020
10860SOL     OW33478   6.564   1.028   0.110
10860SOL    HW133479   6.518   1.087   0.177
10860SOL    HW233480   6.621   1.083   0.049
10861SOL     OW33481   3.868   2.689   1.694
10861SOL    HW133482   3.860   2.715   1.791
10861SOL    HW233483   3.856   2.770   1.637
10862SOL     OW33484   2.701   2.213   6.475
10862SOL    HW133485   2.778   2.229   6.412
10862SOL    HW233486   2.615   2.214   6.424
10863SOL     OW33487   2.754   0.435   2.980
10863SOL    HW133488   2.748   0.534   2.991
10863SOL    HW233489   2.793   0.414   2.891
10864SOL     OW33490   2.379   4.808   1.435
10864SOL    HW133491   2.390   4.709   1.433
10864SOL    HW233492   2.312   4.836   1.366
10865SOL     OW33493   5.565   3.165   3.732
10865SOL    HW133494   5.534   3.260   3.737
10865SOL    HW233495   5.561   3.123   3.823
10866SOL     OW33496   5.957   3.045   1.117
10866SOL    HW133497   5.938   3.113   1.188
10866SOL    HW233498   5.961   2.954   1.159
10867SOL     OW33499   2.655   2.824   0.235
10867SOL    HW133500   2.623   2.756   0.170
10867SOL    HW233501   2.707   2.779   0.308
10868SOL     OW33502   1.008   2.078   3.215
10868SOL    HW133503   1.006   2.150   3.285
10868SOL    HW233504   1.087   2.018   3.232
10869NA      NA33505   0.793   1.796   6.059
10870NA      NA33506   4.526   4.573   5.126
10871NA      NA33507   1.983   4.825   2.743
10872NA      NA33508   5.232   4.403   3.813
10873NA      NA33509   4.384   2.485   5.231
10874NA      NA33510   3.032   4.948   1.500
10875NA      NA33511   1.128   4.748   0.228
10876NA      NA33512   4.040   4.270   1.571
10877NA      NA33513   4.629   3.959   0.883
10878NA      NA33514   3.511   1.156   5.588
10879NA      NA33515   5.013   5.872   2.125
10880NA      NA33516   1.576   0.254   5.658
10881NA      NA33517   5.175   5.151   1.894
10882NA      NA33518   3.307   3.214   0.300
   7.01547   7.01547   7.01547
