Generated by trjconv : CNT in water t= 482.00000
33518
    1C        C    1   2.846   2.772   4.749
    1C        C    2   2.905   2.724   4.868
    1C        C    3   2.847   2.777   4.984
    1C        C    4   2.852   2.778   4.260
    1C        C    5   2.904   2.731   4.383
    1C        C    6   2.850   2.778   4.504
    1C        C    7   3.015   2.646   4.627
    1C        C    8   2.897   2.724   4.626
    1C        C    9   3.081   2.606   4.745
    1C        C   10   3.018   2.639   4.867
    1C        C   11   3.180   2.495   4.975
    1C        C   12   3.062   2.569   4.980
    1C        C   13   2.853   2.777   3.773
    1C        C   14   2.903   2.723   3.894
    1C        C   15   2.852   2.774   4.015
    1C        C   16   3.023   2.652   4.139
    1C        C   17   2.907   2.731   4.138
    1C        C   18   3.085   2.619   4.262
    1C        C   19   3.018   2.647   4.383
    1C        C   20   3.210   2.559   4.505
    1C        C   21   3.081   2.615   4.505
    1C        C   22   3.281   2.542   4.626
    1C        C   23   3.212   2.552   4.748
    1C        C   24   3.416   2.485   4.866
    1C        C   25   3.274   2.503   4.867
    1C        C   26   3.492   2.478   4.983
    1C        C   27   2.851   2.767   3.283
    1C        C   28   2.903   2.722   3.407
    1C        C   29   2.853   2.773   3.529
    1C        C   30   3.022   2.646   3.650
    1C        C   31   2.909   2.731   3.651
    1C        C   32   3.080   2.608   3.773
    1C        C   33   3.020   2.644   3.896
    1C        C   34   3.214   2.556   4.017
    1C        C   35   3.083   2.611   4.018
    1C        C   36   3.280   2.537   4.140
    1C        C   37   3.216   2.566   4.262
    1C        C   38   3.420   2.514   4.383
    1C        C   39   3.281   2.539   4.384
    1C        C   40   3.491   2.510   4.505
    1C        C   41   3.421   2.518   4.628
    1C        C   42   3.634   2.490   4.747
    1C        C   43   3.492   2.486   4.746
    1C        C   44   3.709   2.492   4.866
    1C        C   45   3.631   2.481   4.982
    1C        C   46   2.838   2.755   2.793
    1C        C   47   2.896   2.714   2.915
    1C        C   48   2.847   2.765   3.038
    1C        C   49   3.016   2.637   3.164
    1C        C   50   2.900   2.718   3.160
    1C        C   51   3.080   2.605   3.285
    1C        C   52   3.019   2.641   3.408
    1C        C   53   3.214   2.555   3.529
    1C        C   54   3.083   2.608   3.529
    1C        C   55   3.279   2.530   3.652
    1C        C   56   3.210   2.553   3.773
    1C        C   57   3.421   2.514   3.896
    1C        C   58   3.282   2.537   3.894
    1C        C   59   3.490   2.505   4.019
    1C        C   60   3.419   2.511   4.141
    1C        C   61   3.634   2.504   4.260
    1C        C   62   3.492   2.506   4.262
    1C        C   63   3.704   2.503   4.383
    1C        C   64   3.632   2.507   4.504
    1C        C   65   3.839   2.551   4.626
    1C        C   66   3.704   2.510   4.626
    1C        C   67   3.913   2.559   4.746
    1C        C   68   3.846   2.525   4.865
    1C        C   69   4.056   2.583   4.979
    1C        C   70   3.926   2.530   4.980
    1C        C   71   2.823   2.734   2.308
    1C        C   72   2.887   2.699   2.429
    1C        C   73   2.833   2.749   2.551
    1C        C   74   3.012   2.633   2.672
    1C        C   75   2.891   2.705   2.672
    1C        C   76   3.075   2.601   2.795
    1C        C   77   3.015   2.637   2.917
    1C        C   78   3.208   2.553   3.037
    1C        C   79   3.076   2.604   3.040
    1C        C   80   3.277   2.537   3.159
    1C        C   81   3.211   2.552   3.283
    1C        C   82   3.418   2.505   3.405
    1C        C   83   3.279   2.532   3.405
    1C        C   84   3.488   2.496   3.528
    1C        C   85   3.417   2.500   3.650
    1C        C   86   3.629   2.503   3.772
    1C        C   87   3.488   2.501   3.772
    1C        C   88   3.701   2.512   3.893
    1C        C   89   3.632   2.508   4.016
    1C        C   90   3.840   2.549   4.138
    1C        C   91   3.703   2.516   4.138
    1C        C   92   3.906   2.572   4.261
    1C        C   93   3.839   2.544   4.382
    1C        C   94   4.033   2.635   4.502
    1C        C   95   3.907   2.571   4.504
    1C        C   96   4.096   2.674   4.622
    1C        C   97   4.036   2.630   4.742
    1C        C   98   4.193   2.768   4.864
    1C        C   99   4.101   2.658   4.865
    1C        C  100   4.217   2.843   4.979
    1C        C  101   2.828   2.735   2.071
    1C        C  102   2.993   2.593   2.189
    1C        C  103   2.883   2.685   2.189
    1C        C  104   3.063   2.569   2.310
    1C        C  105   3.004   2.620   2.428
    1C        C  106   3.201   2.539   2.552
    1C        C  107   3.070   2.593   2.550
    1C        C  108   3.273   2.522   2.672
    1C        C  109   3.204   2.544   2.794
    1C        C  110   3.414   2.503   2.917
    1C        C  111   3.274   2.525   2.915
    1C        C  112   3.486   2.503   3.038
    1C        C  113   3.417   2.516   3.161
    1C        C  114   3.629   2.502   3.283
    1C        C  115   3.487   2.501   3.282
    1C        C  116   3.698   2.509   3.406
    1C        C  117   3.629   2.500   3.529
    1C        C  118   3.838   2.542   3.648
    1C        C  119   3.700   2.513   3.650
    1C        C  120   3.904   2.568   3.770
    1C        C  121   3.839   2.545   3.894
    1C        C  122   4.033   2.634   4.014
    1C        C  123   3.907   2.570   4.015
    1C        C  124   4.095   2.670   4.136
    1C        C  125   4.034   2.633   4.258
    1C        C  126   4.203   2.762   4.380
    1C        C  127   4.091   2.676   4.380
    1C        C  128   4.255   2.815   4.500
    1C        C  129   4.203   2.766   4.621
    1C        C  130   4.332   2.934   4.741
    1C        C  131   4.251   2.817   4.744
    1C        C  132   4.352   3.009   4.859
    1C        C  133   4.288   2.963   4.974
    1C        C  134   3.175   2.468   2.082
    1C        C  135   3.041   2.509   2.084
    1C        C  136   3.262   2.482   2.192
    1C        C  137   3.198   2.525   2.310
    1C        C  138   3.408   2.489   2.429
    1C        C  139   3.269   2.511   2.432
    1C        C  140   3.480   2.485   2.551
    1C        C  141   3.412   2.498   2.674
    1C        C  142   3.626   2.490   2.795
    1C        C  143   3.484   2.492   2.795
    1C        C  144   3.698   2.501   2.916
    1C        C  145   3.627   2.495   3.037
    1C        C  146   3.835   2.538   3.156
    1C        C  147   3.698   2.504   3.159
    1C        C  148   3.900   2.567   3.278
    1C        C  149   3.835   2.543   3.401
    1C        C  150   4.029   2.627   3.522
    1C        C  151   3.902   2.563   3.524
    1C        C  152   4.088   2.666   3.644
    1C        C  153   4.027   2.636   3.768
    1C        C  154   4.199   2.760   3.890
    1C        C  155   4.088   2.673   3.890
    1C        C  156   4.251   2.809   4.012
    1C        C  157   4.203   2.760   4.135
    1C        C  158   4.342   2.921   4.255
    1C        C  159   4.256   2.809   4.257
    1C        C  160   4.378   2.987   4.375
    1C        C  161   4.339   2.929   4.498
    1C        C  162   4.443   3.115   4.618
    1C        C  163   4.376   2.991   4.619
    1C        C  164   4.465   3.186   4.738
    1C        C  165   4.434   3.124   4.861
    1C        C  166   4.518   3.321   4.975
    1C        C  167   4.480   3.187   4.977
    1C        C  168   3.478   2.438   2.074
    1C        C  169   3.401   2.460   2.189
    1C        C  170   3.618   2.469   2.308
    1C        C  171   3.476   2.462   2.308
    1C        C  172   3.693   2.486   2.427
    1C        C  173   3.621   2.487   2.548
    1C        C  174   3.830   2.532   2.669
    1C        C  175   3.692   2.501   2.670
    1C        C  176   3.903   2.550   2.788
    1C        C  177   3.834   2.537   2.911
    1C        C  178   4.029   2.620   3.031
    1C        C  179   3.901   2.561   3.033
    1C        C  180   4.090   2.658   3.153
    1C        C  181   4.027   2.629   3.276
    1C        C  182   4.199   2.751   3.398
    1C        C  183   4.087   2.665   3.399
    1C        C  184   4.253   2.798   3.520
    1C        C  185   4.201   2.751   3.643
    1C        C  186   4.340   2.912   3.764
    1C        C  187   4.249   2.803   3.765
    1C        C  188   4.377   2.973   3.886
    1C        C  189   4.342   2.918   4.011
    1C        C  190   4.448   3.103   4.129
    1C        C  191   4.384   2.977   4.132
    1C        C  192   4.470   3.174   4.250
    1C        C  193   4.442   3.112   4.374
    1C        C  194   4.507   3.316   4.493
    1C        C  195   4.467   3.180   4.495
    1C        C  196   4.524   3.389   4.612
    1C        C  197   4.508   3.322   4.736
    1C        C  198   4.553   3.534   4.851
    1C        C  199   4.539   3.392   4.856
    1C        C  200   4.584   3.620   4.961
    1C        C  201   3.617   2.419   2.073
    1C        C  202   3.826   2.513   2.184
    1C        C  203   3.692   2.465   2.187
    1C        C  204   3.898   2.540   2.304
    1C        C  205   3.829   2.523   2.426
    1C        C  206   4.024   2.615   2.542
    1C        C  207   3.896   2.556   2.546
    1C        C  208   4.087   2.651   2.663
    1C        C  209   4.028   2.616   2.786
    1C        C  210   4.200   2.742   2.909
    1C        C  211   4.089   2.654   2.908
    1C        C  212   4.251   2.796   3.029
    1C        C  213   4.202   2.744   3.151
    1C        C  214   4.335   2.906   3.272
    1C        C  215   4.253   2.791   3.274
    1C        C  216   4.370   2.968   3.394
    1C        C  217   4.341   2.908   3.519
    1C        C  218   4.435   3.098   3.641
    1C        C  219   4.380   2.968   3.641
    1C        C  220   4.458   3.169   3.762
    1C        C  221   4.437   3.101   3.884
    1C        C  222   4.502   3.304   4.003
    1C        C  223   4.469   3.167   4.005
    1C        C  224   4.516   3.377   4.123
    1C        C  225   4.509   3.310   4.247
    1C        C  226   4.512   3.523   4.366
    1C        C  227   4.519   3.382   4.368
    1C        C  228   4.520   3.598   4.486
    1C        C  229   4.532   3.530   4.609
    1C        C  230   4.497   3.741   4.725
    1C        C  231   4.536   3.604   4.729
    1C        C  232   4.493   3.817   4.844
    1C        C  233   4.550   3.756   4.956
    1C        C  234   4.017   2.610   2.065
    1C        C  235   3.899   2.536   2.067
    1C        C  236   4.088   2.645   2.181
    1C        C  237   4.025   2.604   2.300
    1C        C  238   4.203   2.730   2.419
    1C        C  239   4.084   2.651   2.419
    1C        C  240   4.256   2.779   2.540
    1C        C  241   4.197   2.740   2.662
    1C        C  242   4.333   2.901   2.785
    1C        C  243   4.247   2.789   2.785
    1C        C  244   4.377   2.960   2.905
    1C        C  245   4.341   2.905   3.030
    1C        C  246   4.441   3.093   3.150
    1C        C  247   4.379   2.966   3.152
    1C        C  248   4.459   3.159   3.273
    1C        C  249   4.435   3.093   3.395
    1C        C  250   4.489   3.299   3.515
    1C        C  251   4.459   3.161   3.517
    1C        C  252   4.501   3.372   3.635
    1C        C  253   4.487   3.307   3.760
    1C        C  254   4.514   3.518   3.879
    1C        C  255   4.504   3.377   3.882
    1C        C  256   4.508   3.589   4.000
    1C        C  257   4.513   3.518   4.123
    1C        C  258   4.489   3.732   4.242
    1C        C  259   4.510   3.592   4.243
    1C        C  260   4.470   3.804   4.362
    1C        C  261   4.488   3.735   4.484
    1C        C  262   4.422   3.941   4.606
    1C        C  263   4.474   3.810   4.603
    1C        C  264   4.402   4.014   4.725
    1C        C  265   4.436   3.946   4.844
    1C        C  266   4.323   4.134   4.959
    1C        C  267   4.397   4.016   4.958
    1C        C  268   4.259   2.779   2.059
    1C        C  269   4.199   2.732   2.177
    1C        C  270   4.349   2.886   2.300
    1C        C  271   4.257   2.777   2.298
    1C        C  272   4.394   2.942   2.421
    1C        C  273   4.349   2.885   2.542
    1C        C  274   4.445   3.079   2.659
    1C        C  275   4.380   2.953   2.662
    1C        C  276   4.468   3.150   2.780
    1C        C  277   4.442   3.086   2.903
    1C        C  278   4.496   3.291   3.025
    1C        C  279   4.470   3.152   3.025
    1C        C  280   4.500   3.363   3.147
    1C        C  281   4.489   3.298   3.271
    1C        C  282   4.511   3.510   3.389
    1C        C  283   4.502   3.369   3.393
    1C        C  284   4.507   3.581   3.511
    1C        C  285   4.505   3.513   3.634
    1C        C  286   4.485   3.726   3.753
    1C        C  287   4.507   3.586   3.755
    1C        C  288   4.470   3.795   3.875
    1C        C  289   4.487   3.729   3.998
    1C        C  290   4.431   3.935   4.117
    1C        C  291   4.475   3.801   4.119
    1C        C  292   4.401   4.002   4.238
    1C        C  293   4.428   3.939   4.362
    1C        C  294   4.330   4.130   4.479
    1C        C  295   4.398   4.006   4.482
    1C        C  296   4.287   4.192   4.599
    1C        C  297   4.332   4.138   4.722
    1C        C  298   4.202   4.315   4.841
    1C        C  299   4.291   4.203   4.841
    1C        C  300   4.167   4.401   4.950
    1C        C  301   4.351   2.883   2.059
    1C        C  302   4.471   3.065   2.179
    1C        C  303   4.394   2.944   2.178
    1C        C  304   4.482   3.139   2.299
    1C        C  305   4.450   3.072   2.419
    1C        C  306   4.501   3.283   2.539
    1C        C  307   4.472   3.145   2.538
    1C        C  308   4.509   3.356   2.660
    1C        C  309   4.496   3.288   2.783
    1C        C  310   4.514   3.502   2.900
    1C        C  311   4.511   3.361   2.903
    1C        C  312   4.508   3.574   3.022
    1C        C  313   4.504   3.504   3.144
    1C        C  314   4.481   3.717   3.265
    1C        C  315   4.501   3.577   3.265
    1C        C  316   4.468   3.788   3.386
    1C        C  317   4.490   3.722   3.509
    1C        C  318   4.432   3.929   3.628
    1C        C  319   4.473   3.794   3.629
    1C        C  320   4.400   3.994   3.749
    1C        C  321   4.426   3.929   3.872
    1C        C  322   4.325   4.116   3.990
    1C        C  323   4.400   3.997   3.994
    1C        C  324   4.285   4.174   4.112
    1C        C  325   4.325   4.120   4.237
    1C        C  326   4.189   4.286   4.353
    1C        C  327   4.287   4.185   4.357
    1C        C  328   4.138   4.340   4.473
    1C        C  329   4.192   4.296   4.596
    1C        C  330   4.032   4.440   4.713
    1C        C  331   4.146   4.355   4.716
    1C        C  332   3.969   4.489   4.830
    1C        C  333   4.050   4.478   4.944
    1C        C  334   4.548   3.271   2.064
    1C        C  335   4.531   3.131   2.067
    1C        C  336   4.533   3.350   2.178
    1C        C  337   4.509   3.279   2.298
    1C        C  338   4.519   3.495   2.413
    1C        C  339   4.515   3.354   2.417
    1C        C  340   4.514   3.567   2.535
    1C        C  341   4.512   3.497   2.657
    1C        C  342   4.489   3.711   2.776
    1C        C  343   4.506   3.571   2.777
    1C        C  344   4.475   3.781   2.897
    1C        C  345   4.488   3.714   3.021
    1C        C  346   4.425   3.919   3.140
    1C        C  347   4.471   3.785   3.142
    1C        C  348   4.394   3.985   3.261
    1C        C  349   4.431   3.925   3.384
    1C        C  350   4.328   4.112   3.503
    1C        C  351   4.406   3.993   3.505
    1C        C  352   4.284   4.172   3.622
    1C        C  353   4.325   4.113   3.744
    1C        C  354   4.184   4.271   3.869
    1C        C  355   4.283   4.171   3.866
    1C        C  356   4.125   4.316   3.989
    1C        C  357   4.184   4.273   4.110
    1C        C  358   4.016   4.406   4.231
    1C        C  359   4.133   4.327   4.230
    1C        C  360   3.956   4.450   4.352
    1C        C  361   4.021   4.419   4.473
    1C        C  362   3.832   4.518   4.593
    1C        C  363   3.962   4.465   4.593
    1C        C  364   3.763   4.552   4.712
    1C        C  365   3.839   4.543   4.831
    1C        C  366   3.629   4.594   4.949
    1C        C  367   3.767   4.577   4.946
    1C        C  368   4.507   3.564   2.054
    1C        C  369   4.522   3.491   2.173
    1C        C  370   4.497   3.707   2.290
    1C        C  371   4.516   3.567   2.292
    1C        C  372   4.480   3.777   2.411
    1C        C  373   4.488   3.706   2.533
    1C        C  374   4.422   3.911   2.649
    1C        C  375   4.473   3.779   2.653
    1C        C  376   4.400   3.976   2.772
    1C        C  377   4.430   3.915   2.896
    1C        C  378   4.322   4.100   3.012
    1C        C  379   4.401   3.983   3.016
    1C        C  380   4.280   4.157   3.134
    1C        C  381   4.319   4.104   3.259
    1C        C  382   4.178   4.263   3.379
    1C        C  383   4.274   4.159   3.382
    1C        C  384   4.128   4.313   3.501
    1C        C  385   4.184   4.273   3.624
    1C        C  386   4.010   4.391   3.743
    1C        C  387   4.130   4.317   3.747
    1C        C  388   3.947   4.430   3.863
    1C        C  389   4.008   4.396   3.986
    1C        C  390   3.821   4.489   4.109
    1C        C  391   3.950   4.432   4.109
    1C        C  392   3.754   4.517   4.230
    1C        C  393   3.823   4.498   4.352
    1C        C  394   3.619   4.553   4.473
    1C        C  395   3.758   4.530   4.473
    1C        C  396   3.549   4.568   4.595
    1C        C  397   3.624   4.573   4.714
    1C        C  398   3.410   4.555   4.837
    1C        C  399   3.549   4.578   4.834
    1C        C  400   3.347   4.516   4.955
    1C        C  401   4.501   3.703   2.054
    1C        C  402   4.453   3.917   2.165
    1C        C  403   4.487   3.781   2.170
    1C        C  404   4.418   3.982   2.286
    1C        C  405   4.442   3.913   2.406
    1C        C  406   4.333   4.099   2.527
    1C        C  407   4.409   3.980   2.526
    1C        C  408   4.285   4.153   2.648
    1C        C  409   4.327   4.097   2.771
    1C        C  410   4.176   4.253   2.888
    1C        C  411   4.279   4.156   2.890
    1C        C  412   4.123   4.298   3.011
    1C        C  413   4.178   4.255   3.134
    1C        C  414   4.007   4.382   3.253
    1C        C  415   4.127   4.308   3.255
    1C        C  416   3.944   4.413   3.376
    1C        C  417   4.007   4.386   3.500
    1C        C  418   3.814   4.474   3.621
    1C        C  419   3.945   4.422   3.621
    1C        C  420   3.746   4.500   3.743
    1C        C  421   3.815   4.479   3.865
    1C        C  422   3.610   4.527   3.987
    1C        C  423   3.749   4.500   3.988
    1C        C  424   3.542   4.535   4.110
    1C        C  425   3.614   4.538   4.232
    1C        C  426   3.403   4.549   4.358
    1C        C  427   3.544   4.554   4.353
    1C        C  428   3.332   4.551   4.480
    1C        C  429   3.408   4.561   4.599
    1C        C  430   3.194   4.521   4.722
    1C        C  431   3.333   4.551   4.718
    1C        C  432   3.126   4.499   4.845
    1C        C  433   3.209   4.494   4.957
    1C        C  434   4.387   4.128   2.050
    1C        C  435   4.445   4.000   2.052
    1C        C  436   4.307   4.164   2.163
    1C        C  437   4.342   4.102   2.287
    1C        C  438   4.183   4.251   2.403
    1C        C  439   4.284   4.152   2.406
    1C        C  440   4.129   4.298   2.524
    1C        C  441   4.183   4.250   2.646
    1C        C  442   4.008   4.379   2.766
    1C        C  443   4.124   4.299   2.765
    1C        C  444   3.945   4.413   2.888
    1C        C  445   4.005   4.376   3.011
    1C        C  446   3.813   4.469   3.130
    1C        C  447   3.944   4.415   3.131
    1C        C  448   3.746   4.484   3.254
    1C        C  449   3.813   4.465   3.376
    1C        C  450   3.610   4.527   3.497
    1C        C  451   3.747   4.494   3.498
    1C        C  452   3.541   4.536   3.620
    1C        C  453   3.608   4.530   3.744
    1C        C  454   3.397   4.547   3.864
    1C        C  455   3.538   4.543   3.866
    1C        C  456   3.329   4.540   3.988
    1C        C  457   3.401   4.538   4.109
    1C        C  458   3.197   4.507   4.236
    1C        C  459   3.336   4.533   4.235
    1C        C  460   3.129   4.488   4.358
    1C        C  461   3.195   4.515   4.480
    1C        C  462   2.997   4.437   4.604
    1C        C  463   3.126   4.495   4.602
    1C        C  464   2.934   4.400   4.725
    1C        C  465   2.993   4.444   4.846
    1C        C  466   2.801   4.339   4.962
    1C        C  467   2.916   4.419   4.964
    1C        C  468   4.126   4.289   2.046
    1C        C  469   4.190   4.246   2.163
    1C        C  470   4.008   4.372   2.280
    1C        C  471   4.131   4.299   2.281
    1C        C  472   3.943   4.403   2.401
    1C        C  473   4.010   4.373   2.522
    1C        C  474   3.814   4.460   2.644
    1C        C  475   3.945   4.408   2.643
    1C        C  476   3.745   4.487   2.764
    1C        C  477   3.815   4.466   2.886
    1C        C  478   3.607   4.513   3.010
    1C        C  479   3.746   4.490   3.007
    1C        C  480   3.537   4.523   3.132
    1C        C  481   3.608   4.515   3.254
    1C        C  482   3.397   4.533   3.378
    1C        C  483   3.538   4.529   3.376
    1C        C  484   3.326   4.530   3.500
    1C        C  485   3.400   4.539   3.621
    1C        C  486   3.190   4.503   3.745
    1C        C  487   3.327   4.537   3.742
    1C        C  488   3.126   4.478   3.868
    1C        C  489   3.191   4.507   3.990
    1C        C  490   3.005   4.417   4.115
    1C        C  491   3.127   4.488   4.115
    1C        C  492   2.947   4.382   4.239
    1C        C  493   3.003   4.425   4.362
    1C        C  494   2.830   4.302   4.483
    1C        C  495   2.940   4.390   4.483
    1C        C  496   2.777   4.257   4.606
    1C        C  497   2.824   4.310   4.728
    1C        C  498   2.668   4.163   4.846
    1C        C  499   2.756   4.274   4.846
    1C        C  500   2.595   4.117   4.956
    1C        C  501   4.001   4.351   2.044
    1C        C  502   3.813   4.459   2.158
    1C        C  503   3.944   4.406   2.159
    1C        C  504   3.743   4.475   2.279
    1C        C  505   3.809   4.448   2.401
    1C        C  506   3.605   4.509   2.521
    1C        C  507   3.743   4.478   2.523
    1C        C  508   3.534   4.514   2.643
    1C        C  509   3.607   4.514   2.764
    1C        C  510   3.396   4.521   2.885
    1C        C  511   3.538   4.522   2.887
    1C        C  512   3.326   4.519   3.008
    1C        C  513   3.395   4.526   3.131
    1C        C  514   3.190   4.492   3.256
    1C        C  515   3.328   4.523   3.255
    1C        C  516   3.124   4.469   3.378
    1C        C  517   3.189   4.497   3.501
    1C        C  518   2.995   4.416   3.625
    1C        C  519   3.121   4.479   3.623
    1C        C  520   2.940   4.376   3.749
    1C        C  521   3.002   4.411   3.871
    1C        C  522   2.833   4.288   3.997
    1C        C  523   2.944   4.376   3.995
    1C        C  524   2.785   4.242   4.121
    1C        C  525   2.836   4.295   4.241
    1C        C  526   2.699   4.132   4.364
    1C        C  527   2.780   4.247   4.362
    1C        C  528   2.655   4.078   4.488
    1C        C  529   2.691   4.145   4.607
    1C        C  530   2.587   3.959   4.731
    1C        C  531   2.645   4.089   4.728
    1C        C  532   2.541   3.900   4.852
    1C        C  533   2.525   3.995   4.958
    1C        C  534   3.620   4.560   2.042
    1C        C  535   3.753   4.514   2.044
    1C        C  536   3.537   4.538   2.156
    1C        C  537   3.604   4.506   2.277
    1C        C  538   3.394   4.524   2.403
    1C        C  539   3.535   4.519   2.399
    1C        C  540   3.320   4.519   2.523
    1C        C  541   3.393   4.520   2.645
    1C        C  542   3.182   4.492   2.767
    1C        C  543   3.321   4.517   2.766
    1C        C  544   3.117   4.468   2.890
    1C        C  545   3.188   4.490   3.011
    1C        C  546   2.997   4.405   3.136
    1C        C  547   3.121   4.473   3.134
    1C        C  548   2.936   4.370   3.259
    1C        C  549   2.994   4.412   3.380
    1C        C  550   2.833   4.279   3.506
    1C        C  551   2.936   4.376   3.503
    1C        C  552   2.780   4.234   3.628
    1C        C  553   2.832   4.286   3.749
    1C        C  554   2.706   4.121   3.875
    1C        C  555   2.787   4.237   3.874
    1C        C  556   2.668   4.063   3.998
    1C        C  557   2.703   4.127   4.120
    1C        C  558   2.606   3.940   4.247
    1C        C  559   2.665   4.068   4.243
    1C        C  560   2.577   3.877   4.370
    1C        C  561   2.594   3.951   4.489
    1C        C  562   2.532   3.750   4.616
    1C        C  563   2.566   3.887   4.611
    1C        C  564   2.518   3.681   4.738
    1C        C  565   2.524   3.758   4.857
    1C        C  566   2.528   3.544   4.977
    1C        C  567   2.526   3.683   4.976
    1C        C  568   3.328   4.479   2.043
    1C        C  569   3.396   4.518   2.159
    1C        C  570   3.186   4.479   2.281
    1C        C  571   3.324   4.514   2.281
    1C        C  572   3.115   4.464   2.402
    1C        C  573   3.182   4.489   2.523
    1C        C  574   2.988   4.407   2.650
    1C        C  575   3.113   4.473   2.645
    1C        C  576   2.927   4.368   2.772
    1C        C  577   2.989   4.410   2.892
    1C        C  578   2.827   4.277   3.014
    1C        C  579   2.933   4.370   3.016
    1C        C  580   2.780   4.225   3.137
    1C        C  581   2.828   4.279   3.258
    1C        C  582   2.700   4.115   3.385
    1C        C  583   2.784   4.229   3.383
    1C        C  584   2.664   4.056   3.509
    1C        C  585   2.697   4.119   3.631
    1C        C  586   2.595   3.937   3.756
    1C        C  587   2.663   4.060   3.754
    1C        C  588   2.574   3.871   3.880
    1C        C  589   2.607   3.936   4.001
    1C        C  590   2.540   3.738   4.127
    1C        C  591   2.583   3.872   4.125
    1C        C  592   2.524   3.670   4.250
    1C        C  593   2.539   3.741   4.372
    1C        C  594   2.507   3.535   4.496
    1C        C  595   2.520   3.676   4.496
    1C        C  596   2.514   3.464   4.618
    1C        C  597   2.516   3.539   4.738
    1C        C  598   2.523   3.326   4.860
    1C        C  599   2.521   3.467   4.860
    1C        C  600   2.535   3.250   4.977
    1C        C  601   3.193   4.448   2.045
    1C        C  602   2.979   4.403   2.161
    1C        C  603   3.115   4.447   2.161
    1C        C  604   2.924   4.363   2.286
    1C        C  605   2.991   4.397   2.406
    1C        C  606   2.822   4.272   2.530
    1C        C  607   2.929   4.364   2.529
    1C        C  608   2.772   4.220   2.652
    1C        C  609   2.821   4.276   2.772
    1C        C  610   2.684   4.115   2.896
    1C        C  611   2.772   4.226   2.894
    1C        C  612   2.654   4.052   3.019
    1C        C  613   2.700   4.108   3.141
    1C        C  614   2.599   3.926   3.267
    1C        C  615   2.664   4.051   3.264
    1C        C  616   2.571   3.864   3.391
    1C        C  617   2.599   3.931   3.513
    1C        C  618   2.533   3.731   3.639
    1C        C  619   2.570   3.868   3.636
    1C        C  620   2.518   3.664   3.762
    1C        C  621   2.537   3.735   3.883
    1C        C  622   2.511   3.526   4.010
    1C        C  623   2.524   3.667   4.006
    1C        C  624   2.511   3.457   4.133
    1C        C  625   2.511   3.530   4.254
    1C        C  626   2.530   3.321   4.376
    1C        C  627   2.506   3.460   4.377
    1C        C  628   2.554   3.254   4.498
    1C        C  629   2.531   3.324   4.619
    1C        C  630   2.593   3.120   4.746
    1C        C  631   2.542   3.253   4.741
    1C        C  632   2.615   3.047   4.866
    1C        C  633   2.566   3.113   4.984
    1C        C  634   2.781   4.305   2.057
    1C        C  635   2.889   4.394   2.051
    1C        C  636   2.750   4.231   2.171
    1C        C  637   2.815   4.272   2.289
    1C        C  638   2.678   4.110   2.409
    1C        C  639   2.764   4.223   2.411
    1C        C  640   2.643   4.049   2.532
    1C        C  641   2.691   4.104   2.653
    1C        C  642   2.588   3.922   2.778
    1C        C  643   2.649   4.050   2.776
    1C        C  644   2.565   3.857   2.901
    1C        C  645   2.597   3.923   3.021
    1C        C  646   2.537   3.723   3.150
    1C        C  647   2.574   3.859   3.145
    1C        C  648   2.524   3.655   3.273
    1C        C  649   2.535   3.728   3.394
    1C        C  650   2.517   3.519   3.518
    1C        C  651   2.524   3.660   3.517
    1C        C  652   2.519   3.451   3.643
    1C        C  653   2.515   3.522   3.765
    1C        C  654   2.531   3.314   3.890
    1C        C  655   2.515   3.454   3.888
    1C        C  656   2.546   3.247   4.014
    1C        C  657   2.528   3.317   4.136
    1C        C  658   2.603   3.117   4.260
    1C        C  659   2.547   3.247   4.257
    1C        C  660   2.632   3.055   4.383
    1C        C  661   2.603   3.122   4.504
    1C        C  662   2.706   2.937   4.626
    1C        C  663   2.628   3.055   4.626
    1C        C  664   2.751   2.878   4.746
    1C        C  665   2.698   2.931   4.867
    1C        C  666   2.747   2.873   4.984
    1C        C  667   2.683   4.024   2.052
    1C        C  668   2.686   4.105   2.166
    1C        C  669   2.596   3.913   2.292
    1C        C  670   2.648   4.045   2.288
    1C        C  671   2.564   3.851   2.415
    1C        C  672   2.582   3.922   2.535
    1C        C  673   2.520   3.719   2.660
    1C        C  674   2.558   3.855   2.657
    1C        C  675   2.513   3.649   2.783
    1C        C  676   2.528   3.720   2.904
    1C        C  677   2.505   3.513   3.029
    1C        C  678   2.523   3.654   3.028
    1C        C  679   2.505   3.442   3.151
    1C        C  680   2.511   3.514   3.273
    1C        C  681   2.530   3.307   3.401
    1C        C  682   2.512   3.447   3.397
    1C        C  683   2.551   3.240   3.524
    1C        C  684   2.536   3.311   3.645
    1C        C  685   2.600   3.112   3.770
    1C        C  686   2.549   3.244   3.768
    1C        C  687   2.639   3.056   3.894
    1C        C  688   2.607   3.120   4.016
    1C        C  689   2.712   2.935   4.138
    1C        C  690   2.640   3.056   4.138
    1C        C  691   2.756   2.882   4.261
    1C        C  692   2.711   2.938   4.383
    1C        C  693   2.754   2.881   4.505
    1C        C  694   2.628   3.895   2.055
    1C        C  695   2.537   3.702   2.177
    1C        C  696   2.585   3.835   2.174
    1C        C  697   2.509   3.638   2.300
    1C        C  698   2.527   3.714   2.417
    1C        C  699   2.505   3.505   2.542
    1C        C  700   2.512   3.646   2.540
    1C        C  701   2.504   3.433   2.664
    1C        C  702   2.506   3.508   2.784
    1C        C  703   2.528   3.301   2.911
    1C        C  704   2.509   3.441   2.908
    1C        C  705   2.543   3.233   3.034
    1C        C  706   2.533   3.304   3.156
    1C        C  707   2.599   3.106   3.277
    1C        C  708   2.548   3.237   3.279
    1C        C  709   2.634   3.046   3.400
    1C        C  710   2.602   3.108   3.523
    1C        C  711   2.711   2.932   3.649
    1C        C  712   2.630   3.048   3.648
    1C        C  713   2.754   2.878   3.772
    1C        C  714   2.716   2.938   3.895
    1C        C  715   2.758   2.880   4.016
    1C        C  716   2.456   3.499   2.066
    1C        C  717   2.490   3.635   2.063
    1C        C  718   2.472   3.421   2.184
    1C        C  719   2.483   3.498   2.303
    1C        C  720   2.512   3.288   2.427
    1C        C  721   2.490   3.428   2.425
    1C        C  722   2.535   3.219   2.548
    1C        C  723   2.521   3.293   2.668
    1C        C  724   2.594   3.096   2.790
    1C        C  725   2.547   3.229   2.791
    1C        C  726   2.621   3.033   2.914
    1C        C  727   2.591   3.100   3.035
    1C        C  728   2.710   2.923   3.159
    1C        C  729   2.630   3.039   3.156
    1C        C  730   2.756   2.871   3.282
    1C        C  731   2.716   2.931   3.404
    1C        C  732   2.755   2.875   3.528
    1C        C  733   2.494   3.200   2.069
    1C        C  734   2.488   3.278   2.185
    1C        C  735   2.581   3.085   2.307
    1C        C  736   2.521   3.214   2.307
    1C        C  737   2.611   3.017   2.427
    1C        C  738   2.580   3.086   2.547
    1C        C  739   2.693   2.908   2.670
    1C        C  740   2.613   3.025   2.670
    1C        C  741   2.736   2.853   2.793
    1C        C  742   2.696   2.913   2.914
    1C        C  743   2.748   2.865   3.036
    1C        C  744   2.549   3.072   2.072
    1C        C  745   2.683   2.897   2.186
    1C        C  746   2.607   3.015   2.187
    1C        C  747   2.725   2.838   2.307
    1C        C  748   2.678   2.892   2.428
    1C        C  749   2.728   2.843   2.550
    1C        C  750   2.738   2.841   2.069
    1C        C  751   3.673   2.314   1.985
    1C        O  752   3.652   2.195   2.021
    1C        O  753   3.661   2.339   1.848
    1C        C  754   4.623   3.063   1.973
    1C        O  755   4.612   3.076   1.848
    1C        O  756   4.752   3.027   2.012
    1C        C  757   4.458   4.233   1.974
    1C        O  758   4.563   4.285   2.020
    1C        O  759   4.424   4.298   1.855
    1C        C  760   3.583   4.656   1.936
    1C        O  761   3.635   4.770   1.921
    1C        O  762   3.547   4.611   1.808
    1C        C  763   2.874   4.509   1.958
    1C        O  764   2.889   4.490   1.835
    1C        O  765   2.783   4.612   1.989
    1C        C  766   2.359   3.463   1.960
    1C        O  767   2.389   3.483   1.839
    1C        O  768   2.226   3.421   1.970
    1C        C  769   4.689   3.583   5.059
    1C        O  770   4.672   3.590   5.184
    1C        O  771   4.817   3.531   5.035
    1C        C  772   4.261   4.456   5.050
    1C        O  773   4.220   4.469   5.168
    1C        O  774   4.349   4.564   5.030
    1C        C  775   4.156   2.518   5.066
    1C        O  776   4.218   2.409   5.051
    1C        O  777   4.175   2.559   5.198
    1C        C  778   2.918   4.530   5.062
    1C        O  779   2.873   4.642   5.025
    1C        O  780   2.942   4.503   5.198
    1C        C  781   2.472   3.043   5.074
    1C        O  782   2.372   2.983   5.027
    1C        O  783   2.490   3.035   5.211
    1C        C  784   2.395   4.008   5.028
    1C        O  785   2.294   4.059   4.972
    1C        O  786   2.343   3.922   5.125
    1C        C  787   2.954   2.420   2.003
    1C        O  788   2.942   2.459   1.884
    1C        O  789   2.844   2.355   2.058
    1C        C  790   3.174   2.388   5.077
    1C        O  791   3.096   2.289   5.073
    1C        O  792   3.212   2.412   5.210
    1C        H  793   4.282   3.021   5.064
    1C        H  794   4.170   2.816   5.071
    1C        H  795   4.450   3.146   5.071
    1C        H  796   4.555   3.364   5.065
    1C        H  797   4.585   3.815   5.039
    1C        H  798   4.438   3.987   5.053
    1C        H  799   4.276   4.167   5.049
    1C        H  800   4.003   4.485   5.040
    1C        H  801   3.815   4.580   5.042
    1C        H  802   3.589   4.615   5.046
    1C        H  803   3.393   4.536   5.049
    1C        H  804   3.171   4.487   5.057
    1C        H  805   3.894   2.471   5.063
    1C        H  806   3.670   2.436   5.071
    1C        H  807   3.038   2.609   5.077
    1C        H  808   3.441   2.468   5.077
    1C        H  809   2.888   2.754   5.080
    1C        H  810   2.680   2.874   5.068
    1C        H  811   2.494   3.293   5.066
    1C        H  812   2.551   3.496   5.070
    1C        H  813   2.466   3.727   5.053
    1C        H  814   2.562   4.190   5.027
    1C        H  815   2.757   4.307   5.054
    1C        H  816   2.742   2.894   1.977
    1C        H  817   2.831   2.673   1.984
    1C        H  818   3.214   2.448   1.985
    1C        H  819   3.436   2.457   1.977
    1C        H  820   3.907   2.450   2.004
    1C        H  821   4.030   2.669   1.976
    1C        H  822   4.239   2.733   1.965
    1C        H  823   4.368   2.934   1.967
    1C        H  824   4.606   3.310   1.983
    1C        H  825   4.524   3.514   1.961
    1C        H  826   4.540   3.749   1.965
    1C        H  827   3.817   4.540   1.962
    1C        H  828   3.946   4.353   1.952
    1C        H  829   4.182   4.285   1.955
    1C        H  830   4.484   3.962   1.960
    1C        H  831   2.648   3.830   1.972
    1C        H  832   2.735   4.054   1.963
    1C        H  833   2.707   4.309   1.979
    1C        H  834   3.385   4.432   1.965
    1C        H  835   3.147   4.443   1.948
    1C        H  836   2.512   3.004   1.999
    1C        H  837   2.414   3.210   1.998
    1C        H  838   2.458   3.691   1.978
    2V3OU   H29  839   2.801   3.549   5.343
    2V3OU   C27  840   2.778   3.504   5.443
    2V3OU   H27  841   2.711   3.572   5.502
    2V3OU   H28  842   2.729   3.404   5.428
    2V3OU   O11  843   2.906   3.476   5.500
    2V3OU   C15  844   2.924   3.402   5.615
    2V3OU   C13  845   3.055   3.374   5.659
    2V3OU   C14  846   3.079   3.262   5.740
    2V3OU   C16  847   2.970   3.190   5.786
    2V3OU    H6  848   2.994   3.105   5.852
    2V3OU   C12  849   3.219   3.230   5.778
    2V3OU    O2  850   3.241   3.118   5.828
    2V3OU   C10  851   3.327   3.308   5.716
    2V3OU    C8  852   3.458   3.268   5.737
    2V3OU   O10  853   3.489   3.150   5.798
    2V3OU   H26  854   3.401   3.109   5.811
    2V3OU    C6  855   3.566   3.350   5.693
    2V3OU    C5  856   3.539   3.467   5.622
    2V3OU    C4  857   3.705   3.298   5.686
    2V3OU    H4  858   3.725   3.229   5.774
    2V3OU    H5  859   3.723   3.235   5.595
    2V3OU    C2  860   3.817   3.402   5.699
    2V3OU    O6  861   3.802   3.476   5.821
    2V3OU   H21  862   3.759   3.561   5.801
    2V3OU    C3  863   3.784   3.497   5.584
    2V3OU    H2  864   3.863   3.577   5.587
    2V3OU    H3  865   3.787   3.443   5.486
    2V3OU   C25  866   3.950   3.326   5.692
    2V3OU    O7  867   4.003   3.291   5.587
    2V3OU   C26  868   4.030   3.290   5.816
    2V3OU   H22  869   4.059   3.387   5.864
    2V3OU   H23  870   4.120   3.230   5.787
    2V3OU    O8  871   3.963   3.208   5.909
    2V3OU   H24  872   3.928   3.266   5.978
    2V3OU    C1  873   3.649   3.566   5.595
    2V3OU    H1  874   3.625   3.619   5.498
    2V3OU    O3  875   3.662   3.652   5.708
    2V3OU   C19  876   3.623   3.789   5.702
    2V3OU    H9  877   3.531   3.805   5.638
    2V3OU    O4  878   3.714   3.849   5.613
    2V3OU   C20  879   3.846   3.873   5.662
    2V3OU   H10  880   3.898   3.775   5.683
    2V3OU   C24  881   3.611   3.856   5.839
    2V3OU   H16  882   3.545   3.794   5.905
    2V3OU   H17  883   3.565   3.955   5.814
    2V3OU   C23  884   3.750   3.875   5.898
    2V3OU   H15  885   3.793   3.771   5.918
    2V3OU    N1  886   3.741   3.960   6.016
    2V3OU   H19  887   3.811   3.919   6.075
    2V3OU   H20  888   3.650   3.943   6.053
    2V3OU   C21  889   3.841   3.948   5.795
    2V3OU   H11  890   3.946   3.929   5.831
    2V3OU    O5  891   3.822   4.088   5.806
    2V3OU   H18  892   3.775   4.099   5.891
    2V3OU   C22  893   3.917   3.951   5.552
    2V3OU   H12  894   3.866   4.049   5.536
    2V3OU   H13  895   3.911   3.894   5.456
    2V3OU   H14  896   4.027   3.959   5.575
    2V3OU   C11  897   3.158   3.476   5.640
    2V3OU    O1  898   3.137   3.592   5.596
    2V3OU    C9  899   3.298   3.429   5.647
    2V3OU    C7  900   3.403   3.503   5.594
    2V3OU    O9  901   3.388   3.616   5.517
    2V3OU   H25  902   3.292   3.631   5.519
    2V3OU   C17  903   2.820   3.324   5.670
    2V3OU    H7  904   2.717   3.350   5.644
    2V3OU   C18  905   2.837   3.213   5.753
    2V3OU    H8  906   2.753   3.158   5.797
    3SOL     OW  907   3.912   3.062   3.672
    3SOL    HW1  908   3.838   3.009   3.716
    3SOL    HW2  909   3.916   3.040   3.575
    4SOL     OW  910   6.309   6.316   0.861
    4SOL    HW1  911   6.379   6.251   0.830
    4SOL    HW2  912   6.221   6.292   0.820
    5SOL     OW  913   5.047   1.460   0.569
    5SOL    HW1  914   4.955   1.468   0.531
    5SOL    HW2  915   5.102   1.538   0.539
    6SOL     OW  916   5.289   1.558   2.937
    6SOL    HW1  917   5.353   1.491   2.901
    6SOL    HW2  918   5.238   1.517   3.013
    7SOL     OW  919   1.844   3.978   3.980
    7SOL    HW1  920   1.758   3.955   3.934
    7SOL    HW2  921   1.824   4.024   4.066
    8SOL     OW  922   0.929   3.402   4.803
    8SOL    HW1  923   1.020   3.392   4.843
    8SOL    HW2  924   0.900   3.497   4.812
    9SOL     OW  925   6.952   1.031   6.764
    9SOL    HW1  926   6.988   1.052   6.673
    9SOL    HW2  927   6.933   0.933   6.771
   10SOL     OW  928   5.623   4.403   1.639
   10SOL    HW1  929   5.649   4.432   1.547
   10SOL    HW2  930   5.582   4.481   1.687
   11SOL     OW  931   2.313   2.376   0.188
   11SOL    HW1  932   2.308   2.311   0.264
   11SOL    HW2  933   2.395   2.432   0.197
   12SOL     OW  934   3.650   5.244   2.698
   12SOL    HW1  935   3.694   5.333   2.691
   12SOL    HW2  936   3.719   5.172   2.700
   13SOL     OW  937   5.928   6.099   1.108
   13SOL    HW1  938   5.923   6.194   1.077
   13SOL    HW2  939   5.864   6.086   1.184
   14SOL     OW  940   4.383   6.175   5.666
   14SOL    HW1  941   4.456   6.111   5.642
   14SOL    HW2  942   4.360   6.164   5.763
   15SOL     OW  943   0.612   6.493   5.812
   15SOL    HW1  944   0.675   6.417   5.828
   15SOL    HW2  945   0.646   6.549   5.737
   16SOL     OW  946   2.070   4.723   4.612
   16SOL    HW1  947   2.102   4.788   4.681
   16SOL    HW2  948   2.149   4.679   4.568
   17SOL     OW  949   6.326   1.025   5.811
   17SOL    HW1  950   6.288   0.993   5.897
   17SOL    HW2  951   6.282   1.112   5.786
   18SOL     OW  952   3.018   1.039   6.026
   18SOL    HW1  953   2.975   1.128   6.016
   18SOL    HW2  954   2.957   0.968   5.988
   19SOL     OW  955   2.726   6.731   2.951
   19SOL    HW1  956   2.637   6.751   2.909
   19SOL    HW2  957   2.784   6.812   2.945
   20SOL     OW  958   6.503   1.527   5.036
   20SOL    HW1  959   6.417   1.557   4.994
   20SOL    HW2  960   6.522   1.432   5.010
   21SOL     OW  961   2.457   4.445   2.812
   21SOL    HW1  962   2.368   4.423   2.770
   21SOL    HW2  963   2.530   4.422   2.748
   22SOL     OW  964   1.561   0.524   6.788
   22SOL    HW1  965   1.552   0.606   6.845
   22SOL    HW2  966   1.622   0.459   6.832
   23SOL     OW  967   5.688   4.911   1.276
   23SOL    HW1  968   5.592   4.922   1.248
   23SOL    HW2  969   5.748   4.952   1.208
   24SOL     OW  970   4.227   1.131   0.847
   24SOL    HW1  971   4.195   1.123   0.941
   24SOL    HW2  972   4.325   1.149   0.847
   25SOL     OW  973   1.801   0.805   4.769
   25SOL    HW1  974   1.899   0.818   4.756
   25SOL    HW2  975   1.784   0.716   4.811
   26SOL     OW  976   0.619   2.581   6.632
   26SOL    HW1  977   0.627   2.516   6.557
   26SOL    HW2  978   0.523   2.589   6.659
   27SOL     OW  979   6.365   0.613   1.984
   27SOL    HW1  980   6.453   0.566   1.981
   27SOL    HW2  981   6.292   0.545   1.981
   28SOL     OW  982   2.553   0.780   5.267
   28SOL    HW1  983   2.644   0.762   5.304
   28SOL    HW2  984   2.490   0.798   5.342
   29SOL     OW  985   0.058   6.989   1.022
   29SOL    HW1  986   0.104   6.957   1.105
   29SOL    HW2  987   0.067   6.921   0.950
   30SOL     OW  988   4.791   0.597   5.194
   30SOL    HW1  989   4.707   0.571   5.147
   30SOL    HW2  990   4.832   0.518   5.238
   31SOL     OW  991   0.807   3.549   5.332
   31SOL    HW1  992   0.807   3.452   5.308
   31SOL    HW2  993   0.736   3.566   5.401
   32SOL     OW  994   3.704   0.551   1.187
   32SOL    HW1  995   3.743   0.631   1.142
   32SOL    HW2  996   3.645   0.581   1.263
   33SOL     OW  997   1.890   5.541   6.348
   33SOL    HW1  998   1.924   5.456   6.309
   33SOL    HW2  999   1.847   5.596   6.277
   34SOL     OW 1000   3.045   5.293   5.214
   34SOL    HW1 1001   3.054   5.193   5.221
   34SOL    HW2 1002   3.089   5.325   5.130
   35SOL     OW 1003   1.949   3.575   6.821
   35SOL    HW1 1004   1.967   3.507   6.892
   35SOL    HW2 1005   1.856   3.610   6.829
   36SOL     OW 1006   4.375   1.330   3.724
   36SOL    HW1 1007   4.387   1.423   3.690
   36SOL    HW2 1008   4.464   1.292   3.750
   37SOL     OW 1009   2.454   0.154   4.092
   37SOL    HW1 1010   2.504   0.067   4.087
   37SOL    HW2 1011   2.485   0.206   4.171
   38SOL     OW 1012   1.151   3.553   3.009
   38SOL    HW1 1013   1.247   3.582   3.008
   38SOL    HW2 1014   1.121   3.534   2.915
   39SOL     OW 1015   6.686   4.040   0.783
   39SOL    HW1 1016   6.713   4.136   0.778
   39SOL    HW2 1017   6.662   4.017   0.878
   40SOL     OW 1018   4.572   1.630   1.240
   40SOL    HW1 1019   4.536   1.718   1.271
   40SOL    HW2 1020   4.502   1.559   1.248
   41SOL     OW 1021   5.204   4.292   1.847
   41SOL    HW1 1022   5.137   4.219   1.837
   41SOL    HW2 1023   5.259   4.299   1.764
   42SOL     OW 1024   2.164   4.600   7.008
   42SOL    HW1 1025   2.182   4.567   6.916
   42SOL    HW2 1026   2.175   4.700   7.010
   43SOL     OW 1027   4.424   0.013   4.610
   43SOL    HW1 1028   4.332   0.015   4.650
   43SOL    HW2 1029   4.484   6.981   4.665
   44SOL     OW 1030   6.360   1.079   5.517
   44SOL    HW1 1031   6.429   1.138   5.559
   44SOL    HW2 1032   6.340   1.002   5.577
   45SOL     OW 1033   2.336   4.812   6.015
   45SOL    HW1 1034   2.305   4.900   5.979
   45SOL    HW2 1035   2.385   4.827   6.101
   46SOL     OW 1036   1.327   3.410   4.652
   46SOL    HW1 1037   1.228   3.393   4.654
   46SOL    HW2 1038   1.349   3.470   4.575
   47SOL     OW 1039   6.157   3.891   0.487
   47SOL    HW1 1040   6.144   3.807   0.436
   47SOL    HW2 1041   6.087   3.958   0.461
   48SOL     OW 1042   6.201   3.004   0.622
   48SOL    HW1 1043   6.265   3.021   0.548
   48SOL    HW2 1044   6.229   2.923   0.674
   49SOL     OW 1045   2.949   3.535   6.863
   49SOL    HW1 1046   2.994   3.617   6.897
   49SOL    HW2 1047   2.870   3.560   6.807
   50SOL     OW 1048   5.803   2.589   0.623
   50SOL    HW1 1049   5.737   2.518   0.649
   50SOL    HW2 1050   5.776   2.676   0.664
   51SOL     OW 1051   1.570   5.165   2.428
   51SOL    HW1 1052   1.522   5.165   2.516
   51SOL    HW2 1053   1.643   5.233   2.430
   52SOL     OW 1054   5.565   2.911   1.880
   52SOL    HW1 1055   5.489   2.872   1.931
   52SOL    HW2 1056   5.605   2.842   1.819
   53SOL     OW 1057   3.787   0.754   2.126
   53SOL    HW1 1058   3.798   0.826   2.195
   53SOL    HW2 1059   3.761   0.669   2.171
   54SOL     OW 1060   5.155   0.612   6.457
   54SOL    HW1 1061   5.232   0.591   6.397
   54SOL    HW2 1062   5.182   0.597   6.552
   55SOL     OW 1063   1.539   3.881   6.318
   55SOL    HW1 1064   1.597   3.835   6.251
   55SOL    HW2 1065   1.448   3.839   6.319
   56SOL     OW 1066   0.716   2.354   6.979
   56SOL    HW1 1067   0.711   2.446   6.939
   56SOL    HW2 1068   0.811   2.332   6.998
   57SOL     OW 1069   4.300   6.419   0.818
   57SOL    HW1 1070   4.275   6.400   0.723
   57SOL    HW2 1071   4.392   6.385   0.835
   58SOL     OW 1072   0.999   6.940   0.179
   58SOL    HW1 1073   1.049   6.853   0.178
   58SOL    HW2 1074   0.913   6.929   0.229
   59SOL     OW 1075   4.398   3.052   5.353
   59SOL    HW1 1076   4.490   3.092   5.347
   59SOL    HW2 1077   4.349   3.091   5.431
   60SOL     OW 1078   5.676   2.345   1.687
   60SOL    HW1 1079   5.726   2.295   1.616
   60SOL    HW2 1080   5.578   2.328   1.676
   61SOL     OW 1081   1.444   5.858   4.591
   61SOL    HW1 1082   1.441   5.829   4.496
   61SOL    HW2 1083   1.352   5.857   4.630
   62SOL     OW 1084   6.057   3.369   2.980
   62SOL    HW1 1085   6.009   3.282   2.990
   62SOL    HW2 1086   6.120   3.382   3.057
   63SOL     OW 1087   4.400   0.623   6.053
   63SOL    HW1 1088   4.486   0.610   6.103
   63SOL    HW2 1089   4.323   0.611   6.115
   64SOL     OW 1090   1.347   3.615   5.221
   64SOL    HW1 1091   1.251   3.632   5.243
   64SOL    HW2 1092   1.383   3.545   5.282
   65SOL     OW 1093   0.847   5.560   4.638
   65SOL    HW1 1094   0.771   5.567   4.703
   65SOL    HW2 1095   0.839   5.632   4.569
   66SOL     OW 1096   3.840   1.346   2.085
   66SOL    HW1 1097   3.847   1.282   2.162
   66SOL    HW2 1098   3.770   1.414   2.105
   67SOL     OW 1099   6.839   3.201   1.327
   67SOL    HW1 1100   6.808   3.124   1.271
   67SOL    HW2 1101   6.789   3.202   1.414
   68SOL     OW 1102   7.001   1.467   6.224
   68SOL    HW1 1103   6.917   1.427   6.187
   68SOL    HW2 1104   7.001   1.566   6.207
   69SOL     OW 1105   1.087   6.123   6.365
   69SOL    HW1 1106   1.164   6.072   6.404
   69SOL    HW2 1107   1.006   6.110   6.423
   70SOL     OW 1108   5.205   3.917   3.533
   70SOL    HW1 1109   5.124   3.857   3.541
   70SOL    HW2 1110   5.207   3.980   3.611
   71SOL     OW 1111   5.310   1.965   3.913
   71SOL    HW1 1112   5.223   1.948   3.866
   71SOL    HW2 1113   5.340   2.059   3.894
   72SOL     OW 1114   0.630   1.318   3.049
   72SOL    HW1 1115   0.675   1.385   2.990
   72SOL    HW2 1116   0.616   1.233   2.998
   73SOL     OW 1117   3.227   0.315   0.432
   73SOL    HW1 1118   3.214   0.217   0.422
   73SOL    HW2 1119   3.252   0.336   0.527
   74SOL     OW 1120   2.490   2.120   0.796
   74SOL    HW1 1121   2.565   2.133   0.862
   74SOL    HW2 1122   2.467   2.208   0.755
   75SOL     OW 1123   2.743   3.304   0.436
   75SOL    HW1 1124   2.811   3.377   0.441
   75SOL    HW2 1125   2.651   3.342   0.438
   76SOL     OW 1126   3.676   4.981   5.674
   76SOL    HW1 1127   3.604   4.918   5.646
   76SOL    HW2 1128   3.635   5.071   5.694
   77SOL     OW 1129   0.913   5.255   4.280
   77SOL    HW1 1130   0.889   5.217   4.370
   77SOL    HW2 1131   1.011   5.274   4.277
   78SOL     OW 1132   4.720   1.930   1.626
   78SOL    HW1 1133   4.820   1.928   1.623
   78SOL    HW2 1134   4.690   1.954   1.718
   79SOL     OW 1135   1.291   4.742   3.062
   79SOL    HW1 1136   1.225   4.748   2.986
   79SOL    HW2 1137   1.248   4.696   3.139
   80SOL     OW 1138   3.676   1.423   4.815
   80SOL    HW1 1139   3.719   1.446   4.903
   80SOL    HW2 1140   3.692   1.326   4.795
   81SOL     OW 1141   4.416   5.047   1.521
   81SOL    HW1 1142   4.462   4.964   1.554
   81SOL    HW2 1143   4.390   5.103   1.600
   82SOL     OW 1144   2.464   6.054   2.438
   82SOL    HW1 1145   2.434   5.987   2.505
   82SOL    HW2 1146   2.427   6.030   2.348
   83SOL     OW 1147   5.241   1.461   4.407
   83SOL    HW1 1148   5.274   1.523   4.336
   83SOL    HW2 1149   5.319   1.417   4.452
   84SOL     OW 1150   5.769   3.073   2.380
   84SOL    HW1 1151   5.851   3.069   2.323
   84SOL    HW2 1152   5.737   3.168   2.384
   85SOL     OW 1153   2.615   6.670   4.126
   85SOL    HW1 1154   2.677   6.597   4.154
   85SOL    HW2 1155   2.583   6.719   4.207
   86SOL     OW 1156   5.532   0.004   0.112
   86SOL    HW1 1157   5.472   0.037   0.039
   86SOL    HW2 1158   5.478   6.983   0.182
   87SOL     OW 1159   2.127   3.936   6.179
   87SOL    HW1 1160   2.188   3.982   6.114
   87SOL    HW2 1161   2.052   3.998   6.203
   88SOL     OW 1162   3.184   3.430   1.186
   88SOL    HW1 1163   3.149   3.451   1.094
   88SOL    HW2 1164   3.149   3.497   1.251
   89SOL     OW 1165   3.190   3.516   3.566
   89SOL    HW1 1166   3.239   3.432   3.586
   89SOL    HW2 1167   3.253   3.585   3.531
   90SOL     OW 1168   5.441   3.681   1.861
   90SOL    HW1 1169   5.468   3.698   1.767
   90SOL    HW2 1170   5.348   3.715   1.876
   91SOL     OW 1171   4.651   5.381   5.627
   91SOL    HW1 1172   4.670   5.296   5.577
   91SOL    HW2 1173   4.651   5.458   5.563
   92SOL     OW 1174   4.840   4.016   0.049
   92SOL    HW1 1175   4.846   4.106   0.006
   92SOL    HW2 1176   4.878   4.021   0.141
   93SOL     OW 1177   2.795   3.400   2.049
   93SOL    HW1 1178   2.704   3.359   2.056
   93SOL    HW2 1179   2.838   3.369   1.964
   94SOL     OW 1180   2.988   2.181   4.390
   94SOL    HW1 1181   3.079   2.170   4.429
   94SOL    HW2 1182   2.946   2.091   4.380
   95SOL     OW 1183   0.205   0.064   3.892
   95SOL    HW1 1184   0.149   0.078   3.973
   95SOL    HW2 1185   0.160   0.105   3.812
   96SOL     OW 1186   6.913   4.913   6.940
   96SOL    HW1 1187   6.834   4.968   6.911
   96SOL    HW2 1188   6.925   4.837   6.877
   97SOL     OW 1189   2.331   4.415   5.248
   97SOL    HW1 1190   2.247   4.449   5.290
   97SOL    HW2 1191   2.397   4.391   5.319
   98SOL     OW 1192   1.241   1.968   3.696
   98SOL    HW1 1193   1.167   2.001   3.637
   98SOL    HW2 1194   1.306   2.043   3.713
   99SOL     OW 1195   3.193   3.804   5.053
   99SOL    HW1 1196   3.197   3.714   5.011
   99SOL    HW2 1197   3.111   3.812   5.109
  100SOL     OW 1198   0.060   0.878   4.902
  100SOL    HW1 1199   0.106   0.923   4.978
  100SOL    HW2 1200   0.040   0.945   4.831
  101SOL     OW 1201   5.700   4.084   2.559
  101SOL    HW1 1202   5.614   4.098   2.608
  101SOL    HW2 1203   5.680   4.046   2.468
  102SOL     OW 1204   4.248   0.551   6.964
  102SOL    HW1 1205   4.193   0.573   0.019
  102SOL    HW2 1206   4.227   0.458   6.934
  103SOL     OW 1207   1.824   1.356   1.871
  103SOL    HW1 1208   1.916   1.382   1.900
  103SOL    HW2 1209   1.824   1.337   1.773
  104SOL     OW 1210   6.270   5.009   1.973
  104SOL    HW1 1211   6.208   4.947   1.925
  104SOL    HW2 1212   6.239   5.020   2.067
  105SOL     OW 1213   6.813   0.813   5.752
  105SOL    HW1 1214   6.791   0.885   5.818
  105SOL    HW2 1215   6.911   0.813   5.735
  106SOL     OW 1216   4.269   3.266   1.150
  106SOL    HW1 1217   4.349   3.279   1.208
  106SOL    HW2 1218   4.253   3.168   1.137
  107SOL     OW 1219   5.626   6.987   1.656
  107SOL    HW1 1220   5.578   7.023   1.736
  107SOL    HW2 1221   5.560   6.969   1.583
  108SOL     OW 1222   2.731   1.265   4.047
  108SOL    HW1 1223   2.640   1.300   4.025
  108SOL    HW2 1224   2.770   1.318   4.121
  109SOL     OW 1225   1.787   1.324   4.416
  109SOL    HW1 1226   1.745   1.360   4.333
  109SOL    HW2 1227   1.715   1.300   4.482
  110SOL     OW 1228   3.106   4.217   5.508
  110SOL    HW1 1229   3.182   4.153   5.511
  110SOL    HW2 1230   3.091   4.246   5.414
  111SOL     OW 1231   5.977   2.937   0.526
  111SOL    HW1 1232   5.935   2.851   0.556
  111SOL    HW2 1233   6.052   2.961   0.588
  112SOL     OW 1234   5.157   6.716   6.565
  112SOL    HW1 1235   5.253   6.691   6.577
  112SOL    HW2 1236   5.108   6.641   6.521
  113SOL     OW 1237   0.242   5.362   2.574
  113SOL    HW1 1238   0.285   5.452   2.564
  113SOL    HW2 1239   0.255   5.329   2.668
  114SOL     OW 1240   0.002   2.496   1.904
  114SOL    HW1 1241   0.007   2.538   1.813
  114SOL    HW2 1242   0.077   2.430   1.914
  115SOL     OW 1243   5.533   7.000   3.533
  115SOL    HW1 1244   5.614   6.945   3.514
  115SOL    HW2 1245   5.503   0.020   3.449
  116SOL     OW 1246   0.511   5.063   0.338
  116SOL    HW1 1247   0.600   5.059   0.383
  116SOL    HW2 1248   0.440   5.038   0.404
  117SOL     OW 1249   2.338   2.906   6.931
  117SOL    HW1 1250   2.297   2.970   6.996
  117SOL    HW2 1251   2.301   2.815   6.946
  118SOL     OW 1252   0.737   2.254   2.404
  118SOL    HW1 1253   0.743   2.154   2.397
  118SOL    HW2 1254   0.641   2.282   2.403
  119SOL     OW 1255   6.187   6.514   5.268
  119SOL    HW1 1256   6.224   6.584   5.207
  119SOL    HW2 1257   6.147   6.557   5.349
  120SOL     OW 1258   5.103   1.781   4.572
  120SOL    HW1 1259   5.195   1.753   4.603
  120SOL    HW2 1260   5.107   1.805   4.475
  121SOL     OW 1261   0.392   5.095   7.006
  121SOL    HW1 1262   0.443   5.009   7.015
  121SOL    HW2 1263   0.300   5.077   6.973
  122SOL     OW 1264   6.720   4.717   6.283
  122SOL    HW1 1265   6.803   4.738   6.336
  122SOL    HW2 1266   6.734   4.633   6.231
  123SOL     OW 1267   0.557   2.453   1.259
  123SOL    HW1 1268   0.648   2.491   1.273
  123SOL    HW2 1269   0.489   2.511   1.304
  124SOL     OW 1270   1.418   2.834   6.999
  124SOL    HW1 1271   1.470   2.749   7.003
  124SOL    HW2 1272   1.480   2.912   6.997
  125SOL     OW 1273   4.339   2.958   0.594
  125SOL    HW1 1274   4.416   2.906   0.558
  125SOL    HW2 1275   4.264   2.956   0.527
  126SOL     OW 1276   3.869   3.047   4.418
  126SOL    HW1 1277   3.867   2.973   4.352
  126SOL    HW2 1278   3.943   3.111   4.396
  127SOL     OW 1279   0.578   5.574   5.723
  127SOL    HW1 1280   0.538   5.565   5.632
  127SOL    HW2 1281   0.530   5.514   5.787
  128SOL     OW 1282   4.758   3.956   6.729
  128SOL    HW1 1283   4.792   3.888   6.793
  128SOL    HW2 1284   4.820   4.034   6.726
  129SOL     OW 1285   1.109   5.464   2.497
  129SOL    HW1 1286   1.056   5.548   2.509
  129SOL    HW2 1287   1.203   5.479   2.527
  130SOL     OW 1288   6.237   3.050   4.013
  130SOL    HW1 1289   6.153   3.104   4.024
  130SOL    HW2 1290   6.271   3.023   4.103
  131SOL     OW 1291   0.523   2.297   3.222
  131SOL    HW1 1292   0.546   2.353   3.302
  131SOL    HW2 1293   0.576   2.212   3.224
  132SOL     OW 1294   3.329   2.853   1.005
  132SOL    HW1 1295   3.260   2.902   0.952
  132SOL    HW2 1296   3.314   2.870   1.103
  133SOL     OW 1297   6.052   6.423   6.254
  133SOL    HW1 1298   6.035   6.510   6.300
  133SOL    HW2 1299   6.005   6.421   6.166
  134SOL     OW 1300   5.753   1.725   1.309
  134SOL    HW1 1301   5.821   1.735   1.236
  134SOL    HW2 1302   5.705   1.812   1.321
  135SOL     OW 1303   4.904   3.736   3.763
  135SOL    HW1 1304   4.975   3.789   3.810
  135SOL    HW2 1305   4.921   3.638   3.779
  136SOL     OW 1306   3.380   0.550   6.594
  136SOL    HW1 1307   3.469   0.570   6.635
  136SOL    HW2 1308   3.354   0.624   6.532
  137SOL     OW 1309   2.823   3.782   6.090
  137SOL    HW1 1310   2.728   3.757   6.107
  137SOL    HW2 1311   2.846   3.864   6.142
  138SOL     OW 1312   1.220   4.961   6.452
  138SOL    HW1 1313   1.268   5.013   6.381
  138SOL    HW2 1314   1.121   4.972   6.439
  139SOL     OW 1315   1.282   0.108   0.763
  139SOL    HW1 1316   1.339   0.120   0.844
  139SOL    HW2 1317   1.307   0.177   0.694
  140SOL     OW 1318   3.948   0.521   1.535
  140SOL    HW1 1319   3.851   0.511   1.516
  140SOL    HW2 1320   4.000   0.456   1.479
  141SOL     OW 1321   0.468   3.109   0.517
  141SOL    HW1 1322   0.458   3.177   0.589
  141SOL    HW2 1323   0.565   3.103   0.490
  142SOL     OW 1324   2.028   3.564   1.053
  142SOL    HW1 1325   1.976   3.489   1.094
  142SOL    HW2 1326   2.003   3.650   1.097
  143SOL     OW 1327   4.718   6.432   2.423
  143SOL    HW1 1328   4.781   6.495   2.470
  143SOL    HW2 1329   4.639   6.415   2.482
  144SOL     OW 1330   3.077   5.609   3.452
  144SOL    HW1 1331   3.016   5.531   3.442
  144SOL    HW2 1332   3.172   5.577   3.448
  145SOL     OW 1333   0.004   4.653   3.659
  145SOL    HW1 1334   0.008   4.752   3.666
  145SOL    HW2 1335   0.039   4.625   3.569
  146SOL     OW 1336   4.824   1.076   6.070
  146SOL    HW1 1337   4.830   1.105   6.166
  146SOL    HW2 1338   4.728   1.076   6.041
  147SOL     OW 1339   4.732   0.939   4.980
  147SOL    HW1 1340   4.731   0.912   5.076
  147SOL    HW2 1341   4.643   0.917   4.938
  148SOL     OW 1342   1.713   5.791   1.440
  148SOL    HW1 1343   1.746   5.867   1.383
  148SOL    HW2 1344   1.787   5.761   1.500
  149SOL     OW 1345   2.012   2.631   4.795
  149SOL    HW1 1346   2.077   2.580   4.739
  149SOL    HW2 1347   2.039   2.727   4.797
  150SOL     OW 1348   4.233   1.731   4.896
  150SOL    HW1 1349   4.194   1.641   4.878
  150SOL    HW2 1350   4.280   1.765   4.814
  151SOL     OW 1351   4.728   2.845   0.888
  151SOL    HW1 1352   4.723   2.750   0.920
  151SOL    HW2 1353   4.676   2.903   0.951
  152SOL     OW 1354   0.178   2.421   0.782
  152SOL    HW1 1355   0.261   2.398   0.833
  152SOL    HW2 1356   0.146   2.512   0.809
  153SOL     OW 1357   2.256   1.214   3.580
  153SOL    HW1 1358   2.226   1.264   3.498
  153SOL    HW2 1359   2.177   1.169   3.622
  154SOL     OW 1360   6.663   2.316   2.412
  154SOL    HW1 1361   6.727   2.323   2.488
  154SOL    HW2 1362   6.698   2.370   2.335
  155SOL     OW 1363   0.088   5.744   2.878
  155SOL    HW1 1364   0.060   5.719   2.785
  155SOL    HW2 1365   0.051   5.679   2.943
  156SOL     OW 1366   5.258   3.120   0.434
  156SOL    HW1 1367   5.320   3.167   0.498
  156SOL    HW2 1368   5.174   3.173   0.424
  157SOL     OW 1369   4.962   6.251   0.816
  157SOL    HW1 1370   5.025   6.277   0.888
  157SOL    HW2 1371   4.902   6.177   0.849
  158SOL     OW 1372   0.684   2.742   3.627
  158SOL    HW1 1373   0.717   2.752   3.721
  158SOL    HW2 1374   0.734   2.805   3.568
  159SOL     OW 1375   6.295   5.814   0.551
  159SOL    HW1 1376   6.289   5.763   0.637
  159SOL    HW2 1377   6.385   5.802   0.511
  160SOL     OW 1378   5.816   6.880   1.972
  160SOL    HW1 1379   5.789   6.957   1.914
  160SOL    HW2 1380   5.766   6.885   2.059
  161SOL     OW 1381   0.100   6.614   1.137
  161SOL    HW1 1382   0.146   6.699   1.165
  161SOL    HW2 1383   0.119   6.597   1.040
  162SOL     OW 1384   4.563   6.484   6.387
  162SOL    HW1 1385   4.546   6.570   6.435
  162SOL    HW2 1386   4.592   6.503   6.293
  163SOL     OW 1387   0.884   3.792   3.043
  163SOL    HW1 1388   0.786   3.813   3.033
  163SOL    HW2 1389   0.899   3.696   3.020
  164SOL     OW 1390   2.708   1.997   3.541
  164SOL    HW1 1391   2.632   2.014   3.478
  164SOL    HW2 1392   2.676   2.004   3.635
  165SOL     OW 1393   0.448   6.661   3.695
  165SOL    HW1 1394   0.492   6.573   3.681
  165SOL    HW2 1395   0.470   6.695   3.787
  166SOL     OW 1396   0.105   4.188   3.234
  166SOL    HW1 1397   0.103   4.265   3.298
  166SOL    HW2 1398   0.022   4.189   3.179
  167SOL     OW 1399   2.709   1.904   6.544
  167SOL    HW1 1400   2.700   1.825   6.484
  167SOL    HW2 1401   2.621   1.951   6.552
  168SOL     OW 1402   3.835   3.792   1.241
  168SOL    HW1 1403   3.885   3.706   1.229
  168SOL    HW2 1404   3.882   3.866   1.192
  169SOL     OW 1405   4.775   1.964   1.292
  169SOL    HW1 1406   4.778   2.056   1.332
  169SOL    HW2 1407   4.740   1.899   1.360
  170SOL     OW 1408   6.150   5.744   1.814
  170SOL    HW1 1409   6.194   5.821   1.769
  170SOL    HW2 1410   6.185   5.735   1.907
  171SOL     OW 1411   3.375   3.268   0.796
  171SOL    HW1 1412   3.287   3.315   0.787
  171SOL    HW2 1413   3.376   3.189   0.735
  172SOL     OW 1414   0.761   2.001   6.650
  172SOL    HW1 1415   0.753   2.016   6.749
  172SOL    HW2 1416   0.684   2.044   6.603
  173SOL     OW 1417   6.498   1.130   4.104
  173SOL    HW1 1418   6.491   1.039   4.065
  173SOL    HW2 1419   6.432   1.191   4.060
  174SOL     OW 1420   5.403   4.494   4.563
  174SOL    HW1 1421   5.409   4.564   4.492
  174SOL    HW2 1422   5.448   4.526   4.646
  175SOL     OW 1423   0.083   0.133   2.049
  175SOL    HW1 1424   0.049   0.173   2.134
  175SOL    HW2 1425   0.175   0.167   2.030
  176SOL     OW 1426   6.091   3.946   1.758
  176SOL    HW1 1427   6.128   3.855   1.739
  176SOL    HW2 1428   6.036   3.977   1.681
  177SOL     OW 1429   5.653   2.034   4.038
  177SOL    HW1 1430   5.696   2.108   3.986
  177SOL    HW2 1431   5.663   1.948   3.988
  178SOL     OW 1432   2.892   6.137   5.078
  178SOL    HW1 1433   2.821   6.170   5.140
  178SOL    HW2 1434   2.859   6.055   5.031
  179SOL     OW 1435   3.480   4.225   1.591
  179SOL    HW1 1436   3.411   4.183   1.651
  179SOL    HW2 1437   3.468   4.324   1.591
  180SOL     OW 1438   3.821   1.074   0.394
  180SOL    HW1 1439   3.760   1.149   0.369
  180SOL    HW2 1440   3.831   1.011   0.317
  181SOL     OW 1441   3.104   1.936   5.568
  181SOL    HW1 1442   3.151   2.023   5.550
  181SOL    HW2 1443   3.034   1.950   5.638
  182SOL     OW 1444   3.416   2.596   6.244
  182SOL    HW1 1445   3.411   2.590   6.144
  182SOL    HW2 1446   3.430   2.691   6.271
  183SOL     OW 1447   3.372   0.286   3.490
  183SOL    HW1 1448   3.322   0.361   3.534
  183SOL    HW2 1449   3.355   0.287   3.391
  184SOL     OW 1450   4.925   5.747   3.964
  184SOL    HW1 1451   4.934   5.648   3.976
  184SOL    HW2 1452   5.000   5.781   3.907
  185SOL     OW 1453   0.102   0.678   4.691
  185SOL    HW1 1454   0.021   0.636   4.731
  185SOL    HW2 1455   0.126   0.761   4.742
  186SOL     OW 1456   4.316   6.432   4.897
  186SOL    HW1 1457   4.244   6.366   4.918
  186SOL    HW2 1458   4.380   6.390   4.832
  187SOL     OW 1459   4.158   6.212   1.394
  187SOL    HW1 1460   4.094   6.153   1.443
  187SOL    HW2 1461   4.111   6.294   1.363
  188SOL     OW 1462   1.525   3.046   2.830
  188SOL    HW1 1463   1.534   2.960   2.880
  188SOL    HW2 1464   1.607   3.060   2.775
  189SOL     OW 1465   5.975   5.016   5.941
  189SOL    HW1 1466   5.966   5.100   5.887
  189SOL    HW2 1467   6.055   5.023   6.001
  190SOL     OW 1468   5.493   0.841   0.158
  190SOL    HW1 1469   5.580   0.841   0.207
  190SOL    HW2 1470   5.435   0.767   0.193
  191SOL     OW 1471   0.075   1.215   5.754
  191SOL    HW1 1472   0.149   1.280   5.738
  191SOL    HW2 1473   0.022   1.203   5.669
  192SOL     OW 1474   0.060   5.266   1.212
  192SOL    HW1 1475   0.113   5.345   1.179
  192SOL    HW2 1476   0.038   5.206   1.136
  193SOL     OW 1477   2.512   6.473   0.158
  193SOL    HW1 1478   2.597   6.492   0.109
  193SOL    HW2 1479   2.522   6.388   0.209
  194SOL     OW 1480   3.855   6.360   2.486
  194SOL    HW1 1481   3.918   6.282   2.484
  194SOL    HW2 1482   3.906   6.444   2.466
  195SOL     OW 1483   3.441   1.397   1.487
  195SOL    HW1 1484   3.540   1.407   1.498
  195SOL    HW2 1485   3.420   1.303   1.461
  196SOL     OW 1486   2.996   2.336   0.372
  196SOL    HW1 1487   2.904   2.342   0.411
  196SOL    HW2 1488   2.990   2.308   0.276
  197SOL     OW 1489   1.924   6.442   0.274
  197SOL    HW1 1490   1.981   6.515   0.238
  197SOL    HW2 1491   1.978   6.383   0.334
  198SOL     OW 1492   4.174   0.495   6.605
  198SOL    HW1 1493   4.261   0.446   6.592
  198SOL    HW2 1494   4.167   0.568   6.538
  199SOL     OW 1495   0.167   0.360   2.488
  199SOL    HW1 1496   0.252   0.372   2.538
  199SOL    HW2 1497   0.186   0.346   2.391
  200SOL     OW 1498   0.663   3.910   2.980
  200SOL    HW1 1499   0.705   3.998   2.959
  200SOL    HW2 1500   0.566   3.924   3.001
  201SOL     OW 1501   4.555   1.127   6.721
  201SOL    HW1 1502   4.467   1.126   6.675
  201SOL    HW2 1503   4.626   1.093   6.659
  202SOL     OW 1504   3.422   0.987   2.522
  202SOL    HW1 1505   3.430   1.087   2.519
  202SOL    HW2 1506   3.340   0.963   2.575
  203SOL     OW 1507   5.584   2.548   6.817
  203SOL    HW1 1508   5.659   2.613   6.807
  203SOL    HW2 1509   5.500   2.588   6.783
  204SOL     OW 1510   2.856   6.122   1.615
  204SOL    HW1 1511   2.875   6.182   1.537
  204SOL    HW2 1512   2.786   6.056   1.589
  205SOL     OW 1513   6.139   0.964   0.325
  205SOL    HW1 1514   6.067   1.007   0.379
  205SOL    HW2 1515   6.205   0.920   0.386
  206SOL     OW 1516   0.366   4.730   1.832
  206SOL    HW1 1517   0.279   4.693   1.867
  206SOL    HW2 1518   0.415   4.774   1.907
  207SOL     OW 1519   4.855   1.310   5.482
  207SOL    HW1 1520   4.892   1.240   5.421
  207SOL    HW2 1521   4.789   1.269   5.544
  208SOL     OW 1522   3.205   4.419   6.111
  208SOL    HW1 1523   3.144   4.477   6.166
  208SOL    HW2 1524   3.286   4.471   6.084
  209SOL     OW 1525   6.539   5.478   5.737
  209SOL    HW1 1526   6.551   5.379   5.748
  209SOL    HW2 1527   6.446   5.495   5.703
  210SOL     OW 1528   3.723   2.050   2.265
  210SOL    HW1 1529   3.820   2.064   2.284
  210SOL    HW2 1530   3.690   2.122   2.205
  211SOL     OW 1531   1.243   2.040   1.628
  211SOL    HW1 1532   1.284   2.058   1.538
  211SOL    HW2 1533   1.167   1.976   1.618
  212SOL     OW 1534   0.656   4.710   3.772
  212SOL    HW1 1535   0.730   4.670   3.718
  212SOL    HW2 1536   0.639   4.653   3.853
  213SOL     OW 1537   3.861   2.413   7.012
  213SOL    HW1 1538   3.767   2.434   0.012
  213SOL    HW2 1539   3.908   2.370   0.064
  214SOL     OW 1540   1.125   6.952   2.748
  214SOL    HW1 1541   1.061   6.896   2.696
  214SOL    HW2 1542   1.135   0.016   2.703
  215SOL     OW 1543   3.333   3.310   2.735
  215SOL    HW1 1544   3.328   3.286   2.832
  215SOL    HW2 1545   3.378   3.236   2.685
  216SOL     OW 1546   1.493   6.157   5.655
  216SOL    HW1 1547   1.556   6.082   5.672
  216SOL    HW2 1548   1.415   6.150   5.716
  217SOL     OW 1549   0.184   2.873   3.801
  217SOL    HW1 1550   0.232   2.960   3.808
  217SOL    HW2 1551   0.117   2.866   3.875
  218SOL     OW 1552   1.250   3.933   5.345
  218SOL    HW1 1553   1.331   3.916   5.289
  218SOL    HW2 1554   1.221   3.848   5.388
  219SOL     OW 1555   4.702   5.248   0.157
  219SOL    HW1 1556   4.641   5.195   0.216
  219SOL    HW2 1557   4.666   5.341   0.148
  220SOL     OW 1558   1.581   4.542   1.154
  220SOL    HW1 1559   1.595   4.481   1.076
  220SOL    HW2 1560   1.504   4.510   1.209
  221SOL     OW 1561   6.901   2.632   3.929
  221SOL    HW1 1562   6.951   2.589   3.855
  221SOL    HW2 1563   6.812   2.587   3.940
  222SOL     OW 1564   1.451   6.553   5.180
  222SOL    HW1 1565   1.401   6.505   5.252
  222SOL    HW2 1566   1.461   6.650   5.205
  223SOL     OW 1567   6.163   3.996   2.043
  223SOL    HW1 1568   6.127   3.947   1.963
  223SOL    HW2 1569   6.186   4.090   2.018
  224SOL     OW 1570   3.408   2.082   2.092
  224SOL    HW1 1571   3.344   2.114   2.022
  224SOL    HW2 1572   3.497   2.125   2.078
  225SOL     OW 1573   0.479   0.053   0.616
  225SOL    HW1 1574   0.446   0.005   0.534
  225SOL    HW2 1575   0.485   0.151   0.597
  226SOL     OW 1576   0.323   5.425   1.218
  226SOL    HW1 1577   0.346   5.439   1.122
  226SOL    HW2 1578   0.313   5.515   1.262
  227SOL     OW 1579   1.795   2.982   3.344
  227SOL    HW1 1580   1.802   3.075   3.380
  227SOL    HW2 1581   1.786   2.985   3.244
  228SOL     OW 1582   3.883   7.014   2.827
  228SOL    HW1 1583   3.822   0.065   2.802
  228SOL    HW2 1584   3.881   7.001   2.926
  229SOL     OW 1585   5.907   5.559   2.684
  229SOL    HW1 1586   5.905   5.460   2.669
  229SOL    HW2 1587   5.900   5.606   2.596
  230SOL     OW 1588   1.702   4.435   5.559
  230SOL    HW1 1589   1.677   4.408   5.466
  230SOL    HW2 1590   1.796   4.471   5.559
  231SOL     OW 1591   0.539   2.009   0.092
  231SOL    HW1 1592   0.481   1.933   0.062
  231SOL    HW2 1593   0.531   2.020   0.191
  232SOL     OW 1594   2.156   4.971   6.731
  232SOL    HW1 1595   2.247   5.005   6.755
  232SOL    HW2 1596   2.165   4.887   6.677
  233SOL     OW 1597   3.119   1.368   6.352
  233SOL    HW1 1598   3.044   1.346   6.289
  233SOL    HW2 1599   3.125   1.299   6.423
  234SOL     OW 1600   3.104   5.831   0.143
  234SOL    HW1 1601   3.040   5.798   0.212
  234SOL    HW2 1602   3.059   5.902   0.088
  235SOL     OW 1603   3.295   2.916   5.108
  235SOL    HW1 1604   3.312   2.899   5.011
  235SOL    HW2 1605   3.369   2.971   5.145
  236SOL     OW 1606   6.781   2.278   5.398
  236SOL    HW1 1607   6.871   2.237   5.384
  236SOL    HW2 1608   6.746   2.253   5.488
  237SOL     OW 1609   0.338   0.396   1.701
  237SOL    HW1 1610   0.407   0.346   1.753
  237SOL    HW2 1611   0.250   0.390   1.748
  238SOL     OW 1612   6.590   2.038   2.141
  238SOL    HW1 1613   6.652   2.047   2.219
  238SOL    HW2 1614   6.592   2.122   2.087
  239SOL     OW 1615   0.493   5.343   0.730
  239SOL    HW1 1616   0.578   5.367   0.777
  239SOL    HW2 1617   0.507   5.344   0.631
  240SOL     OW 1618   6.577   3.625   5.409
  240SOL    HW1 1619   6.631   3.568   5.347
  240SOL    HW2 1620   6.484   3.588   5.417
  241SOL     OW 1621   6.476   1.497   3.943
  241SOL    HW1 1622   6.388   1.539   3.921
  241SOL    HW2 1623   6.519   1.464   3.859
  242SOL     OW 1624   2.183   2.404   3.190
  242SOL    HW1 1625   2.262   2.464   3.192
  242SOL    HW2 1626   2.205   2.317   3.234
  243SOL     OW 1627   4.429   1.331   5.392
  243SOL    HW1 1628   4.422   1.413   5.449
  243SOL    HW2 1629   4.451   1.252   5.450
  244SOL     OW 1630   6.956   0.484   5.857
  244SOL    HW1 1631   6.961   0.578   5.823
  244SOL    HW2 1632   0.023   0.450   5.877
  245SOL     OW 1633   5.893   2.400   3.611
  245SOL    HW1 1634   5.853   2.339   3.542
  245SOL    HW2 1635   5.956   2.463   3.566
  246SOL     OW 1636   5.140   3.474   3.999
  246SOL    HW1 1637   5.097   3.486   3.909
  246SOL    HW2 1638   5.133   3.378   4.026
  247SOL     OW 1639   3.289   0.573   3.562
  247SOL    HW1 1640   3.380   0.615   3.568
  247SOL    HW2 1641   3.269   0.526   3.649
  248SOL     OW 1642   5.649   1.858   2.492
  248SOL    HW1 1643   5.650   1.884   2.589
  248SOL    HW2 1644   5.555   1.843   2.462
  249SOL     OW 1645   2.453   6.601   3.931
  249SOL    HW1 1646   2.426   6.508   3.956
  249SOL    HW2 1647   2.528   6.630   3.991
  250SOL     OW 1648   5.411   3.376   6.130
  250SOL    HW1 1649   5.470   3.379   6.212
  250SOL    HW2 1650   5.464   3.404   6.050
  251SOL     OW 1651   2.307   2.551   0.516
  251SOL    HW1 1652   2.345   2.614   0.448
  251SOL    HW2 1653   2.237   2.598   0.569
  252SOL     OW 1654   0.212   1.866   6.838
  252SOL    HW1 1655   0.255   1.811   6.767
  252SOL    HW2 1656   0.135   1.816   6.877
  253SOL     OW 1657   1.971   4.288   5.122
  253SOL    HW1 1658   1.924   4.223   5.064
  253SOL    HW2 1659   2.055   4.247   5.158
  254SOL     OW 1660   5.438   3.997   5.625
  254SOL    HW1 1661   5.363   4.062   5.618
  254SOL    HW2 1662   5.417   3.927   5.694
  255SOL     OW 1663   3.352   2.121   3.283
  255SOL    HW1 1664   3.281   2.128   3.353
  255SOL    HW2 1665   3.425   2.185   3.303
  256SOL     OW 1666   6.551   5.827   0.419
  256SOL    HW1 1667   6.635   5.859   0.463
  256SOL    HW2 1668   6.526   5.890   0.345
  257SOL     OW 1669   3.147   5.303   6.399
  257SOL    HW1 1670   3.144   5.399   6.426
  257SOL    HW2 1671   3.054   5.266   6.397
  258SOL     OW 1672   5.363   3.822   4.247
  258SOL    HW1 1673   5.411   3.762   4.311
  258SOL    HW2 1674   5.279   3.777   4.216
  259SOL     OW 1675   1.351   1.954   3.137
  259SOL    HW1 1676   1.415   2.014   3.185
  259SOL    HW2 1677   1.399   1.870   3.110
  260SOL     OW 1678   6.666   6.963   5.812
  260SOL    HW1 1679   6.607   0.006   5.855
  260SOL    HW2 1680   6.705   6.903   5.882
  261SOL     OW 1681   1.377   1.605   2.729
  261SOL    HW1 1682   1.455   1.604   2.791
  261SOL    HW2 1683   1.333   1.695   2.733
  262SOL     OW 1684   1.842   4.956   1.796
  262SOL    HW1 1685   1.775   4.896   1.753
  262SOL    HW2 1686   1.797   5.042   1.822
  263SOL     OW 1687   6.864   1.937   5.335
  263SOL    HW1 1688   6.917   2.018   5.361
  263SOL    HW2 1689   6.773   1.965   5.305
  264SOL     OW 1690   3.167   3.955   6.205
  264SOL    HW1 1691   3.071   3.981   6.207
  264SOL    HW2 1692   3.181   3.884   6.135
  265SOL     OW 1693   5.707   5.222   5.837
  265SOL    HW1 1694   5.801   5.255   5.838
  265SOL    HW2 1695   5.688   5.172   5.922
  266SOL     OW 1696   3.418   2.361   6.731
  266SOL    HW1 1697   3.360   2.380   6.809
  266SOL    HW2 1698   3.374   2.294   6.671
  267SOL     OW 1699   1.295   1.471   5.766
  267SOL    HW1 1700   1.318   1.528   5.844
  267SOL    HW2 1701   1.300   1.375   5.792
  268SOL     OW 1702   3.072   5.885   3.884
  268SOL    HW1 1703   3.145   5.855   3.946
  268SOL    HW2 1704   3.105   5.961   3.828
  269SOL     OW 1705   1.497   1.220   5.644
  269SOL    HW1 1706   1.537   1.304   5.607
  269SOL    HW2 1707   1.532   1.141   5.594
  270SOL     OW 1708   5.435   6.884   4.488
  270SOL    HW1 1709   5.337   6.896   4.471
  270SOL    HW2 1710   5.485   6.890   4.401
  271SOL     OW 1711   1.564   1.714   6.933
  271SOL    HW1 1712   1.484   1.658   6.952
  271SOL    HW2 1713   1.645   1.672   6.974
  272SOL     OW 1714   5.039   5.840   2.313
  272SOL    HW1 1715   5.115   5.905   2.315
  272SOL    HW2 1716   4.966   5.875   2.255
  273SOL     OW 1717   3.196   6.777   4.698
  273SOL    HW1 1718   3.244   6.769   4.786
  273SOL    HW2 1719   3.232   6.857   4.648
  274SOL     OW 1720   5.701   1.596   0.858
  274SOL    HW1 1721   5.717   1.550   0.946
  274SOL    HW2 1722   5.699   1.695   0.872
  275SOL     OW 1723   5.671   5.598   5.294
  275SOL    HW1 1724   5.599   5.543   5.251
  275SOL    HW2 1725   5.691   5.677   5.237
  276SOL     OW 1726   0.412   6.381   3.724
  276SOL    HW1 1727   0.402   6.299   3.668
  276SOL    HW2 1728   0.321   6.414   3.750
  277SOL     OW 1729   4.609   2.214   5.796
  277SOL    HW1 1730   4.683   2.193   5.861
  277SOL    HW2 1731   4.580   2.130   5.751
  278SOL     OW 1732   5.673   3.343   3.208
  278SOL    HW1 1733   5.710   3.334   3.301
  278SOL    HW2 1734   5.720   3.280   3.147
  279SOL     OW 1735   0.957   4.110   4.499
  279SOL    HW1 1736   0.977   4.093   4.595
  279SOL    HW2 1737   0.859   4.126   4.488
  280SOL     OW 1738   3.447   0.921   3.400
  280SOL    HW1 1739   3.360   0.934   3.354
  280SOL    HW2 1740   3.514   0.988   3.365
  281SOL     OW 1741   5.521   6.687   4.669
  281SOL    HW1 1742   5.507   6.748   4.591
  281SOL    HW2 1743   5.611   6.706   4.710
  282SOL     OW 1744   1.585   2.619   0.043
  282SOL    HW1 1745   1.583   2.601   0.141
  282SOL    HW2 1746   1.646   2.554   7.023
  283SOL     OW 1747   6.355   2.610   4.678
  283SOL    HW1 1748   6.444   2.606   4.723
  283SOL    HW2 1749   6.283   2.592   4.745
  284SOL     OW 1750   4.735   5.348   3.088
  284SOL    HW1 1751   4.671   5.279   3.054
  284SOL    HW2 1752   4.729   5.430   3.031
  285SOL     OW 1753   4.488   0.492   5.508
  285SOL    HW1 1754   4.462   0.499   5.411
  285SOL    HW2 1755   4.569   0.548   5.525
  286SOL     OW 1756   2.530   4.941   5.721
  286SOL    HW1 1757   2.435   4.970   5.736
  286SOL    HW2 1758   2.592   5.009   5.760
  287SOL     OW 1759   3.174   0.447   6.739
  287SOL    HW1 1760   3.246   0.483   6.680
  287SOL    HW2 1761   3.092   0.502   6.729
  288SOL     OW 1762   3.911   1.045   1.191
  288SOL    HW1 1763   3.849   1.081   1.260
  288SOL    HW2 1764   3.920   0.946   1.201
  289SOL     OW 1765   6.291   5.813   3.625
  289SOL    HW1 1766   6.307   5.908   3.648
  289SOL    HW2 1767   6.365   5.780   3.566
  290SOL     OW 1768   3.518   0.816   6.345
  290SOL    HW1 1769   3.580   0.842   6.419
  290SOL    HW2 1770   3.457   0.893   6.324
  291SOL     OW 1771   3.579   0.240   5.184
  291SOL    HW1 1772   3.628   0.286   5.259
  291SOL    HW2 1773   3.550   0.149   5.214
  292SOL     OW 1774   4.933   0.749   4.018
  292SOL    HW1 1775   4.993   0.825   4.044
  292SOL    HW2 1776   4.856   0.745   4.082
  293SOL     OW 1777   5.633   6.818   2.194
  293SOL    HW1 1778   5.696   6.883   2.236
  293SOL    HW2 1779   5.614   6.743   2.258
  294SOL     OW 1780   5.713   1.154   6.120
  294SOL    HW1 1781   5.715   1.246   6.081
  294SOL    HW2 1782   5.758   1.090   6.057
  295SOL     OW 1783   1.602   0.939   4.931
  295SOL    HW1 1784   1.657   0.873   4.879
  295SOL    HW2 1785   1.505   0.922   4.915
  296SOL     OW 1786   0.427   2.277   1.055
  296SOL    HW1 1787   0.342   2.309   1.095
  296SOL    HW2 1788   0.497   2.269   1.126
  297SOL     OW 1789   5.143   3.521   3.401
  297SOL    HW1 1790   5.090   3.590   3.451
  297SOL    HW2 1791   5.192   3.463   3.466
  298SOL     OW 1792   4.550   0.523   6.322
  298SOL    HW1 1793   4.545   0.621   6.339
  298SOL    HW2 1794   4.636   0.487   6.360
  299SOL     OW 1795   0.715   0.353   0.064
  299SOL    HW1 1796   0.660   0.290   0.009
  299SOL    HW2 1797   0.669   0.371   0.151
  300SOL     OW 1798   4.071   6.915   3.414
  300SOL    HW1 1799   4.123   6.879   3.492
  300SOL    HW2 1800   4.020   6.841   3.371
  301SOL     OW 1801   6.736   5.171   0.628
  301SOL    HW1 1802   6.700   5.252   0.582
  301SOL    HW2 1803   6.833   5.183   0.646
  302SOL     OW 1804   0.131   5.259   1.860
  302SOL    HW1 1805   0.199   5.203   1.813
  302SOL    HW2 1806   0.082   5.203   1.928
  303SOL     OW 1807   5.353   5.826   3.492
  303SOL    HW1 1808   5.296   5.794   3.415
  303SOL    HW2 1809   5.426   5.761   3.508
  304SOL     OW 1810   2.763   5.840   5.006
  304SOL    HW1 1811   2.853   5.811   4.973
  304SOL    HW2 1812   2.697   5.836   4.931
  305SOL     OW 1813   0.921   2.899   1.654
  305SOL    HW1 1814   1.011   2.857   1.664
  305SOL    HW2 1815   0.921   2.960   1.575
  306SOL     OW 1816   0.042   6.846   3.209
  306SOL    HW1 1817   0.011   6.923   3.153
  306SOL    HW2 1818   0.141   6.852   3.222
  307SOL     OW 1819   3.336   3.017   4.473
  307SOL    HW1 1820   3.366   3.112   4.473
  307SOL    HW2 1821   3.380   2.968   4.397
  308SOL     OW 1822   6.017   2.244   3.099
  308SOL    HW1 1823   5.966   2.166   3.063
  308SOL    HW2 1824   6.107   2.248   3.056
  309SOL     OW 1825   1.590   6.022   6.537
  309SOL    HW1 1826   1.562   5.960   6.465
  309SOL    HW2 1827   1.528   6.100   6.541
  310SOL     OW 1828   5.202   0.077   5.319
  310SOL    HW1 1829   5.275   0.009   5.320
  310SOL    HW2 1830   5.168   0.091   5.412
  311SOL     OW 1831   1.826   5.658   2.431
  311SOL    HW1 1832   1.888   5.721   2.385
  311SOL    HW2 1833   1.741   5.649   2.379
  312SOL     OW 1834   3.629   0.305   3.612
  312SOL    HW1 1835   3.695   0.317   3.537
  312SOL    HW2 1836   3.538   0.291   3.574
  313SOL     OW 1837   3.066   3.522   2.725
  313SOL    HW1 1838   3.010   3.589   2.775
  313SOL    HW2 1839   3.040   3.430   2.753
  314SOL     OW 1840   3.172   5.631   6.179
  314SOL    HW1 1841   3.113   5.620   6.259
  314SOL    HW2 1842   3.137   5.574   6.104
  315SOL     OW 1843   6.430   0.894   4.344
  315SOL    HW1 1844   6.496   0.849   4.283
  315SOL    HW2 1845   6.479   0.954   4.407
  316SOL     OW 1846   4.173   1.085   6.489
  316SOL    HW1 1847   4.084   1.083   6.533
  316SOL    HW2 1848   4.193   1.177   6.455
  317SOL     OW 1849   1.150   2.061   1.186
  317SOL    HW1 1850   1.220   2.019   1.128
  317SOL    HW2 1851   1.195   2.111   1.261
  318SOL     OW 1852   0.288   0.452   4.952
  318SOL    HW1 1853   0.330   0.523   5.009
  318SOL    HW2 1854   0.251   0.380   5.011
  319SOL     OW 1855   0.879   1.458   3.184
  319SOL    HW1 1856   0.864   1.512   3.267
  319SOL    HW2 1857   0.870   1.518   3.104
  320SOL     OW 1858   5.961   2.378   6.044
  320SOL    HW1 1859   5.872   2.343   6.016
  320SOL    HW2 1860   6.025   2.301   6.055
  321SOL     OW 1861   4.460   2.933   0.300
  321SOL    HW1 1862   4.414   3.005   0.247
  321SOL    HW2 1863   4.545   2.970   0.338
  322SOL     OW 1864   3.132   3.408   6.065
  322SOL    HW1 1865   3.188   3.334   6.102
  322SOL    HW2 1866   3.035   3.385   6.077
  323SOL     OW 1867   1.497   3.628   2.126
  323SOL    HW1 1868   1.592   3.627   2.095
  323SOL    HW2 1869   1.477   3.716   2.170
  324SOL     OW 1870   0.800   0.577   3.145
  324SOL    HW1 1871   0.785   0.613   3.053
  324SOL    HW2 1872   0.821   0.480   3.139
  325SOL     OW 1873   6.740   3.784   1.175
  325SOL    HW1 1874   6.772   3.716   1.110
  325SOL    HW2 1875   6.726   3.871   1.128
  326SOL     OW 1876   1.016   6.469   6.365
  326SOL    HW1 1877   1.007   6.414   6.282
  326SOL    HW2 1878   1.111   6.467   6.396
  327SOL     OW 1879   4.962   5.627   4.309
  327SOL    HW1 1880   5.032   5.660   4.373
  327SOL    HW2 1881   5.000   5.555   4.252
  328SOL     OW 1882   1.719   4.068   3.100
  328SOL    HW1 1883   1.742   4.070   3.003
  328SOL    HW2 1884   1.798   4.039   3.153
  329SOL     OW 1885   3.123   2.964   1.888
  329SOL    HW1 1886   3.202   2.978   1.828
  329SOL    HW2 1887   3.152   2.915   1.970
  330SOL     OW 1888   2.965   5.142   0.890
  330SOL    HW1 1889   2.908   5.117   0.969
  330SOL    HW2 1890   2.984   5.060   0.836
  331SOL     OW 1891   6.583   5.253   6.270
  331SOL    HW1 1892   6.595   5.158   6.241
  331SOL    HW2 1893   6.490   5.266   6.304
  332SOL     OW 1894   5.946   2.479   3.242
  332SOL    HW1 1895   5.985   2.393   3.208
  332SOL    HW2 1896   5.889   2.520   3.171
  333SOL     OW 1897   3.385   0.685   5.629
  333SOL    HW1 1898   3.401   0.709   5.533
  333SOL    HW2 1899   3.309   0.738   5.664
  334SOL     OW 1900   3.575   3.861   3.300
  334SOL    HW1 1901   3.549   3.946   3.345
  334SOL    HW2 1902   3.669   3.867   3.267
  335SOL     OW 1903   3.890   1.652   1.269
  335SOL    HW1 1904   3.914   1.584   1.200
  335SOL    HW2 1905   3.798   1.686   1.251
  336SOL     OW 1906   2.842   1.807   4.204
  336SOL    HW1 1907   2.777   1.731   4.204
  336SOL    HW2 1908   2.879   1.820   4.296
  337SOL     OW 1909   1.153   0.986   5.345
  337SOL    HW1 1910   1.109   0.997   5.434
  337SOL    HW2 1911   1.200   1.070   5.320
  338SOL     OW 1912   4.384   1.591   1.478
  338SOL    HW1 1913   4.464   1.641   1.444
  338SOL    HW2 1914   4.376   1.605   1.576
  339SOL     OW 1915   4.126   6.143   5.171
  339SOL    HW1 1916   4.202   6.083   5.195
  339SOL    HW2 1917   4.113   6.211   5.244
  340SOL     OW 1918   5.192   2.342   4.419
  340SOL    HW1 1919   5.159   2.384   4.334
  340SOL    HW2 1920   5.292   2.336   4.417
  341SOL     OW 1921   6.306   0.109   3.221
  341SOL    HW1 1922   6.251   0.053   3.283
  341SOL    HW2 1923   6.401   0.078   3.223
  342SOL     OW 1924   4.470   2.343   2.536
  342SOL    HW1 1925   4.534   2.334   2.613
  342SOL    HW2 1926   4.482   2.432   2.493
  343SOL     OW 1927   6.652   6.305   2.434
  343SOL    HW1 1928   6.716   6.333   2.362
  343SOL    HW2 1929   6.608   6.387   2.472
  344SOL     OW 1930   1.023   1.749   0.770
  344SOL    HW1 1931   0.960   1.795   0.707
  344SOL    HW2 1932   1.030   1.802   0.855
  345SOL     OW 1933   6.387   3.387   4.011
  345SOL    HW1 1934   6.329   3.463   3.981
  345SOL    HW2 1935   6.371   3.308   3.952
  346SOL     OW 1936   1.697   6.447   3.695
  346SOL    HW1 1937   1.637   6.375   3.730
  346SOL    HW2 1938   1.759   6.408   3.627
  347SOL     OW 1939   2.207   5.110   0.382
  347SOL    HW1 1940   2.241   5.035   0.439
  347SOL    HW2 1941   2.124   5.148   0.422
  348SOL     OW 1942   4.228   5.185   1.372
  348SOL    HW1 1943   4.295   5.138   1.429
  348SOL    HW2 1944   4.220   5.138   1.284
  349SOL     OW 1945   5.972   4.328   1.406
  349SOL    HW1 1946   6.006   4.394   1.339
  349SOL    HW2 1947   5.975   4.368   1.497
  350SOL     OW 1948   3.379   2.794   0.345
  350SOL    HW1 1949   3.448   2.771   0.414
  350SOL    HW2 1950   3.377   2.893   0.331
  351SOL     OW 1951   3.097   4.441   1.027
  351SOL    HW1 1952   3.137   4.467   1.114
  351SOL    HW2 1953   3.083   4.342   1.025
  352SOL     OW 1954   4.117   0.475   2.985
  352SOL    HW1 1955   4.063   0.403   2.942
  352SOL    HW2 1956   4.176   0.518   2.917
  353SOL     OW 1957   2.270   6.579   6.291
  353SOL    HW1 1958   2.220   6.661   6.262
  353SOL    HW2 1959   2.367   6.589   6.266
  354SOL     OW 1960   0.422   2.839   0.626
  354SOL    HW1 1961   0.429   2.925   0.574
  354SOL    HW2 1962   0.426   2.762   0.563
  355SOL     OW 1963   1.543   1.363   2.584
  355SOL    HW1 1964   1.458   1.327   2.624
  355SOL    HW2 1965   1.576   1.439   2.639
  356SOL     OW 1966   1.631   0.926   6.035
  356SOL    HW1 1967   1.615   0.828   6.042
  356SOL    HW2 1968   1.698   0.944   5.963
  357SOL     OW 1969   5.018   0.072   5.131
  357SOL    HW1 1970   5.085   0.083   5.205
  357SOL    HW2 1971   5.034   0.142   5.061
  358SOL     OW 1972   3.832   5.700   6.540
  358SOL    HW1 1973   3.896   5.771   6.570
  358SOL    HW2 1974   3.841   5.621   6.601
  359SOL     OW 1975   2.134   2.091   2.703
  359SOL    HW1 1976   2.099   2.127   2.616
  359SOL    HW2 1977   2.225   2.127   2.720
  360SOL     OW 1978   0.877   4.416   4.335
  360SOL    HW1 1979   0.976   4.413   4.344
  360SOL    HW2 1980   0.835   4.413   4.426
  361SOL     OW 1981   6.353   1.833   2.842
  361SOL    HW1 1982   6.448   1.860   2.826
  361SOL    HW2 1983   6.329   1.759   2.779
  362SOL     OW 1984   3.684   4.736   0.884
  362SOL    HW1 1985   3.639   4.693   0.961
  362SOL    HW2 1986   3.670   4.835   0.887
  363SOL     OW 1987   5.165   5.322   1.604
  363SOL    HW1 1988   5.238   5.388   1.587
  363SOL    HW2 1989   5.094   5.332   1.534
  364SOL     OW 1990   0.973   6.585   6.000
  364SOL    HW1 1991   1.023   6.660   6.043
  364SOL    HW2 1992   1.007   6.498   6.036
  365SOL     OW 1993   4.611   1.550   3.478
  365SOL    HW1 1994   4.680   1.478   3.482
  365SOL    HW2 1995   4.537   1.522   3.416
  366SOL     OW 1996   4.950   1.892   7.021
  366SOL    HW1 1997   4.894   1.893   6.938
  366SOL    HW2 1998   4.933   1.976   0.048
  367SOL     OW 1999   5.440   1.711   5.420
  367SOL    HW1 2000   5.512   1.677   5.480
  367SOL    HW2 2001   5.463   1.692   5.325
  368SOL     OW 2002   6.722   2.180   5.632
  368SOL    HW1 2003   6.658   2.131   5.693
  368SOL    HW2 2004   6.806   2.126   5.623
  369SOL     OW 2005   6.445   3.353   2.043
  369SOL    HW1 2006   6.400   3.431   2.000
  369SOL    HW2 2007   6.385   3.273   2.039
  370SOL     OW 2008   1.150   3.044   3.468
  370SOL    HW1 2009   1.165   2.979   3.394
  370SOL    HW2 2010   1.136   2.995   3.554
  371SOL     OW 2011   1.060   4.807   0.070
  371SOL    HW1 2012   0.983   4.781   0.130
  371SOL    HW2 2013   1.075   4.906   0.078
  372SOL     OW 2014   3.722   5.844   6.148
  372SOL    HW1 2015   3.782   5.772   6.113
  372SOL    HW2 2016   3.660   5.873   6.076
  373SOL     OW 2017   5.644   5.536   3.914
  373SOL    HW1 2018   5.610   5.591   3.838
  373SOL    HW2 2019   5.632   5.585   4.000
  374SOL     OW 2020   2.788   1.874   3.270
  374SOL    HW1 2021   2.850   1.800   3.245
  374SOL    HW2 2022   2.761   1.864   3.366
  375SOL     OW 2023   1.170   5.322   4.371
  375SOL    HW1 2024   1.234   5.379   4.422
  375SOL    HW2 2025   1.217   5.283   4.291
  376SOL     OW 2026   2.762   0.823   3.860
  376SOL    HW1 2027   2.698   0.898   3.844
  376SOL    HW2 2028   2.838   0.830   3.795
  377SOL     OW 2029   0.737   1.804   6.458
  377SOL    HW1 2030   0.768   1.865   6.530
  377SOL    HW2 2031   0.649   1.765   6.483
  378SOL     OW 2032   4.146   0.982   2.197
  378SOL    HW1 2033   4.077   1.045   2.161
  378SOL    HW2 2034   4.153   0.902   2.137
  379SOL     OW 2035   5.706   1.760   6.548
  379SOL    HW1 2036   5.766   1.740   6.470
  379SOL    HW2 2037   5.682   1.674   6.594
  380SOL     OW 2038   4.191   2.230   0.707
  380SOL    HW1 2039   4.113   2.230   0.770
  380SOL    HW2 2040   4.256   2.301   0.734
  381SOL     OW 2041   1.843   3.772   2.780
  381SOL    HW1 2042   1.822   3.693   2.722
  381SOL    HW2 2043   1.935   3.761   2.819
  382SOL     OW 2044   4.873   0.707   6.958
  382SOL    HW1 2045   4.939   0.721   0.007
  382SOL    HW2 2046   4.880   0.782   6.893
  383SOL     OW 2047   4.664   2.262   0.823
  383SOL    HW1 2048   4.762   2.258   0.800
  383SOL    HW2 2049   4.645   2.192   0.892
  384SOL     OW 2050   5.795   3.811   4.680
  384SOL    HW1 2051   5.824   3.844   4.590
  384SOL    HW2 2052   5.701   3.777   4.673
  385SOL     OW 2053   4.417   3.884   0.620
  385SOL    HW1 2054   4.373   3.904   0.533
  385SOL    HW2 2055   4.485   3.955   0.640
  386SOL     OW 2056   3.950   6.347   3.628
  386SOL    HW1 2057   3.997   6.421   3.581
  386SOL    HW2 2058   3.859   6.334   3.588
  387SOL     OW 2059   2.556   6.501   3.618
  387SOL    HW1 2060   2.572   6.456   3.706
  387SOL    HW2 2061   2.575   6.599   3.626
  388SOL     OW 2062   2.009   4.321   6.338
  388SOL    HW1 2063   1.985   4.275   6.252
  388SOL    HW2 2064   1.930   4.322   6.399
  389SOL     OW 2065   2.882   3.598   3.298
  389SOL    HW1 2066   2.903   3.609   3.395
  389SOL    HW2 2067   2.927   3.671   3.245
  390SOL     OW 2068   2.079   1.029   4.081
  390SOL    HW1 2069   2.089   0.969   4.001
  390SOL    HW2 2070   2.057   1.122   4.050
  391SOL     OW 2071   1.175   3.081   0.209
  391SOL    HW1 2072   1.157   3.159   0.270
  391SOL    HW2 2073   1.137   3.100   0.119
  392SOL     OW 2074   2.212   5.488   2.548
  392SOL    HW1 2075   2.189   5.509   2.453
  392SOL    HW2 2076   2.187   5.565   2.606
  393SOL     OW 2077   6.131   4.379   5.084
  393SOL    HW1 2078   6.153   4.314   5.156
  393SOL    HW2 2079   6.197   4.454   5.085
  394SOL     OW 2080   2.324   0.619   7.006
  394SOL    HW1 2081   2.279   0.542   0.026
  394SOL    HW2 2082   2.261   0.696   6.999
  395SOL     OW 2083   5.962   3.662   1.203
  395SOL    HW1 2084   5.886   3.617   1.250
  395SOL    HW2 2085   6.048   3.632   1.244
  396SOL     OW 2086   3.264   3.959   3.826
  396SOL    HW1 2087   3.223   4.005   3.747
  396SOL    HW2 2088   3.222   3.870   3.838
  397SOL     OW 2089   4.486   2.434   5.672
  397SOL    HW1 2090   4.525   2.363   5.730
  397SOL    HW2 2091   4.501   2.411   5.576
  398SOL     OW 2092   0.998   4.912   2.070
  398SOL    HW1 2093   0.959   4.891   1.981
  398SOL    HW2 2094   0.970   5.003   2.099
  399SOL     OW 2095   4.999   5.158   1.747
  399SOL    HW1 2096   5.072   5.219   1.718
  399SOL    HW2 2097   4.987   5.086   1.678
  400SOL     OW 2098   1.304   5.605   5.040
  400SOL    HW1 2099   1.285   5.592   5.138
  400SOL    HW2 2100   1.220   5.596   4.988
  401SOL     OW 2101   4.734   1.537   0.014
  401SOL    HW1 2102   4.703   1.632   0.012
  401SOL    HW2 2103   4.687   1.486   6.966
  402SOL     OW 2104   5.386   5.054   1.103
  402SOL    HW1 2105   5.314   5.090   1.161
  402SOL    HW2 2106   5.429   5.129   1.053
  403SOL     OW 2107   5.038   2.699   5.764
  403SOL    HW1 2108   5.086   2.646   5.833
  403SOL    HW2 2109   5.072   2.674   5.673
  404SOL     OW 2110   0.818   0.386   4.470
  404SOL    HW1 2111   0.764   0.329   4.532
  404SOL    HW2 2112   0.814   0.481   4.499
  405SOL     OW 2113   0.417   2.116   0.848
  405SOL    HW1 2114   0.414   2.198   0.906
  405SOL    HW2 2115   0.431   2.143   0.753
  406SOL     OW 2116   1.883   3.032   3.803
  406SOL    HW1 2117   1.852   3.026   3.898
  406SOL    HW2 2118   1.973   3.075   3.799
  407SOL     OW 2119   3.007   0.711   4.683
  407SOL    HW1 2120   3.059   0.675   4.605
  407SOL    HW2 2121   2.988   0.637   4.747
  408SOL     OW 2122   1.797   0.491   3.667
  408SOL    HW1 2123   1.831   0.497   3.573
  408SOL    HW2 2124   1.720   0.554   3.679
  409SOL     OW 2125   6.122   3.373   3.610
  409SOL    HW1 2126   6.125   3.301   3.679
  409SOL    HW2 2127   6.202   3.364   3.550
  410SOL     OW 2128   2.622   1.104   6.731
  410SOL    HW1 2129   2.690   1.169   6.696
  410SOL    HW2 2130   2.585   1.050   6.656
  411SOL     OW 2131   6.079   4.439   5.434
  411SOL    HW1 2132   6.163   4.473   5.391
  411SOL    HW2 2133   6.014   4.514   5.444
  412SOL     OW 2134   3.889   0.765   2.750
  412SOL    HW1 2135   3.927   0.740   2.839
  412SOL    HW2 2136   3.804   0.816   2.762
  413SOL     OW 2137   3.212   6.312   0.507
  413SOL    HW1 2138   3.268   6.281   0.430
  413SOL    HW2 2139   3.126   6.260   0.508
  414SOL     OW 2140   4.086   3.896   0.524
  414SOL    HW1 2141   4.075   3.833   0.600
  414SOL    HW2 2142   3.996   3.925   0.490
  415SOL     OW 2143   2.074   6.943   1.109
  415SOL    HW1 2144   2.098   0.001   1.059
  415SOL    HW2 2145   2.019   6.967   1.189
  416SOL     OW 2146   4.048   5.918   4.866
  416SOL    HW1 2147   3.989   5.914   4.786
  416SOL    HW2 2148   4.001   5.965   4.940
  417SOL     OW 2149   4.349   6.059   1.729
  417SOL    HW1 2150   4.313   6.044   1.637
  417SOL    HW2 2151   4.275   6.085   1.790
  418SOL     OW 2152   5.047   5.402   1.132
  418SOL    HW1 2153   5.052   5.499   1.109
  418SOL    HW2 2154   4.962   5.364   1.095
  419SOL     OW 2155   6.882   6.702   1.210
  419SOL    HW1 2156   6.837   6.727   1.125
  419SOL    HW2 2157   6.967   6.652   1.189
  420SOL     OW 2158   4.661   4.967   0.520
  420SOL    HW1 2159   4.689   5.059   0.547
  420SOL    HW2 2160   4.580   4.940   0.573
  421SOL     OW 2161   2.322   6.195   6.392
  421SOL    HW1 2162   2.281   6.255   6.460
  421SOL    HW2 2163   2.254   6.129   6.359
  422SOL     OW 2164   5.229   4.006   6.572
  422SOL    HW1 2165   5.209   4.034   6.478
  422SOL    HW2 2166   5.319   3.963   6.576
  423SOL     OW 2167   6.892   3.375   0.033
  423SOL    HW1 2168   6.920   3.391   6.963
  423SOL    HW2 2169   6.954   3.422   0.095
  424SOL     OW 2170   2.975   4.138   0.146
  424SOL    HW1 2171   2.877   4.132   0.164
  424SOL    HW2 2172   3.003   4.062   0.087
  425SOL     OW 2173   3.461   1.747   0.518
  425SOL    HW1 2174   3.476   1.758   0.616
  425SOL    HW2 2175   3.377   1.693   0.504
  426SOL     OW 2176   5.485   3.866   6.067
  426SOL    HW1 2177   5.434   3.782   6.052
  426SOL    HW2 2178   5.444   3.917   6.142
  427SOL     OW 2179   5.467   3.763   1.059
  427SOL    HW1 2180   5.470   3.716   0.971
  427SOL    HW2 2181   5.560   3.784   1.090
  428SOL     OW 2182   3.767   0.786   5.217
  428SOL    HW1 2183   3.852   0.805   5.268
  428SOL    HW2 2184   3.691   0.832   5.262
  429SOL     OW 2185   1.605   4.860   0.266
  429SOL    HW1 2186   1.530   4.892   0.208
  429SOL    HW2 2187   1.681   4.925   0.263
  430SOL     OW 2188   1.377   0.241   5.146
  430SOL    HW1 2189   1.358   0.161   5.089
  430SOL    HW2 2190   1.297   0.302   5.145
  431SOL     OW 2191   3.551   1.708   0.836
  431SOL    HW1 2192   3.593   1.768   0.904
  431SOL    HW2 2193   3.558   1.613   0.866
  432SOL     OW 2194   0.030   1.558   1.180
  432SOL    HW1 2195   0.010   1.619   1.257
  432SOL    HW2 2196   7.025   1.466   1.201
  433SOL     OW 2197   3.237   6.429   5.264
  433SOL    HW1 2198   3.143   6.400   5.282
  433SOL    HW2 2199   3.293   6.349   5.239
  434SOL     OW 2200   6.474   3.319   1.586
  434SOL    HW1 2201   6.438   3.399   1.632
  434SOL    HW2 2202   6.405   3.247   1.584
  435SOL     OW 2203   2.927   4.399   0.059
  435SOL    HW1 2204   2.937   4.301   0.073
  435SOL    HW2 2205   2.973   4.426   6.999
  436SOL     OW 2206   1.816   0.480   0.669
  436SOL    HW1 2207   1.820   0.538   0.750
  436SOL    HW2 2208   1.903   0.486   0.620
  437SOL     OW 2209   6.975   0.257   6.575
  437SOL    HW1 2210   7.018   0.192   6.638
  437SOL    HW2 2211   6.878   0.267   6.598
  438SOL     OW 2212   1.186   2.777   1.645
  438SOL    HW1 2213   1.224   2.792   1.554
  438SOL    HW2 2214   1.171   2.679   1.658
  439SOL     OW 2215   6.497   4.933   2.873
  439SOL    HW1 2216   6.470   5.023   2.838
  439SOL    HW2 2217   6.571   4.945   2.940
  440SOL     OW 2218   1.233   2.656   4.028
  440SOL    HW1 2219   1.221   2.672   4.125
  440SOL    HW2 2220   1.205   2.562   4.006
  441SOL     OW 2221   1.239   1.580   3.361
  441SOL    HW1 2222   1.252   1.522   3.281
  441SOL    HW2 2223   1.324   1.585   3.413
  442SOL     OW 2224   7.023   3.583   0.169
  442SOL    HW1 2225   0.091   3.616   0.184
  442SOL    HW2 2226   6.962   3.621   0.238
  443SOL     OW 2227   0.914   4.223   5.127
  443SOL    HW1 2228   0.959   4.214   5.216
  443SOL    HW2 2229   0.889   4.319   5.112
  444SOL     OW 2230   4.510   2.531   6.216
  444SOL    HW1 2231   4.486   2.534   6.314
  444SOL    HW2 2232   4.520   2.436   6.187
  445SOL     OW 2233   2.433   4.332   3.490
  445SOL    HW1 2234   2.431   4.256   3.555
  445SOL    HW2 2235   2.345   4.336   3.442
  446SOL     OW 2236   3.800   4.927   3.904
  446SOL    HW1 2237   3.818   4.880   3.817
  446SOL    HW2 2238   3.782   5.023   3.887
  447SOL     OW 2239   6.859   5.611   0.452
  447SOL    HW1 2240   6.870   5.521   0.495
  447SOL    HW2 2241   6.873   5.601   0.353
  448SOL     OW 2242   4.203   1.115   4.590
  448SOL    HW1 2243   4.298   1.142   4.604
  448SOL    HW2 2244   4.184   1.109   4.492
  449SOL     OW 2245   5.407   1.283   4.736
  449SOL    HW1 2246   5.309   1.284   4.718
  449SOL    HW2 2247   5.439   1.377   4.745
  450SOL     OW 2248   0.299   6.027   3.746
  450SOL    HW1 2249   0.269   6.089   3.818
  450SOL    HW2 2250   0.354   5.954   3.786
  451SOL     OW 2251   0.420   2.175   2.954
  451SOL    HW1 2252   0.413   2.227   2.869
  451SOL    HW2 2253   0.496   2.110   2.947
  452SOL     OW 2254   0.335   4.478   6.716
  452SOL    HW1 2255   0.345   4.430   6.804
  452SOL    HW2 2256   0.402   4.441   6.651
  453SOL     OW 2257   3.357   1.473   6.552
  453SOL    HW1 2258   3.327   1.460   6.457
  453SOL    HW2 2259   3.292   1.533   6.599
  454SOL     OW 2260   0.748   6.220   6.733
  454SOL    HW1 2261   0.697   6.139   6.763
  454SOL    HW2 2262   0.717   6.247   6.641
  455SOL     OW 2263   6.189   0.760   4.786
  455SOL    HW1 2264   6.241   0.703   4.849
  455SOL    HW2 2265   6.226   0.750   4.693
  456SOL     OW 2266   4.504   5.915   6.295
  456SOL    HW1 2267   4.405   5.923   6.289
  456SOL    HW2 2268   4.547   5.973   6.225
  457SOL     OW 2269   2.269   4.693   3.332
  457SOL    HW1 2270   2.236   4.691   3.238
  457SOL    HW2 2271   2.316   4.607   3.353
  458SOL     OW 2272   6.310   5.253   5.468
  458SOL    HW1 2273   6.328   5.327   5.532
  458SOL    HW2 2274   6.213   5.229   5.470
  459SOL     OW 2275   1.609   0.650   2.262
  459SOL    HW1 2276   1.696   0.698   2.274
  459SOL    HW2 2277   1.600   0.620   2.167
  460SOL     OW 2278   6.541   2.092   2.557
  460SOL    HW1 2279   6.445   2.067   2.545
  460SOL    HW2 2280   6.563   2.168   2.496
  461SOL     OW 2281   4.834   6.382   5.430
  461SOL    HW1 2282   4.843   6.289   5.395
  461SOL    HW2 2283   4.814   6.380   5.528
  462SOL     OW 2284   3.313   3.050   6.543
  462SOL    HW1 2285   3.215   3.060   6.526
  462SOL    HW2 2286   3.327   3.015   6.636
  463SOL     OW 2287   6.999   5.096   2.673
  463SOL    HW1 2288   7.020   4.998   2.667
  463SOL    HW2 2289   6.900   5.108   2.680
  464SOL     OW 2290   1.640   1.505   6.383
  464SOL    HW1 2291   1.609   1.413   6.359
  464SOL    HW2 2292   1.711   1.534   6.318
  465SOL     OW 2293   0.400   2.478   4.012
  465SOL    HW1 2294   0.358   2.568   4.000
  465SOL    HW2 2295   0.338   2.407   3.978
  466SOL     OW 2296   1.281   6.688   4.184
  466SOL    HW1 2297   1.354   6.673   4.117
  466SOL    HW2 2298   1.193   6.689   4.137
  467SOL     OW 2299   1.797   0.547   5.808
  467SOL    HW1 2300   1.808   0.646   5.803
  467SOL    HW2 2301   1.718   0.519   5.753
  468SOL     OW 2302   3.776   5.437   1.106
  468SOL    HW1 2303   3.831   5.498   1.163
  468SOL    HW2 2304   3.679   5.451   1.125
  469SOL     OW 2305   2.149   5.610   6.881
  469SOL    HW1 2306   2.087   5.537   6.910
  469SOL    HW2 2307   2.182   5.660   6.961
  470SOL     OW 2308   4.219   0.875   2.554
  470SOL    HW1 2309   4.266   0.819   2.486
  470SOL    HW2 2310   4.131   0.833   2.578
  471SOL     OW 2311   2.314   2.785   4.681
  471SOL    HW1 2312   2.296   2.770   4.778
  471SOL    HW2 2313   2.401   2.833   4.670
  472SOL     OW 2314   4.641   5.785   6.045
  472SOL    HW1 2315   4.559   5.746   6.088
  472SOL    HW2 2316   4.654   5.878   6.077
  473SOL     OW 2317   1.132   3.208   2.505
  473SOL    HW1 2318   1.118   3.287   2.445
  473SOL    HW2 2319   1.176   3.238   2.590
  474SOL     OW 2320   3.996   5.179   5.079
  474SOL    HW1 2321   4.039   5.135   5.158
  474SOL    HW2 2322   3.913   5.227   5.108
  475SOL     OW 2323   0.027   6.736   6.112
  475SOL    HW1 2324   0.002   6.815   6.167
  475SOL    HW2 2325   0.093   6.680   6.162
  476SOL     OW 2326   6.555   4.855   2.618
  476SOL    HW1 2327   6.519   4.940   2.581
  476SOL    HW2 2328   6.529   4.847   2.715
  477SOL     OW 2329   2.227   5.261   3.956
  477SOL    HW1 2330   2.250   5.303   4.044
  477SOL    HW2 2331   2.185   5.172   3.971
  478SOL     OW 2332   3.548   5.636   3.633
  478SOL    HW1 2333   3.575   5.583   3.714
  478SOL    HW2 2334   3.573   5.732   3.646
  479SOL     OW 2335   3.173   2.520   0.471
  479SOL    HW1 2336   3.103   2.454   0.444
  479SOL    HW2 2337   3.258   2.471   0.492
  480SOL     OW 2338   0.718   6.857   2.599
  480SOL    HW1 2339   0.669   6.846   2.686
  480SOL    HW2 2340   0.713   6.952   2.570
  481SOL     OW 2341   3.171   0.253   1.590
  481SOL    HW1 2342   3.115   0.225   1.512
  481SOL    HW2 2343   3.184   0.352   1.588
  482SOL     OW 2344   6.124   4.943   2.717
  482SOL    HW1 2345   6.145   4.973   2.810
  482SOL    HW2 2346   6.113   4.843   2.716
  483SOL     OW 2347   5.601   1.739   1.839
  483SOL    HW1 2348   5.624   1.707   1.748
  483SOL    HW2 2349   5.684   1.758   1.891
  484SOL     OW 2350   0.550   3.163   4.193
  484SOL    HW1 2351   0.473   3.226   4.177
  484SOL    HW2 2352   0.627   3.214   4.231
  485SOL     OW 2353   3.380   5.081   2.041
  485SOL    HW1 2354   3.312   5.077   2.114
  485SOL    HW2 2355   3.342   5.130   1.963
  486SOL     OW 2356   0.822   0.585   6.986
  486SOL    HW1 2357   0.782   0.497   7.013
  486SOL    HW2 2358   0.892   0.569   6.916
  487SOL     OW 2359   0.694   2.375   0.246
  487SOL    HW1 2360   0.705   2.350   0.150
  487SOL    HW2 2361   0.776   2.422   0.278
  488SOL     OW 2362   0.167   1.992   1.969
  488SOL    HW1 2363   0.254   1.989   1.920
  488SOL    HW2 2364   0.092   1.999   1.903
  489SOL     OW 2365   3.362   6.042   6.995
  489SOL    HW1 2366   3.386   6.061   6.900
  489SOL    HW2 2367   3.317   6.122   0.009
  490SOL     OW 2368   6.493   6.406   4.203
  490SOL    HW1 2369   6.571   6.433   4.146
  490SOL    HW2 2370   6.454   6.321   4.167
  491SOL     OW 2371   1.113   2.488   2.574
  491SOL    HW1 2372   1.170   2.494   2.492
  491SOL    HW2 2373   1.171   2.483   2.655
  492SOL     OW 2374   2.725   0.101   6.348
  492SOL    HW1 2375   2.794   0.090   6.277
  492SOL    HW2 2376   2.737   0.030   6.417
  493SOL     OW 2377   6.292   4.514   5.277
  493SOL    HW1 2378   6.326   4.607   5.289
  493SOL    HW2 2379   6.369   4.450   5.270
  494SOL     OW 2380   0.506   7.004   0.255
  494SOL    HW1 2381   0.408   6.987   0.264
  494SOL    HW2 2382   0.525   0.016   0.164
  495SOL     OW 2383   4.787   4.561   1.718
  495SOL    HW1 2384   4.845   4.641   1.737
  495SOL    HW2 2385   4.710   4.560   1.782
  496SOL     OW 2386   5.424   3.546   2.989
  496SOL    HW1 2387   5.436   3.558   2.890
  496SOL    HW2 2388   5.327   3.556   3.012
  497SOL     OW 2389   3.632   0.983   4.558
  497SOL    HW1 2390   3.688   0.994   4.476
  497SOL    HW2 2391   3.543   1.027   4.544
  498SOL     OW 2392   0.249   2.751   2.468
  498SOL    HW1 2393   0.275   2.809   2.390
  498SOL    HW2 2394   0.310   2.768   2.545
  499SOL     OW 2395   3.912   0.345   5.125
  499SOL    HW1 2396   3.921   0.301   5.215
  499SOL    HW2 2397   3.820   0.382   5.115
  500SOL     OW 2398   0.543   3.472   2.762
  500SOL    HW1 2399   0.552   3.373   2.773
  500SOL    HW2 2400   0.568   3.518   2.847
  501SOL     OW 2401   1.975   3.216   6.565
  501SOL    HW1 2402   1.901   3.281   6.582
  501SOL    HW2 2403   1.939   3.133   6.524
  502SOL     OW 2404   4.419   4.949   6.637
  502SOL    HW1 2405   4.412   4.852   6.616
  502SOL    HW2 2406   4.381   5.003   6.562
  503SOL     OW 2407   5.843   4.649   5.718
  503SOL    HW1 2408   5.859   4.636   5.621
  503SOL    HW2 2409   5.885   4.574   5.769
  504SOL     OW 2410   2.415   6.165   4.581
  504SOL    HW1 2411   2.497   6.207   4.619
  504SOL    HW2 2412   2.380   6.221   4.506
  505SOL     OW 2413   4.732   0.417   5.823
  505SOL    HW1 2414   4.802   0.411   5.752
  505SOL    HW2 2415   4.764   0.478   5.896
  506SOL     OW 2416   1.727   4.338   5.282
  506SOL    HW1 2417   1.701   4.430   5.251
  506SOL    HW2 2418   1.825   4.324   5.267
  507SOL     OW 2419   3.523   0.020   4.816
  507SOL    HW1 2420   3.598   0.052   4.875
  507SOL    HW2 2421   3.465   0.097   4.791
  508SOL     OW 2422   6.586   3.717   3.024
  508SOL    HW1 2423   6.610   3.771   2.943
  508SOL    HW2 2424   6.501   3.667   3.006
  509SOL     OW 2425   4.876   1.373   1.917
  509SOL    HW1 2426   4.839   1.302   1.858
  509SOL    HW2 2427   4.824   1.458   1.905
  510SOL     OW 2428   6.795   4.504   5.071
  510SOL    HW1 2429   6.803   4.569   5.147
  510SOL    HW2 2430   6.795   4.554   4.984
  511SOL     OW 2431   0.494   6.268   0.257
  511SOL    HW1 2432   0.575   6.301   0.209
  511SOL    HW2 2433   0.417   6.328   0.237
  512SOL     OW 2434   1.655   3.429   7.021
  512SOL    HW1 2435   1.608   3.352   6.979
  512SOL    HW2 2436   1.680   3.495   6.950
  513SOL     OW 2437   6.408   5.956   3.893
  513SOL    HW1 2438   6.383   6.013   3.815
  513SOL    HW2 2439   6.488   5.900   3.870
  514SOL     OW 2440   6.359   1.832   4.181
  514SOL    HW1 2441   6.301   1.872   4.111
  514SOL    HW2 2442   6.455   1.835   4.151
  515SOL     OW 2443   2.355   6.763   5.784
  515SOL    HW1 2444   2.276   6.702   5.773
  515SOL    HW2 2445   2.342   6.820   5.865
  516SOL     OW 2446   2.192   4.641   1.241
  516SOL    HW1 2447   2.269   4.668   1.183
  516SOL    HW2 2448   2.171   4.715   1.305
  517SOL     OW 2449   4.653   0.084   1.691
  517SOL    HW1 2450   4.610   0.161   1.739
  517SOL    HW2 2451   4.723   0.044   1.750
  518SOL     OW 2452   2.466   2.259   1.212
  518SOL    HW1 2453   2.520   2.260   1.296
  518SOL    HW2 2454   2.374   2.224   1.232
  519SOL     OW 2455   0.431   0.492   6.101
  519SOL    HW1 2456   0.392   0.513   6.191
  519SOL    HW2 2457   0.359   0.492   6.033
  520SOL     OW 2458   5.562   4.869   6.139
  520SOL    HW1 2459   5.552   4.792   6.077
  520SOL    HW2 2460   5.472   4.894   6.176
  521SOL     OW 2461   6.941   1.936   6.668
  521SOL    HW1 2462   6.981   2.006   6.728
  521SOL    HW2 2463   6.992   1.931   6.583
  522SOL     OW 2464   3.748   3.216   4.834
  522SOL    HW1 2465   3.726   3.181   4.743
  522SOL    HW2 2466   3.722   3.148   4.903
  523SOL     OW 2467   6.734   0.286   4.110
  523SOL    HW1 2468   6.828   0.261   4.134
  523SOL    HW2 2469   6.670   0.237   4.169
  524SOL     OW 2470   3.020   1.147   6.474
  524SOL    HW1 2471   3.059   1.105   6.556
  524SOL    HW2 2472   3.011   1.078   6.402
  525SOL     OW 2473   2.762   3.968   6.672
  525SOL    HW1 2474   2.725   3.886   6.714
  525SOL    HW2 2475   2.861   3.973   6.691
  526SOL     OW 2476   3.287   5.437   4.223
  526SOL    HW1 2477   3.346   5.357   4.212
  526SOL    HW2 2478   3.330   5.503   4.285
  527SOL     OW 2479   0.072   1.451   6.491
  527SOL    HW1 2480   0.015   1.444   6.410
  527SOL    HW2 2481   0.029   1.402   6.566
  528SOL     OW 2482   2.256   1.551   5.002
  528SOL    HW1 2483   2.250   1.508   4.912
  528SOL    HW2 2484   2.273   1.649   4.992
  529SOL     OW 2485   1.196   4.940   4.400
  529SOL    HW1 2486   1.181   4.973   4.493
  529SOL    HW2 2487   1.254   4.858   4.403
  530SOL     OW 2488   2.332   3.143   5.395
  530SOL    HW1 2489   2.379   3.125   5.481
  530SOL    HW2 2490   2.376   3.091   5.321
  531SOL     OW 2491   0.682   0.566   1.151
  531SOL    HW1 2492   0.721   0.589   1.240
  531SOL    HW2 2493   0.589   0.601   1.145
  532SOL     OW 2494   1.110   1.105   5.609
  532SOL    HW1 2495   1.147   1.179   5.553
  532SOL    HW2 2496   1.113   1.131   5.706
  533SOL     OW 2497   5.546   6.448   5.146
  533SOL    HW1 2498   5.559   6.400   5.059
  533SOL    HW2 2499   5.612   6.412   5.213
  534SOL     OW 2500   4.574   5.143   3.018
  534SOL    HW1 2501   4.577   5.121   2.920
  534SOL    HW2 2502   4.490   5.106   3.058
  535SOL     OW 2503   0.494   4.319   3.878
  535SOL    HW1 2504   0.479   4.413   3.911
  535SOL    HW2 2505   0.498   4.257   3.957
  536SOL     OW 2506   1.579   5.588   1.336
  536SOL    HW1 2507   1.629   5.661   1.383
  536SOL    HW2 2508   1.554   5.517   1.402
  537SOL     OW 2509   2.164   0.091   2.362
  537SOL    HW1 2510   2.233   0.019   2.355
  537SOL    HW2 2511   2.111   0.078   2.446
  538SOL     OW 2512   0.817   5.905   3.002
  538SOL    HW1 2513   0.721   5.901   2.973
  538SOL    HW2 2514   0.822   5.929   3.099
  539SOL     OW 2515   1.648   5.099   2.139
  539SOL    HW1 2516   1.578   5.055   2.195
  539SOL    HW2 2517   1.738   5.089   2.183
  540SOL     OW 2518   1.635   2.488   2.313
  540SOL    HW1 2519   1.555   2.528   2.357
  540SOL    HW2 2520   1.640   2.521   2.218
  541SOL     OW 2521   3.314   6.045   5.526
  541SOL    HW1 2522   3.290   5.956   5.487
  541SOL    HW2 2523   3.238   6.079   5.581
  542SOL     OW 2524   5.863   5.527   6.718
  542SOL    HW1 2525   5.794   5.571   6.774
  542SOL    HW2 2526   5.953   5.536   6.761
  543SOL     OW 2527   0.995   4.907   6.844
  543SOL    HW1 2528   1.086   4.924   6.807
  543SOL    HW2 2529   1.003   4.856   6.930
  544SOL     OW 2530   0.689   4.987   0.676
  544SOL    HW1 2531   0.601   5.008   0.720
  544SOL    HW2 2532   0.688   4.892   0.645
  545SOL     OW 2533   3.816   1.308   2.986
  545SOL    HW1 2534   3.911   1.324   2.958
  545SOL    HW2 2535   3.805   1.333   3.082
  546SOL     OW 2536   1.454   3.424   1.153
  546SOL    HW1 2537   1.510   3.503   1.175
  546SOL    HW2 2538   1.375   3.422   1.213
  547SOL     OW 2539   2.535   3.312   0.218
  547SOL    HW1 2540   2.452   3.273   0.179
  547SOL    HW2 2541   2.511   3.373   0.293
  548SOL     OW 2542   3.735   2.972   4.164
  548SOL    HW1 2543   3.759   3.064   4.136
  548SOL    HW2 2544   3.715   2.916   4.083
  549SOL     OW 2545   5.552   3.631   1.355
  549SOL    HW1 2546   5.523   3.541   1.322
  549SOL    HW2 2547   5.567   3.692   1.278
  550SOL     OW 2548   6.362   3.144   2.398
  550SOL    HW1 2549   6.377   3.048   2.374
  550SOL    HW2 2550   6.406   3.164   2.486
  551SOL     OW 2551   6.251   1.920   0.606
  551SOL    HW1 2552   6.286   1.914   0.512
  551SOL    HW2 2553   6.168   1.866   0.614
  552SOL     OW 2554   3.580   5.512   0.753
  552SOL    HW1 2555   3.584   5.463   0.666
  552SOL    HW2 2556   3.661   5.489   0.807
  553SOL     OW 2557   2.082   1.015   1.284
  553SOL    HW1 2558   2.000   1.046   1.332
  553SOL    HW2 2559   2.159   1.074   1.307
  554SOL     OW 2560   5.792   6.365   5.289
  554SOL    HW1 2561   5.807   6.464   5.293
  554SOL    HW2 2562   5.758   6.333   5.377
  555SOL     OW 2563   1.612   4.589   4.447
  555SOL    HW1 2564   1.691   4.621   4.498
  555SOL    HW2 2565   1.635   4.581   4.350
  556SOL     OW 2566   5.761   2.514   3.836
  556SOL    HW1 2567   5.782   2.485   3.743
  556SOL    HW2 2568   5.846   2.532   3.885
  557SOL     OW 2569   0.145   6.618   6.352
  557SOL    HW1 2570   0.233   6.599   6.309
  557SOL    HW2 2571   0.096   6.532   6.368
  558SOL     OW 2572   4.145   3.745   5.058
  558SOL    HW1 2573   4.132   3.650   5.030
  558SOL    HW2 2574   4.109   3.806   4.986
  559SOL     OW 2575   0.028   6.329   6.555
  559SOL    HW1 2576   0.021   6.353   6.652
  559SOL    HW2 2577   0.061   6.235   6.546
  560SOL     OW 2578   4.522   0.286   0.561
  560SOL    HW1 2579   4.464   0.348   0.508
  560SOL    HW2 2580   4.488   0.282   0.655
  561SOL     OW 2581   5.767   0.022   0.581
  561SOL    HW1 2582   5.811   0.042   0.494
  561SOL    HW2 2583   5.667   0.025   0.570
  562SOL     OW 2584   5.281   1.406   5.518
  562SOL    HW1 2585   5.201   1.465   5.512
  562SOL    HW2 2586   5.319   1.392   5.426
  563SOL     OW 2587   3.183   6.472   4.309
  563SOL    HW1 2588   3.259   6.433   4.362
  563SOL    HW2 2589   3.218   6.541   4.246
  564SOL     OW 2590   6.883   1.238   6.568
  564SOL    HW1 2591   6.931   1.270   6.650
  564SOL    HW2 2592   6.838   1.315   6.524
  565SOL     OW 2593   4.767   4.074   5.481
  565SOL    HW1 2594   4.828   4.132   5.535
  565SOL    HW2 2595   4.766   4.106   5.386
  566SOL     OW 2596   4.760   4.393   2.835
  566SOL    HW1 2597   4.742   4.331   2.758
  566SOL    HW2 2598   4.758   4.488   2.803
  567SOL     OW 2599   3.133   3.312   4.657
  567SOL    HW1 2600   3.058   3.355   4.708
  567SOL    HW2 2601   3.205   3.285   4.722
  568SOL     OW 2602   2.409   1.925   0.260
  568SOL    HW1 2603   2.429   1.970   0.173
  568SOL    HW2 2604   2.473   1.957   0.330
  569SOL     OW 2605   2.078   2.933   0.996
  569SOL    HW1 2606   2.164   2.950   0.947
  569SOL    HW2 2607   2.095   2.931   1.094
  570SOL     OW 2608   0.115   5.981   1.030
  570SOL    HW1 2609   0.028   6.017   0.995
  570SOL    HW2 2610   0.115   5.987   1.130
  571SOL     OW 2611   4.200   5.180   2.845
  571SOL    HW1 2612   4.274   5.179   2.778
  571SOL    HW2 2613   4.228   5.129   2.926
  572SOL     OW 2614   1.363   3.892   4.879
  572SOL    HW1 2615   1.429   3.918   4.808
  572SOL    HW2 2616   1.378   3.948   4.960
  573SOL     OW 2617   3.627   1.762   5.464
  573SOL    HW1 2618   3.616   1.789   5.559
  573SOL    HW2 2619   3.553   1.698   5.438
  574SOL     OW 2620   2.023   2.030   4.352
  574SOL    HW1 2621   1.941   2.010   4.404
  574SOL    HW2 2622   2.085   2.086   4.407
  575SOL     OW 2623   5.795   2.444   0.111
  575SOL    HW1 2624   5.869   2.453   0.044
  575SOL    HW2 2625   5.770   2.534   0.146
  576SOL     OW 2626   1.161   1.245   2.319
  576SOL    HW1 2627   1.216   1.171   2.280
  576SOL    HW2 2628   1.099   1.208   2.388
  577SOL     OW 2629   3.033   1.895   3.492
  577SOL    HW1 2630   3.084   1.966   3.542
  577SOL    HW2 2631   2.987   1.836   3.557
  578SOL     OW 2632   0.461   3.752   3.775
  578SOL    HW1 2633   0.426   3.699   3.699
  578SOL    HW2 2634   0.544   3.709   3.812
  579SOL     OW 2635   4.343   2.526   6.734
  579SOL    HW1 2636   4.315   2.431   6.741
  579SOL    HW2 2637   4.358   2.563   6.826
  580SOL     OW 2638   1.348   5.523   6.269
  580SOL    HW1 2639   1.304   5.527   6.359
  580SOL    HW2 2640   1.400   5.439   6.261
  581SOL     OW 2641   4.075   3.182   2.785
  581SOL    HW1 2642   4.006   3.118   2.818
  581SOL    HW2 2643   4.135   3.208   2.860
  582SOL     OW 2644   5.343   3.502   2.438
  582SOL    HW1 2645   5.317   3.411   2.472
  582SOL    HW2 2646   5.372   3.494   2.343
  583SOL     OW 2647   2.303   4.247   0.195
  583SOL    HW1 2648   2.244   4.327   0.197
  583SOL    HW2 2649   2.366   4.249   0.273
  584SOL     OW 2650   6.870   4.953   4.932
  584SOL    HW1 2651   6.955   4.910   4.900
  584SOL    HW2 2652   6.829   5.004   4.856
  585SOL     OW 2653   6.888   1.647   6.825
  585SOL    HW1 2654   6.811   1.688   6.777
  585SOL    HW2 2655   6.922   1.710   6.894
  586SOL     OW 2656   2.733   6.640   0.476
  586SOL    HW1 2657   2.652   6.688   0.444
  586SOL    HW2 2658   2.719   6.610   0.570
  587SOL     OW 2659   1.079   3.585   5.349
  587SOL    HW1 2660   0.984   3.569   5.374
  587SOL    HW2 2661   1.126   3.632   5.423
  588SOL     OW 2662   3.283   6.529   1.561
  588SOL    HW1 2663   3.233   6.453   1.603
  588SOL    HW2 2664   3.316   6.590   1.633
  589SOL     OW 2665   4.143   5.364   2.489
  589SOL    HW1 2666   4.054   5.402   2.514
  589SOL    HW2 2667   4.131   5.274   2.448
  590SOL     OW 2668   0.005   1.558   1.857
  590SOL    HW1 2669   7.014   1.644   1.906
  590SOL    HW2 2670   0.010   1.576   1.759
  591SOL     OW 2671   3.603   6.980   3.183
  591SOL    HW1 2672   3.557   6.948   3.265
  591SOL    HW2 2673   3.688   6.929   3.170
  592SOL     OW 2674   4.932   0.900   0.381
  592SOL    HW1 2675   4.890   0.962   0.446
  592SOL    HW2 2676   4.891   0.809   0.390
  593SOL     OW 2677   5.061   2.554   3.903
  593SOL    HW1 2678   5.095   2.647   3.907
  593SOL    HW2 2679   5.134   2.492   3.876
  594SOL     OW 2680   3.857   3.063   1.557
  594SOL    HW1 2681   3.839   3.160   1.575
  594SOL    HW2 2682   3.903   3.023   1.636
  595SOL     OW 2683   3.745   6.084   3.376
  595SOL    HW1 2684   3.683   6.122   3.308
  595SOL    HW2 2685   3.839   6.106   3.351
  596SOL     OW 2686   1.420   4.354   3.063
  596SOL    HW1 2687   1.417   4.262   3.101
  596SOL    HW2 2688   1.334   4.401   3.084
  597SOL     OW 2689   4.063   1.511   5.443
  597SOL    HW1 2690   4.133   1.507   5.371
  597SOL    HW2 2691   3.979   1.551   5.406
  598SOL     OW 2692   3.864   4.681   1.175
  598SOL    HW1 2693   3.921   4.657   1.253
  598SOL    HW2 2694   3.780   4.627   1.177
  599SOL     OW 2695   6.071   6.659   2.536
  599SOL    HW1 2696   6.168   6.633   2.532
  599SOL    HW2 2697   6.015   6.588   2.493
  600SOL     OW 2698   2.064   6.845   0.179
  600SOL    HW1 2699   2.021   6.772   0.126
  600SOL    HW2 2700   2.146   6.878   0.132
  601SOL     OW 2701   3.206   5.568   3.961
  601SOL    HW1 2702   3.139   5.506   3.999
  601SOL    HW2 2703   3.177   5.598   3.870
  602SOL     OW 2704   2.479   0.642   1.371
  602SOL    HW1 2705   2.434   0.662   1.285
  602SOL    HW2 2706   2.438   0.697   1.444
  603SOL     OW 2707   4.420   1.958   3.406
  603SOL    HW1 2708   4.343   1.924   3.351
  603SOL    HW2 2709   4.436   2.054   3.384
  604SOL     OW 2710   0.418   4.121   6.337
  604SOL    HW1 2711   0.482   4.197   6.320
  604SOL    HW2 2712   0.367   4.139   6.421
  605SOL     OW 2713   5.909   0.442   4.237
  605SOL    HW1 2714   5.917   0.465   4.335
  605SOL    HW2 2715   5.993   0.399   4.206
  606SOL     OW 2716   3.052   0.125   3.555
  606SOL    HW1 2717   3.023   0.143   3.461
  606SOL    HW2 2718   3.098   0.036   3.559
  607SOL     OW 2719   5.269   0.828   4.335
  607SOL    HW1 2720   5.290   0.894   4.407
  607SOL    HW2 2721   5.170   0.820   4.325
  608SOL     OW 2722   4.079   1.458   1.675
  608SOL    HW1 2723   4.076   1.428   1.579
  608SOL    HW2 2724   4.049   1.554   1.681
  609SOL     OW 2725   3.708   3.702   4.422
  609SOL    HW1 2726   3.674   3.673   4.332
  609SOL    HW2 2727   3.708   3.802   4.428
  610SOL     OW 2728   4.958   2.475   4.518
  610SOL    HW1 2729   4.981   2.570   4.496
  610SOL    HW2 2730   5.040   2.418   4.508
  611SOL     OW 2731   0.864   7.004   0.546
  611SOL    HW1 2732   0.952   0.026   0.555
  611SOL    HW2 2733   0.835   6.971   0.636
  612SOL     OW 2734   3.246   5.609   5.798
  612SOL    HW1 2735   3.193   5.658   5.729
  612SOL    HW2 2736   3.215   5.513   5.802
  613SOL     OW 2737   3.285   1.891   0.141
  613SOL    HW1 2738   3.340   1.867   0.222
  613SOL    HW2 2739   3.205   1.944   0.170
  614SOL     OW 2740   4.987   4.824   1.142
  614SOL    HW1 2741   5.075   4.778   1.156
  614SOL    HW2 2742   4.925   4.764   1.093
  615SOL     OW 2743   6.616   0.013   0.782
  615SOL    HW1 2744   6.699   0.062   0.810
  615SOL    HW2 2745   6.587   6.976   0.855
  616SOL     OW 2746   5.787   1.798   4.679
  616SOL    HW1 2747   5.814   1.758   4.767
  616SOL    HW2 2748   5.819   1.892   4.674
  617SOL     OW 2749   0.336   5.027   5.636
  617SOL    HW1 2750   0.353   5.014   5.733
  617SOL    HW2 2751   0.238   5.013   5.617
  618SOL     OW 2752   6.640   3.781   0.557
  618SOL    HW1 2753   6.596   3.852   0.502
  618SOL    HW2 2754   6.614   3.793   0.653
  619SOL     OW 2755   2.413   0.232   6.813
  619SOL    HW1 2756   2.487   0.215   6.748
  619SOL    HW2 2757   2.448   0.223   6.906
  620SOL     OW 2758   6.779   1.300   2.649
  620SOL    HW1 2759   6.695   1.248   2.661
  620SOL    HW2 2760   6.762   1.396   2.668
  621SOL     OW 2761   3.380   1.146   6.920
  621SOL    HW1 2762   3.292   1.182   6.950
  621SOL    HW2 2763   3.403   1.065   6.975
  622SOL     OW 2764   1.033   1.666   5.160
  622SOL    HW1 2765   1.034   1.750   5.106
  622SOL    HW2 2766   1.021   1.688   5.257
  623SOL     OW 2767   6.238   6.843   4.471
  623SOL    HW1 2768   6.160   6.902   4.450
  623SOL    HW2 2769   6.293   6.830   4.388
  624SOL     OW 2770   6.128   1.235   6.310
  624SOL    HW1 2771   6.212   1.198   6.270
  624SOL    HW2 2772   6.062   1.162   6.323
  625SOL     OW 2773   2.459   1.514   0.741
  625SOL    HW1 2774   2.398   1.577   0.694
  625SOL    HW2 2775   2.409   1.434   0.771
  626SOL     OW 2776   0.213   4.946   3.792
  626SOL    HW1 2777   0.201   4.905   3.882
  626SOL    HW2 2778   0.248   4.877   3.728
  627SOL     OW 2779   6.649   0.198   6.857
  627SOL    HW1 2780   6.711   0.120   6.859
  627SOL    HW2 2781   6.652   0.241   6.767
  628SOL     OW 2782   4.605   4.804   5.905
  628SOL    HW1 2783   4.513   4.764   5.900
  628SOL    HW2 2784   4.642   4.789   5.996
  629SOL     OW 2785   0.516   6.807   6.382
  629SOL    HW1 2786   0.450   6.736   6.358
  629SOL    HW2 2787   0.608   6.768   6.380
  630SOL     OW 2788   6.829   0.839   1.208
  630SOL    HW1 2789   6.924   0.867   1.219
  630SOL    HW2 2790   6.787   0.828   1.298
  631SOL     OW 2791   1.762   2.667   4.655
  631SOL    HW1 2792   1.854   2.687   4.688
  631SOL    HW2 2793   1.734   2.577   4.687
  632SOL     OW 2794   3.468   3.613   6.587
  632SOL    HW1 2795   3.552   3.610   6.640
  632SOL    HW2 2796   3.431   3.520   6.579
  633SOL     OW 2797   1.911   6.318   1.351
  633SOL    HW1 2798   1.907   6.224   1.385
  633SOL    HW2 2799   2.006   6.349   1.348
  634SOL     OW 2800   3.199   3.048   4.226
  634SOL    HW1 2801   3.152   3.083   4.307
  634SOL    HW2 2802   3.291   3.019   4.251
  635SOL     OW 2803   5.425   1.031   6.499
  635SOL    HW1 2804   5.493   1.066   6.563
  635SOL    HW2 2805   5.423   1.090   6.418
  636SOL     OW 2806   2.899   0.950   6.282
  636SOL    HW1 2807   2.898   0.936   6.183
  636SOL    HW2 2808   2.920   0.863   6.328
  637SOL     OW 2809   6.300   1.609   2.695
  637SOL    HW1 2810   6.385   1.562   2.718
  637SOL    HW2 2811   6.222   1.554   2.726
  638SOL     OW 2812   6.204   3.572   4.459
  638SOL    HW1 2813   6.180   3.557   4.555
  638SOL    HW2 2814   6.121   3.577   4.404
  639SOL     OW 2815   5.256   4.815   2.501
  639SOL    HW1 2816   5.316   4.782   2.574
  639SOL    HW2 2817   5.178   4.755   2.492
  640SOL     OW 2818   0.715   2.090   1.734
  640SOL    HW1 2819   0.690   2.097   1.638
  640SOL    HW2 2820   0.791   2.153   1.754
  641SOL     OW 2821   2.482   5.135   4.325
  641SOL    HW1 2822   2.390   5.116   4.292
  641SOL    HW2 2823   2.547   5.072   4.281
  642SOL     OW 2824   0.633   3.783   4.860
  642SOL    HW1 2825   0.645   3.760   4.763
  642SOL    HW2 2826   0.659   3.705   4.917
  643SOL     OW 2827   4.921   5.411   6.918
  643SOL    HW1 2828   4.961   5.320   6.911
  643SOL    HW2 2829   4.901   5.432   7.013
  644SOL     OW 2830   6.945   6.540   5.044
  644SOL    HW1 2831   6.919   6.636   5.050
  644SOL    HW2 2832   0.000   6.530   4.985
  645SOL     OW 2833   3.869   5.103   1.964
  645SOL    HW1 2834   3.901   5.136   2.053
  645SOL    HW2 2835   3.769   5.097   1.965
  646SOL     OW 2836   3.772   1.428   5.078
  646SOL    HW1 2837   3.775   1.473   5.167
  646SOL    HW2 2838   3.833   1.349   5.079
  647SOL     OW 2839   4.488   2.617   5.881
  647SOL    HW1 2840   4.568   2.586   5.932
  647SOL    HW2 2841   4.472   2.556   5.803
  648SOL     OW 2842   5.834   1.282   3.160
  648SOL    HW1 2843   5.742   1.270   3.197
  648SOL    HW2 2844   5.899   1.230   3.216
  649SOL     OW 2845   2.503   5.800   0.514
  649SOL    HW1 2846   2.423   5.750   0.481
  649SOL    HW2 2847   2.586   5.752   0.487
  650SOL     OW 2848   0.320   4.324   0.739
  650SOL    HW1 2849   0.251   4.315   0.811
  650SOL    HW2 2850   0.311   4.247   0.675
  651SOL     OW 2851   1.548   0.119   4.981
  651SOL    HW1 2852   1.543   0.162   5.071
  651SOL    HW2 2853   1.630   0.151   4.933
  652SOL     OW 2854   3.683   6.185   2.050
  652SOL    HW1 2855   3.697   6.241   1.969
  652SOL    HW2 2856   3.677   6.243   2.131
  653SOL     OW 2857   1.198   6.865   2.056
  653SOL    HW1 2858   1.266   6.849   2.127
  653SOL    HW2 2859   1.120   6.803   2.068
  654SOL     OW 2860   0.214   7.016   4.601
  654SOL    HW1 2861   0.268   6.955   4.544
  654SOL    HW2 2862   0.206   6.978   4.694
  655SOL     OW 2863   6.635   3.942   2.407
  655SOL    HW1 2864   6.621   3.844   2.393
  655SOL    HW2 2865   6.677   3.958   2.496
  656SOL     OW 2866   3.829   6.105   0.427
  656SOL    HW1 2867   3.770   6.027   0.403
  656SOL    HW2 2868   3.800   6.186   0.376
  657SOL     OW 2869   3.763   3.505   2.054
  657SOL    HW1 2870   3.859   3.531   2.047
  657SOL    HW2 2871   3.715   3.570   2.113
  658SOL     OW 2872   1.516   2.826   4.628
  658SOL    HW1 2873   1.487   2.901   4.687
  658SOL    HW2 2874   1.597   2.782   4.666
  659SOL     OW 2875   2.247   6.098   6.104
  659SOL    HW1 2876   2.201   6.163   6.165
  659SOL    HW2 2877   2.201   6.010   6.109
  660SOL     OW 2878   5.287   4.515   2.469
  660SOL    HW1 2879   5.378   4.514   2.426
  660SOL    HW2 2880   5.294   4.477   2.562
  661SOL     OW 2881   4.783   4.451   4.112
  661SOL    HW1 2882   4.789   4.394   4.194
  661SOL    HW2 2883   4.744   4.397   4.037
  662SOL     OW 2884   4.871   3.593   0.314
  662SOL    HW1 2885   4.802   3.523   0.325
  662SOL    HW2 2886   4.849   3.650   0.235
  663SOL     OW 2887   0.605   4.297   0.587
  663SOL    HW1 2888   0.628   4.289   0.490
  663SOL    HW2 2889   0.521   4.350   0.598
  664SOL     OW 2890   1.955   6.683   6.949
  664SOL    HW1 2891   1.975   6.682   6.851
  664SOL    HW2 2892   2.021   6.625   6.997
  665SOL     OW 2893   3.949   5.155   1.345
  665SOL    HW1 2894   3.951   5.139   1.246
  665SOL    HW2 2895   4.043   5.163   1.380
  666SOL     OW 2896   2.952   1.431   0.184
  666SOL    HW1 2897   2.986   1.404   0.275
  666SOL    HW2 2898   2.917   1.350   0.137
  667SOL     OW 2899   1.034   3.143   2.941
  667SOL    HW1 2900   1.110   3.134   2.877
  667SOL    HW2 2901   1.036   3.067   3.006
  668SOL     OW 2902   5.176   0.070   0.443
  668SOL    HW1 2903   5.260   0.022   0.467
  668SOL    HW2 2904   5.178   0.163   0.480
  669SOL     OW 2905   1.732   5.914   2.921
  669SOL    HW1 2906   1.661   5.947   2.984
  669SOL    HW2 2907   1.791   5.849   2.969
  670SOL     OW 2908   3.337   2.953   3.410
  670SOL    HW1 2909   3.329   2.950   3.310
  670SOL    HW2 2910   3.307   3.042   3.443
  671SOL     OW 2911   1.861   0.115   6.023
  671SOL    HW1 2912   1.766   0.146   6.013
  671SOL    HW2 2913   1.865   0.041   6.090
  672SOL     OW 2914   2.473   2.485   3.864
  672SOL    HW1 2915   2.471   2.580   3.834
  672SOL    HW2 2916   2.536   2.476   3.941
  673SOL     OW 2917   5.907   0.104   1.232
  673SOL    HW1 2918   5.821   0.100   1.182
  673SOL    HW2 2919   5.889   0.104   1.330
  674SOL     OW 2920   0.336   2.125   3.552
  674SOL    HW1 2921   0.317   2.195   3.482
  674SOL    HW2 2922   0.389   2.166   3.626
  675SOL     OW 2923   6.110   2.861   5.120
  675SOL    HW1 2924   6.067   2.833   5.034
  675SOL    HW2 2925   6.146   2.781   5.167
  676SOL     OW 2926   2.022   4.229   4.290
  676SOL    HW1 2927   2.111   4.240   4.246
  676SOL    HW2 2928   2.032   4.172   4.372
  677SOL     OW 2929   6.099   7.007   0.481
  677SOL    HW1 2930   6.131   0.072   0.452
  677SOL    HW2 2931   6.065   7.012   0.575
  678SOL     OW 2932   2.350   1.511   6.616
  678SOL    HW1 2933   2.408   1.536   6.694
  678SOL    HW2 2934   2.350   1.412   6.605
  679SOL     OW 2935   5.289   6.906   3.005
  679SOL    HW1 2936   5.204   6.876   3.049
  679SOL    HW2 2937   5.277   7.000   2.972
  680SOL     OW 2938   4.771   4.191   5.186
  680SOL    HW1 2939   4.770   4.271   5.245
  680SOL    HW2 2940   4.715   4.208   5.105
  681SOL     OW 2941   0.679   6.884   1.834
  681SOL    HW1 2942   0.688   6.970   1.784
  681SOL    HW2 2943   0.583   6.868   1.855
  682SOL     OW 2944   1.822   6.086   0.994
  682SOL    HW1 2945   1.753   6.097   1.066
  682SOL    HW2 2946   1.798   6.006   0.938
  683SOL     OW 2947   5.422   1.191   0.587
  683SOL    HW1 2948   5.498   1.255   0.578
  683SOL    HW2 2949   5.353   1.209   0.517
  684SOL     OW 2950   0.037   5.930   6.113
  684SOL    HW1 2951   6.971   5.958   6.084
  684SOL    HW2 2952   0.033   5.895   6.206
  685SOL     OW 2953   5.972   0.443   5.455
  685SOL    HW1 2954   6.025   0.389   5.520
  685SOL    HW2 2955   6.017   0.532   5.442
  686SOL     OW 2956   5.558   4.888   2.834
  686SOL    HW1 2957   5.511   4.818   2.781
  686SOL    HW2 2958   5.656   4.885   2.813
  687SOL     OW 2959   6.389   3.414   5.815
  687SOL    HW1 2960   6.309   3.394   5.758
  687SOL    HW2 2961   6.456   3.464   5.760
  688SOL     OW 2962   6.859   4.086   5.540
  688SOL    HW1 2963   6.836   4.162   5.479
  688SOL    HW2 2964   6.811   4.003   5.509
  689SOL     OW 2965   5.762   4.026   5.961
  689SOL    HW1 2966   5.713   3.951   6.007
  689SOL    HW2 2967   5.845   3.989   5.917
  690SOL     OW 2968   1.158   1.852   3.348
  690SOL    HW1 2969   1.236   1.882   3.294
  690SOL    HW2 2970   1.166   1.754   3.368
  691SOL     OW 2971   0.685   3.077   6.391
  691SOL    HW1 2972   0.648   3.071   6.484
  691SOL    HW2 2973   0.656   2.996   6.339
  692SOL     OW 2974   2.038   0.202   3.190
  692SOL    HW1 2975   1.959   0.205   3.130
  692SOL    HW2 2976   2.110   0.147   3.148
  693SOL     OW 2977   6.933   1.738   2.028
  693SOL    HW1 2978   6.987   1.820   2.044
  693SOL    HW2 2979   6.948   1.673   2.103
  694SOL     OW 2980   1.849   0.449   1.439
  694SOL    HW1 2981   1.851   0.368   1.498
  694SOL    HW2 2982   1.926   0.509   1.462
  695SOL     OW 2983   4.246   6.416   5.783
  695SOL    HW1 2984   4.257   6.342   5.718
  695SOL    HW2 2985   4.299   6.397   5.866
  696SOL     OW 2986   4.378   5.822   2.379
  696SOL    HW1 2987   4.346   5.893   2.316
  696SOL    HW2 2988   4.323   5.739   2.367
  697SOL     OW 2989   1.116   4.022   3.643
  697SOL    HW1 2990   1.093   3.981   3.555
  697SOL    HW2 2991   1.163   4.109   3.628
  698SOL     OW 2992   4.640   0.046   3.458
  698SOL    HW1 2993   4.712   7.017   3.501
  698SOL    HW2 2994   4.558   0.045   3.515
  699SOL     OW 2995   1.813   4.453   0.915
  699SOL    HW1 2996   1.864   4.407   0.987
  699SOL    HW2 2997   1.793   4.388   0.842
  700SOL     OW 2998   2.192   1.409   4.750
  700SOL    HW1 2999   2.242   1.481   4.702
  700SOL    HW2 3000   2.224   1.320   4.718
  701SOL     OW 3001   0.022   4.293   6.043
  701SOL    HW1 3002   0.011   4.258   5.950
  701SOL    HW2 3003   0.075   4.227   6.097
  702SOL     OW 3004   5.495   5.790   4.699
  702SOL    HW1 3005   5.512   5.769   4.603
  702SOL    HW2 3006   5.400   5.767   4.722
  703SOL     OW 3007   3.668   3.969   6.537
  703SOL    HW1 3008   3.638   3.893   6.594
  703SOL    HW2 3009   3.728   3.934   6.464
  704SOL     OW 3010   2.239   0.068   0.053
  704SOL    HW1 3011   2.149   0.112   0.054
  704SOL    HW2 3012   2.235   7.010   7.022
  705SOL     OW 3013   6.183   2.397   2.205
  705SOL    HW1 3014   6.239   2.319   2.235
  705SOL    HW2 3015   6.092   2.364   2.181
  706SOL     OW 3016   3.445   1.845   3.727
  706SOL    HW1 3017   3.361   1.808   3.687
  706SOL    HW2 3018   3.520   1.782   3.710
  707SOL     OW 3019   5.219   1.062   1.597
  707SOL    HW1 3020   5.201   1.018   1.684
  707SOL    HW2 3021   5.142   1.122   1.573
  708SOL     OW 3022   4.236   0.840   1.777
  708SOL    HW1 3023   4.158   0.778   1.775
  708SOL    HW2 3024   4.320   0.788   1.794
  709SOL     OW 3025   0.819   4.817   0.226
  709SOL    HW1 3026   0.726   4.799   0.258
  709SOL    HW2 3027   0.821   4.903   0.174
  710SOL     OW 3028   2.993   3.898   2.673
  710SOL    HW1 3029   3.054   3.974   2.695
  710SOL    HW2 3030   3.026   3.851   2.591
  711SOL     OW 3031   0.297   0.604   4.051
  711SOL    HW1 3032   0.328   0.509   4.049
  711SOL    HW2 3033   0.358   0.660   3.994
  712SOL     OW 3034   1.626   3.878   1.691
  712SOL    HW1 3035   1.719   3.912   1.698
  712SOL    HW2 3036   1.628   3.782   1.663
  713SOL     OW 3037   3.914   2.990   2.869
  713SOL    HW1 3038   3.821   3.012   2.839
  713SOL    HW2 3039   3.943   2.903   2.829
  714SOL     OW 3040   4.558   5.060   4.920
  714SOL    HW1 3041   4.546   4.961   4.909
  714SOL    HW2 3042   4.534   5.106   4.834
  715SOL     OW 3043   4.351   7.024   6.393
  715SOL    HW1 3044   4.272   0.022   6.449
  715SOL    HW2 3045   4.391   0.083   6.355
  716SOL     OW 3046   6.964   4.646   1.666
  716SOL    HW1 3047   6.874   4.688   1.656
  716SOL    HW2 3048   6.969   4.600   1.755
  717SOL     OW 3049   6.248   2.371   0.364
  717SOL    HW1 3050   6.177   2.393   0.298
  717SOL    HW2 3051   6.296   2.288   0.336
  718SOL     OW 3052   3.803   3.787   6.392
  718SOL    HW1 3053   3.872   3.804   6.321
  718SOL    HW2 3054   3.806   3.691   6.420
  719SOL     OW 3055   5.667   3.997   0.800
  719SOL    HW1 3056   5.662   4.042   0.889
  719SOL    HW2 3057   5.712   3.909   0.809
  720SOL     OW 3058   2.640   1.407   6.436
  720SOL    HW1 3059   2.698   1.342   6.386
  720SOL    HW2 3060   2.545   1.397   6.405
  721SOL     OW 3061   1.508   0.054   5.983
  721SOL    HW1 3062   1.414   0.032   6.007
  721SOL    HW2 3063   1.520   0.042   5.884
  722SOL     OW 3064   4.171   0.075   4.750
  722SOL    HW1 3065   4.200   7.022   4.806
  722SOL    HW2 3066   4.221   0.157   4.779
  723SOL     OW 3067   1.035   3.043   1.915
  723SOL    HW1 3068   1.062   3.013   2.006
  723SOL    HW2 3069   0.936   3.041   1.907
  724SOL     OW 3070   0.067   1.156   5.221
  724SOL    HW1 3071   0.010   1.238   5.233
  724SOL    HW2 3072   0.154   1.169   5.267
  725SOL     OW 3073   2.388   5.088   1.556
  725SOL    HW1 3074   2.386   5.160   1.625
  725SOL    HW2 3075   2.474   5.038   1.562
  726SOL     OW 3076   4.117   0.019   6.558
  726SOL    HW1 3077   4.069   0.054   6.478
  726SOL    HW2 3078   4.114   0.086   6.632
  727SOL     OW 3079   3.014   5.019   4.196
  727SOL    HW1 3080   2.949   4.968   4.140
  727SOL    HW2 3081   3.107   4.996   4.169
  728SOL     OW 3082   6.898   3.648   5.315
  728SOL    HW1 3083   6.914   3.736   5.270
  728SOL    HW2 3084   6.852   3.586   5.251
  729SOL     OW 3085   2.652   0.020   1.616
  729SOL    HW1 3086   2.622   0.112   1.589
  729SOL    HW2 3087   2.715   7.009   1.548
  730SOL     OW 3088   5.721   0.579   3.920
  730SOL    HW1 3089   5.686   0.526   3.842
  730SOL    HW2 3090   5.652   0.582   3.992
  731SOL     OW 3091   5.702   3.668   3.730
  731SOL    HW1 3092   5.735   3.657   3.824
  731SOL    HW2 3093   5.741   3.597   3.672
  732SOL     OW 3094   6.260   2.697   1.124
  732SOL    HW1 3095   6.193   2.669   1.055
  732SOL    HW2 3096   6.351   2.668   1.096
  733SOL     OW 3097   4.929   4.419   3.833
  733SOL    HW1 3098   4.904   4.516   3.838
  733SOL    HW2 3099   5.023   4.411   3.799
  734SOL     OW 3100   6.398   4.581   0.762
  734SOL    HW1 3101   6.442   4.496   0.789
  734SOL    HW2 3102   6.349   4.620   0.841
  735SOL     OW 3103   1.698   4.266   6.297
  735SOL    HW1 3104   1.606   4.228   6.290
  735SOL    HW2 3105   1.722   4.314   6.213
  736SOL     OW 3106   6.369   1.122   3.626
  736SOL    HW1 3107   6.438   1.054   3.600
  736SOL    HW2 3108   6.284   1.104   3.577
  737SOL     OW 3109   5.033   3.344   0.402
  737SOL    HW1 3110   5.013   3.439   0.380
  737SOL    HW2 3111   4.953   3.301   0.443
  738SOL     OW 3112   0.904   3.879   4.112
  738SOL    HW1 3113   0.805   3.878   4.126
  738SOL    HW2 3114   0.926   3.926   4.027
  739SOL     OW 3115   4.357   6.087   6.482
  739SOL    HW1 3116   4.442   6.127   6.447
  739SOL    HW2 3117   4.315   6.031   6.411
  740SOL     OW 3118   6.521   6.519   1.732
  740SOL    HW1 3119   6.510   6.613   1.699
  740SOL    HW2 3120   6.612   6.485   1.709
  741SOL     OW 3121   2.045   0.285   2.562
  741SOL    HW1 3122   2.118   0.331   2.512
  741SOL    HW2 3123   1.969   0.350   2.577
  742SOL     OW 3124   0.847   7.004   3.348
  742SOL    HW1 3125   0.849   0.017   3.440
  742SOL    HW2 3126   0.773   0.021   3.296
  743SOL     OW 3127   2.175   4.117   4.731
  743SOL    HW1 3128   2.209   4.118   4.825
  743SOL    HW2 3129   2.227   4.183   4.676
  744SOL     OW 3130   0.136   5.337   0.692
  744SOL    HW1 3131   0.127   5.402   0.768
  744SOL    HW2 3132   0.232   5.312   0.680
  745SOL     OW 3133   1.555   5.822   2.615
  745SOL    HW1 3134   1.633   5.868   2.573
  745SOL    HW2 3135   1.501   5.888   2.667
  746SOL     OW 3136   1.545   0.749   5.399
  746SOL    HW1 3137   1.581   0.667   5.444
  746SOL    HW2 3138   1.594   0.765   5.314
  747SOL     OW 3139   5.025   5.129   2.951
  747SOL    HW1 3140   4.977   5.058   2.898
  747SOL    HW2 3141   4.984   5.136   3.041
  748SOL     OW 3142   4.948   3.576   1.589
  748SOL    HW1 3143   5.002   3.519   1.527
  748SOL    HW2 3144   4.916   3.521   1.665
  749SOL     OW 3145   6.650   1.836   5.530
  749SOL    HW1 3146   6.615   1.750   5.490
  749SOL    HW2 3147   6.727   1.869   5.476
  750SOL     OW 3148   2.424   4.257   0.472
  750SOL    HW1 3149   2.370   4.176   0.496
  750SOL    HW2 3150   2.512   4.252   0.519
  751SOL     OW 3151   4.294   0.974   0.222
  751SOL    HW1 3152   4.233   1.010   0.292
  751SOL    HW2 3153   4.363   1.044   0.200
  752SOL     OW 3154   4.835   2.387   1.677
  752SOL    HW1 3155   4.741   2.399   1.645
  752SOL    HW2 3156   4.853   2.454   1.750
  753SOL     OW 3157   1.868   2.710   4.146
  753SOL    HW1 3158   1.962   2.707   4.178
  753SOL    HW2 3159   1.828   2.799   4.169
  754SOL     OW 3160   3.991   5.650   6.890
  754SOL    HW1 3161   4.000   5.745   6.860
  754SOL    HW2 3162   4.004   5.589   6.812
  755SOL     OW 3163   0.148   6.223   0.475
  755SOL    HW1 3164   0.177   6.212   0.380
  755SOL    HW2 3165   0.163   6.137   0.524
  756SOL     OW 3166   5.101   0.506   2.864
  756SOL    HW1 3167   5.066   0.594   2.830
  756SOL    HW2 3168   5.024   0.448   2.891
  757SOL     OW 3169   0.123   6.812   3.865
  757SOL    HW1 3170   0.150   6.788   3.771
  757SOL    HW2 3171   0.148   6.907   3.884
  758SOL     OW 3172   3.977   2.220   0.869
  758SOL    HW1 3173   4.037   2.237   0.948
  758SOL    HW2 3174   3.885   2.252   0.890
  759SOL     OW 3175   1.261   1.257   0.064
  759SOL    HW1 3176   1.162   1.264   0.053
  759SOL    HW2 3177   1.286   1.287   0.156
  760SOL     OW 3178   4.695   1.754   5.969
  760SOL    HW1 3179   4.794   1.752   5.954
  760SOL    HW2 3180   4.651   1.689   5.908
  761SOL     OW 3181   5.817   2.363   6.799
  761SOL    HW1 3182   5.729   2.382   6.842
  761SOL    HW2 3183   5.818   2.268   6.767
  762SOL     OW 3184   2.468   6.766   4.338
  762SOL    HW1 3185   2.482   6.861   4.363
  762SOL    HW2 3186   2.370   6.749   4.324
  763SOL     OW 3187   4.082   5.854   6.612
  763SOL    HW1 3188   4.141   5.930   6.637
  763SOL    HW2 3189   4.137   5.778   6.578
  764SOL     OW 3190   4.143   1.353   2.229
  764SOL    HW1 3191   4.072   1.377   2.295
  764SOL    HW2 3192   4.101   1.308   2.150
  765SOL     OW 3193   6.913   0.042   3.112
  765SOL    HW1 3194   6.903   0.110   3.185
  765SOL    HW2 3195   6.825   0.028   3.066
  766SOL     OW 3196   0.427   6.128   0.041
  766SOL    HW1 3197   0.420   6.201   6.998
  766SOL    HW2 3198   0.451   6.168   0.130
  767SOL     OW 3199   6.264   6.818   3.029
  767SOL    HW1 3200   6.221   6.883   2.966
  767SOL    HW2 3201   6.346   6.860   3.068
  768SOL     OW 3202   2.829   6.317   3.046
  768SOL    HW1 3203   2.842   6.241   2.981
  768SOL    HW2 3204   2.732   6.324   3.068
  769SOL     OW 3205   4.315   0.870   5.254
  769SOL    HW1 3206   4.265   0.894   5.337
  769SOL    HW2 3207   4.269   0.796   5.206
  770SOL     OW 3208   3.223   4.928   4.041
  770SOL    HW1 3209   3.282   4.938   4.121
  770SOL    HW2 3210   3.278   4.911   3.959
  771SOL     OW 3211   0.766   5.416   3.181
  771SOL    HW1 3212   0.770   5.397   3.279
  771SOL    HW2 3213   0.847   5.376   3.136
  772SOL     OW 3214   6.992   3.694   6.220
  772SOL    HW1 3215   6.914   3.659   6.169
  772SOL    HW2 3216   0.052   3.663   6.176
  773SOL     OW 3217   0.215   3.785   2.276
  773SOL    HW1 3218   0.276   3.816   2.203
  773SOL    HW2 3219   0.253   3.701   2.317
  774SOL     OW 3220   1.385   0.904   1.270
  774SOL    HW1 3221   1.324   0.932   1.344
  774SOL    HW2 3222   1.450   0.977   1.252
  775SOL     OW 3223   1.365   2.340   4.628
  775SOL    HW1 3224   1.410   2.288   4.555
  775SOL    HW2 3225   1.355   2.282   4.709
  776SOL     OW 3226   2.556   0.503   5.894
  776SOL    HW1 3227   2.510   0.590   5.914
  776SOL    HW2 3228   2.499   0.427   5.926
  777SOL     OW 3229   4.163   1.435   1.391
  777SOL    HW1 3230   4.248   1.482   1.415
  777SOL    HW2 3231   4.101   1.499   1.346
  778SOL     OW 3232   4.437   6.468   3.937
  778SOL    HW1 3233   4.532   6.499   3.930
  778SOL    HW2 3234   4.435   6.374   3.969
  779SOL     OW 3235   1.067   1.934   1.977
  779SOL    HW1 3236   1.118   1.873   2.037
  779SOL    HW2 3237   1.059   1.892   1.886
  780SOL     OW 3238   6.067   3.470   5.004
  780SOL    HW1 3239   6.074   3.391   5.065
  780SOL    HW2 3240   6.146   3.530   5.017
  781SOL     OW 3241   6.804   0.738   6.104
  781SOL    HW1 3242   6.864   0.663   6.131
  781SOL    HW2 3243   6.793   0.738   6.005
  782SOL     OW 3244   6.645   2.735   0.885
  782SOL    HW1 3245   6.583   2.704   0.813
  782SOL    HW2 3246   6.738   2.706   0.863
  783SOL     OW 3247   2.624   5.036   0.369
  783SOL    HW1 3248   2.723   5.023   0.375
  783SOL    HW2 3249   2.598   5.120   0.417
  784SOL     OW 3250   4.458   1.045   5.045
  784SOL    HW1 3251   4.548   1.032   5.087
  784SOL    HW2 3252   4.387   1.017   5.110
  785SOL     OW 3253   6.393   2.194   3.423
  785SOL    HW1 3254   6.380   2.123   3.492
  785SOL    HW2 3255   6.326   2.183   3.349
  786SOL     OW 3256   7.005   6.643   0.125
  786SOL    HW1 3257   6.922   6.591   0.146
  786SOL    HW2 3258   0.010   6.693   0.206
  787SOL     OW 3259   2.917   2.237   6.240
  787SOL    HW1 3260   2.819   2.255   6.250
  787SOL    HW2 3261   2.955   2.301   6.173
  788SOL     OW 3262   1.291   3.447   3.898
  788SOL    HW1 3263   1.218   3.510   3.872
  788SOL    HW2 3264   1.335   3.412   3.815
  789SOL     OW 3265   5.494   4.165   1.667
  789SOL    HW1 3266   5.543   4.247   1.697
  789SOL    HW2 3267   5.405   4.191   1.629
  790SOL     OW 3268   3.226   1.345   3.512
  790SOL    HW1 3269   3.130   1.349   3.541
  790SOL    HW2 3270   3.269   1.263   3.551
  791SOL     OW 3271   3.071   1.455   4.348
  791SOL    HW1 3272   3.115   1.444   4.437
  791SOL    HW2 3273   3.125   1.519   4.292
  792SOL     OW 3274   5.769   0.451   3.541
  792SOL    HW1 3275   5.846   0.415   3.488
  792SOL    HW2 3276   5.776   0.550   3.547
  793SOL     OW 3277   5.588   0.511   0.118
  793SOL    HW1 3278   5.547   0.564   0.044
  793SOL    HW2 3279   5.519   0.449   0.157
  794SOL     OW 3280   2.156   5.325   6.039
  794SOL    HW1 3281   2.250   5.310   6.068
  794SOL    HW2 3282   2.152   5.335   5.940
  795SOL     OW 3283   4.516   4.245   6.400
  795SOL    HW1 3284   4.440   4.279   6.344
  795SOL    HW2 3285   4.595   4.305   6.389
  796SOL     OW 3286   0.228   2.358   6.919
  796SOL    HW1 3287   0.261   2.449   6.894
  796SOL    HW2 3288   0.305   2.296   6.929
  797SOL     OW 3289   6.201   2.876   3.791
  797SOL    HW1 3290   6.214   2.941   3.865
  797SOL    HW2 3291   6.289   2.834   3.767
  798SOL     OW 3292   5.016   1.401   6.374
  798SOL    HW1 3293   5.048   1.440   6.461
  798SOL    HW2 3294   5.094   1.366   6.323
  799SOL     OW 3295   6.885   2.481   2.935
  799SOL    HW1 3296   6.796   2.520   2.912
  799SOL    HW2 3297   6.872   2.391   2.975
  800SOL     OW 3298   6.171   1.307   2.361
  800SOL    HW1 3299   6.134   1.240   2.424
  800SOL    HW2 3300   6.270   1.296   2.354
  801SOL     OW 3301   0.178   2.440   2.917
  801SOL    HW1 3302   0.130   2.527   2.928
  801SOL    HW2 3303   0.146   2.375   2.986
  802SOL     OW 3304   5.664   1.054   0.528
  802SOL    HW1 3305   5.675   1.100   0.440
  802SOL    HW2 3306   5.568   1.061   0.557
  803SOL     OW 3307   6.532   6.160   4.684
  803SOL    HW1 3308   6.483   6.220   4.621
  803SOL    HW2 3309   6.471   6.089   4.718
  804SOL     OW 3310   0.862   6.646   6.759
  804SOL    HW1 3311   0.896   6.589   6.833
  804SOL    HW2 3312   0.795   6.595   6.705
  805SOL     OW 3313   2.869   3.051   6.091
  805SOL    HW1 3314   2.944   3.034   6.154
  805SOL    HW2 3315   2.869   3.147   6.063
  806SOL     OW 3316   5.215   0.903   0.406
  806SOL    HW1 3317   5.120   0.903   0.375
  806SOL    HW2 3318   5.243   0.997   0.427
  807SOL     OW 3319   1.155   0.283   3.357
  807SOL    HW1 3320   1.135   0.198   3.405
  807SOL    HW2 3321   1.106   0.359   3.399
  808SOL     OW 3322   5.476   3.324   5.673
  808SOL    HW1 3323   5.381   3.355   5.677
  808SOL    HW2 3324   5.504   3.312   5.578
  809SOL     OW 3325   0.268   4.120   6.568
  809SOL    HW1 3326   0.193   4.054   6.563
  809SOL    HW2 3327   0.231   4.213   6.575
  810SOL     OW 3328   5.691   3.710   0.086
  810SOL    HW1 3329   5.762   3.753   0.030
  810SOL    HW2 3330   5.665   3.622   0.046
  811SOL     OW 3331   5.303   4.964   3.988
  811SOL    HW1 3332   5.275   4.971   3.892
  811SOL    HW2 3333   5.369   5.037   4.008
  812SOL     OW 3334   0.069   0.162   1.321
  812SOL    HW1 3335   0.028   0.226   1.256
  812SOL    HW2 3336   7.022   0.104   1.360
  813SOL     OW 3337   5.034   5.193   2.379
  813SOL    HW1 3338   5.069   5.284   2.356
  813SOL    HW2 3339   4.940   5.184   2.346
  814SOL     OW 3340   5.955   6.163   1.978
  814SOL    HW1 3341   6.030   6.133   1.919
  814SOL    HW2 3342   5.971   6.257   2.007
  815SOL     OW 3343   6.504   2.083   1.022
  815SOL    HW1 3344   6.574   2.015   1.002
  815SOL    HW2 3345   6.422   2.063   0.968
  816SOL     OW 3346   6.522   6.091   1.038
  816SOL    HW1 3347   6.422   6.090   1.047
  816SOL    HW2 3348   6.564   6.112   1.126
  817SOL     OW 3349   1.850   3.222   2.312
  817SOL    HW1 3350   1.946   3.233   2.284
  817SOL    HW2 3351   1.840   3.136   2.361
  818SOL     OW 3352   6.036   1.104   0.780
  818SOL    HW1 3353   6.124   1.132   0.741
  818SOL    HW2 3354   6.035   1.124   0.878
  819SOL     OW 3355   6.845   3.270   4.048
  819SOL    HW1 3356   6.764   3.321   4.022
  819SOL    HW2 3357   6.857   3.192   3.987
  820SOL     OW 3358   1.180   3.341   4.891
  820SOL    HW1 3359   1.272   3.338   4.852
  820SOL    HW2 3360   1.185   3.340   4.991
  821SOL     OW 3361   1.490   3.164   0.005
  821SOL    HW1 3362   1.570   3.109   7.007
  821SOL    HW2 3363   1.469   3.154   0.102
  822SOL     OW 3364   1.588   3.655   4.681
  822SOL    HW1 3365   1.633   3.613   4.602
  822SOL    HW2 3366   1.571   3.752   4.661
  823SOL     OW 3367   3.933   4.408   0.029
  823SOL    HW1 3368   3.928   4.314   0.061
  823SOL    HW2 3369   3.842   4.439   0.002
  824SOL     OW 3370   5.463   2.525   5.457
  824SOL    HW1 3371   5.475   2.452   5.390
  824SOL    HW2 3372   5.448   2.612   5.409
  825SOL     OW 3373   2.068   3.880   2.654
  825SOL    HW1 3374   2.086   3.964   2.603
  825SOL    HW2 3375   1.980   3.842   2.625
  826SOL     OW 3376   6.830   3.654   6.752
  826SOL    HW1 3377   6.836   3.670   6.654
  826SOL    HW2 3378   6.734   3.651   6.780
  827SOL     OW 3379   3.641   5.746   0.136
  827SOL    HW1 3380   3.694   5.674   0.093
  827SOL    HW2 3381   3.567   5.775   0.075
  828SOL     OW 3382   5.550   0.432   5.783
  828SOL    HW1 3383   5.613   0.361   5.817
  828SOL    HW2 3384   5.603   0.508   5.746
  829SOL     OW 3385   3.071   3.179   4.434
  829SOL    HW1 3386   2.988   3.143   4.477
  829SOL    HW2 3387   3.122   3.235   4.500
  830SOL     OW 3388   4.518   4.257   5.400
  830SOL    HW1 3389   4.597   4.318   5.405
  830SOL    HW2 3390   4.434   4.311   5.398
  831SOL     OW 3391   6.949   1.113   5.534
  831SOL    HW1 3392   6.900   1.124   5.447
  831SOL    HW2 3393   6.887   1.136   5.610
  832SOL     OW 3394   2.270   1.696   6.436
  832SOL    HW1 3395   2.291   1.773   6.496
  832SOL    HW2 3396   2.285   1.610   6.485
  833SOL     OW 3397   6.533   6.773   6.093
  833SOL    HW1 3398   6.472   6.847   6.121
  833SOL    HW2 3399   6.627   6.806   6.089
  834SOL     OW 3400   3.029   3.548   4.299
  834SOL    HW1 3401   2.988   3.636   4.278
  834SOL    HW2 3402   3.078   3.554   4.386
  835SOL     OW 3403   3.527   6.837   3.389
  835SOL    HW1 3404   3.451   6.885   3.433
  835SOL    HW2 3405   3.606   6.835   3.451
  836SOL     OW 3406   2.828   1.022   0.556
  836SOL    HW1 3407   2.787   1.083   0.489
  836SOL    HW2 3408   2.796   1.048   0.648
  837SOL     OW 3409   5.115   1.527   5.791
  837SOL    HW1 3410   5.127   1.539   5.692
  837SOL    HW2 3411   5.163   1.444   5.820
  838SOL     OW 3412   2.012   5.670   3.735
  838SOL    HW1 3413   1.954   5.634   3.663
  838SOL    HW2 3414   1.963   5.664   3.823
  839SOL     OW 3415   2.922   1.887   2.958
  839SOL    HW1 3416   2.917   1.787   2.962
  839SOL    HW2 3417   2.984   1.921   3.029
  840SOL     OW 3418   0.994   1.337   0.095
  840SOL    HW1 3419   0.960   1.280   0.020
  840SOL    HW2 3420   1.011   1.430   0.062
  841SOL     OW 3421   0.768   3.615   6.717
  841SOL    HW1 3422   0.717   3.690   6.673
  841SOL    HW2 3423   0.781   3.541   6.651
  842SOL     OW 3424   3.796   4.864   2.770
  842SOL    HW1 3425   3.893   4.839   2.770
  842SOL    HW2 3426   3.745   4.799   2.714
  843SOL     OW 3427   6.466   1.777   2.015
  843SOL    HW1 3428   6.461   1.684   2.052
  843SOL    HW2 3429   6.419   1.839   2.077
  844SOL     OW 3430   4.985   5.962   0.642
  844SOL    HW1 3431   5.067   6.010   0.610
  844SOL    HW2 3432   5.010   5.897   0.714
  845SOL     OW 3433   0.528   4.648   5.065
  845SOL    HW1 3434   0.601   4.634   5.132
  845SOL    HW2 3435   0.472   4.726   5.093
  846SOL     OW 3436   6.413   1.369   6.664
  846SOL    HW1 3437   6.475   1.325   6.599
  846SOL    HW2 3438   6.439   1.464   6.677
  847SOL     OW 3439   4.911   3.569   2.211
  847SOL    HW1 3440   4.906   3.658   2.165
  847SOL    HW2 3441   4.972   3.508   2.160
  848SOL     OW 3442   5.993   0.788   6.006
  848SOL    HW1 3443   6.087   0.822   6.017
  848SOL    HW2 3444   5.969   0.731   6.084
  849SOL     OW 3445   0.496   5.133   4.610
  849SOL    HW1 3446   0.462   5.192   4.538
  849SOL    HW2 3447   0.550   5.059   4.570
  850SOL     OW 3448   3.783   1.042   2.951
  850SOL    HW1 3449   3.795   1.137   2.981
  850SOL    HW2 3450   3.758   1.041   2.855
  851SOL     OW 3451   1.579   0.377   0.209
  851SOL    HW1 3452   1.585   0.289   0.163
  851SOL    HW2 3453   1.612   0.368   0.303
  852SOL     OW 3454   1.941   3.567   6.380
  852SOL    HW1 3455   1.905   3.554   6.472
  852SOL    HW2 3456   1.875   3.534   6.313
  853SOL     OW 3457   0.808   3.758   1.622
  853SOL    HW1 3458   0.733   3.820   1.646
  853SOL    HW2 3459   0.887   3.812   1.593
  854SOL     OW 3460   4.991   5.439   1.815
  854SOL    HW1 3461   5.010   5.499   1.893
  854SOL    HW2 3462   5.057   5.457   1.742
  855SOL     OW 3463   5.243   6.896   1.942
  855SOL    HW1 3464   5.315   6.832   1.916
  855SOL    HW2 3465   5.264   6.935   2.032
  856SOL     OW 3466   2.272   6.603   5.122
  856SOL    HW1 3467   2.316   6.687   5.154
  856SOL    HW2 3468   2.298   6.528   5.181
  857SOL     OW 3469   6.058   3.263   1.559
  857SOL    HW1 3470   6.109   3.345   1.587
  857SOL    HW2 3471   5.959   3.282   1.566
  858SOL     OW 3472   3.185   4.547   1.256
  858SOL    HW1 3473   3.172   4.471   1.319
  858SOL    HW2 3474   3.262   4.603   1.287
  859SOL     OW 3475   6.747   4.681   0.071
  859SOL    HW1 3476   6.820   4.749   0.065
  859SOL    HW2 3477   6.786   4.589   0.064
  860SOL     OW 3478   2.114   5.030   1.069
  860SOL    HW1 3479   2.138   4.935   1.048
  860SOL    HW2 3480   2.094   5.038   1.166
  861SOL     OW 3481   3.721   5.525   5.614
  861SOL    HW1 3482   3.790   5.485   5.674
  861SOL    HW2 3483   3.634   5.531   5.662
  862SOL     OW 3484   4.750   4.263   4.476
  862SOL    HW1 3485   4.774   4.203   4.552
  862SOL    HW2 3486   4.740   4.210   4.392
  863SOL     OW 3487   5.980   1.278   1.275
  863SOL    HW1 3488   6.070   1.256   1.313
  863SOL    HW2 3489   5.987   1.286   1.176
  864SOL     OW 3490   6.053   3.940   2.756
  864SOL    HW1 3491   6.046   3.998   2.837
  864SOL    HW2 3492   5.968   3.886   2.747
  865SOL     OW 3493   1.881   6.281   4.692
  865SOL    HW1 3494   1.916   6.372   4.713
  865SOL    HW2 3495   1.832   6.285   4.604
  866SOL     OW 3496   2.997   1.957   1.921
  866SOL    HW1 3497   3.020   1.890   1.992
  866SOL    HW2 3498   2.998   1.913   1.832
  867SOL     OW 3499   2.101   2.978   6.300
  867SOL    HW1 3500   2.020   3.008   6.250
  867SOL    HW2 3501   2.090   2.882   6.326
  868SOL     OW 3502   5.135   2.422   3.523
  868SOL    HW1 3503   5.139   2.430   3.424
  868SOL    HW2 3504   5.079   2.496   3.560
  869SOL     OW 3505   6.201   5.433   2.600
  869SOL    HW1 3506   6.153   5.483   2.529
  869SOL    HW2 3507   6.153   5.444   2.687
  870SOL     OW 3508   0.043   1.266   1.202
  870SOL    HW1 3509   7.020   1.207   1.138
  870SOL    HW2 3510   0.138   1.235   1.210
  871SOL     OW 3511   6.127   2.502   0.968
  871SOL    HW1 3512   6.082   2.413   0.961
  871SOL    HW2 3513   6.210   2.501   0.912
  872SOL     OW 3514   5.867   2.201   3.370
  872SOL    HW1 3515   5.806   2.189   3.292
  872SOL    HW2 3516   5.942   2.262   3.345
  873SOL     OW 3517   4.367   6.964   5.526
  873SOL    HW1 3518   4.380   0.037   5.512
  873SOL    HW2 3519   4.419   6.913   5.457
  874SOL     OW 3520   0.602   3.284   5.750
  874SOL    HW1 3521   0.578   3.222   5.824
  874SOL    HW2 3522   0.647   3.232   5.677
  875SOL     OW 3523   6.418   4.184   0.084
  875SOL    HW1 3524   6.396   4.149   0.175
  875SOL    HW2 3525   6.511   4.159   0.060
  876SOL     OW 3526   0.437   3.283   1.847
  876SOL    HW1 3527   0.439   3.377   1.812
  876SOL    HW2 3528   0.477   3.282   1.939
  877SOL     OW 3529   5.879   6.013   0.550
  877SOL    HW1 3530   5.975   6.032   0.570
  877SOL    HW2 3531   5.831   6.100   0.536
  878SOL     OW 3532   2.839   4.780   0.239
  878SOL    HW1 3533   2.881   4.844   0.303
  878SOL    HW2 3534   2.910   4.730   0.189
  879SOL     OW 3535   4.772   2.450   2.444
  879SOL    HW1 3536   4.738   2.533   2.401
  879SOL    HW2 3537   4.847   2.412   2.390
  880SOL     OW 3538   3.889   5.349   0.412
  880SOL    HW1 3539   3.869   5.288   0.488
  880SOL    HW2 3540   3.805   5.395   0.383
  881SOL     OW 3541   4.119   4.998   5.248
  881SOL    HW1 3542   4.208   4.952   5.241
  881SOL    HW2 3543   4.052   4.934   5.286
  882SOL     OW 3544   1.352   1.323   4.796
  882SOL    HW1 3545   1.352   1.322   4.696
  882SOL    HW2 3546   1.308   1.407   4.828
  883SOL     OW 3547   2.879   5.205   6.364
  883SOL    HW1 3548   2.871   5.161   6.275
  883SOL    HW2 3549   2.834   5.295   6.361
  884SOL     OW 3550   4.957   3.822   1.498
  884SOL    HW1 3551   4.953   3.728   1.534
  884SOL    HW2 3552   4.964   3.819   1.398
  885SOL     OW 3553   4.434   6.392   0.185
  885SOL    HW1 3554   4.393   6.316   0.236
  885SOL    HW2 3555   4.488   6.448   0.248
  886SOL     OW 3556   4.401   2.049   6.258
  886SOL    HW1 3557   4.392   2.130   6.199
  886SOL    HW2 3558   4.321   2.043   6.318
  887SOL     OW 3559   4.263   0.590   6.333
  887SOL    HW1 3560   4.361   0.578   6.325
  887SOL    HW2 3561   4.241   0.688   6.335
  888SOL     OW 3562   6.164   5.926   2.818
  888SOL    HW1 3563   6.256   5.900   2.847
  888SOL    HW2 3564   6.130   6.000   2.877
  889SOL     OW 3565   0.853   6.808   4.634
  889SOL    HW1 3566   0.924   6.737   4.627
  889SOL    HW2 3567   0.827   6.818   4.730
  890SOL     OW 3568   2.590   4.627   2.158
  890SOL    HW1 3569   2.498   4.609   2.121
  890SOL    HW2 3570   2.658   4.612   2.087
  891SOL     OW 3571   5.200   3.431   6.523
  891SOL    HW1 3572   5.227   3.365   6.454
  891SOL    HW2 3573   5.101   3.438   6.526
  892SOL     OW 3574   2.096   4.373   1.231
  892SOL    HW1 3575   2.066   4.334   1.318
  892SOL    HW2 3576   2.133   4.465   1.247
  893SOL     OW 3577   1.419   6.984   0.230
  893SOL    HW1 3578   1.374   6.977   0.141
  893SOL    HW2 3579   1.354   6.957   0.302
  894SOL     OW 3580   0.687   5.705   3.733
  894SOL    HW1 3581   0.587   5.701   3.732
  894SOL    HW2 3582   0.723   5.617   3.764
  895SOL     OW 3583   2.833   6.625   5.338
  895SOL    HW1 3584   2.746   6.673   5.345
  895SOL    HW2 3585   2.906   6.681   5.377
  896SOL     OW 3586   5.643   6.766   3.019
  896SOL    HW1 3587   5.718   6.740   3.079
  896SOL    HW2 3588   5.631   6.865   3.022
  897SOL     OW 3589   5.574   2.430   5.881
  897SOL    HW1 3590   5.495   2.372   5.902
  897SOL    HW2 3591   5.542   2.513   5.836
  898SOL     OW 3592   5.965   6.534   3.944
  898SOL    HW1 3593   5.988   6.569   3.853
  898SOL    HW2 3594   5.881   6.578   3.976
  899SOL     OW 3595   0.697   4.804   5.372
  899SOL    HW1 3596   0.711   4.897   5.407
  899SOL    HW2 3597   0.626   4.759   5.426
  900SOL     OW 3598   0.510   5.730   3.458
  900SOL    HW1 3599   0.609   5.725   3.462
  900SOL    HW2 3600   0.472   5.725   3.551
  901SOL     OW 3601   5.975   2.007   3.537
  901SOL    HW1 3602   5.988   2.058   3.622
  901SOL    HW2 3603   5.926   2.064   3.471
  902SOL     OW 3604   0.378   6.319   6.899
  902SOL    HW1 3605   0.294   6.363   6.930
  902SOL    HW2 3606   0.399   6.348   6.805
  903SOL     OW 3607   1.323   5.445   0.636
  903SOL    HW1 3608   1.390   5.518   0.647
  903SOL    HW2 3609   1.367   5.365   0.596
  904SOL     OW 3610   1.887   1.335   3.340
  904SOL    HW1 3611   1.804   1.374   3.300
  904SOL    HW2 3612   1.870   1.314   3.437
  905SOL     OW 3613   5.081   2.474   4.943
  905SOL    HW1 3614   5.101   2.377   4.926
  905SOL    HW2 3615   5.009   2.482   5.012
  906SOL     OW 3616   5.934   4.212   5.596
  906SOL    HW1 3617   6.011   4.153   5.573
  906SOL    HW2 3618   5.920   4.279   5.524
  907SOL     OW 3619   6.344   2.863   2.313
  907SOL    HW1 3620   6.433   2.830   2.283
  907SOL    HW2 3621   6.273   2.797   2.288
  908SOL     OW 3622   1.917   0.865   4.221
  908SOL    HW1 3623   1.997   0.915   4.187
  908SOL    HW2 3624   1.859   0.927   4.274
  909SOL     OW 3625   3.482   1.258   1.903
  909SOL    HW1 3626   3.466   1.319   1.981
  909SOL    HW2 3627   3.533   1.178   1.933
  910SOL     OW 3628   2.306   1.980   1.310
  910SOL    HW1 3629   2.244   2.056   1.292
  910SOL    HW2 3630   2.366   1.966   1.231
  911SOL     OW 3631   0.199   4.244   1.188
  911SOL    HW1 3632   0.124   4.184   1.218
  911SOL    HW2 3633   0.180   4.278   1.096
  912SOL     OW 3634   1.208   0.371   5.702
  912SOL    HW1 3635   1.158   0.307   5.643
  912SOL    HW2 3636   1.154   0.454   5.714
  913SOL     OW 3637   2.753   1.140   1.959
  913SOL    HW1 3638   2.847   1.112   1.939
  913SOL    HW2 3639   2.736   1.127   2.057
  914SOL     OW 3640   3.337   6.694   2.825
  914SOL    HW1 3641   3.287   6.612   2.799
  914SOL    HW2 3642   3.276   6.756   2.875
  915SOL     OW 3643   0.918   2.475   0.372
  915SOL    HW1 3644   1.003   2.469   0.425
  915SOL    HW2 3645   0.865   2.554   0.402
  916SOL     OW 3646   2.101   2.954   2.963
  916SOL    HW1 3647   2.114   3.052   2.977
  916SOL    HW2 3648   2.131   2.929   2.871
  917SOL     OW 3649   3.513   2.079   0.057
  917SOL    HW1 3650   3.519   1.984   0.087
  917SOL    HW2 3651   3.467   2.133   0.128
  918SOL     OW 3652   1.599   0.650   6.093
  918SOL    HW1 3653   1.552   0.610   6.015
  918SOL    HW2 3654   1.681   0.596   6.114
  919SOL     OW 3655   2.436   5.745   2.406
  919SOL    HW1 3656   2.374   5.699   2.342
  919SOL    HW2 3657   2.386   5.769   2.489
  920SOL     OW 3658   2.220   0.336   4.074
  920SOL    HW1 3659   2.293   0.271   4.052
  920SOL    HW2 3660   2.202   0.334   4.172
  921SOL     OW 3661   5.380   4.721   5.407
  921SOL    HW1 3662   5.290   4.760   5.388
  921SOL    HW2 3663   5.410   4.666   5.329
  922SOL     OW 3664   2.487   3.846   0.016
  922SOL    HW1 3665   2.563   3.784   0.036
  922SOL    HW2 3666   2.432   3.809   6.967
  923SOL     OW 3667   4.057   0.251   6.707
  923SOL    HW1 3668   3.957   0.258   6.702
  923SOL    HW2 3669   4.097   0.333   6.665
  924SOL     OW 3670   5.928   3.301   3.347
  924SOL    HW1 3671   6.006   3.242   3.327
  924SOL    HW2 3672   5.945   3.392   3.311
  925SOL     OW 3673   6.328   1.656   3.068
  925SOL    HW1 3674   6.335   1.708   2.983
  925SOL    HW2 3675   6.383   1.700   3.139
  926SOL     OW 3676   5.150   6.311   1.068
  926SOL    HW1 3677   5.220   6.353   1.010
  926SOL    HW2 3678   5.084   6.381   1.097
  927SOL     OW 3679   3.881   5.157   5.557
  927SOL    HW1 3680   3.954   5.193   5.616
  927SOL    HW2 3681   3.841   5.076   5.599
  928SOL     OW 3682   0.587   1.203   1.471
  928SOL    HW1 3683   0.631   1.182   1.384
  928SOL    HW2 3684   0.521   1.277   1.458
  929SOL     OW 3685   1.019   2.382   2.196
  929SOL    HW1 3686   1.065   2.333   2.123
  929SOL    HW2 3687   0.958   2.450   2.157
  930SOL     OW 3688   5.070   6.414   3.817
  930SOL    HW1 3689   5.016   6.402   3.900
  930SOL    HW2 3690   5.010   6.446   3.743
  931SOL     OW 3691   1.271   2.898   1.880
  931SOL    HW1 3692   1.232   2.844   1.806
  931SOL    HW2 3693   1.213   2.978   1.897
  932SOL     OW 3694   4.675   6.856   1.397
  932SOL    HW1 3695   4.626   6.812   1.472
  932SOL    HW2 3696   4.716   6.941   1.429
  933SOL     OW 3697   2.256   6.157   2.884
  933SOL    HW1 3698   2.254   6.069   2.932
  933SOL    HW2 3699   2.349   6.176   2.853
  934SOL     OW 3700   3.470   1.316   5.245
  934SOL    HW1 3701   3.423   1.289   5.329
  934SOL    HW2 3702   3.559   1.270   5.241
  935SOL     OW 3703   3.313   3.225   6.165
  935SOL    HW1 3704   3.375   3.174   6.106
  935SOL    HW2 3705   3.362   3.256   6.247
  936SOL     OW 3706   0.457   1.450   1.486
  936SOL    HW1 3707   0.452   1.512   1.408
  936SOL    HW2 3708   0.518   1.488   1.555
  937SOL     OW 3709   4.839   2.344   4.159
  937SOL    HW1 3710   4.810   2.347   4.063
  937SOL    HW2 3711   4.793   2.269   4.205
  938SOL     OW 3712   0.272   2.768   0.254
  938SOL    HW1 3713   0.324   2.682   0.257
  938SOL    HW2 3714   0.324   2.836   0.203
  939SOL     OW 3715   6.353   1.144   6.121
  939SOL    HW1 3716   6.389   1.204   6.049
  939SOL    HW2 3717   6.419   1.140   6.197
  940SOL     OW 3718   0.558   0.927   4.223
  940SOL    HW1 3719   0.625   1.002   4.217
  940SOL    HW2 3720   0.475   0.961   4.267
  941SOL     OW 3721   5.508   2.661   4.820
  941SOL    HW1 3722   5.518   2.760   4.803
  941SOL    HW2 3723   5.485   2.646   4.916
  942SOL     OW 3724   5.412   6.914   4.949
  942SOL    HW1 3725   5.346   6.873   4.887
  942SOL    HW2 3726   5.500   6.927   4.902
  943SOL     OW 3727   4.934   1.789   0.696
  943SOL    HW1 3728   5.003   1.719   0.674
  943SOL    HW2 3729   4.898   1.828   0.612
  944SOL     OW 3730   6.201   3.803   4.703
  944SOL    HW1 3731   6.157   3.893   4.705
  944SOL    HW2 3732   6.134   3.732   4.723
  945SOL     OW 3733   5.253   4.210   4.955
  945SOL    HW1 3734   5.348   4.224   4.925
  945SOL    HW2 3735   5.234   4.112   4.962
  946SOL     OW 3736   5.709   2.589   5.281
  946SOL    HW1 3737   5.717   2.655   5.206
  946SOL    HW2 3738   5.650   2.514   5.254
  947SOL     OW 3739   2.003   3.011   5.642
  947SOL    HW1 3740   1.987   2.990   5.546
  947SOL    HW2 3741   2.066   3.088   5.649
  948SOL     OW 3742   3.400   1.972   0.389
  948SOL    HW1 3743   3.417   1.892   0.447
  948SOL    HW2 3744   3.328   2.028   0.430
  949SOL     OW 3745   5.659   6.340   6.237
  949SOL    HW1 3746   5.637   6.425   6.188
  949SOL    HW2 3747   5.689   6.362   6.330
  950SOL     OW 3748   4.143   5.353   1.674
  950SOL    HW1 3749   4.136   5.366   1.575
  950SOL    HW2 3750   4.063   5.394   1.718
  951SOL     OW 3751   1.103   2.064   3.112
  951SOL    HW1 3752   1.182   2.002   3.117
  951SOL    HW2 3753   1.060   2.070   3.202
  952SOL     OW 3754   5.145   2.330   2.073
  952SOL    HW1 3755   5.154   2.238   2.112
  952SOL    HW2 3756   5.111   2.324   1.979
  953SOL     OW 3757   3.913   6.834   6.692
  953SOL    HW1 3758   3.944   6.890   6.770
  953SOL    HW2 3759   3.965   6.749   6.690
  954SOL     OW 3760   6.162   6.015   0.687
  954SOL    HW1 3761   6.125   5.955   0.757
  954SOL    HW2 3762   6.220   5.963   0.625
  955SOL     OW 3763   6.591   6.567   2.498
  955SOL    HW1 3764   6.630   6.571   2.590
  955SOL    HW2 3765   6.619   6.648   2.446
  956SOL     OW 3766   0.735   2.212   0.780
  956SOL    HW1 3767   0.657   2.250   0.730
  956SOL    HW2 3768   0.756   2.271   0.858
  957SOL     OW 3769   2.550   6.011   5.141
  957SOL    HW1 3770   2.484   6.007   5.066
  957SOL    HW2 3771   2.637   5.970   5.112
  958SOL     OW 3772   5.265   2.408   0.610
  958SOL    HW1 3773   5.200   2.410   0.534
  958SOL    HW2 3774   5.297   2.501   0.629
  959SOL     OW 3775   1.749   4.348   2.762
  959SOL    HW1 3776   1.746   4.440   2.723
  959SOL    HW2 3777   1.684   4.341   2.838
  960SOL     OW 3778   1.721   5.577   5.218
  960SOL    HW1 3779   1.670   5.512   5.275
  960SOL    HW2 3780   1.685   5.575   5.125
  961SOL     OW 3781   3.698   6.937   2.198
  961SOL    HW1 3782   3.782   6.898   2.159
  961SOL    HW2 3783   3.669   6.880   2.275
  962SOL     OW 3784   1.581   0.004   4.672
  962SOL    HW1 3785   1.584   0.037   4.578
  962SOL    HW2 3786   1.605   0.077   4.735
  963SOL     OW 3787   6.529   6.659   0.794
  963SOL    HW1 3788   6.500   6.751   0.822
  963SOL    HW2 3789   6.612   6.633   0.842
  964SOL     OW 3790   5.403   4.047   1.921
  964SOL    HW1 3791   5.420   4.059   1.823
  964SOL    HW2 3792   5.354   3.962   1.936
  965SOL     OW 3793   0.581   1.901   0.902
  965SOL    HW1 3794   0.611   1.887   0.808
  965SOL    HW2 3795   0.531   1.988   0.909
  966SOL     OW 3796   0.205   2.290   1.954
  966SOL    HW1 3797   0.185   2.219   2.022
  966SOL    HW2 3798   0.277   2.259   1.893
  967SOL     OW 3799   0.909   5.970   2.068
  967SOL    HW1 3800   0.961   5.913   2.004
  967SOL    HW2 3801   0.912   6.065   2.037
  968SOL     OW 3802   5.412   3.259   2.975
  968SOL    HW1 3803   5.427   3.220   3.066
  968SOL    HW2 3804   5.436   3.356   2.976
  969SOL     OW 3805   4.353   5.815   5.501
  969SOL    HW1 3806   4.441   5.853   5.475
  969SOL    HW2 3807   4.283   5.848   5.437
  970SOL     OW 3808   4.288   2.194   5.280
  970SOL    HW1 3809   4.216   2.124   5.272
  970SOL    HW2 3810   4.278   2.242   5.367
  971SOL     OW 3811   6.597   1.643   1.766
  971SOL    HW1 3812   6.652   1.561   1.782
  971SOL    HW2 3813   6.597   1.700   1.849
  972SOL     OW 3814   6.403   5.328   0.858
  972SOL    HW1 3815   6.485   5.317   0.915
  972SOL    HW2 3816   6.423   5.392   0.783
  973SOL     OW 3817   5.427   4.349   5.804
  973SOL    HW1 3818   5.526   4.332   5.809
  973SOL    HW2 3819   5.387   4.333   5.895
  974SOL     OW 3820   2.987   1.192   4.159
  974SOL    HW1 3821   2.942   1.109   4.190
  974SOL    HW2 3822   2.927   1.242   4.096
  975SOL     OW 3823   3.913   6.686   5.495
  975SOL    HW1 3824   3.853   6.610   5.517
  975SOL    HW2 3825   4.000   6.675   5.543
  976SOL     OW 3826   0.232   4.647   3.939
  976SOL    HW1 3827   0.238   4.579   3.866
  976SOL    HW2 3828   0.139   4.684   3.942
  977SOL     OW 3829   1.996   1.299   4.084
  977SOL    HW1 3830   1.903   1.327   4.058
  977SOL    HW2 3831   2.061   1.369   4.056
  978SOL     OW 3832   6.143   2.977   4.366
  978SOL    HW1 3833   6.175   2.887   4.398
  978SOL    HW2 3834   6.117   3.033   4.445
  979SOL     OW 3835   5.873   0.792   3.833
  979SOL    HW1 3836   5.803   0.733   3.873
  979SOL    HW2 3837   5.844   0.888   3.840
  980SOL     OW 3838   6.662   1.106   4.797
  980SOL    HW1 3839   6.743   1.105   4.855
  980SOL    HW2 3840   6.642   1.199   4.768
  981SOL     OW 3841   0.055   2.652   5.597
  981SOL    HW1 3842   0.011   2.584   5.655
  981SOL    HW2 3843   0.105   2.717   5.654
  982SOL     OW 3844   1.947   2.669   1.243
  982SOL    HW1 3845   1.926   2.625   1.331
  982SOL    HW2 3846   1.881   2.743   1.227
  983SOL     OW 3847   5.531   1.703   3.239
  983SOL    HW1 3848   5.621   1.746   3.229
  983SOL    HW2 3849   5.498   1.673   3.150
  984SOL     OW 3850   4.842   1.378   4.720
  984SOL    HW1 3851   4.808   1.313   4.788
  984SOL    HW2 3852   4.848   1.333   4.631
  985SOL     OW 3853   3.206   5.499   0.435
  985SOL    HW1 3854   3.263   5.424   0.401
  985SOL    HW2 3855   3.262   5.564   0.485
  986SOL     OW 3856   4.653   4.938   6.439
  986SOL    HW1 3857   4.627   4.968   6.531
  986SOL    HW2 3858   4.752   4.943   6.430
  987SOL     OW 3859   4.055   6.964   2.619
  987SOL    HW1 3860   4.008   6.981   2.705
  987SOL    HW2 3861   4.102   6.876   2.622
  988SOL     OW 3862   3.143   3.489   1.950
  988SOL    HW1 3863   3.063   3.549   1.956
  988SOL    HW2 3864   3.221   3.533   1.995
  989SOL     OW 3865   0.532   6.870   5.918
  989SOL    HW1 3866   0.491   6.778   5.919
  989SOL    HW2 3867   0.623   6.865   5.877
  990SOL     OW 3868   4.861   6.693   4.053
  990SOL    HW1 3869   4.781   6.692   4.113
  990SOL    HW2 3870   4.944   6.699   4.107
  991SOL     OW 3871   6.618   1.371   4.743
  991SOL    HW1 3872   6.641   1.459   4.701
  991SOL    HW2 3873   6.526   1.344   4.715
  992SOL     OW 3874   0.674   3.500   0.283
  992SOL    HW1 3875   0.632   3.574   0.230
  992SOL    HW2 3876   0.740   3.538   0.348
  993SOL     OW 3877   3.391   5.185   3.218
  993SOL    HW1 3878   3.381   5.086   3.210
  993SOL    HW2 3879   3.399   5.226   3.127
  994SOL     OW 3880   2.888   3.494   3.026
  994SOL    HW1 3881   2.907   3.565   2.957
  994SOL    HW2 3882   2.890   3.535   3.117
  995SOL     OW 3883   1.209   1.754   4.882
  995SOL    HW1 3884   1.210   1.833   4.821
  995SOL    HW2 3885   1.293   1.701   4.870
  996SOL     OW 3886   1.545   3.809   2.620
  996SOL    HW1 3887   1.575   3.882   2.682
  996SOL    HW2 3888   1.445   3.810   2.614
  997SOL     OW 3889   6.603   0.885   1.426
  997SOL    HW1 3890   6.664   0.963   1.411
  997SOL    HW2 3891   6.598   0.864   1.524
  998SOL     OW 3892   5.201   0.366   3.188
  998SOL    HW1 3893   5.130   0.308   3.148
  998SOL    HW2 3894   5.229   0.328   3.276
  999SOL     OW 3895   0.343   4.876   1.203
  999SOL    HW1 3896   0.421   4.872   1.266
  999SOL    HW2 3897   0.356   4.953   1.140
 1000SOL     OW 3898   3.594   1.537   4.099
 1000SOL    HW1 3899   3.634   1.511   4.187
 1000SOL    HW2 3900   3.513   1.593   4.115
 1001SOL     OW 3901   4.945   0.389   5.589
 1001SOL    HW1 3902   4.956   0.338   5.504
 1001SOL    HW2 3903   4.958   0.487   5.571
 1002SOL     OW 3904   6.609   1.182   1.056
 1002SOL    HW1 3905   6.657   1.218   0.976
 1002SOL    HW2 3906   6.641   1.229   1.138
 1003SOL     OW 3907   3.781   5.789   2.727
 1003SOL    HW1 3908   3.846   5.846   2.778
 1003SOL    HW2 3909   3.822   5.763   2.640
 1004SOL     OW 3910   5.721   6.588   6.945
 1004SOL    HW1 3911   5.636   6.625   6.984
 1004SOL    HW2 3912   5.740   6.632   6.858
 1005SOL     OW 3913   0.173   6.392   3.274
 1005SOL    HW1 3914   0.267   6.425   3.268
 1005SOL    HW2 3915   0.115   6.464   3.313
 1006SOL     OW 3916   2.161   4.765   0.970
 1006SOL    HW1 3917   2.151   4.710   1.053
 1006SOL    HW2 3918   2.254   4.756   0.936
 1007SOL     OW 3919   0.123   0.891   3.748
 1007SOL    HW1 3920   0.216   0.856   3.751
 1007SOL    HW2 3921   0.058   0.815   3.747
 1008SOL     OW 3922   2.162   3.282   3.462
 1008SOL    HW1 3923   2.138   3.338   3.541
 1008SOL    HW2 3924   2.102   3.306   3.385
 1009SOL     OW 3925   1.414   6.307   5.412
 1009SOL    HW1 3926   1.437   6.273   5.503
 1009SOL    HW2 3927   1.348   6.382   5.420
 1010SOL     OW 3928   4.541   1.997   0.064
 1010SOL    HW1 3929   4.455   2.045   0.049
 1010SOL    HW2 3930   4.545   1.915   0.006
 1011SOL     OW 3931   3.403   6.370   3.116
 1011SOL    HW1 3932   3.442   6.453   3.075
 1011SOL    HW2 3933   3.313   6.391   3.155
 1012SOL     OW 3934   5.375   5.739   6.742
 1012SOL    HW1 3935   5.276   5.732   6.754
 1012SOL    HW2 3936   5.414   5.793   6.817
 1013SOL     OW 3937   0.708   1.267   1.729
 1013SOL    HW1 3938   0.626   1.303   1.772
 1013SOL    HW2 3939   0.694   1.262   1.630
 1014SOL     OW 3940   4.656   0.119   5.752
 1014SOL    HW1 3941   4.667   0.189   5.823
 1014SOL    HW2 3942   4.745   0.100   5.710
 1015SOL     OW 3943   3.462   5.633   4.011
 1015SOL    HW1 3944   3.464   5.716   3.955
 1015SOL    HW2 3945   3.369   5.598   4.014
 1016SOL     OW 3946   3.844   2.557   1.024
 1016SOL    HW1 3947   3.830   2.509   1.111
 1016SOL    HW2 3948   3.941   2.552   0.999
 1017SOL     OW 3949   3.897   1.958   6.532
 1017SOL    HW1 3950   3.828   1.915   6.589
 1017SOL    HW2 3951   3.853   2.020   6.467
 1018SOL     OW 3952   1.768   3.232   2.939
 1018SOL    HW1 3953   1.743   3.261   2.846
 1018SOL    HW2 3954   1.795   3.313   2.992
 1019SOL     OW 3955   6.674   1.470   0.021
 1019SOL    HW1 3956   6.680   1.444   6.950
 1019SOL    HW2 3957   6.660   1.569   0.028
 1020SOL     OW 3958   2.791   1.334   1.555
 1020SOL    HW1 3959   2.783   1.418   1.500
 1020SOL    HW2 3960   2.723   1.268   1.524
 1021SOL     OW 3961   6.720   1.555   1.148
 1021SOL    HW1 3962   6.734   1.458   1.166
 1021SOL    HW2 3963   6.768   1.581   1.065
 1022SOL     OW 3964   4.053   3.628   6.449
 1022SOL    HW1 3965   3.956   3.604   6.448
 1022SOL    HW2 3966   4.062   3.727   6.448
 1023SOL     OW 3967   5.397   1.311   2.801
 1023SOL    HW1 3968   5.374   1.253   2.723
 1023SOL    HW2 3969   5.370   1.264   2.886
 1024SOL     OW 3970   6.538   1.350   3.700
 1024SOL    HW1 3971   6.496   1.276   3.647
 1024SOL    HW2 3972   6.511   1.438   3.661
 1025SOL     OW 3973   3.149   5.036   1.366
 1025SOL    HW1 3974   3.112   5.002   1.453
 1025SOL    HW2 3975   3.090   5.006   1.291
 1026SOL     OW 3976   1.356   2.407   0.428
 1026SOL    HW1 3977   1.357   2.413   0.328
 1026SOL    HW2 3978   1.336   2.497   0.466
 1027SOL     OW 3979   2.737   4.694   2.400
 1027SOL    HW1 3980   2.697   4.679   2.310
 1027SOL    HW2 3981   2.837   4.686   2.393
 1028SOL     OW 3982   1.452   6.302   0.760
 1028SOL    HW1 3983   1.433   6.210   0.793
 1028SOL    HW2 3984   1.376   6.334   0.703
 1029SOL     OW 3985   2.581   0.561   6.509
 1029SOL    HW1 3986   2.618   0.468   6.506
 1029SOL    HW2 3987   2.498   0.562   6.566
 1030SOL     OW 3988   4.148   3.505   4.941
 1030SOL    HW1 3989   4.232   3.537   4.898
 1030SOL    HW2 3990   4.079   3.484   4.871
 1031SOL     OW 3991   2.534   5.740   2.094
 1031SOL    HW1 3992   2.487   5.655   2.071
 1031SOL    HW2 3993   2.557   5.740   2.191
 1032SOL     OW 3994   2.002   0.757   4.543
 1032SOL    HW1 3995   2.020   0.853   4.523
 1032SOL    HW2 3996   1.903   0.741   4.546
 1033SOL     OW 3997   2.615   5.903   2.722
 1033SOL    HW1 3998   2.692   5.875   2.666
 1033SOL    HW2 3999   2.573   5.822   2.764
 1034SOL     OW 4000   1.240   4.639   3.801
 1034SOL    HW1 4001   1.173   4.565   3.797
 1034SOL    HW2 4002   1.277   4.646   3.894
 1035SOL     OW 4003   2.389   1.364   4.335
 1035SOL    HW1 4004   2.474   1.319   4.362
 1035SOL    HW2 4005   2.331   1.299   4.285
 1036SOL     OW 4006   4.283   2.238   0.397
 1036SOL    HW1 4007   4.217   2.187   0.342
 1036SOL    HW2 4008   4.237   2.282   0.473
 1037SOL     OW 4009   2.217   2.107   6.712
 1037SOL    HW1 4010   2.183   2.072   6.800
 1037SOL    HW2 4011   2.237   2.205   6.721
 1038SOL     OW 4012   2.046   1.039   4.911
 1038SOL    HW1 4013   2.134   1.079   4.936
 1038SOL    HW2 4014   2.021   1.068   4.819
 1039SOL     OW 4015   3.893   1.915   3.409
 1039SOL    HW1 4016   3.888   2.010   3.441
 1039SOL    HW2 4017   3.807   1.892   3.363
 1040SOL     OW 4018   6.584   4.435   3.048
 1040SOL    HW1 4019   6.622   4.453   3.139
 1040SOL    HW2 4020   6.651   4.384   2.994
 1041SOL     OW 4021   1.246   0.757   4.393
 1041SOL    HW1 4022   1.256   0.671   4.443
 1041SOL    HW2 4023   1.247   0.833   4.457
 1042SOL     OW 4024   5.422   4.810   0.707
 1042SOL    HW1 4025   5.476   4.893   0.718
 1042SOL    HW2 4026   5.348   4.808   0.774
 1043SOL     OW 4027   2.762   1.691   6.179
 1043SOL    HW1 4028   2.689   1.708   6.245
 1043SOL    HW2 4029   2.825   1.770   6.178
 1044SOL     OW 4030   4.486   3.451   1.635
 1044SOL    HW1 4031   4.392   3.481   1.618
 1044SOL    HW2 4032   4.485   3.369   1.692
 1045SOL     OW 4033   3.196   1.523   3.282
 1045SOL    HW1 4034   3.171   1.463   3.358
 1045SOL    HW2 4035   3.268   1.480   3.228
 1046SOL     OW 4036   4.205   0.449   2.099
 1046SOL    HW1 4037   4.253   0.441   2.186
 1046SOL    HW2 4038   4.271   0.455   2.024
 1047SOL     OW 4039   1.103   4.431   2.714
 1047SOL    HW1 4040   1.185   4.385   2.749
 1047SOL    HW2 4041   1.028   4.418   2.779
 1048SOL     OW 4042   4.937   4.411   5.248
 1048SOL    HW1 4043   5.016   4.396   5.307
 1048SOL    HW2 4044   4.966   4.448   5.160
 1049SOL     OW 4045   0.207   3.245   4.821
 1049SOL    HW1 4046   0.160   3.187   4.888
 1049SOL    HW2 4047   0.161   3.333   4.815
 1050SOL     OW 4048   3.303   0.722   0.359
 1050SOL    HW1 4049   3.360   0.804   0.352
 1050SOL    HW2 4050   3.355   0.642   0.329
 1051SOL     OW 4051   5.001   4.304   1.519
 1051SOL    HW1 4052   5.033   4.399   1.515
 1051SOL    HW2 4053   4.941   4.293   1.598
 1052SOL     OW 4054   3.821   0.112   4.726
 1052SOL    HW1 4055   3.800   0.129   4.822
 1052SOL    HW2 4056   3.860   0.020   4.716
 1053SOL     OW 4057   4.348   4.780   3.654
 1053SOL    HW1 4058   4.309   4.830   3.577
 1053SOL    HW2 4059   4.416   4.715   3.620
 1054SOL     OW 4060   3.453   6.068   4.588
 1054SOL    HW1 4061   3.505   6.149   4.563
 1054SOL    HW2 4062   3.371   6.061   4.531
 1055SOL     OW 4063   4.140   5.502   5.106
 1055SOL    HW1 4064   4.188   5.588   5.121
 1055SOL    HW2 4065   4.203   5.433   5.071
 1056SOL     OW 4066   2.007   6.414   5.084
 1056SOL    HW1 4067   1.930   6.386   5.026
 1056SOL    HW2 4068   2.030   6.510   5.066
 1057SOL     OW 4069   3.313   3.929   1.978
 1057SOL    HW1 4070   3.385   3.865   2.006
 1057SOL    HW2 4071   3.226   3.881   1.969
 1058SOL     OW 4072   3.671   1.047   1.948
 1058SOL    HW1 4073   3.760   1.072   1.910
 1058SOL    HW2 4074   3.616   1.005   1.876
 1059SOL     OW 4075   4.034   2.004   1.123
 1059SOL    HW1 4076   3.987   1.972   1.041
 1059SOL    HW2 4077   4.132   2.009   1.105
 1060SOL     OW 4078   2.361   1.918   5.784
 1060SOL    HW1 4079   2.364   2.018   5.786
 1060SOL    HW2 4080   2.454   1.882   5.790
 1061SOL     OW 4081   2.793   5.590   1.821
 1061SOL    HW1 4082   2.859   5.520   1.850
 1061SOL    HW2 4083   2.714   5.546   1.779
 1062SOL     OW 4084   5.523   5.272   4.394
 1062SOL    HW1 4085   5.621   5.263   4.378
 1062SOL    HW2 4086   5.476   5.192   4.356
 1063SOL     OW 4087   2.229   2.365   6.396
 1063SOL    HW1 4088   2.205   2.335   6.304
 1063SOL    HW2 4089   2.147   2.403   6.440
 1064SOL     OW 4090   6.733   2.650   1.810
 1064SOL    HW1 4091   6.719   2.684   1.903
 1064SOL    HW2 4092   6.645   2.632   1.767
 1065SOL     OW 4093   6.533   6.551   4.931
 1065SOL    HW1 4094   6.602   6.480   4.949
 1065SOL    HW2 4095   6.539   6.621   5.001
 1066SOL     OW 4096   4.205   0.681   3.538
 1066SOL    HW1 4097   4.121   0.729   3.513
 1066SOL    HW2 4098   4.226   0.612   3.469
 1067SOL     OW 4099   1.876   3.282   1.481
 1067SOL    HW1 4100   1.870   3.331   1.568
 1067SOL    HW2 4101   1.797   3.304   1.425
 1068SOL     OW 4102   0.622   3.931   1.800
 1068SOL    HW1 4103   0.594   3.977   1.884
 1068SOL    HW2 4104   0.591   3.836   1.803
 1069SOL     OW 4105   3.699   3.927   1.492
 1069SOL    HW1 4106   3.743   4.011   1.523
 1069SOL    HW2 4107   3.764   3.874   1.437
 1070SOL     OW 4108   2.267   0.865   0.111
 1070SOL    HW1 4109   2.357   0.909   0.115
 1070SOL    HW2 4110   2.257   0.802   0.188
 1071SOL     OW 4111   4.282   6.767   3.231
 1071SOL    HW1 4112   4.373   6.740   3.262
 1071SOL    HW2 4113   4.259   6.857   3.269
 1072SOL     OW 4114   3.978   5.582   3.139
 1072SOL    HW1 4115   3.996   5.625   3.227
 1072SOL    HW2 4116   4.045   5.612   3.072
 1073SOL     OW 4117   2.368   4.763   2.963
 1073SOL    HW1 4118   2.300   4.774   2.890
 1073SOL    HW2 4119   2.338   4.691   3.025
 1074SOL     OW 4120   1.289   5.480   1.895
 1074SOL    HW1 4121   1.309   5.525   1.808
 1074SOL    HW2 4122   1.239   5.544   1.954
 1075SOL     OW 4123   0.003   4.164   4.444
 1075SOL    HW1 4124   0.013   4.215   4.359
 1075SOL    HW2 4125   6.939   4.184   4.485
 1076SOL     OW 4126   0.230   4.847   3.511
 1076SOL    HW1 4127   0.315   4.898   3.498
 1076SOL    HW2 4128   0.251   4.749   3.514
 1077SOL     OW 4129   4.771   0.295   0.441
 1077SOL    HW1 4130   4.771   0.318   0.343
 1077SOL    HW2 4131   4.677   0.296   0.475
 1078SOL     OW 4132   0.650   2.200   1.212
 1078SOL    HW1 4133   0.655   2.150   1.298
 1078SOL    HW2 4134   0.645   2.299   1.231
 1079SOL     OW 4135   2.498   5.465   2.983
 1079SOL    HW1 4136   2.569   5.397   3.005
 1079SOL    HW2 4137   2.457   5.442   2.895
 1080SOL     OW 4138   1.869   5.237   4.370
 1080SOL    HW1 4139   1.914   5.226   4.282
 1080SOL    HW2 4140   1.808   5.159   4.386
 1081SOL     OW 4141   1.900   0.631   6.943
 1081SOL    HW1 4142   1.881   0.596   0.010
 1081SOL    HW2 4143   1.901   0.555   6.878
 1082SOL     OW 4144   2.284   6.918   5.991
 1082SOL    HW1 4145   2.264   6.888   6.085
 1082SOL    HW2 4146   2.206   6.969   5.955
 1083SOL     OW 4147   3.852   3.322   1.146
 1083SOL    HW1 4148   3.934   3.375   1.168
 1083SOL    HW2 4149   3.799   3.306   1.229
 1084SOL     OW 4150   6.473   4.023   0.582
 1084SOL    HW1 4151   6.558   4.049   0.628
 1084SOL    HW2 4152   6.403   4.002   0.650
 1085SOL     OW 4153   2.136   3.716   4.161
 1085SOL    HW1 4154   2.108   3.768   4.081
 1085SOL    HW2 4155   2.179   3.630   4.133
 1086SOL     OW 4156   4.273   4.910   2.019
 1086SOL    HW1 4157   4.177   4.883   2.021
 1086SOL    HW2 4158   4.281   5.009   2.023
 1087SOL     OW 4159   4.469   2.807   5.336
 1087SOL    HW1 4160   4.394   2.750   5.302
 1087SOL    HW2 4161   4.439   2.902   5.338
 1088SOL     OW 4162   4.821   3.820   3.276
 1088SOL    HW1 4163   4.789   3.895   3.335
 1088SOL    HW2 4164   4.819   3.850   3.181
 1089SOL     OW 4165   6.738   0.380   2.930
 1089SOL    HW1 4166   6.660   0.416   2.980
 1089SOL    HW2 4167   6.807   0.452   2.919
 1090SOL     OW 4168   0.668   1.989   5.508
 1090SOL    HW1 4169   0.616   2.072   5.486
 1090SOL    HW2 4170   0.765   2.011   5.514
 1091SOL     OW 4171   0.970   1.892   4.962
 1091SOL    HW1 4172   0.893   1.895   4.899
 1091SOL    HW2 4173   1.045   1.841   4.920
 1092SOL     OW 4174   2.142   4.252   0.962
 1092SOL    HW1 4175   2.152   4.316   0.886
 1092SOL    HW2 4176   2.162   4.299   1.048
 1093SOL     OW 4177   0.579   1.942   2.317
 1093SOL    HW1 4178   0.538   2.022   2.274
 1093SOL    HW2 4179   0.624   1.886   2.247
 1094SOL     OW 4180   0.403   6.125   1.904
 1094SOL    HW1 4181   0.362   6.125   1.813
 1094SOL    HW2 4182   0.475   6.056   1.909
 1095SOL     OW 4183   5.735   3.852   6.437
 1095SOL    HW1 4184   5.670   3.898   6.497
 1095SOL    HW2 4185   5.688   3.777   6.389
 1096SOL     OW 4186   3.414   4.494   1.614
 1096SOL    HW1 4187   3.329   4.455   1.650
 1096SOL    HW2 4188   3.475   4.518   1.689
 1097SOL     OW 4189   1.362   5.093   5.547
 1097SOL    HW1 4190   1.289   5.150   5.586
 1097SOL    HW2 4191   1.429   5.071   5.618
 1098SOL     OW 4192   4.396   1.947   2.925
 1098SOL    HW1 4193   4.424   1.931   2.831
 1098SOL    HW2 4194   4.304   1.985   2.927
 1099SOL     OW 4195   3.580   1.780   2.943
 1099SOL    HW1 4196   3.584   1.877   2.921
 1099SOL    HW2 4197   3.672   1.747   2.965
 1100SOL     OW 4198   0.995   0.202   0.185
 1100SOL    HW1 4199   0.912   0.253   0.165
 1100SOL    HW2 4200   0.972   0.110   0.218
 1101SOL     OW 4201   5.690   2.725   1.067
 1101SOL    HW1 4202   5.630   2.761   0.995
 1101SOL    HW2 4203   5.785   2.727   1.035
 1102SOL     OW 4204   0.726   4.996   3.333
 1102SOL    HW1 4205   0.681   4.912   3.302
 1102SOL    HW2 4206   0.808   5.011   3.279
 1103SOL     OW 4207   0.338   3.153   1.261
 1103SOL    HW1 4208   0.238   3.143   1.267
 1103SOL    HW2 4209   0.362   3.184   1.169
 1104SOL     OW 4210   2.740   4.851   6.360
 1104SOL    HW1 4211   2.776   4.759   6.379
 1104SOL    HW2 4212   2.809   4.904   6.312
 1105SOL     OW 4213   4.197   5.193   0.109
 1105SOL    HW1 4214   4.200   5.110   0.165
 1105SOL    HW2 4215   4.259   5.183   0.031
 1106SOL     OW 4216   0.461   2.210   6.912
 1106SOL    HW1 4217   0.529   2.281   6.933
 1106SOL    HW2 4218   0.467   2.137   6.980
 1107SOL     OW 4219   1.344   0.535   0.680
 1107SOL    HW1 4220   1.281   0.612   0.692
 1107SOL    HW2 4221   1.403   0.528   0.760
 1108SOL     OW 4222   0.616   1.983   4.661
 1108SOL    HW1 4223   0.666   1.903   4.628
 1108SOL    HW2 4224   0.678   2.060   4.670
 1109SOL     OW 4225   5.087   1.002   4.033
 1109SOL    HW1 4226   5.177   0.964   4.012
 1109SOL    HW2 4227   5.069   1.081   3.974
 1110SOL     OW 4228   3.362   2.886   2.070
 1110SOL    HW1 4229   3.420   2.844   2.140
 1110SOL    HW2 4230   3.345   2.981   2.094
 1111SOL     OW 4231   5.843   0.207   7.018
 1111SOL    HW1 4232   5.765   0.206   0.054
 1111SOL    HW2 4233   5.888   0.117   7.019
 1112SOL     OW 4234   6.275   0.819   2.655
 1112SOL    HW1 4235   6.299   0.891   2.720
 1112SOL    HW2 4236   6.358   0.769   2.628
 1113SOL     OW 4237   6.531   3.695   2.239
 1113SOL    HW1 4238   6.590   3.622   2.205
 1113SOL    HW2 4239   6.582   3.781   2.241
 1114SOL     OW 4240   4.747   1.210   4.923
 1114SOL    HW1 4241   4.769   1.228   5.019
 1114SOL    HW2 4242   4.727   1.113   4.911
 1115SOL     OW 4243   2.441   3.154   0.850
 1115SOL    HW1 4244   2.534   3.122   0.830
 1115SOL    HW2 4245   2.432   3.250   0.823
 1116SOL     OW 4246   4.841   6.534   4.482
 1116SOL    HW1 4247   4.743   6.548   4.475
 1116SOL    HW2 4248   4.878   6.507   4.393
 1117SOL     OW 4249   2.602   3.362   1.269
 1117SOL    HW1 4250   2.555   3.360   1.357
 1117SOL    HW2 4251   2.639   3.272   1.248
 1118SOL     OW 4252   1.989   3.629   3.422
 1118SOL    HW1 4253   1.986   3.627   3.522
 1118SOL    HW2 4254   1.908   3.583   3.385
 1119SOL     OW 4255   3.809   4.016   1.792
 1119SOL    HW1 4256   3.736   3.957   1.826
 1119SOL    HW2 4257   3.897   3.976   1.815
 1120SOL     OW 4258   4.328   1.072   4.081
 1120SOL    HW1 4259   4.233   1.063   4.049
 1120SOL    HW2 4260   4.381   0.994   4.048
 1121SOL     OW 4261   5.350   3.353   2.020
 1121SOL    HW1 4262   5.409   3.419   2.067
 1121SOL    HW2 4263   5.401   3.308   1.947
 1122SOL     OW 4264   5.031   4.372   6.850
 1122SOL    HW1 4265   5.031   4.364   6.750
 1122SOL    HW2 4266   4.937   4.366   6.884
 1123SOL     OW 4267   3.414   0.727   2.474
 1123SOL    HW1 4268   3.498   0.694   2.431
 1123SOL    HW2 4269   3.426   0.823   2.501
 1124SOL     OW 4270   0.707   4.366   4.777
 1124SOL    HW1 4271   0.714   4.266   4.774
 1124SOL    HW2 4272   0.733   4.399   4.868
 1125SOL     OW 4273   3.714   3.331   5.218
 1125SOL    HW1 4274   3.806   3.315   5.254
 1125SOL    HW2 4275   3.647   3.297   5.283
 1126SOL     OW 4276   5.515   6.295   1.938
 1126SOL    HW1 4277   5.581   6.361   1.973
 1126SOL    HW2 4278   5.556   6.204   1.937
 1127SOL     OW 4279   1.292   5.236   0.275
 1127SOL    HW1 4280   1.286   5.319   0.220
 1127SOL    HW2 4281   1.388   5.216   0.295
 1128SOL     OW 4282   2.730   1.795   4.683
 1128SOL    HW1 4283   2.639   1.752   4.682
 1128SOL    HW2 4284   2.721   1.891   4.709
 1129SOL     OW 4285   5.689   0.504   6.841
 1129SOL    HW1 4286   5.767   0.559   6.871
 1129SOL    HW2 4287   5.719   0.413   6.813
 1130SOL     OW 4288   6.779   4.406   6.499
 1130SOL    HW1 4289   6.817   4.414   6.591
 1130SOL    HW2 4290   6.701   4.467   6.490
 1131SOL     OW 4291   0.684   5.221   6.304
 1131SOL    HW1 4292   0.673   5.320   6.318
 1131SOL    HW2 4293   0.761   5.205   6.242
 1132SOL     OW 4294   5.215   0.185   5.555
 1132SOL    HW1 4295   5.236   0.283   5.555
 1132SOL    HW2 4296   5.213   0.151   5.649
 1133SOL     OW 4297   0.442   3.512   1.662
 1133SOL    HW1 4298   0.518   3.498   1.599
 1133SOL    HW2 4299   0.363   3.547   1.611
 1134SOL     OW 4300   5.661   3.248   6.127
 1134SOL    HW1 4301   5.605   3.168   6.106
 1134SOL    HW2 4302   5.743   3.247   6.069
 1135SOL     OW 4303   3.743   2.064   2.981
 1135SOL    HW1 4304   3.713   2.075   2.886
 1135SOL    HW2 4305   3.813   1.992   2.985
 1136SOL     OW 4306   3.609   4.989   4.111
 1136SOL    HW1 4307   3.626   4.931   4.191
 1136SOL    HW2 4308   3.661   4.954   4.033
 1137SOL     OW 4309   1.804   1.209   5.821
 1137SOL    HW1 4310   1.856   1.265   5.885
 1137SOL    HW2 4311   1.748   1.268   5.762
 1138SOL     OW 4312   1.010   4.272   5.520
 1138SOL    HW1 4313   1.043   4.178   5.531
 1138SOL    HW2 4314   1.053   4.331   5.589
 1139SOL     OW 4315   1.447   6.235   1.656
 1139SOL    HW1 4316   1.374   6.179   1.617
 1139SOL    HW2 4317   1.427   6.332   1.640
 1140SOL     OW 4318   3.595   1.904   3.390
 1140SOL    HW1 4319   3.544   1.852   3.459
 1140SOL    HW2 4320   3.538   1.918   3.310
 1141SOL     OW 4321   6.710   5.659   5.566
 1141SOL    HW1 4322   6.642   5.588   5.587
 1141SOL    HW2 4323   6.685   5.743   5.615
 1142SOL     OW 4324   6.624   0.792   4.175
 1142SOL    HW1 4325   6.658   0.703   4.144
 1142SOL    HW2 4326   6.682   0.864   4.136
 1143SOL     OW 4327   4.029   1.931   3.036
 1143SOL    HW1 4328   4.102   1.876   3.077
 1143SOL    HW2 4329   4.069   2.012   2.994
 1144SOL     OW 4330   6.883   5.975   5.219
 1144SOL    HW1 4331   6.911   5.893   5.168
 1144SOL    HW2 4332   6.858   6.047   5.155
 1145SOL     OW 4333   0.982   5.239   5.075
 1145SOL    HW1 4334   0.983   5.328   5.121
 1145SOL    HW2 4335   1.045   5.241   4.997
 1146SOL     OW 4336   5.682   2.070   0.692
 1146SOL    HW1 4337   5.606   2.130   0.665
 1146SOL    HW2 4338   5.665   1.977   0.657
 1147SOL     OW 4339   6.219   2.434   1.327
 1147SOL    HW1 4340   6.272   2.390   1.398
 1147SOL    HW2 4341   6.267   2.516   1.295
 1148SOL     OW 4342   3.948   0.237   0.687
 1148SOL    HW1 4343   3.890   0.317   0.671
 1148SOL    HW2 4344   3.916   0.162   0.629
 1149SOL     OW 4345   6.623   3.109   2.192
 1149SOL    HW1 4346   6.538   3.117   2.243
 1149SOL    HW2 4347   6.670   3.025   2.218
 1150SOL     OW 4348   1.321   4.707   6.460
 1150SOL    HW1 4349   1.255   4.782   6.449
 1150SOL    HW2 4350   1.323   4.652   6.377
 1151SOL     OW 4351   4.666   5.105   6.945
 1151SOL    HW1 4352   4.752   5.082   6.900
 1151SOL    HW2 4353   4.684   5.161   0.001
 1152SOL     OW 4354   0.658   0.237   4.637
 1152SOL    HW1 4355   0.575   0.220   4.689
 1152SOL    HW2 4356   0.735   0.246   4.700
 1153SOL     OW 4357   2.277   5.221   2.576
 1153SOL    HW1 4358   2.377   5.219   2.576
 1153SOL    HW2 4359   2.246   5.316   2.577
 1154SOL     OW 4360   1.397   5.324   1.454
 1154SOL    HW1 4361   1.387   5.421   1.479
 1154SOL    HW2 4362   1.309   5.290   1.420
 1155SOL     OW 4363   3.672   5.890   2.088
 1155SOL    HW1 4364   3.767   5.856   2.083
 1155SOL    HW2 4365   3.671   5.989   2.078
 1156SOL     OW 4366   2.216   0.385   4.356
 1156SOL    HW1 4367   2.209   0.482   4.330
 1156SOL    HW2 4368   2.139   0.361   4.415
 1157SOL     OW 4369   0.815   2.755   3.853
 1157SOL    HW1 4370   0.832   2.808   3.936
 1157SOL    HW2 4371   0.834   2.659   3.870
 1158SOL     OW 4372   4.713   5.316   5.073
 1158SOL    HW1 4373   4.633   5.297   5.018
 1158SOL    HW2 4374   4.692   5.300   5.170
 1159SOL     OW 4375   4.886   5.168   3.219
 1159SOL    HW1 4376   4.894   5.185   3.318
 1159SOL    HW2 4377   4.829   5.238   3.178
 1160SOL     OW 4378   2.893   3.740   0.241
 1160SOL    HW1 4379   2.913   3.659   0.296
 1160SOL    HW2 4380   2.832   3.801   0.291
 1161SOL     OW 4381   5.195   0.418   3.835
 1161SOL    HW1 4382   5.183   0.451   3.742
 1161SOL    HW2 4383   5.211   0.496   3.897
 1162SOL     OW 4384   3.744   4.216   1.624
 1162SOL    HW1 4385   3.644   4.218   1.621
 1162SOL    HW2 4386   3.774   4.150   1.692
 1163SOL     OW 4387   4.967   2.600   2.986
 1163SOL    HW1 4388   4.980   2.512   2.940
 1163SOL    HW2 4389   4.875   2.634   2.969
 1164SOL     OW 4390   5.761   3.170   3.557
 1164SOL    HW1 4391   5.807   3.254   3.529
 1164SOL    HW2 4392   5.823   3.092   3.543
 1165SOL     OW 4393   1.322   4.873   2.407
 1165SOL    HW1 4394   1.293   4.929   2.485
 1165SOL    HW2 4395   1.407   4.909   2.369
 1166SOL     OW 4396   4.111   3.133   6.784
 1166SOL    HW1 4397   4.075   3.041   6.796
 1166SOL    HW2 4398   4.123   3.176   6.874
 1167SOL     OW 4399   4.803   1.328   5.158
 1167SOL    HW1 4400   4.773   1.301   5.249
 1167SOL    HW2 4401   4.901   1.313   5.149
 1168SOL     OW 4402   5.895   6.247   3.577
 1168SOL    HW1 4403   5.906   6.179   3.649
 1168SOL    HW2 4404   5.847   6.327   3.614
 1169SOL     OW 4405   0.896   3.503   1.833
 1169SOL    HW1 4406   0.992   3.502   1.807
 1169SOL    HW2 4407   0.840   3.513   1.750
 1170SOL     OW 4408   2.956   0.443   1.326
 1170SOL    HW1 4409   2.981   0.348   1.344
 1170SOL    HW2 4410   2.886   0.471   1.392
 1171SOL     OW 4411   2.310   6.537   0.337
 1171SOL    HW1 4412   2.285   6.456   0.390
 1171SOL    HW2 4413   2.397   6.520   0.290
 1172SOL     OW 4414   3.208   3.554   5.258
 1172SOL    HW1 4415   3.254   3.592   5.177
 1172SOL    HW2 4416   3.111   3.578   5.255
 1173SOL     OW 4417   4.056   0.385   6.291
 1173SOL    HW1 4418   4.136   0.426   6.335
 1173SOL    HW2 4419   3.982   0.452   6.288
 1174SOL     OW 4420   3.025   6.190   0.690
 1174SOL    HW1 4421   2.944   6.236   0.653
 1174SOL    HW2 4422   3.057   6.122   0.624
 1175SOL     OW 4423   6.427   4.752   5.800
 1175SOL    HW1 4424   6.450   4.702   5.716
 1175SOL    HW2 4425   6.388   4.840   5.777
 1176SOL     OW 4426   6.120   4.203   0.644
 1176SOL    HW1 4427   6.126   4.148   0.728
 1176SOL    HW2 4428   6.211   4.234   0.618
 1177SOL     OW 4429   6.400   2.523   6.626
 1177SOL    HW1 4430   6.309   2.555   6.600
 1177SOL    HW2 4431   6.432   2.573   6.706
 1178SOL     OW 4432   5.828   4.243   2.037
 1178SOL    HW1 4433   5.843   4.294   1.953
 1178SOL    HW2 4434   5.908   4.252   2.096
 1179SOL     OW 4435   2.681   5.552   6.307
 1179SOL    HW1 4436   2.721   5.510   6.388
 1179SOL    HW2 4437   2.746   5.617   6.267
 1180SOL     OW 4438   2.481   1.895   4.401
 1180SOL    HW1 4439   2.454   1.962   4.332
 1180SOL    HW2 4440   2.465   1.803   4.366
 1181SOL     OW 4441   2.457   4.500   3.067
 1181SOL    HW1 4442   2.381   4.444   3.102
 1181SOL    HW2 4443   2.471   4.480   2.970
 1182SOL     OW 4444   1.432   4.081   3.076
 1182SOL    HW1 4445   1.383   3.995   3.057
 1182SOL    HW2 4446   1.527   4.060   3.098
 1183SOL     OW 4447   4.768   5.638   1.247
 1183SOL    HW1 4448   4.811   5.638   1.338
 1183SOL    HW2 4449   4.710   5.719   1.238
 1184SOL     OW 4450   3.079   3.105   5.442
 1184SOL    HW1 4451   2.981   3.094   5.453
 1184SOL    HW2 4452   3.120   3.018   5.418
 1185SOL     OW 4453   1.983   1.205   6.786
 1185SOL    HW1 4454   1.940   1.156   6.862
 1185SOL    HW2 4455   2.010   1.296   6.816
 1186SOL     OW 4456   4.530   1.706   4.967
 1186SOL    HW1 4457   4.511   1.733   4.873
 1186SOL    HW2 4458   4.522   1.607   4.976
 1187SOL     OW 4459   0.095   0.899   5.499
 1187SOL    HW1 4460   0.097   0.876   5.402
 1187SOL    HW2 4461   0.039   0.980   5.513
 1188SOL     OW 4462   1.367   0.001   5.537
 1188SOL    HW1 4463   1.385   0.066   5.464
 1188SOL    HW2 4464   1.444   0.001   5.601
 1189SOL     OW 4465   5.966   1.330   1.841
 1189SOL    HW1 4466   5.992   1.358   1.934
 1189SOL    HW2 4467   5.949   1.232   1.840
 1190SOL     OW 4468   4.317   5.115   3.087
 1190SOL    HW1 4469   4.286   5.035   3.139
 1190SOL    HW2 4470   4.328   5.193   3.149
 1191SOL     OW 4471   3.325   5.141   6.541
 1191SOL    HW1 4472   3.293   5.048   6.524
 1191SOL    HW2 4473   3.253   5.206   6.515
 1192SOL     OW 4474   5.047   5.407   2.850
 1192SOL    HW1 4475   5.036   5.307   2.854
 1192SOL    HW2 4476   5.066   5.442   2.942
 1193SOL     OW 4477   4.480   0.302   3.557
 1193SOL    HW1 4478   4.481   0.209   3.593
 1193SOL    HW2 4479   4.560   0.352   3.590
 1194SOL     OW 4480   6.070   0.308   0.626
 1194SOL    HW1 4481   5.999   0.302   0.555
 1194SOL    HW2 4482   6.037   0.365   0.701
 1195SOL     OW 4483   4.217   0.858   6.361
 1195SOL    HW1 4484   4.198   0.938   6.418
 1195SOL    HW2 4485   4.267   0.885   6.280
 1196SOL     OW 4486   0.642   5.230   2.385
 1196SOL    HW1 4487   0.543   5.243   2.380
 1196SOL    HW2 4488   0.665   5.135   2.363
 1197SOL     OW 4489   3.137   5.122   6.162
 1197SOL    HW1 4490   3.137   5.066   6.080
 1197SOL    HW2 4491   3.192   5.078   6.233
 1198SOL     OW 4492   2.907   1.621   2.964
 1198SOL    HW1 4493   2.831   1.557   2.966
 1198SOL    HW2 4494   2.990   1.575   2.930
 1199SOL     OW 4495   3.902   3.990   3.023
 1199SOL    HW1 4496   3.974   4.036   2.972
 1199SOL    HW2 4497   3.814   4.033   3.003
 1200SOL     OW 4498   3.214   4.169   0.308
 1200SOL    HW1 4499   3.202   4.234   0.384
 1200SOL    HW2 4500   3.128   4.160   0.259
 1201SOL     OW 4501   1.284   0.720   4.988
 1201SOL    HW1 4502   1.187   0.731   4.969
 1201SOL    HW2 4503   1.303   0.745   5.083
 1202SOL     OW 4504   5.974   6.724   4.604
 1202SOL    HW1 4505   6.016   6.635   4.621
 1202SOL    HW2 4506   5.972   6.741   4.505
 1203SOL     OW 4507   5.848   0.347   1.747
 1203SOL    HW1 4508   5.931   0.399   1.726
 1203SOL    HW2 4509   5.774   0.377   1.686
 1204SOL     OW 4510   2.940   0.292   0.666
 1204SOL    HW1 4511   2.994   0.322   0.745
 1204SOL    HW2 4512   2.952   0.357   0.591
 1205SOL     OW 4513   0.565   2.772   5.851
 1205SOL    HW1 4514   0.502   2.776   5.773
 1205SOL    HW2 4515   0.629   2.696   5.838
 1206SOL     OW 4516   1.440   1.532   4.375
 1206SOL    HW1 4517   1.527   1.502   4.335
 1206SOL    HW2 4518   1.454   1.553   4.471
 1207SOL     OW 4519   5.586   6.827   6.756
 1207SOL    HW1 4520   5.554   6.757   6.692
 1207SOL    HW2 4521   5.538   6.913   6.738
 1208SOL     OW 4522   4.053   3.315   3.557
 1208SOL    HW1 4523   3.961   3.284   3.532
 1208SOL    HW2 4524   4.084   3.265   3.638
 1209SOL     OW 4525   6.261   5.393   4.321
 1209SOL    HW1 4526   6.167   5.371   4.346
 1209SOL    HW2 4527   6.303   5.313   4.277
 1210SOL     OW 4528   3.462   6.808   2.607
 1210SOL    HW1 4529   3.435   6.738   2.673
 1210SOL    HW2 4530   3.466   6.897   2.652
 1211SOL     OW 4531   1.012   4.085   4.781
 1211SOL    HW1 4532   1.100   4.133   4.787
 1211SOL    HW2 4533   0.953   4.113   4.857
 1212SOL     OW 4534   2.014   4.092   4.513
 1212SOL    HW1 4535   2.021   3.997   4.482
 1212SOL    HW2 4536   2.071   4.104   4.594
 1213SOL     OW 4537   5.876   2.540   5.657
 1213SOL    HW1 4538   5.860   2.606   5.729
 1213SOL    HW2 4539   5.882   2.587   5.569
 1214SOL     OW 4540   2.175   2.650   3.563
 1214SOL    HW1 4541   2.119   2.576   3.599
 1214SOL    HW2 4542   2.116   2.720   3.523
 1215SOL     OW 4543   0.744   4.707   1.967
 1215SOL    HW1 4544   0.660   4.730   2.016
 1215SOL    HW2 4545   0.772   4.785   1.911
 1216SOL     OW 4546   2.596   0.211   2.235
 1216SOL    HW1 4547   2.619   0.149   2.160
 1216SOL    HW2 4548   2.661   0.199   2.310
 1217SOL     OW 4549   1.072   0.642   2.039
 1217SOL    HW1 4550   1.105   0.668   1.949
 1217SOL    HW2 4551   1.010   0.563   2.030
 1218SOL     OW 4552   0.765   3.510   3.533
 1218SOL    HW1 4553   0.793   3.487   3.440
 1218SOL    HW2 4554   0.703   3.439   3.568
 1219SOL     OW 4555   2.995   6.262   2.439
 1219SOL    HW1 4556   2.971   6.221   2.527
 1219SOL    HW2 4557   2.930   6.230   2.369
 1220SOL     OW 4558   6.344   3.324   3.103
 1220SOL    HW1 4559   6.390   3.236   3.106
 1220SOL    HW2 4560   6.303   3.344   3.192
 1221SOL     OW 4561   4.705   3.165   0.021
 1221SOL    HW1 4562   4.713   3.264   0.029
 1221SOL    HW2 4563   4.620   3.142   6.998
 1222SOL     OW 4564   6.830   6.420   1.267
 1222SOL    HW1 4565   6.768   6.348   1.236
 1222SOL    HW2 4566   6.806   6.507   1.223
 1223SOL     OW 4567   6.034   6.302   5.146
 1223SOL    HW1 4568   6.102   6.375   5.156
 1223SOL    HW2 4569   5.966   6.311   5.219
 1224SOL     OW 4570   5.674   5.126   2.060
 1224SOL    HW1 4571   5.734   5.143   1.982
 1224SOL    HW2 4572   5.591   5.182   2.051
 1225SOL     OW 4573   4.829   2.099   0.122
 1225SOL    HW1 4574   4.730   2.108   0.136
 1225SOL    HW2 4575   4.857   2.154   0.043
 1226SOL     OW 4576   5.419   5.229   0.587
 1226SOL    HW1 4577   5.370   5.281   0.656
 1226SOL    HW2 4578   5.463   5.292   0.522
 1227SOL     OW 4579   4.780   4.098   6.385
 1227SOL    HW1 4580   4.754   4.001   6.384
 1227SOL    HW2 4581   4.765   4.135   6.477
 1228SOL     OW 4582   3.730   3.476   3.133
 1228SOL    HW1 4583   3.817   3.513   3.163
 1228SOL    HW2 4584   3.701   3.403   3.195
 1229SOL     OW 4585   2.038   5.166   2.702
 1229SOL    HW1 4586   2.071   5.200   2.790
 1229SOL    HW2 4587   2.114   5.167   2.636
 1230SOL     OW 4588   5.727   4.688   1.501
 1230SOL    HW1 4589   5.720   4.767   1.441
 1230SOL    HW2 4590   5.682   4.609   1.457
 1231SOL     OW 4591   1.954   2.119   6.243
 1231SOL    HW1 4592   1.938   2.157   6.334
 1231SOL    HW2 4593   2.034   2.164   6.202
 1232SOL     OW 4594   3.333   0.220   5.650
 1232SOL    HW1 4595   3.345   0.175   5.562
 1232SOL    HW2 4596   3.422   0.227   5.696
 1233SOL     OW 4597   1.128   5.526   5.285
 1233SOL    HW1 4598   1.170   5.435   5.285
 1233SOL    HW2 4599   1.037   5.521   5.245
 1234SOL     OW 4600   0.231   3.362   0.271
 1234SOL    HW1 4601   0.168   3.310   0.214
 1234SOL    HW2 4602   0.238   3.319   0.361
 1235SOL     OW 4603   6.120   4.742   1.084
 1235SOL    HW1 4604   6.214   4.719   1.060
 1235SOL    HW2 4605   6.064   4.742   1.001
 1236SOL     OW 4606   1.883   1.449   2.509
 1236SOL    HW1 4607   1.835   1.362   2.511
 1236SOL    HW2 4608   1.963   1.442   2.449
 1237SOL     OW 4609   0.441   0.153   5.064
 1237SOL    HW1 4610   0.352   0.146   5.109
 1237SOL    HW2 4611   0.499   0.217   5.114
 1238SOL     OW 4612   0.134   0.665   4.411
 1238SOL    HW1 4613   0.134   0.687   4.509
 1238SOL    HW2 4614   0.045   0.627   4.386
 1239SOL     OW 4615   5.469   5.116   5.028
 1239SOL    HW1 4616   5.508   5.194   4.980
 1239SOL    HW2 4617   5.434   5.145   5.117
 1240SOL     OW 4618   0.045   4.166   2.758
 1240SOL    HW1 4619   6.970   4.170   2.751
 1240SOL    HW2 4620   0.082   4.258   2.764
 1241SOL     OW 4621   4.939   4.846   5.087
 1241SOL    HW1 4622   4.893   4.935   5.087
 1241SOL    HW2 4623   4.889   4.783   5.027
 1242SOL     OW 4624   1.157   5.064   0.103
 1242SOL    HW1 4625   1.210   5.134   0.152
 1242SOL    HW2 4626   1.064   5.096   0.090
 1243SOL     OW 4627   1.231   4.241   4.829
 1243SOL    HW1 4628   1.242   4.192   4.915
 1243SOL    HW2 4629   1.221   4.339   4.849
 1244SOL     OW 4630   5.777   0.012   5.422
 1244SOL    HW1 4631   5.864   6.989   5.418
 1244SOL    HW2 4632   5.763   0.061   5.336
 1245SOL     OW 4633   4.893   7.005   0.708
 1245SOL    HW1 4634   4.886   6.971   0.614
 1245SOL    HW2 4635   4.894   0.080   0.707
 1246SOL     OW 4636   5.161   0.871   6.891
 1246SOL    HW1 4637   5.169   0.783   6.846
 1246SOL    HW2 4638   5.075   0.915   6.864
 1247SOL     OW 4639   6.959   6.941   3.473
 1247SOL    HW1 4640   6.983   6.908   3.382
 1247SOL    HW2 4641   0.009   6.997   3.509
 1248SOL     OW 4642   1.461   6.396   4.030
 1248SOL    HW1 4643   1.429   6.438   3.945
 1248SOL    HW2 4644   1.432   6.300   4.033
 1249SOL     OW 4645   5.640   5.642   6.829
 1249SOL    HW1 4646   5.542   5.631   6.840
 1249SOL    HW2 4647   5.685   5.631   6.918
 1250SOL     OW 4648   6.559   3.141   5.121
 1250SOL    HW1 4649   6.574   3.232   5.082
 1250SOL    HW2 4650   6.595   3.071   5.058
 1251SOL     OW 4651   3.008   0.652   2.743
 1251SOL    HW1 4652   2.975   0.698   2.826
 1251SOL    HW2 4653   2.973   0.700   2.662
 1252SOL     OW 4654   1.852   6.111   6.488
 1252SOL    HW1 4655   1.849   6.192   6.430
 1252SOL    HW2 4656   1.759   6.077   6.503
 1253SOL     OW 4657   3.337   0.733   0.842
 1253SOL    HW1 4658   3.335   0.729   0.742
 1253SOL    HW2 4659   3.286   0.656   0.879
 1254SOL     OW 4660   6.059   0.607   2.204
 1254SOL    HW1 4661   6.092   0.580   2.295
 1254SOL    HW2 4662   6.119   0.676   2.165
 1255SOL     OW 4663   5.773   1.640   5.725
 1255SOL    HW1 4664   5.767   1.640   5.625
 1255SOL    HW2 4665   5.693   1.594   5.763
 1256SOL     OW 4666   1.166   5.436   3.935
 1256SOL    HW1 4667   1.192   5.386   4.017
 1256SOL    HW2 4668   1.099   5.383   3.883
 1257SOL     OW 4669   0.743   6.553   4.326
 1257SOL    HW1 4670   0.647   6.546   4.300
 1257SOL    HW2 4671   0.749   6.590   4.419
 1258SOL     OW 4672   4.470   6.608   5.043
 1258SOL    HW1 4673   4.429   6.683   5.095
 1258SOL    HW2 4674   4.400   6.565   4.986
 1259SOL     OW 4675   6.181   0.289   4.508
 1259SOL    HW1 4676   6.229   0.317   4.425
 1259SOL    HW2 4677   6.243   0.294   4.586
 1260SOL     OW 4678   2.354   1.047   1.682
 1260SOL    HW1 4679   2.423   1.034   1.753
 1260SOL    HW2 4680   2.263   1.030   1.719
 1261SOL     OW 4681   6.138   4.155   6.004
 1261SOL    HW1 4682   6.175   4.098   6.078
 1261SOL    HW2 4683   6.058   4.205   6.037
 1262SOL     OW 4684   4.405   5.186   0.624
 1262SOL    HW1 4685   4.403   5.087   0.618
 1262SOL    HW2 4686   4.399   5.226   0.533
 1263SOL     OW 4687   6.414   1.966   1.499
 1263SOL    HW1 4688   6.413   1.867   1.513
 1263SOL    HW2 4689   6.485   2.007   1.556
 1264SOL     OW 4690   0.375   3.628   3.530
 1264SOL    HW1 4691   0.321   3.712   3.532
 1264SOL    HW2 4692   0.412   3.615   3.439
 1265SOL     OW 4693   6.658   5.481   4.852
 1265SOL    HW1 4694   6.710   5.423   4.915
 1265SOL    HW2 4695   6.712   5.496   4.768
 1266SOL     OW 4696   2.074   1.831   4.704
 1266SOL    HW1 4697   2.147   1.769   4.676
 1266SOL    HW2 4698   1.993   1.814   4.648
 1267SOL     OW 4699   6.993   5.290   2.496
 1267SOL    HW1 4700   6.985   5.211   2.558
 1267SOL    HW2 4701   0.050   5.342   2.519
 1268SOL     OW 4702   6.431   3.102   6.994
 1268SOL    HW1 4703   6.530   3.113   6.997
 1268SOL    HW2 4704   6.387   3.186   0.001
 1269SOL     OW 4705   0.134   5.665   5.700
 1269SOL    HW1 4706   0.184   5.580   5.683
 1269SOL    HW2 4707   0.106   5.668   5.796
 1270SOL     OW 4708   1.852   3.139   4.637
 1270SOL    HW1 4709   1.881   3.234   4.628
 1270SOL    HW2 4710   1.760   3.135   4.676
 1271SOL     OW 4711   4.929   0.728   2.887
 1271SOL    HW1 4712   4.897   0.766   2.800
 1271SOL    HW2 4713   4.863   0.748   2.959
 1272SOL     OW 4714   0.799   6.107   1.665
 1272SOL    HW1 4715   0.744   6.069   1.739
 1272SOL    HW2 4716   0.815   6.037   1.596
 1273SOL     OW 4717   2.714   6.367   6.510
 1273SOL    HW1 4718   2.662   6.347   6.426
 1273SOL    HW2 4719   2.693   6.299   6.579
 1274SOL     OW 4720   6.737   2.380   1.724
 1274SOL    HW1 4721   6.828   2.347   1.698
 1274SOL    HW2 4722   6.747   2.460   1.784
 1275SOL     OW 4723   3.315   2.114   4.146
 1275SOL    HW1 4724   3.360   2.179   4.206
 1275SOL    HW2 4725   3.379   2.085   4.074
 1276SOL     OW 4726   6.663   0.211   3.406
 1276SOL    HW1 4727   6.750   0.227   3.360
 1276SOL    HW2 4728   6.622   0.126   3.372
 1277SOL     OW 4729   0.203   0.719   5.129
 1277SOL    HW1 4730   0.142   0.783   5.176
 1277SOL    HW2 4731   0.275   0.771   5.081
 1278SOL     OW 4732   2.089   1.873   5.795
 1278SOL    HW1 4733   2.047   1.901   5.881
 1278SOL    HW2 4734   2.189   1.874   5.804
 1279SOL     OW 4735   2.695   5.197   6.949
 1279SOL    HW1 4736   2.680   5.295   6.946
 1279SOL    HW2 4737   2.634   5.155   7.016
 1280SOL     OW 4738   1.901   0.067   3.372
 1280SOL    HW1 4739   1.941   0.146   3.325
 1280SOL    HW2 4740   1.949   7.009   3.345
 1281SOL     OW 4741   1.166   5.868   3.361
 1281SOL    HW1 4742   1.089   5.810   3.385
 1281SOL    HW2 4743   1.251   5.826   3.392
 1282SOL     OW 4744   0.387   0.614   1.938
 1282SOL    HW1 4745   0.384   0.661   1.850
 1282SOL    HW2 4746   0.294   0.597   1.970
 1283SOL     OW 4747   5.452   5.519   6.151
 1283SOL    HW1 4748   5.492   5.447   6.208
 1283SOL    HW2 4749   5.489   5.607   6.178
 1284SOL     OW 4750   2.744   2.509   1.735
 1284SOL    HW1 4751   2.662   2.515   1.792
 1284SOL    HW2 4752   2.821   2.481   1.792
 1285SOL     OW 4753   4.353   2.459   5.384
 1285SOL    HW1 4754   4.299   2.478   5.466
 1285SOL    HW2 4755   4.312   2.505   5.305
 1286SOL     OW 4756   6.244   5.306   1.628
 1286SOL    HW1 4757   6.177   5.237   1.656
 1286SOL    HW2 4758   6.290   5.276   1.545
 1287SOL     OW 4759   6.934   5.427   6.771
 1287SOL    HW1 4760   6.855   5.380   6.810
 1287SOL    HW2 4761   6.932   5.523   6.798
 1288SOL     OW 4762   6.232   3.095   2.126
 1288SOL    HW1 4763   6.134   3.104   2.144
 1288SOL    HW2 4764   6.281   3.086   2.213
 1289SOL     OW 4765   0.670   5.783   2.500
 1289SOL    HW1 4766   0.716   5.845   2.564
 1289SOL    HW2 4767   0.590   5.743   2.545
 1290SOL     OW 4768   0.722   6.316   1.476
 1290SOL    HW1 4769   0.743   6.278   1.566
 1290SOL    HW2 4770   0.691   6.410   1.486
 1291SOL     OW 4771   2.375   6.190   6.689
 1291SOL    HW1 4772   2.311   6.114   6.682
 1291SOL    HW2 4773   2.333   6.273   6.652
 1292SOL     OW 4774   1.139   6.113   0.673
 1292SOL    HW1 4775   1.112   6.130   0.768
 1292SOL    HW2 4776   1.168   6.199   0.631
 1293SOL     OW 4777   0.210   2.083   6.296
 1293SOL    HW1 4778   0.246   2.169   6.334
 1293SOL    HW2 4779   0.287   2.024   6.270
 1294SOL     OW 4780   1.085   2.176   2.378
 1294SOL    HW1 4781   1.039   2.229   2.307
 1294SOL    HW2 4782   1.163   2.227   2.413
 1295SOL     OW 4783   5.916   2.906   1.518
 1295SOL    HW1 4784   5.982   2.841   1.482
 1295SOL    HW2 4785   5.925   2.993   1.468
 1296SOL     OW 4786   3.658   1.832   5.727
 1296SOL    HW1 4787   3.697   1.890   5.799
 1296SOL    HW2 4788   3.711   1.748   5.719
 1297SOL     OW 4789   6.426   1.331   5.930
 1297SOL    HW1 4790   6.489   1.398   5.889
 1297SOL    HW2 4791   6.361   1.299   5.860
 1298SOL     OW 4792   5.434   2.944   3.020
 1298SOL    HW1 4793   5.435   3.021   3.084
 1298SOL    HW2 4794   5.348   2.944   2.969
 1299SOL     OW 4795   0.858   4.226   4.124
 1299SOL    HW1 4796   0.868   4.271   4.213
 1299SOL    HW2 4797   0.855   4.127   4.136
 1300SOL     OW 4798   3.531   2.952   1.420
 1300SOL    HW1 4799   3.542   2.870   1.475
 1300SOL    HW2 4800   3.546   3.033   1.477
 1301SOL     OW 4801   1.291   0.145   3.586
 1301SOL    HW1 4802   1.278   0.047   3.576
 1301SOL    HW2 4803   1.383   0.164   3.619
 1302SOL     OW 4804   3.394   6.331   4.884
 1302SOL    HW1 4805   3.452   6.253   4.859
 1302SOL    HW2 4806   3.301   6.315   4.852
 1303SOL     OW 4807   3.612   1.665   1.244
 1303SOL    HW1 4808   3.563   1.606   1.180
 1303SOL    HW2 4809   3.546   1.719   1.296
 1304SOL     OW 4810   3.145   0.760   6.895
 1304SOL    HW1 4811   3.099   0.846   6.917
 1304SOL    HW2 4812   3.077   0.692   6.865
 1305SOL     OW 4813   4.592   6.993   5.235
 1305SOL    HW1 4814   4.530   6.923   5.271
 1305SOL    HW2 4815   4.683   6.953   5.221
 1306SOL     OW 4816   0.751   4.510   4.549
 1306SOL    HW1 4817   0.666   4.561   4.543
 1306SOL    HW2 4818   0.759   4.470   4.640
 1307SOL     OW 4819   1.129   2.315   4.461
 1307SOL    HW1 4820   1.193   2.349   4.530
 1307SOL    HW2 4821   1.156   2.224   4.432
 1308SOL     OW 4822   4.735   5.767   3.422
 1308SOL    HW1 4823   4.721   5.724   3.511
 1308SOL    HW2 4824   4.646   5.788   3.381
 1309SOL     OW 4825   6.109   2.931   4.798
 1309SOL    HW1 4826   6.185   2.933   4.862
 1309SOL    HW2 4827   6.037   2.992   4.829
 1310SOL     OW 4828   5.517   3.482   4.837
 1310SOL    HW1 4829   5.422   3.514   4.844
 1310SOL    HW2 4830   5.517   3.386   4.810
 1311SOL     OW 4831   6.178   5.736   5.403
 1311SOL    HW1 4832   6.124   5.737   5.487
 1311SOL    HW2 4833   6.129   5.686   5.332
 1312SOL     OW 4834   0.880   6.241   0.412
 1312SOL    HW1 4835   0.971   6.258   0.376
 1312SOL    HW2 4836   0.823   6.322   0.399
 1313SOL     OW 4837   3.475   5.166   4.707
 1313SOL    HW1 4838   3.423   5.218   4.640
 1313SOL    HW2 4839   3.492   5.223   4.788
 1314SOL     OW 4840   0.264   1.812   4.909
 1314SOL    HW1 4841   0.225   1.868   4.982
 1314SOL    HW2 4842   0.221   1.835   4.822
 1315SOL     OW 4843   2.297   1.375   2.615
 1315SOL    HW1 4844   2.320   1.469   2.639
 1315SOL    HW2 4845   2.380   1.326   2.588
 1316SOL     OW 4846   3.015   6.796   3.149
 1316SOL    HW1 4847   2.965   6.710   3.150
 1316SOL    HW2 4848   3.093   6.790   3.212
 1317SOL     OW 4849   0.048   5.816   3.836
 1317SOL    HW1 4850   0.130   5.767   3.803
 1317SOL    HW2 4851   6.997   5.798   3.774
 1318SOL     OW 4852   0.120   6.650   0.394
 1318SOL    HW1 4853   0.063   6.581   0.438
 1318SOL    HW2 4854   0.147   6.718   0.462
 1319SOL     OW 4855   6.473   0.992   6.719
 1319SOL    HW1 4856   6.429   1.050   6.787
 1319SOL    HW2 4857   6.404   0.935   6.674
 1320SOL     OW 4858   5.316   5.870   6.425
 1320SOL    HW1 4859   5.402   5.818   6.429
 1320SOL    HW2 4860   5.299   5.897   6.330
 1321SOL     OW 4861   3.442   2.716   6.864
 1321SOL    HW1 4862   3.508   2.737   6.936
 1321SOL    HW2 4863   3.351   2.707   6.903
 1322SOL     OW 4864   6.209   1.635   4.327
 1322SOL    HW1 4865   6.239   1.722   4.288
 1322SOL    HW2 4866   6.112   1.623   4.309
 1323SOL     OW 4867   6.893   1.768   4.873
 1323SOL    HW1 4868   6.793   1.765   4.864
 1323SOL    HW2 4869   6.918   1.779   4.969
 1324SOL     OW 4870   1.524   3.646   1.347
 1324SOL    HW1 4871   1.439   3.679   1.389
 1324SOL    HW2 4872   1.565   3.720   1.294
 1325SOL     OW 4873   2.939   6.014   2.615
 1325SOL    HW1 4874   2.881   6.020   2.534
 1325SOL    HW2 4875   3.029   5.979   2.589
 1326SOL     OW 4876   5.570   3.227   4.757
 1326SOL    HW1 4877   5.523   3.161   4.699
 1326SOL    HW2 4878   5.552   3.206   4.853
 1327SOL     OW 4879   3.856   5.245   3.137
 1327SOL    HW1 4880   3.769   5.225   3.183
 1327SOL    HW2 4881   3.852   5.213   3.043
 1328SOL     OW 4882   2.401   2.591   6.314
 1328SOL    HW1 4883   2.445   2.625   6.397
 1328SOL    HW2 4884   2.343   2.512   6.336
 1329SOL     OW 4885   0.608   0.491   0.536
 1329SOL    HW1 4886   0.559   0.538   0.609
 1329SOL    HW2 4887   0.703   0.522   0.533
 1330SOL     OW 4888   6.232   6.709   1.437
 1330SOL    HW1 4889   6.204   6.700   1.533
 1330SOL    HW2 4890   6.197   6.795   1.400
 1331SOL     OW 4891   5.388   0.353   2.423
 1331SOL    HW1 4892   5.330   0.296   2.365
 1331SOL    HW2 4893   5.334   0.389   2.499
 1332SOL     OW 4894   4.463   1.259   1.461
 1332SOL    HW1 4895   4.439   1.307   1.377
 1332SOL    HW2 4896   4.469   1.325   1.536
 1333SOL     OW 4897   3.829   4.151   5.136
 1333SOL    HW1 4898   3.876   4.228   5.179
 1333SOL    HW2 4899   3.892   4.102   5.076
 1334SOL     OW 4900   0.019   3.771   4.529
 1334SOL    HW1 4901   0.036   3.864   4.562
 1334SOL    HW2 4902   0.103   3.718   4.536
 1335SOL     OW 4903   2.657   4.923   3.166
 1335SOL    HW1 4904   2.605   4.959   3.088
 1335SOL    HW2 4905   2.611   4.843   3.204
 1336SOL     OW 4906   0.692   0.431   5.021
 1336SOL    HW1 4907   0.638   0.384   5.090
 1336SOL    HW2 4908   0.640   0.508   4.985
 1337SOL     OW 4909   2.067   1.718   6.268
 1337SOL    HW1 4910   2.147   1.718   6.327
 1337SOL    HW2 4911   1.994   1.772   6.311
 1338SOL     OW 4912   4.163   5.427   0.494
 1338SOL    HW1 4913   4.225   5.370   0.440
 1338SOL    HW2 4914   4.073   5.427   0.452
 1339SOL     OW 4915   6.424   4.187   5.070
 1339SOL    HW1 4916   6.369   4.157   4.992
 1339SOL    HW2 4917   6.510   4.137   5.071
 1340SOL     OW 4918   1.242   1.574   6.692
 1340SOL    HW1 4919   1.234   1.657   6.748
 1340SOL    HW2 4920   1.300   1.593   6.613
 1341SOL     OW 4921   3.611   1.056   3.986
 1341SOL    HW1 4922   3.578   1.009   3.904
 1341SOL    HW2 4923   3.566   1.145   3.994
 1342SOL     OW 4924   0.328   6.341   0.853
 1342SOL    HW1 4925   0.326   6.244   0.832
 1342SOL    HW2 4926   0.383   6.357   0.935
 1343SOL     OW 4927   4.258   5.397   3.190
 1343SOL    HW1 4928   4.163   5.410   3.220
 1343SOL    HW2 4929   4.270   5.437   3.100
 1344SOL     OW 4930   6.286   1.349   3.043
 1344SOL    HW1 4931   6.319   1.441   3.023
 1344SOL    HW2 4932   6.202   1.332   2.992
 1345SOL     OW 4933   0.101   0.390   3.023
 1345SOL    HW1 4934   0.093   0.474   2.969
 1345SOL    HW2 4935   0.055   0.315   2.976
 1346SOL     OW 4936   0.427   0.951   3.960
 1346SOL    HW1 4937   0.484   0.900   4.024
 1346SOL    HW2 4938   0.427   0.906   3.871
 1347SOL     OW 4939   5.960   0.394   3.345
 1347SOL    HW1 4940   5.944   0.450   3.263
 1347SOL    HW2 4941   5.994   0.304   3.317
 1348SOL     OW 4942   5.519   4.594   4.817
 1348SOL    HW1 4943   5.437   4.634   4.858
 1348SOL    HW2 4944   5.543   4.510   4.865
 1349SOL     OW 4945   3.977   3.433   6.753
 1349SOL    HW1 4946   3.982   3.356   6.689
 1349SOL    HW2 4947   3.943   3.401   6.841
 1350SOL     OW 4948   3.243   0.754   6.440
 1350SOL    HW1 4949   3.276   0.844   6.410
 1350SOL    HW2 4950   3.143   0.754   6.440
 1351SOL     OW 4951   0.547   0.664   4.263
 1351SOL    HW1 4952   0.573   0.640   4.357
 1351SOL    HW2 4953   0.567   0.761   4.247
 1352SOL     OW 4954   0.335   0.611   3.537
 1352SOL    HW1 4955   0.249   0.575   3.572
 1352SOL    HW2 4956   0.402   0.537   3.529
 1353SOL     OW 4957   1.269   4.279   3.858
 1353SOL    HW1 4958   1.333   4.330   3.801
 1353SOL    HW2 4959   1.263   4.185   3.825
 1354SOL     OW 4960   0.358   6.381   2.463
 1354SOL    HW1 4961   0.423   6.311   2.493
 1354SOL    HW2 4962   0.355   6.455   2.530
 1355SOL     OW 4963   4.564   2.942   6.890
 1355SOL    HW1 4964   4.648   2.918   6.940
 1355SOL    HW2 4965   4.546   2.873   6.819
 1356SOL     OW 4966   2.903   3.701   2.838
 1356SOL    HW1 4967   2.940   3.778   2.787
 1356SOL    HW2 4968   2.804   3.712   2.849
 1357SOL     OW 4969   2.809   3.035   5.477
 1357SOL    HW1 4970   2.817   2.954   5.419
 1357SOL    HW2 4971   2.770   3.008   5.565
 1358SOL     OW 4972   2.009   1.917   6.073
 1358SOL    HW1 4973   2.002   1.998   6.130
 1358SOL    HW2 4974   2.006   1.835   6.130
 1359SOL     OW 4975   6.083   1.681   0.084
 1359SOL    HW1 4976   6.181   1.697   0.086
 1359SOL    HW2 4977   6.064   1.588   0.052
 1360SOL     OW 4978   3.537   3.894   3.938
 1360SOL    HW1 4979   3.440   3.888   3.913
 1360SOL    HW2 4980   3.590   3.831   3.882
 1361SOL     OW 4981   0.895   5.978   0.485
 1361SOL    HW1 4982   0.898   6.068   0.441
 1361SOL    HW2 4983   0.932   5.986   0.578
 1362SOL     OW 4984   2.551   3.037   5.925
 1362SOL    HW1 4985   2.517   2.952   5.885
 1362SOL    HW2 4986   2.622   3.016   5.993
 1363SOL     OW 4987   5.797   6.449   2.190
 1363SOL    HW1 4988   5.755   6.488   2.108
 1363SOL    HW2 4989   5.759   6.358   2.207
 1364SOL     OW 4990   6.711   3.184   1.577
 1364SOL    HW1 4991   6.633   3.247   1.586
 1364SOL    HW2 4992   6.683   3.092   1.606
 1365SOL     OW 4993   0.961   4.046   6.284
 1365SOL    HW1 4994   0.905   4.063   6.202
 1365SOL    HW2 4995   0.905   4.063   6.366
 1366SOL     OW 4996   5.901   0.922   0.516
 1366SOL    HW1 4997   5.824   0.982   0.539
 1366SOL    HW2 4998   5.972   0.930   0.587
 1367SOL     OW 4999   0.848   5.795   4.476
 1367SOL    HW1 5000   0.938   5.799   4.433
 1367SOL    HW2 5001   0.779   5.768   4.409
 1368SOL     OW 5002   0.779   6.195   5.317
 1368SOL    HW1 5003   0.874   6.225   5.308
 1368SOL    HW2 5004   0.743   6.224   5.406
 1369SOL     OW 5005   2.916   6.540   3.187
 1369SOL    HW1 5006   2.897   6.511   3.281
 1369SOL    HW2 5007   2.891   6.467   3.123
 1370SOL     OW 5008   6.520   2.294   3.038
 1370SOL    HW1 5009   6.532   2.384   3.079
 1370SOL    HW2 5010   6.592   2.278   2.971
 1371SOL     OW 5011   6.085   1.863   4.861
 1371SOL    HW1 5012   6.140   1.826   4.787
 1371SOL    HW2 5013   6.062   1.959   4.841
 1372SOL     OW 5014   6.893   2.284   0.103
 1372SOL    HW1 5015   6.989   2.301   0.122
 1372SOL    HW2 5016   6.845   2.371   0.093
 1373SOL     OW 5017   4.650   2.659   1.847
 1373SOL    HW1 5018   4.749   2.655   1.834
 1373SOL    HW2 5019   4.612   2.733   1.792
 1374SOL     OW 5020   4.280   4.683   0.173
 1374SOL    HW1 5021   4.297   4.600   0.227
 1374SOL    HW2 5022   4.359   4.702   0.116
 1375SOL     OW 5023   5.687   5.686   4.465
 1375SOL    HW1 5024   5.668   5.605   4.520
 1375SOL    HW2 5025   5.771   5.729   4.497
 1376SOL     OW 5026   2.405   5.242   6.112
 1376SOL    HW1 5027   2.477   5.284   6.056
 1376SOL    HW2 5028   2.421   5.263   6.208
 1377SOL     OW 5029   1.300   0.988   2.804
 1377SOL    HW1 5030   1.378   0.988   2.741
 1377SOL    HW2 5031   1.331   1.014   2.895
 1378SOL     OW 5032   4.701   2.346   4.518
 1378SOL    HW1 5033   4.791   2.384   4.498
 1378SOL    HW2 5034   4.683   2.269   4.456
 1379SOL     OW 5035   4.958   5.359   1.409
 1379SOL    HW1 5036   4.863   5.329   1.411
 1379SOL    HW2 5037   5.001   5.327   1.324
 1380SOL     OW 5038   0.391   5.592   1.646
 1380SOL    HW1 5039   0.488   5.594   1.670
 1380SOL    HW2 5040   0.364   5.499   1.623
 1381SOL     OW 5041   6.123   2.461   5.824
 1381SOL    HW1 5042   6.073   2.507   5.897
 1381SOL    HW2 5043   6.219   2.449   5.851
 1382SOL     OW 5044   4.238   2.496   0.196
 1382SOL    HW1 5045   4.195   2.414   0.232
 1382SOL    HW2 5046   4.241   2.566   0.267
 1383SOL     OW 5047   0.185   0.889   2.179
 1383SOL    HW1 5048   0.139   0.833   2.247
 1383SOL    HW2 5049   0.134   0.974   2.164
 1384SOL     OW 5050   5.840   1.024   1.833
 1384SOL    HW1 5051   5.855   0.995   1.739
 1384SOL    HW2 5052   5.754   1.075   1.840
 1385SOL     OW 5053   1.176   5.634   2.080
 1385SOL    HW1 5054   1.079   5.656   2.091
 1385SOL    HW2 5055   1.232   5.705   2.122
 1386SOL     OW 5056   3.201   5.700   4.441
 1386SOL    HW1 5057   3.119   5.647   4.419
 1386SOL    HW2 5058   3.283   5.648   4.418
 1387SOL     OW 5059   3.561   5.703   2.288
 1387SOL    HW1 5060   3.608   5.757   2.217
 1387SOL    HW2 5061   3.485   5.654   2.247
 1388SOL     OW 5062   6.409   0.162   1.428
 1388SOL    HW1 5063   6.439   0.071   1.400
 1388SOL    HW2 5064   6.310   0.162   1.441
 1389SOL     OW 5065   6.045   1.000   2.839
 1389SOL    HW1 5066   5.961   1.017   2.787
 1389SOL    HW2 5067   6.024   0.941   2.917
 1390SOL     OW 5068   6.934   1.717   6.159
 1390SOL    HW1 5069   6.845   1.758   6.138
 1390SOL    HW2 5070   7.003   1.789   6.171
 1391SOL     OW 5071   0.364   2.734   3.100
 1391SOL    HW1 5072   0.381   2.639   3.077
 1391SOL    HW2 5073   0.348   2.787   3.017
 1392SOL     OW 5074   4.976   5.160   5.349
 1392SOL    HW1 5075   5.049   5.122   5.405
 1392SOL    HW2 5076   4.966   5.106   5.266
 1393SOL     OW 5077   4.217   0.429   5.718
 1393SOL    HW1 5078   4.225   0.434   5.619
 1393SOL    HW2 5079   4.307   0.442   5.760
 1394SOL     OW 5080   3.018   5.715   5.634
 1394SOL    HW1 5081   3.061   5.686   5.548
 1394SOL    HW2 5082   2.965   5.798   5.619
 1395SOL     OW 5083   3.747   4.509   5.890
 1395SOL    HW1 5084   3.702   4.498   5.979
 1395SOL    HW2 5085   3.684   4.482   5.817
 1396SOL     OW 5086   5.895   6.090   4.650
 1396SOL    HW1 5087   5.863   6.073   4.557
 1396SOL    HW2 5088   5.860   6.179   4.682
 1397SOL     OW 5089   4.923   6.461   4.753
 1397SOL    HW1 5090   4.870   6.494   4.832
 1397SOL    HW2 5091   4.874   6.485   4.669
 1398SOL     OW 5092   1.493   1.474   5.078
 1398SOL    HW1 5093   1.512   1.555   5.135
 1398SOL    HW2 5094   1.410   1.429   5.110
 1399SOL     OW 5095   3.110   6.060   1.733
 1399SOL    HW1 5096   3.118   6.082   1.830
 1399SOL    HW2 5097   3.015   6.069   1.704
 1400SOL     OW 5098   0.046   0.475   2.054
 1400SOL    HW1 5099   6.995   0.453   2.115
 1400SOL    HW2 5100   0.021   0.555   1.999
 1401SOL     OW 5101   0.142   1.437   4.657
 1401SOL    HW1 5102   0.238   1.465   4.662
 1401SOL    HW2 5103   0.110   1.445   4.562
 1402SOL     OW 5104   0.047   3.027   0.656
 1402SOL    HW1 5105   0.072   2.932   0.639
 1402SOL    HW2 5106   6.977   3.042   0.628
 1403SOL     OW 5107   2.569   6.851   2.258
 1403SOL    HW1 5108   2.512   6.770   2.266
 1403SOL    HW2 5109   2.651   6.840   2.315
 1404SOL     OW 5110   5.421   0.528   6.897
 1404SOL    HW1 5111   5.509   0.485   6.875
 1404SOL    HW2 5112   5.423   0.624   6.867
 1405SOL     OW 5113   1.816   3.716   0.696
 1405SOL    HW1 5114   1.820   3.815   0.708
 1405SOL    HW2 5115   1.905   3.675   0.717
 1406SOL     OW 5116   0.951   3.946   1.436
 1406SOL    HW1 5117   1.045   3.952   1.469
 1406SOL    HW2 5118   0.910   4.037   1.434
 1407SOL     OW 5119   6.753   1.603   2.582
 1407SOL    HW1 5120   6.850   1.617   2.601
 1407SOL    HW2 5121   6.724   1.665   2.510
 1408SOL     OW 5122   5.260   0.991   6.202
 1408SOL    HW1 5123   5.359   0.974   6.207
 1408SOL    HW2 5124   5.213   0.931   6.267
 1409SOL     OW 5125   0.320   0.915   4.383
 1409SOL    HW1 5126   0.284   0.822   4.372
 1409SOL    HW2 5127   0.244   0.979   4.392
 1410SOL     OW 5128   0.765   3.093   6.931
 1410SOL    HW1 5129   0.781   2.995   6.926
 1410SOL    HW2 5130   0.696   3.120   6.863
 1411SOL     OW 5131   1.837   6.565   2.377
 1411SOL    HW1 5132   1.839   6.600   2.471
 1411SOL    HW2 5133   1.924   6.521   2.356
 1412SOL     OW 5134   1.460   2.676   0.317
 1412SOL    HW1 5135   1.441   2.773   0.299
 1412SOL    HW2 5136   1.393   2.620   0.270
 1413SOL     OW 5137   2.203   0.667   4.350
 1413SOL    HW1 5138   2.268   0.721   4.404
 1413SOL    HW2 5139   2.111   0.680   4.386
 1414SOL     OW 5140   2.461   1.859   1.868
 1414SOL    HW1 5141   2.377   1.812   1.840
 1414SOL    HW2 5142   2.537   1.830   1.810
 1415SOL     OW 5143   4.203   6.646   5.154
 1415SOL    HW1 5144   4.128   6.603   5.105
 1415SOL    HW2 5145   4.253   6.576   5.206
 1416SOL     OW 5146   4.278   4.713   2.221
 1416SOL    HW1 5147   4.197   4.760   2.257
 1416SOL    HW2 5148   4.312   4.763   2.141
 1417SOL     OW 5149   2.675   2.302   0.015
 1417SOL    HW1 5150   2.587   2.338   7.006
 1417SOL    HW2 5151   2.733   2.277   6.962
 1418SOL     OW 5152   3.187   4.059   2.736
 1418SOL    HW1 5153   3.241   4.099   2.662
 1418SOL    HW2 5154   3.246   4.040   2.814
 1419SOL     OW 5155   3.520   6.580   4.931
 1419SOL    HW1 5156   3.567   6.588   4.843
 1419SOL    HW2 5157   3.476   6.490   4.936
 1420SOL     OW 5158   1.191   6.046   2.119
 1420SOL    HW1 5159   1.224   6.098   2.197
 1420SOL    HW2 5160   1.091   6.042   2.120
 1421SOL     OW 5161   2.756   2.309   2.574
 1421SOL    HW1 5162   2.824   2.335   2.506
 1421SOL    HW2 5163   2.664   2.322   2.536
 1422SOL     OW 5164   2.074   4.809   1.400
 1422SOL    HW1 5165   2.005   4.738   1.402
 1422SOL    HW2 5166   2.099   4.835   1.494
 1423SOL     OW 5167   4.901   6.743   2.796
 1423SOL    HW1 5168   4.872   6.839   2.791
 1423SOL    HW2 5169   4.833   6.686   2.749
 1424SOL     OW 5170   6.220   4.813   5.231
 1424SOL    HW1 5171   6.210   4.872   5.150
 1424SOL    HW2 5172   6.130   4.785   5.263
 1425SOL     OW 5173   1.806   6.796   4.023
 1425SOL    HW1 5174   1.891   6.824   4.068
 1425SOL    HW2 5175   1.728   6.817   4.082
 1426SOL     OW 5176   1.331   1.546   5.509
 1426SOL    HW1 5177   1.322   1.519   5.604
 1426SOL    HW2 5178   1.262   1.499   5.454
 1427SOL     OW 5179   6.258   0.528   3.857
 1427SOL    HW1 5180   6.321   0.460   3.820
 1427SOL    HW2 5181   6.175   0.530   3.801
 1428SOL     OW 5182   5.580   2.255   0.098
 1428SOL    HW1 5183   5.609   2.162   0.074
 1428SOL    HW2 5184   5.657   2.318   0.085
 1429SOL     OW 5185   6.486   0.464   0.548
 1429SOL    HW1 5186   6.449   0.372   0.536
 1429SOL    HW2 5187   6.498   0.484   0.645
 1430SOL     OW 5188   1.818   4.505   3.773
 1430SOL    HW1 5189   1.840   4.413   3.806
 1430SOL    HW2 5190   1.894   4.541   3.720
 1431SOL     OW 5191   2.529   0.980   1.900
 1431SOL    HW1 5192   2.612   1.030   1.921
 1431SOL    HW2 5193   2.515   0.907   1.966
 1432SOL     OW 5194   2.199   0.811   2.762
 1432SOL    HW1 5195   2.186   0.717   2.791
 1432SOL    HW2 5196   2.199   0.872   2.841
 1433SOL     OW 5197   4.317   0.449   3.729
 1433SOL    HW1 5198   4.270   0.508   3.663
 1433SOL    HW2 5199   4.380   0.389   3.681
 1434SOL     OW 5200   0.705   0.974   5.624
 1434SOL    HW1 5201   0.678   1.040   5.694
 1434SOL    HW2 5202   0.624   0.921   5.596
 1435SOL     OW 5203   5.616   1.592   2.782
 1435SOL    HW1 5204   5.622   1.691   2.767
 1435SOL    HW2 5205   5.676   1.566   2.857
 1436SOL     OW 5206   4.212   3.788   0.301
 1436SOL    HW1 5207   4.145   3.783   0.376
 1436SOL    HW2 5208   4.215   3.881   0.265
 1437SOL     OW 5209   2.968   1.663   3.211
 1437SOL    HW1 5210   3.062   1.631   3.224
 1437SOL    HW2 5211   2.946   1.664   3.114
 1438SOL     OW 5212   3.238   6.801   1.114
 1438SOL    HW1 5213   3.228   6.718   1.059
 1438SOL    HW2 5214   3.273   6.777   1.205
 1439SOL     OW 5215   0.141   5.722   2.231
 1439SOL    HW1 5216   0.181   5.749   2.319
 1439SOL    HW2 5217   0.213   5.690   2.170
 1440SOL     OW 5218   3.216   4.018   0.947
 1440SOL    HW1 5219   3.217   3.918   0.943
 1440SOL    HW2 5220   3.135   4.052   0.899
 1441SOL     OW 5221   5.946   6.697   1.379
 1441SOL    HW1 5222   6.036   6.724   1.414
 1441SOL    HW2 5223   5.875   6.732   1.439
 1442SOL     OW 5224   5.751   5.828   0.313
 1442SOL    HW1 5225   5.764   5.923   0.341
 1442SOL    HW2 5226   5.782   5.767   0.386
 1443SOL     OW 5227   1.115   2.584   3.114
 1443SOL    HW1 5228   1.050   2.555   3.044
 1443SOL    HW2 5229   1.185   2.514   3.126
 1444SOL     OW 5230   6.019   6.224   7.016
 1444SOL    HW1 5231   6.012   6.198   0.087
 1444SOL    HW2 5232   6.094   6.288   7.004
 1445SOL     OW 5233   0.515   3.277   2.363
 1445SOL    HW1 5234   0.509   3.221   2.445
 1445SOL    HW2 5235   0.567   3.360   2.384
 1446SOL     OW 5236   6.368   6.815   6.383
 1446SOL    HW1 5237   6.376   6.732   6.439
 1446SOL    HW2 5238   6.405   6.798   6.292
 1447SOL     OW 5239   6.107   5.057   4.350
 1447SOL    HW1 5240   6.112   5.094   4.257
 1447SOL    HW2 5241   6.012   5.030   4.370
 1448SOL     OW 5242   0.774   2.686   5.543
 1448SOL    HW1 5243   0.860   2.726   5.576
 1448SOL    HW2 5244   0.705   2.758   5.538
 1449SOL     OW 5245   1.682   3.565   4.427
 1449SOL    HW1 5246   1.779   3.588   4.441
 1449SOL    HW2 5247   1.655   3.590   4.334
 1450SOL     OW 5248   1.834   2.096   5.248
 1450SOL    HW1 5249   1.765   2.113   5.318
 1450SOL    HW2 5250   1.891   2.018   5.276
 1451SOL     OW 5251   2.441   6.590   1.731
 1451SOL    HW1 5252   2.508   6.562   1.662
 1451SOL    HW2 5253   2.363   6.528   1.729
 1452SOL     OW 5254   4.492   3.319   6.180
 1452SOL    HW1 5255   4.427   3.248   6.151
 1452SOL    HW2 5256   4.456   3.409   6.153
 1453SOL     OW 5257   0.692   4.231   5.485
 1453SOL    HW1 5258   0.735   4.150   5.523
 1453SOL    HW2 5259   0.751   4.271   5.415
 1454SOL     OW 5260   2.921   2.182   3.525
 1454SOL    HW1 5261   2.865   2.101   3.541
 1454SOL    HW2 5262   2.925   2.201   3.427
 1455SOL     OW 5263   1.409   5.857   2.214
 1455SOL    HW1 5264   1.358   5.819   2.291
 1455SOL    HW2 5265   1.360   5.935   2.175
 1456SOL     OW 5266   6.410   5.423   6.038
 1456SOL    HW1 5267   6.509   5.421   6.030
 1456SOL    HW2 5268   6.384   5.434   6.134
 1457SOL     OW 5269   0.823   4.130   6.499
 1457SOL    HW1 5270   0.730   4.096   6.512
 1457SOL    HW2 5271   0.852   4.182   6.580
 1458SOL     OW 5272   6.288   4.997   5.732
 1458SOL    HW1 5273   6.196   4.973   5.703
 1458SOL    HW2 5274   6.285   5.072   5.797
 1459SOL     OW 5275   4.903   6.488   5.200
 1459SOL    HW1 5276   4.928   6.585   5.211
 1459SOL    HW2 5277   4.866   6.453   5.286
 1460SOL     OW 5278   2.160   6.150   5.276
 1460SOL    HW1 5279   2.147   6.242   5.314
 1460SOL    HW2 5280   2.072   6.102   5.275
 1461SOL     OW 5281   0.124   2.680   2.052
 1461SOL    HW1 5282   0.195   2.626   2.099
 1461SOL    HW2 5283   0.058   2.618   2.010
 1462SOL     OW 5284   0.878   6.946   0.856
 1462SOL    HW1 5285   0.938   7.018   0.891
 1462SOL    HW2 5286   0.784   6.978   0.856
 1463SOL     OW 5287   1.698   6.071   6.811
 1463SOL    HW1 5288   1.712   5.984   6.859
 1463SOL    HW2 5289   1.669   6.053   6.717
 1464SOL     OW 5290   6.975   4.016   4.881
 1464SOL    HW1 5291   6.897   3.958   4.903
 1464SOL    HW2 5292   7.008   3.994   4.789
 1465SOL     OW 5293   1.421   1.460   3.542
 1465SOL    HW1 5294   1.492   1.451   3.472
 1465SOL    HW2 5295   1.451   1.526   3.611
 1466SOL     OW 5296   4.074   2.387   1.727
 1466SOL    HW1 5297   3.998   2.322   1.730
 1466SOL    HW2 5298   4.042   2.474   1.691
 1467SOL     OW 5299   1.299   0.805   4.013
 1467SOL    HW1 5300   1.220   0.865   4.020
 1467SOL    HW2 5301   1.268   0.713   3.986
 1468SOL     OW 5302   2.677   6.355   2.010
 1468SOL    HW1 5303   2.652   6.269   2.054
 1468SOL    HW2 5304   2.731   6.336   1.928
 1469SOL     OW 5305   6.064   5.611   3.304
 1469SOL    HW1 5306   6.042   5.595   3.208
 1469SOL    HW2 5307   6.081   5.709   3.319
 1470SOL     OW 5308   6.188   2.769   0.768
 1470SOL    HW1 5309   6.128   2.844   0.797
 1470SOL    HW2 5310   6.133   2.688   0.748
 1471SOL     OW 5311   5.762   6.770   1.569
 1471SOL    HW1 5312   5.729   6.857   1.606
 1471SOL    HW2 5313   5.758   6.700   1.641
 1472SOL     OW 5314   2.519   0.042   5.942
 1472SOL    HW1 5315   2.436   7.012   5.956
 1472SOL    HW2 5316   2.493   0.133   5.912
 1473SOL     OW 5317   3.358   4.936   4.771
 1473SOL    HW1 5318   3.366   5.030   4.739
 1473SOL    HW2 5319   3.392   4.874   4.700
 1474SOL     OW 5320   4.482   4.392   1.443
 1474SOL    HW1 5321   4.511   4.324   1.510
 1474SOL    HW2 5322   4.402   4.441   1.479
 1475SOL     OW 5323   5.206   0.465   0.377
 1475SOL    HW1 5324   5.167   0.492   0.465
 1475SOL    HW2 5325   5.148   0.395   0.335
 1476SOL     OW 5326   4.294   1.369   1.836
 1476SOL    HW1 5327   4.219   1.380   1.771
 1476SOL    HW2 5328   4.311   1.272   1.852
 1477SOL     OW 5329   4.593   5.422   1.177
 1477SOL    HW1 5330   4.643   5.502   1.211
 1477SOL    HW2 5331   4.495   5.435   1.192
 1478SOL     OW 5332   5.199   5.541   5.354
 1478SOL    HW1 5333   5.267   5.543   5.427
 1478SOL    HW2 5334   5.191   5.631   5.312
 1479SOL     OW 5335   3.493   3.392   1.471
 1479SOL    HW1 5336   3.408   3.394   1.418
 1479SOL    HW2 5337   3.558   3.331   1.425
 1480SOL     OW 5338   3.125   0.822   4.932
 1480SOL    HW1 5339   3.062   0.856   5.002
 1480SOL    HW2 5340   3.073   0.781   4.857
 1481SOL     OW 5341   4.926   2.554   5.155
 1481SOL    HW1 5342   4.830   2.560   5.125
 1481SOL    HW2 5343   4.964   2.646   5.164
 1482SOL     OW 5344   4.354   0.555   0.566
 1482SOL    HW1 5345   4.323   0.649   0.577
 1482SOL    HW2 5346   4.279   0.492   0.582
 1483SOL     OW 5347   4.331   0.970   6.131
 1483SOL    HW1 5348   4.336   0.909   6.051
 1483SOL    HW2 5349   4.240   1.012   6.135
 1484SOL     OW 5350   2.975   5.520   4.405
 1484SOL    HW1 5351   2.878   5.544   4.403
 1484SOL    HW2 5352   2.987   5.427   4.371
 1485SOL     OW 5353   5.372   2.647   2.863
 1485SOL    HW1 5354   5.451   2.690   2.820
 1485SOL    HW2 5355   5.293   2.708   2.854
 1486SOL     OW 5356   5.205   6.644   3.582
 1486SOL    HW1 5357   5.236   6.723   3.635
 1486SOL    HW2 5358   5.256   6.563   3.609
 1487SOL     OW 5359   6.779   0.338   0.409
 1487SOL    HW1 5360   6.736   0.426   0.390
 1487SOL    HW2 5361   6.814   0.337   0.503
 1488SOL     OW 5362   6.392   1.024   2.786
 1488SOL    HW1 5363   6.479   0.975   2.780
 1488SOL    HW2 5364   6.365   1.033   2.882
 1489SOL     OW 5365   4.288   5.095   6.444
 1489SOL    HW1 5366   4.264   5.186   6.411
 1489SOL    HW2 5367   4.272   5.027   6.372
 1490SOL     OW 5368   0.623   2.373   1.939
 1490SOL    HW1 5369   0.710   2.368   1.892
 1490SOL    HW2 5370   0.620   2.456   1.995
 1491SOL     OW 5371   0.106   2.964   1.962
 1491SOL    HW1 5372   0.015   2.985   1.925
 1491SOL    HW2 5373   0.102   2.876   2.010
 1492SOL     OW 5374   6.142   1.338   3.297
 1492SOL    HW1 5375   6.161   1.424   3.344
 1492SOL    HW2 5376   6.200   1.330   3.216
 1493SOL     OW 5377   4.534   2.283   6.124
 1493SOL    HW1 5378   4.453   2.282   6.066
 1493SOL    HW2 5379   4.605   2.225   6.084
 1494SOL     OW 5380   5.943   3.393   6.149
 1494SOL    HW1 5381   5.964   3.329   6.076
 1494SOL    HW2 5382   6.024   3.446   6.172
 1495SOL     OW 5383   5.994   3.997   3.992
 1495SOL    HW1 5384   5.963   4.074   3.936
 1495SOL    HW2 5385   5.915   3.954   4.036
 1496SOL     OW 5386   0.093   6.034   6.851
 1496SOL    HW1 5387   0.034   6.114   6.840
 1496SOL    HW2 5388   0.182   6.052   6.810
 1497SOL     OW 5389   5.639   3.222   2.811
 1497SOL    HW1 5390   5.560   3.251   2.864
 1497SOL    HW2 5391   5.621   3.237   2.714
 1498SOL     OW 5392   3.221   4.998   0.990
 1498SOL    HW1 5393   3.160   4.987   0.911
 1498SOL    HW2 5394   3.190   5.075   1.046
 1499SOL     OW 5395   0.211   4.013   5.849
 1499SOL    HW1 5396   0.137   3.963   5.894
 1499SOL    HW2 5397   0.267   4.059   5.919
 1500SOL     OW 5398   0.590   5.351   1.338
 1500SOL    HW1 5399   0.507   5.407   1.342
 1500SOL    HW2 5400   0.648   5.385   1.264
 1501SOL     OW 5401   5.442   1.644   6.182
 1501SOL    HW1 5402   5.423   1.588   6.101
 1501SOL    HW2 5403   5.509   1.597   6.239
 1502SOL     OW 5404   6.707   0.617   6.520
 1502SOL    HW1 5405   6.800   0.581   6.513
 1502SOL    HW2 5406   6.680   0.621   6.616
 1503SOL     OW 5407   0.554   3.919   2.259
 1503SOL    HW1 5408   0.577   3.822   2.256
 1503SOL    HW2 5409   0.498   3.943   2.179
 1504SOL     OW 5410   0.587   0.708   3.271
 1504SOL    HW1 5411   0.671   0.670   3.232
 1504SOL    HW2 5412   0.567   0.796   3.230
 1505SOL     OW 5413   5.817   6.057   4.922
 1505SOL    HW1 5414   5.914   6.035   4.923
 1505SOL    HW2 5415   5.784   6.061   4.827
 1506SOL     OW 5416   1.318   1.377   0.580
 1506SOL    HW1 5417   1.414   1.374   0.609
 1506SOL    HW2 5418   1.259   1.361   0.659
 1507SOL     OW 5419   1.472   2.577   4.515
 1507SOL    HW1 5420   1.412   2.514   4.564
 1507SOL    HW2 5421   1.466   2.668   4.556
 1508SOL     OW 5422   0.820   0.649   0.566
 1508SOL    HW1 5423   0.842   0.747   0.567
 1508SOL    HW2 5424   0.822   0.614   0.660
 1509SOL     OW 5425   5.112   0.716   4.620
 1509SOL    HW1 5426   5.066   0.798   4.655
 1509SOL    HW2 5427   5.047   0.640   4.619
 1510SOL     OW 5428   3.857   6.602   4.038
 1510SOL    HW1 5429   3.937   6.619   4.095
 1510SOL    HW2 5430   3.829   6.687   3.994
 1511SOL     OW 5431   3.814   3.536   3.990
 1511SOL    HW1 5432   3.809   3.515   4.088
 1511SOL    HW2 5433   3.905   3.569   3.967
 1512SOL     OW 5434   6.463   5.844   1.248
 1512SOL    HW1 5435   6.504   5.753   1.242
 1512SOL    HW2 5436   6.533   5.910   1.274
 1513SOL     OW 5437   2.954   0.086   6.182
 1513SOL    HW1 5438   3.042   0.043   6.162
 1513SOL    HW2 5439   2.951   0.177   6.142
 1514SOL     OW 5440   3.769   2.281   5.376
 1514SOL    HW1 5441   3.800   2.186   5.380
 1514SOL    HW2 5442   3.849   2.342   5.377
 1515SOL     OW 5443   6.757   2.001   2.356
 1515SOL    HW1 5444   6.688   2.011   2.428
 1515SOL    HW2 5445   6.848   2.000   2.396
 1516SOL     OW 5446   6.136   6.487   4.643
 1516SOL    HW1 5447   6.197   6.531   4.708
 1516SOL    HW2 5448   6.127   6.390   4.666
 1517SOL     OW 5449   4.177   6.260   3.720
 1517SOL    HW1 5450   4.096   6.261   3.662
 1517SOL    HW2 5451   4.250   6.210   3.674
 1518SOL     OW 5452   0.068   2.186   0.779
 1518SOL    HW1 5453   7.003   2.217   0.747
 1518SOL    HW2 5454   0.130   2.265   0.785
 1519SOL     OW 5455   6.938   3.915   0.695
 1519SOL    HW1 5456   6.850   3.959   0.714
 1519SOL    HW2 5457   6.939   3.824   0.736
 1520SOL     OW 5458   0.294   5.322   1.621
 1520SOL    HW1 5459   0.338   5.237   1.592
 1520SOL    HW2 5460   0.199   5.323   1.590
 1521SOL     OW 5461   2.139   5.107   6.352
 1521SOL    HW1 5462   2.078   5.172   6.396
 1521SOL    HW2 5463   2.208   5.157   6.298
 1522SOL     OW 5464   4.791   5.400   4.604
 1522SOL    HW1 5465   4.764   5.319   4.656
 1522SOL    HW2 5466   4.888   5.394   4.580
 1523SOL     OW 5467   3.471   6.058   6.726
 1523SOL    HW1 5468   3.498   6.142   6.679
 1523SOL    HW2 5469   3.450   5.987   6.658
 1524SOL     OW 5470   2.028   2.146   2.459
 1524SOL    HW1 5471   1.955   2.087   2.426
 1524SOL    HW2 5472   2.036   2.226   2.399
 1525SOL     OW 5473   5.442   2.766   0.911
 1525SOL    HW1 5474   5.407   2.745   0.820
 1525SOL    HW2 5475   5.396   2.709   0.979
 1526SOL     OW 5476   0.792   1.360   0.621
 1526SOL    HW1 5477   0.825   1.274   0.660
 1526SOL    HW2 5478   0.870   1.415   0.590
 1527SOL     OW 5479   3.450   1.487   4.436
 1527SOL    HW1 5480   3.485   1.539   4.514
 1527SOL    HW2 5481   3.367   1.438   4.463
 1528SOL     OW 5482   4.921   3.943   0.949
 1528SOL    HW1 5483   4.957   3.850   0.949
 1528SOL    HW2 5484   4.916   3.977   1.043
 1529SOL     OW 5485   4.764   1.522   6.263
 1529SOL    HW1 5486   4.838   1.488   6.319
 1529SOL    HW2 5487   4.732   1.610   6.299
 1530SOL     OW 5488   3.710   6.970   1.506
 1530SOL    HW1 5489   3.802   6.978   1.544
 1530SOL    HW2 5490   3.648   6.938   1.577
 1531SOL     OW 5491   3.746   6.941   4.042
 1531SOL    HW1 5492   3.679   7.005   4.081
 1531SOL    HW2 5493   3.827   6.993   4.013
 1532SOL     OW 5494   2.927   4.958   6.222
 1532SOL    HW1 5495   2.901   4.934   6.129
 1532SOL    HW2 5496   2.996   5.030   6.220
 1533SOL     OW 5497   5.385   5.467   1.491
 1533SOL    HW1 5498   5.384   5.492   1.394
 1533SOL    HW2 5499   5.470   5.420   1.512
 1534SOL     OW 5500   3.888   6.083   6.517
 1534SOL    HW1 5501   3.837   6.136   6.586
 1534SOL    HW2 5502   3.968   6.041   6.560
 1535SOL     OW 5503   6.407   6.598   4.393
 1535SOL    HW1 5504   6.455   6.536   4.331
 1535SOL    HW2 5505   6.433   6.692   4.373
 1536SOL     OW 5506   4.021   4.338   6.373
 1536SOL    HW1 5507   4.039   4.242   6.353
 1536SOL    HW2 5508   4.046   4.358   6.468
 1537SOL     OW 5509   3.320   5.256   3.523
 1537SOL    HW1 5510   3.348   5.271   3.428
 1537SOL    HW2 5511   3.303   5.345   3.567
 1538SOL     OW 5512   3.354   1.430   0.100
 1538SOL    HW1 5513   3.439   1.462   0.141
 1538SOL    HW2 5514   3.322   1.497   0.032
 1539SOL     OW 5515   5.438   3.390   1.270
 1539SOL    HW1 5516   5.431   3.315   1.336
 1539SOL    HW2 5517   5.529   3.388   1.228
 1540SOL     OW 5518   2.584   0.190   4.618
 1540SOL    HW1 5519   2.655   0.211   4.686
 1540SOL    HW2 5520   2.559   0.274   4.570
 1541SOL     OW 5521   3.236   3.148   4.862
 1541SOL    HW1 5522   3.223   3.049   4.869
 1541SOL    HW2 5523   3.327   3.167   4.824
 1542SOL     OW 5524   6.670   0.042   2.467
 1542SOL    HW1 5525   6.749   0.100   2.447
 1542SOL    HW2 5526   6.587   0.098   2.473
 1543SOL     OW 5527   2.978   5.092   6.615
 1543SOL    HW1 5528   2.934   5.121   6.530
 1543SOL    HW2 5529   3.035   5.013   6.598
 1544SOL     OW 5530   3.839   2.967   3.413
 1544SOL    HW1 5531   3.864   3.012   3.327
 1544SOL    HW2 5532   3.756   2.912   3.399
 1545SOL     OW 5533   6.166   0.180   2.090
 1545SOL    HW1 5534   6.175   0.208   2.185
 1545SOL    HW2 5535   6.071   0.153   2.072
 1546SOL     OW 5536   5.103   6.364   5.709
 1546SOL    HW1 5537   5.092   6.330   5.802
 1546SOL    HW2 5538   5.014   6.383   5.669
 1547SOL     OW 5539   1.664   4.193   0.331
 1547SOL    HW1 5540   1.585   4.242   0.367
 1547SOL    HW2 5541   1.665   4.199   0.232
 1548SOL     OW 5542   5.981   2.132   7.011
 1548SOL    HW1 5543   5.953   2.203   0.051
 1548SOL    HW2 5544   6.076   2.148   6.983
 1549SOL     OW 5545   3.913   1.595   4.460
 1549SOL    HW1 5546   3.898   1.572   4.557
 1549SOL    HW2 5547   3.984   1.664   4.453
 1550SOL     OW 5548   3.704   3.418   2.425
 1550SOL    HW1 5549   3.753   3.493   2.380
 1550SOL    HW2 5550   3.658   3.362   2.356
 1551SOL     OW 5551   0.585   5.220   6.845
 1551SOL    HW1 5552   0.531   5.185   6.922
 1551SOL    HW2 5553   0.675   5.176   6.845
 1552SOL     OW 5554   2.514   4.547   1.466
 1552SOL    HW1 5555   2.596   4.532   1.521
 1552SOL    HW2 5556   2.494   4.645   1.462
 1553SOL     OW 5557   6.609   1.510   5.799
 1553SOL    HW1 5558   6.674   1.470   5.734
 1553SOL    HW2 5559   6.633   1.606   5.815
 1554SOL     OW 5560   2.984   2.232   3.265
 1554SOL    HW1 5561   3.008   2.286   3.185
 1554SOL    HW2 5562   3.014   2.138   3.253
 1555SOL     OW 5563   6.503   3.103   6.249
 1555SOL    HW1 5564   6.490   3.049   6.332
 1555SOL    HW2 5565   6.422   3.160   6.234
 1556SOL     OW 5566   2.232   1.105   6.082
 1556SOL    HW1 5567   2.222   1.063   5.992
 1556SOL    HW2 5568   2.181   1.191   6.084
 1557SOL     OW 5569   1.585   3.280   6.773
 1557SOL    HW1 5570   1.529   3.221   6.832
 1557SOL    HW2 5571   1.530   3.313   6.697
 1558SOL     OW 5572   6.936   0.276   4.935
 1558SOL    HW1 5573   6.841   0.301   4.949
 1558SOL    HW2 5574   6.942   0.206   4.864
 1559SOL     OW 5575   0.418   2.363   5.985
 1559SOL    HW1 5576   0.349   2.419   6.030
 1559SOL    HW2 5577   0.395   2.353   5.888
 1560SOL     OW 5578   0.511   0.850   6.334
 1560SOL    HW1 5579   0.453   0.779   6.296
 1560SOL    HW2 5580   0.601   0.847   6.291
 1561SOL     OW 5581   4.835   6.203   2.784
 1561SOL    HW1 5582   4.801   6.130   2.724
 1561SOL    HW2 5583   4.927   6.180   2.815
 1562SOL     OW 5584   4.973   0.180   3.076
 1562SOL    HW1 5585   5.012   0.156   2.987
 1562SOL    HW2 5586   4.898   0.118   3.098
 1563SOL     OW 5587   3.404   1.359   6.254
 1563SOL    HW1 5588   3.462   1.353   6.172
 1563SOL    HW2 5589   3.312   1.327   6.232
 1564SOL     OW 5590   1.843   1.985   2.155
 1564SOL    HW1 5591   1.850   1.950   2.248
 1564SOL    HW2 5592   1.839   1.909   2.091
 1565SOL     OW 5593   4.892   3.732   1.947
 1565SOL    HW1 5594   4.859   3.779   1.865
 1565SOL    HW2 5595   4.912   3.637   1.926
 1566SOL     OW 5596   5.529   4.037   3.381
 1566SOL    HW1 5597   5.505   3.961   3.442
 1566SOL    HW2 5598   5.553   4.002   3.291
 1567SOL     OW 5599   6.432   5.655   6.243
 1567SOL    HW1 5600   6.459   5.634   6.337
 1567SOL    HW2 5601   6.333   5.649   6.235
 1568SOL     OW 5602   1.198   0.358   0.307
 1568SOL    HW1 5603   1.144   0.398   0.381
 1568SOL    HW2 5604   1.142   0.291   0.257
 1569SOL     OW 5605   4.086   6.283   4.929
 1569SOL    HW1 5606   4.092   6.211   4.999
 1569SOL    HW2 5607   3.989   6.303   4.911
 1570SOL     OW 5608   2.848   1.633   1.451
 1570SOL    HW1 5609   2.749   1.631   1.465
 1570SOL    HW2 5610   2.875   1.718   1.406
 1571SOL     OW 5611   6.178   3.546   1.354
 1571SOL    HW1 5612   6.224   3.459   1.338
 1571SOL    HW2 5613   6.205   3.582   1.444
 1572SOL     OW 5614   0.341   0.217   2.021
 1572SOL    HW1 5615   0.329   0.153   1.945
 1572SOL    HW2 5616   0.411   0.182   2.083
 1573SOL     OW 5617   4.760   0.317   1.456
 1573SOL    HW1 5618   4.799   0.337   1.546
 1573SOL    HW2 5619   4.814   0.363   1.385
 1574SOL     OW 5620   6.372   2.287   1.527
 1574SOL    HW1 5621   6.408   2.280   1.620
 1574SOL    HW2 5622   6.309   2.211   1.510
 1575SOL     OW 5623   1.703   2.299   0.203
 1575SOL    HW1 5624   1.775   2.337   0.261
 1575SOL    HW2 5625   1.744   2.243   0.132
 1576SOL     OW 5626   5.810   6.323   3.958
 1576SOL    HW1 5627   5.871   6.401   3.945
 1576SOL    HW2 5628   5.845   6.245   3.906
 1577SOL     OW 5629   2.978   0.199   5.517
 1577SOL    HW1 5630   3.067   0.182   5.473
 1577SOL    HW2 5631   2.912   0.228   5.448
 1578SOL     OW 5632   5.158   4.366   5.391
 1578SOL    HW1 5633   5.186   4.271   5.405
 1578SOL    HW2 5634   5.166   4.416   5.478
 1579SOL     OW 5635   0.958   0.886   3.755
 1579SOL    HW1 5636   0.932   0.805   3.702
 1579SOL    HW2 5637   1.015   0.945   3.698
 1580SOL     OW 5638   3.089   4.299   5.254
 1580SOL    HW1 5639   3.098   4.239   5.175
 1580SOL    HW2 5640   3.017   4.366   5.237
 1581SOL     OW 5641   6.745   3.865   4.900
 1581SOL    HW1 5642   6.781   3.788   4.952
 1581SOL    HW2 5643   6.745   3.842   4.802
 1582SOL     OW 5644   0.658   5.182   4.164
 1582SOL    HW1 5645   0.672   5.131   4.079
 1582SOL    HW2 5646   0.746   5.219   4.195
 1583SOL     OW 5647   1.866   2.270   3.659
 1583SOL    HW1 5648   1.805   2.285   3.581
 1583SOL    HW2 5649   1.812   2.264   3.743
 1584SOL     OW 5650   2.587   0.302   5.555
 1584SOL    HW1 5651   2.544   0.212   5.541
 1584SOL    HW2 5652   2.637   0.301   5.642
 1585SOL     OW 5653   5.359   0.910   3.996
 1585SOL    HW1 5654   5.426   0.976   3.959
 1585SOL    HW2 5655   5.405   0.848   4.059
 1586SOL     OW 5656   3.835   3.987   2.634
 1586SOL    HW1 5657   3.842   3.972   2.535
 1586SOL    HW2 5658   3.925   3.976   2.676
 1587SOL     OW 5659   3.490   6.377   6.908
 1587SOL    HW1 5660   3.422   6.425   6.963
 1587SOL    HW2 5661   3.455   6.367   6.815
 1588SOL     OW 5662   5.374   2.415   1.504
 1588SOL    HW1 5663   5.388   2.392   1.408
 1588SOL    HW2 5664   5.348   2.332   1.555
 1589SOL     OW 5665   6.238   4.727   4.701
 1589SOL    HW1 5666   6.238   4.675   4.786
 1589SOL    HW2 5667   6.299   4.805   4.710
 1590SOL     OW 5668   2.076   0.152   6.537
 1590SOL    HW1 5669   2.137   0.102   6.475
 1590SOL    HW2 5670   2.101   0.249   6.536
 1591SOL     OW 5671   1.170   4.218   2.366
 1591SOL    HW1 5672   1.168   4.318   2.368
 1591SOL    HW2 5673   1.106   4.185   2.297
 1592SOL     OW 5674   3.123   3.775   2.436
 1592SOL    HW1 5675   3.099   3.839   2.364
 1592SOL    HW2 5676   3.161   3.692   2.396
 1593SOL     OW 5677   1.439   5.760   4.359
 1593SOL    HW1 5678   1.464   5.837   4.300
 1593SOL    HW2 5679   1.519   5.702   4.373
 1594SOL     OW 5680   6.551   5.124   2.453
 1594SOL    HW1 5681   6.632   5.182   2.450
 1594SOL    HW2 5682   6.469   5.180   2.441
 1595SOL     OW 5683   6.551   4.654   6.495
 1595SOL    HW1 5684   6.457   4.682   6.480
 1595SOL    HW2 5685   6.609   4.688   6.421
 1596SOL     OW 5686   2.448   5.341   6.370
 1596SOL    HW1 5687   2.497   5.276   6.428
 1596SOL    HW2 5688   2.484   5.433   6.384
 1597SOL     OW 5689   2.539   6.442   1.480
 1597SOL    HW1 5690   2.461   6.379   1.487
 1597SOL    HW2 5691   2.522   6.508   1.407
 1598SOL     OW 5692   0.361   4.680   0.995
 1598SOL    HW1 5693   0.377   4.594   1.044
 1598SOL    HW2 5694   0.348   4.754   1.062
 1599SOL     OW 5695   3.772   5.275   6.990
 1599SOL    HW1 5696   3.825   5.256   0.048
 1599SOL    HW2 5697   3.676   5.249   7.006
 1600SOL     OW 5698   4.807   1.308   4.174
 1600SOL    HW1 5699   4.903   1.334   4.159
 1600SOL    HW2 5700   4.751   1.391   4.180
 1601SOL     OW 5701   1.383   5.185   4.561
 1601SOL    HW1 5702   1.285   5.191   4.580
 1601SOL    HW2 5703   1.400   5.106   4.502
 1602SOL     OW 5704   0.955   5.145   3.587
 1602SOL    HW1 5705   0.876   5.195   3.551
 1602SOL    HW2 5706   1.038   5.181   3.546
 1603SOL     OW 5707   6.989   6.330   2.138
 1603SOL    HW1 5708   7.007   6.238   2.102
 1603SOL    HW2 5709   0.050   6.374   2.163
 1604SOL     OW 5710   6.974   4.750   6.408
 1604SOL    HW1 5711   6.947   4.726   6.501
 1604SOL    HW2 5712   6.988   4.849   6.402
 1605SOL     OW 5713   5.834   6.653   3.225
 1605SOL    HW1 5714   5.877   6.741   3.247
 1605SOL    HW2 5715   5.898   6.597   3.173
 1606SOL     OW 5716   4.819   7.001   6.070
 1606SOL    HW1 5717   4.722   6.981   6.069
 1606SOL    HW2 5718   4.838   0.055   6.012
 1607SOL     OW 5719   4.425   2.585   0.961
 1607SOL    HW1 5720   4.371   2.669   0.966
 1607SOL    HW2 5721   4.519   2.604   0.989
 1608SOL     OW 5722   2.271   6.723   0.691
 1608SOL    HW1 5723   2.257   6.769   0.604
 1608SOL    HW2 5724   2.202   6.653   0.704
 1609SOL     OW 5725   4.326   2.200   5.629
 1609SOL    HW1 5726   4.338   2.290   5.670
 1609SOL    HW2 5727   4.233   2.190   5.594
 1610SOL     OW 5728   6.279   6.118   4.372
 1610SOL    HW1 5729   6.260   6.035   4.424
 1610SOL    HW2 5730   6.330   6.183   4.428
 1611SOL     OW 5731   3.117   3.468   1.695
 1611SOL    HW1 5732   3.140   3.374   1.674
 1611SOL    HW2 5733   3.125   3.484   1.794
 1612SOL     OW 5734   2.350   0.743   4.772
 1612SOL    HW1 5735   2.268   0.742   4.830
 1612SOL    HW2 5736   2.431   0.727   4.829
 1613SOL     OW 5737   2.443   5.925   0.178
 1613SOL    HW1 5738   2.538   5.958   0.172
 1613SOL    HW2 5739   2.381   6.003   0.180
 1614SOL     OW 5740   5.847   2.096   6.780
 1614SOL    HW1 5741   5.894   2.092   6.868
 1614SOL    HW2 5742   5.856   2.008   6.733
 1615SOL     OW 5743   6.957   4.139   0.185
 1615SOL    HW1 5744   6.959   4.098   0.094
 1615SOL    HW2 5745   6.891   4.090   0.242
 1616SOL     OW 5746   3.339   1.877   5.807
 1616SOL    HW1 5747   3.333   1.933   5.724
 1616SOL    HW2 5748   3.434   1.849   5.821
 1617SOL     OW 5749   5.027   0.142   3.703
 1617SOL    HW1 5750   5.046   0.178   3.612
 1617SOL    HW2 5751   5.092   0.069   3.725
 1618SOL     OW 5752   5.532   2.983   0.754
 1618SOL    HW1 5753   5.447   3.030   0.731
 1618SOL    HW2 5754   5.519   2.930   0.838
 1619SOL     OW 5755   2.127   3.328   4.520
 1619SOL    HW1 5756   2.067   3.385   4.465
 1619SOL    HW2 5757   2.100   3.334   4.617
 1620SOL     OW 5758   2.697   5.361   1.478
 1620SOL    HW1 5759   2.761   5.305   1.531
 1620SOL    HW2 5760   2.645   5.302   1.416
 1621SOL     OW 5761   1.253   0.638   0.970
 1621SOL    HW1 5762   1.338   0.658   1.019
 1621SOL    HW2 5763   1.209   0.558   1.010
 1622SOL     OW 5764   2.267   1.814   4.948
 1622SOL    HW1 5765   2.314   1.902   4.951
 1622SOL    HW2 5766   2.199   1.815   4.874
 1623SOL     OW 5767   2.757   2.096   5.324
 1623SOL    HW1 5768   2.825   2.096   5.251
 1623SOL    HW2 5769   2.725   2.003   5.339
 1624SOL     OW 5770   2.788   1.164   6.984
 1624SOL    HW1 5771   2.736   1.122   6.909
 1624SOL    HW2 5772   2.733   1.237   0.000
 1625SOL     OW 5773   0.698   4.943   2.314
 1625SOL    HW1 5774   0.776   4.885   2.290
 1625SOL    HW2 5775   0.618   4.886   2.329
 1626SOL     OW 5776   1.790   2.795   6.289
 1626SOL    HW1 5777   1.841   2.792   6.203
 1626SOL    HW2 5778   1.693   2.810   6.271
 1627SOL     OW 5779   5.969   2.836   3.414
 1627SOL    HW1 5780   5.939   2.852   3.508
 1627SOL    HW2 5781   5.909   2.884   3.351
 1628SOL     OW 5782   3.171   4.318   0.552
 1628SOL    HW1 5783   3.219   4.248   0.605
 1628SOL    HW2 5784   3.196   4.409   0.586
 1629SOL     OW 5785   3.496   1.971   4.006
 1629SOL    HW1 5786   3.504   1.929   3.916
 1629SOL    HW2 5787   3.547   1.917   4.073
 1630SOL     OW 5788   0.369   4.487   5.318
 1630SOL    HW1 5789   0.329   4.396   5.319
 1630SOL    HW2 5790   0.454   4.486   5.265
 1631SOL     OW 5791   6.942   0.148   5.744
 1631SOL    HW1 5792   6.902   0.182   5.829
 1631SOL    HW2 5793   6.872   0.100   5.691
 1632SOL     OW 5794   6.362   1.128   1.168
 1632SOL    HW1 5795   6.446   1.155   1.121
 1632SOL    HW2 5796   6.380   1.051   1.229
 1633SOL     OW 5797   5.786   2.247   3.944
 1633SOL    HW1 5798   5.760   2.319   3.879
 1633SOL    HW2 5799   5.828   2.289   4.025
 1634SOL     OW 5800   3.371   0.877   0.015
 1634SOL    HW1 5801   3.346   0.897   0.110
 1634SOL    HW2 5802   3.290   0.845   6.991
 1635SOL     OW 5803   0.446   5.776   4.839
 1635SOL    HW1 5804   0.356   5.781   4.882
 1635SOL    HW2 5805   0.459   5.856   4.780
 1636SOL     OW 5806   2.221   5.836   1.637
 1636SOL    HW1 5807   2.142   5.879   1.681
 1636SOL    HW2 5808   2.228   5.868   1.543
 1637SOL     OW 5809   6.322   3.033   1.858
 1637SOL    HW1 5810   6.288   3.074   1.943
 1637SOL    HW2 5811   6.324   2.933   1.868
 1638SOL     OW 5812   7.005   3.387   4.962
 1638SOL    HW1 5813   6.945   3.308   4.945
 1638SOL    HW2 5814   7.022   3.435   4.875
 1639SOL     OW 5815   5.155   5.448   2.357
 1639SOL    HW1 5816   5.213   5.423   2.435
 1639SOL    HW2 5817   5.088   5.516   2.386
 1640SOL     OW 5818   6.358   0.094   1.080
 1640SOL    HW1 5819   6.393   0.183   1.108
 1640SOL    HW2 5820   6.328   0.098   0.985
 1641SOL     OW 5821   5.732   2.779   5.067
 1641SOL    HW1 5822   5.773   2.864   5.101
 1641SOL    HW2 5823   5.632   2.790   5.063
 1642SOL     OW 5824   6.950   2.033   1.301
 1642SOL    HW1 5825   7.008   2.057   1.223
 1642SOL    HW2 5826   6.996   2.057   1.386
 1643SOL     OW 5827   4.122   6.901   5.670
 1643SOL    HW1 5828   4.119   6.801   5.676
 1643SOL    HW2 5829   4.197   6.928   5.610
 1644SOL     OW 5830   3.026   1.051   1.518
 1644SOL    HW1 5831   3.102   0.996   1.553
 1644SOL    HW2 5832   2.991   1.110   1.590
 1645SOL     OW 5833   2.606   6.581   6.694
 1645SOL    HW1 5834   2.642   6.543   6.609
 1645SOL    HW2 5835   2.522   6.632   6.674
 1646SOL     OW 5836   1.204   4.019   1.105
 1646SOL    HW1 5837   1.295   4.057   1.122
 1646SOL    HW2 5838   1.213   3.926   1.069
 1647SOL     OW 5839   5.973   2.690   3.855
 1647SOL    HW1 5840   6.049   2.747   3.885
 1647SOL    HW2 5841   5.911   2.743   3.798
 1648SOL     OW 5842   4.205   6.847   2.229
 1648SOL    HW1 5843   4.266   6.926   2.236
 1648SOL    HW2 5844   4.245   6.770   2.278
 1649SOL     OW 5845   3.344   0.717   3.788
 1649SOL    HW1 5846   3.275   0.758   3.728
 1649SOL    HW2 5847   3.432   0.712   3.740
 1650SOL     OW 5848   2.789   6.946   4.302
 1650SOL    HW1 5849   2.786   6.958   4.203
 1650SOL    HW2 5850   2.779   6.849   4.325
 1651SOL     OW 5851   1.182   6.832   0.721
 1651SOL    HW1 5852   1.192   6.830   0.820
 1651SOL    HW2 5853   1.209   6.922   0.686
 1652SOL     OW 5854   3.030   2.278   1.701
 1652SOL    HW1 5855   2.990   2.342   1.767
 1652SOL    HW2 5856   3.045   2.326   1.614
 1653SOL     OW 5857   0.986   5.329   1.144
 1653SOL    HW1 5858   1.018   5.260   1.208
 1653SOL    HW2 5859   0.949   5.284   1.062
 1654SOL     OW 5860   6.556   3.193   2.629
 1654SOL    HW1 5861   6.619   3.212   2.554
 1654SOL    HW2 5862   6.599   3.217   2.716
 1655SOL     OW 5863   4.997   4.465   6.385
 1655SOL    HW1 5864   5.062   4.486   6.311
 1655SOL    HW2 5865   4.972   4.550   6.432
 1656SOL     OW 5866   0.929   4.870   3.550
 1656SOL    HW1 5867   0.914   4.877   3.452
 1656SOL    HW2 5868   0.945   4.961   3.588
 1657SOL     OW 5869   1.382   0.311   5.483
 1657SOL    HW1 5870   1.353   0.336   5.576
 1657SOL    HW2 5871   1.344   0.377   5.418
 1658SOL     OW 5872   6.097   6.263   3.389
 1658SOL    HW1 5873   6.089   6.171   3.351
 1658SOL    HW2 5874   6.047   6.268   3.475
 1659SOL     OW 5875   3.858   2.821   6.031
 1659SOL    HW1 5876   3.847   2.906   6.083
 1659SOL    HW2 5877   3.952   2.789   6.038
 1660SOL     OW 5878   1.719   5.795   3.335
 1660SOL    HW1 5879   1.658   5.858   3.383
 1660SOL    HW2 5880   1.804   5.843   3.312
 1661SOL     OW 5881   3.616   0.439   2.485
 1661SOL    HW1 5882   3.527   0.409   2.519
 1661SOL    HW2 5883   3.604   0.489   2.399
 1662SOL     OW 5884   0.880   0.636   3.667
 1662SOL    HW1 5885   0.889   0.555   3.725
 1662SOL    HW2 5886   0.784   0.664   3.664
 1663SOL     OW 5887   2.738   0.253   2.658
 1663SOL    HW1 5888   2.776   0.229   2.569
 1663SOL    HW2 5889   2.786   0.333   2.694
 1664SOL     OW 5890   2.195   5.816   3.863
 1664SOL    HW1 5891   2.279   5.773   3.828
 1664SOL    HW2 5892   2.116   5.777   3.818
 1665SOL     OW 5893   6.746   0.277   3.664
 1665SOL    HW1 5894   6.814   0.344   3.635
 1665SOL    HW2 5895   6.703   0.236   3.583
 1666SOL     OW 5896   5.931   3.122   6.017
 1666SOL    HW1 5897   5.869   3.072   6.078
 1666SOL    HW2 5898   6.012   3.066   6.000
 1667SOL     OW 5899   7.021   0.217   6.072
 1667SOL    HW1 5900   6.961   0.212   6.152
 1667SOL    HW2 5901   6.970   0.254   5.994
 1668SOL     OW 5902   4.297   0.497   4.706
 1668SOL    HW1 5903   4.356   0.552   4.646
 1668SOL    HW2 5904   4.343   0.485   4.795
 1669SOL     OW 5905   5.773   6.795   5.644
 1669SOL    HW1 5906   5.704   6.838   5.586
 1669SOL    HW2 5907   5.859   6.845   5.635
 1670SOL     OW 5908   5.585   4.606   5.928
 1670SOL    HW1 5909   5.487   4.588   5.917
 1670SOL    HW2 5910   5.616   4.663   5.852
 1671SOL     OW 5911   4.849   3.191   6.793
 1671SOL    HW1 5912   4.790   3.239   6.728
 1671SOL    HW2 5913   4.794   3.127   6.848
 1672SOL     OW 5914   1.594   4.835   2.293
 1672SOL    HW1 5915   1.693   4.828   2.305
 1672SOL    HW2 5916   1.564   4.766   2.227
 1673SOL     OW 5917   6.653   3.525   4.308
 1673SOL    HW1 5918   6.619   3.475   4.388
 1673SOL    HW2 5919   6.709   3.602   4.338
 1674SOL     OW 5920   0.684   4.143   6.904
 1674SOL    HW1 5921   0.771   4.194   6.905
 1674SOL    HW2 5922   0.614   4.198   6.857
 1675SOL     OW 5923   4.475   1.759   6.697
 1675SOL    HW1 5924   4.458   1.857   6.687
 1675SOL    HW2 5925   4.568   1.738   6.668
 1676SOL     OW 5926   1.149   0.484   2.716
 1676SOL    HW1 5927   1.177   0.572   2.753
 1676SOL    HW2 5928   1.193   0.469   2.627
 1677SOL     OW 5929   5.519   1.994   5.252
 1677SOL    HW1 5930   5.461   2.075   5.252
 1677SOL    HW2 5931   5.614   2.021   5.232
 1678SOL     OW 5932   5.273   0.243   1.782
 1678SOL    HW1 5933   5.368   0.215   1.790
 1678SOL    HW2 5934   5.254   0.315   1.849
 1679SOL     OW 5935   0.860   3.533   6.397
 1679SOL    HW1 5936   0.843   3.611   6.338
 1679SOL    HW2 5937   0.946   3.545   6.445
 1680SOL     OW 5938   1.123   2.272   4.206
 1680SOL    HW1 5939   1.215   2.240   4.184
 1680SOL    HW2 5940   1.118   2.296   4.303
 1681SOL     OW 5941   6.241   5.676   0.772
 1681SOL    HW1 5942   6.298   5.594   0.776
 1681SOL    HW2 5943   6.219   5.706   0.865
 1682SOL     OW 5944   6.871   3.337   5.987
 1682SOL    HW1 5945   6.889   3.409   5.920
 1682SOL    HW2 5946   6.958   3.298   6.018
 1683SOL     OW 5947   5.339   6.508   1.273
 1683SOL    HW1 5948   5.289   6.443   1.331
 1683SOL    HW2 5949   5.287   6.592   1.265
 1684SOL     OW 5950   0.813   5.782   5.092
 1684SOL    HW1 5951   0.903   5.804   5.130
 1684SOL    HW2 5952   0.742   5.817   5.153
 1685SOL     OW 5953   1.635   1.032   0.206
 1685SOL    HW1 5954   1.719   1.020   0.260
 1685SOL    HW2 5955   1.632   1.125   0.170
 1686SOL     OW 5956   1.325   6.698   6.608
 1686SOL    HW1 5957   1.408   6.665   6.652
 1686SOL    HW2 5958   1.261   6.731   6.677
 1687SOL     OW 5959   1.730   6.038   2.016
 1687SOL    HW1 5960   1.649   5.998   1.972
 1687SOL    HW2 5961   1.812   6.000   1.973
 1688SOL     OW 5962   1.623   1.608   2.818
 1688SOL    HW1 5963   1.611   1.693   2.870
 1688SOL    HW2 5964   1.712   1.609   2.774
 1689SOL     OW 5965   1.874   1.614   2.751
 1689SOL    HW1 5966   1.881   1.579   2.657
 1689SOL    HW2 5967   1.896   1.712   2.751
 1690SOL     OW 5968   1.413   1.504   1.073
 1690SOL    HW1 5969   1.501   1.457   1.083
 1690SOL    HW2 5970   1.421   1.574   1.002
 1691SOL     OW 5971   5.275   4.526   2.768
 1691SOL    HW1 5972   5.329   4.495   2.846
 1691SOL    HW2 5973   5.197   4.465   2.756
 1692SOL     OW 5974   0.959   0.237   1.984
 1692SOL    HW1 5975   0.971   0.141   2.008
 1692SOL    HW2 5976   0.915   0.286   2.059
 1693SOL     OW 5977   2.737   2.388   3.395
 1693SOL    HW1 5978   2.834   2.406   3.410
 1693SOL    HW2 5979   2.689   2.388   3.482
 1694SOL     OW 5980   5.446   5.512   4.937
 1694SOL    HW1 5981   5.413   5.458   4.860
 1694SOL    HW2 5982   5.409   5.605   4.931
 1695SOL     OW 5983   3.186   2.523   5.586
 1695SOL    HW1 5984   3.222   2.549   5.497
 1695SOL    HW2 5985   3.086   2.516   5.581
 1696SOL     OW 5986   4.497   6.112   0.856
 1696SOL    HW1 5987   4.528   6.199   0.894
 1696SOL    HW2 5988   4.535   6.101   0.764
 1697SOL     OW 5989   0.972   1.375   2.100
 1697SOL    HW1 5990   1.015   1.416   2.180
 1697SOL    HW2 5991   1.035   1.309   2.058
 1698SOL     OW 5992   4.508   2.198   1.783
 1698SOL    HW1 5993   4.516   2.244   1.695
 1698SOL    HW2 5994   4.490   2.266   1.855
 1699SOL     OW 5995   2.264   3.233   1.048
 1699SOL    HW1 5996   2.329   3.186   0.989
 1699SOL    HW2 5997   2.185   3.263   0.993
 1700SOL     OW 5998   6.786   3.204   3.280
 1700SOL    HW1 5999   6.884   3.189   3.285
 1700SOL    HW2 6000   6.739   3.116   3.285
 1701SOL     OW 6001   6.032   3.200   4.043
 1701SOL    HW1 6002   6.021   3.293   4.009
 1701SOL    HW2 6003   5.946   3.169   4.085
 1702SOL     OW 6004   4.768   4.134   0.829
 1702SOL    HW1 6005   4.728   4.103   0.742
 1702SOL    HW2 6006   4.807   4.055   0.877
 1703SOL     OW 6007   1.912   3.533   0.179
 1703SOL    HW1 6008   1.872   3.610   0.130
 1703SOL    HW2 6009   1.944   3.464   0.114
 1704SOL     OW 6010   0.526   0.882   1.800
 1704SOL    HW1 6011   0.594   0.943   1.759
 1704SOL    HW2 6012   0.448   0.936   1.831
 1705SOL     OW 6013   4.353   3.149   1.711
 1705SOL    HW1 6014   4.281   3.080   1.703
 1705SOL    HW2 6015   4.439   3.104   1.736
 1706SOL     OW 6016   3.538   0.405   0.723
 1706SOL    HW1 6017   3.440   0.387   0.729
 1706SOL    HW2 6018   3.589   0.320   0.737
 1707SOL     OW 6019   5.096   2.176   3.266
 1707SOL    HW1 6020   5.153   2.156   3.346
 1707SOL    HW2 6021   5.148   2.156   3.183
 1708SOL     OW 6022   6.822   5.094   3.416
 1708SOL    HW1 6023   6.892   5.128   3.478
 1708SOL    HW2 6024   6.860   5.083   3.324
 1709SOL     OW 6025   2.934   6.104   2.201
 1709SOL    HW1 6026   2.899   6.118   2.109
 1709SOL    HW2 6027   3.022   6.056   2.196
 1710SOL     OW 6028   0.615   5.752   4.339
 1710SOL    HW1 6029   0.622   5.845   4.303
 1710SOL    HW2 6030   0.665   5.689   4.280
 1711SOL     OW 6031   1.237   4.694   5.287
 1711SOL    HW1 6032   1.138   4.683   5.297
 1711SOL    HW2 6033   1.272   4.622   5.229
 1712SOL     OW 6034   0.321   4.116   0.507
 1712SOL    HW1 6035   0.398   4.052   0.506
 1712SOL    HW2 6036   0.249   4.082   0.447
 1713SOL     OW 6037   1.305   2.590   0.916
 1713SOL    HW1 6038   1.395   2.628   0.937
 1713SOL    HW2 6039   1.240   2.664   0.904
 1714SOL     OW 6040   3.282   1.898   0.956
 1714SOL    HW1 6041   3.200   1.917   0.902
 1714SOL    HW2 6042   3.329   1.818   0.918
 1715SOL     OW 6043   0.027   3.082   2.669
 1715SOL    HW1 6044   7.018   3.159   2.722
 1715SOL    HW2 6045   0.127   3.084   2.667
 1716SOL     OW 6046   0.066   5.790   6.993
 1716SOL    HW1 6047   0.006   5.725   6.946
 1716SOL    HW2 6048   0.073   5.874   6.939
 1717SOL     OW 6049   2.858   0.228   6.882
 1717SOL    HW1 6050   2.860   0.278   6.969
 1717SOL    HW2 6051   2.949   0.229   6.841
 1718SOL     OW 6052   1.308   4.312   6.375
 1718SOL    HW1 6053   1.300   4.393   6.316
 1718SOL    HW2 6054   1.375   4.330   6.447
 1719SOL     OW 6055   2.275   3.676   1.386
 1719SOL    HW1 6056   2.283   3.771   1.357
 1719SOL    HW2 6057   2.286   3.616   1.306
 1720SOL     OW 6058   6.555   1.052   0.461
 1720SOL    HW1 6059   6.642   1.009   0.438
 1720SOL    HW2 6060   6.490   0.982   0.490
 1721SOL     OW 6061   2.327   6.566   3.477
 1721SOL    HW1 6062   2.337   6.551   3.378
 1721SOL    HW2 6063   2.407   6.529   3.524
 1722SOL     OW 6064   5.561   6.657   2.386
 1722SOL    HW1 6065   5.612   6.578   2.420
 1722SOL    HW2 6066   5.532   6.713   2.464
 1723SOL     OW 6067   6.674   1.690   2.302
 1723SOL    HW1 6068   6.732   1.755   2.253
 1723SOL    HW2 6069   6.580   1.697   2.269
 1724SOL     OW 6070   4.695   1.021   0.198
 1724SOL    HW1 6071   4.651   1.043   0.111
 1724SOL    HW2 6072   4.787   0.987   0.180
 1725SOL     OW 6073   3.790   4.250   1.361
 1725SOL    HW1 6074   3.765   4.261   1.457
 1725SOL    HW2 6075   3.723   4.298   1.303
 1726SOL     OW 6076   0.384   4.049   4.675
 1726SOL    HW1 6077   0.400   4.036   4.773
 1726SOL    HW2 6078   0.426   3.974   4.624
 1727SOL     OW 6079   3.917   3.887   4.968
 1727SOL    HW1 6080   3.870   3.803   4.997
 1727SOL    HW2 6081   3.857   3.939   4.906
 1728SOL     OW 6082   4.534   4.513   3.335
 1728SOL    HW1 6083   4.606   4.515   3.264
 1728SOL    HW2 6084   4.554   4.440   3.400
 1729SOL     OW 6085   1.925   3.483   2.846
 1729SOL    HW1 6086   2.002   3.427   2.814
 1729SOL    HW2 6087   1.861   3.497   2.771
 1730SOL     OW 6088   6.191   2.678   5.314
 1730SOL    HW1 6089   6.235   2.592   5.289
 1730SOL    HW2 6090   6.258   2.741   5.352
 1731SOL     OW 6091   1.878   5.314   0.686
 1731SOL    HW1 6092   1.926   5.341   0.769
 1731SOL    HW2 6093   1.793   5.267   0.710
 1732SOL     OW 6094   0.880   4.488   6.921
 1732SOL    HW1 6095   0.926   4.550   6.858
 1732SOL    HW2 6096   0.948   4.429   6.966
 1733SOL     OW 6097   1.693   3.232   1.054
 1733SOL    HW1 6098   1.682   3.133   1.042
 1733SOL    HW2 6099   1.605   3.273   1.080
 1734SOL     OW 6100   4.646   2.473   1.261
 1734SOL    HW1 6101   4.569   2.410   1.255
 1734SOL    HW2 6102   4.728   2.423   1.290
 1735SOL     OW 6103   5.998   5.355   1.366
 1735SOL    HW1 6104   6.044   5.286   1.311
 1735SOL    HW2 6105   6.046   5.368   1.453
 1736SOL     OW 6106   3.647   3.111   0.387
 1736SOL    HW1 6107   3.739   3.074   0.373
 1736SOL    HW2 6108   3.654   3.207   0.416
 1737SOL     OW 6109   2.007   6.768   3.662
 1737SOL    HW1 6110   1.912   6.761   3.693
 1737SOL    HW2 6111   2.068   6.767   3.742
 1738SOL     OW 6112   2.161   3.103   2.200
 1738SOL    HW1 6113   2.182   3.009   2.229
 1738SOL    HW2 6114   2.165   3.108   2.101
 1739SOL     OW 6115   4.596   1.893   5.160
 1739SOL    HW1 6116   4.566   1.824   5.093
 1739SOL    HW2 6117   4.692   1.915   5.145
 1740SOL     OW 6118   0.564   0.856   5.969
 1740SOL    HW1 6119   0.660   0.874   5.989
 1740SOL    HW2 6120   0.510   0.938   5.987
 1741SOL     OW 6121   1.171   0.140   2.596
 1741SOL    HW1 6122   1.209   0.174   2.682
 1741SOL    HW2 6123   1.181   0.209   2.525
 1742SOL     OW 6124   6.311   0.696   4.534
 1742SOL    HW1 6125   6.374   0.650   4.596
 1742SOL    HW2 6126   6.359   0.770   4.487
 1743SOL     OW 6127   3.719   1.455   1.485
 1743SOL    HW1 6128   3.678   1.453   1.577
 1743SOL    HW2 6129   3.786   1.529   1.481
 1744SOL     OW 6130   2.722   0.723   1.659
 1744SOL    HW1 6131   2.713   0.785   1.581
 1744SOL    HW2 6132   2.633   0.712   1.703
 1745SOL     OW 6133   6.768   2.235   2.895
 1745SOL    HW1 6134   6.787   2.287   2.811
 1745SOL    HW2 6135   6.810   2.145   2.888
 1746SOL     OW 6136   2.922   0.537   5.709
 1746SOL    HW1 6137   2.904   0.633   5.690
 1746SOL    HW2 6138   2.954   0.492   5.626
 1747SOL     OW 6139   3.274   0.378   2.177
 1747SOL    HW1 6140   3.327   0.301   2.141
 1747SOL    HW2 6141   3.297   0.461   2.127
 1748SOL     OW 6142   5.393   2.175   2.902
 1748SOL    HW1 6143   5.458   2.200   2.974
 1748SOL    HW2 6144   5.441   2.169   2.815
 1749SOL     OW 6145   4.275   6.859   6.181
 1749SOL    HW1 6146   4.205   6.920   6.145
 1749SOL    HW2 6147   4.316   6.900   6.263
 1750SOL     OW 6148   4.971   1.422   2.910
 1750SOL    HW1 6149   4.888   1.476   2.900
 1750SOL    HW2 6150   4.973   1.351   2.840
 1751SOL     OW 6151   1.525   5.326   3.980
 1751SOL    HW1 6152   1.537   5.331   3.880
 1751SOL    HW2 6153   1.587   5.392   4.024
 1752SOL     OW 6154   6.137   1.369   0.420
 1752SOL    HW1 6155   6.108   1.401   0.330
 1752SOL    HW2 6156   6.233   1.394   0.435
 1753SOL     OW 6157   1.210   0.240   1.519
 1753SOL    HW1 6158   1.138   0.258   1.453
 1753SOL    HW2 6159   1.171   0.238   1.611
 1754SOL     OW 6160   3.951   3.379   0.685
 1754SOL    HW1 6161   3.858   3.392   0.649
 1754SOL    HW2 6162   3.955   3.412   0.779
 1755SOL     OW 6163   5.350   4.206   0.918
 1755SOL    HW1 6164   5.348   4.137   0.847
 1755SOL    HW2 6165   5.302   4.288   0.887
 1756SOL     OW 6166   0.012   5.668   4.131
 1756SOL    HW1 6167   7.001   5.595   4.073
 1756SOL    HW2 6168   0.049   5.741   4.073
 1757SOL     OW 6169   3.326   6.563   4.587
 1757SOL    HW1 6170   3.261   6.624   4.632
 1757SOL    HW2 6171   3.284   6.472   4.578
 1758SOL     OW 6172   2.228   0.366   3.315
 1758SOL    HW1 6173   2.156   0.303   3.287
 1758SOL    HW2 6174   2.228   0.445   3.253
 1759SOL     OW 6175   0.703   5.509   6.347
 1759SOL    HW1 6176   0.671   5.486   6.439
 1759SOL    HW2 6177   0.632   5.561   6.299
 1760SOL     OW 6178   6.475   0.637   2.248
 1760SOL    HW1 6179   6.426   0.619   2.162
 1760SOL    HW2 6180   6.486   0.735   2.260
 1761SOL     OW 6181   6.096   1.242   1.035
 1761SOL    HW1 6182   6.186   1.206   1.057
 1761SOL    HW2 6183   6.106   1.329   0.986
 1762SOL     OW 6184   5.851   1.709   6.320
 1762SOL    HW1 6185   5.883   1.619   6.292
 1762SOL    HW2 6186   5.885   1.778   6.256
 1763SOL     OW 6187   1.609   3.899   4.145
 1763SOL    HW1 6188   1.510   3.899   4.159
 1763SOL    HW2 6189   1.649   3.983   4.182
 1764SOL     OW 6190   0.199   3.386   2.954
 1764SOL    HW1 6191   0.235   3.298   2.986
 1764SOL    HW2 6192   0.104   3.395   2.983
 1765SOL     OW 6193   2.695   2.374   6.751
 1765SOL    HW1 6194   2.668   2.363   6.655
 1765SOL    HW2 6195   2.693   2.471   6.775
 1766SOL     OW 6196   5.862   3.024   5.125
 1766SOL    HW1 6197   5.814   3.048   5.209
 1766SOL    HW2 6198   5.951   2.983   5.148
 1767SOL     OW 6199   5.553   3.487   2.149
 1767SOL    HW1 6200   5.570   3.580   2.117
 1767SOL    HW2 6201   5.640   3.442   2.168
 1768SOL     OW 6202   4.784   6.347   3.657
 1768SOL    HW1 6203   4.689   6.320   3.671
 1768SOL    HW2 6204   4.789   6.447   3.652
 1769SOL     OW 6205   3.596   1.828   2.542
 1769SOL    HW1 6206   3.592   1.741   2.592
 1769SOL    HW2 6207   3.503   1.864   2.530
 1770SOL     OW 6208   2.873   5.912   5.550
 1770SOL    HW1 6209   2.801   5.957   5.603
 1770SOL    HW2 6210   2.919   5.979   5.493
 1771SOL     OW 6211   3.523   5.560   6.577
 1771SOL    HW1 6212   3.623   5.559   6.565
 1771SOL    HW2 6213   3.480   5.526   6.493
 1772SOL     OW 6214   2.885   6.959   2.987
 1772SOL    HW1 6215   2.944   6.996   2.915
 1772SOL    HW2 6216   2.941   6.915   3.057
 1773SOL     OW 6217   1.503   5.298   6.269
 1773SOL    HW1 6218   1.454   5.218   6.236
 1773SOL    HW2 6219   1.567   5.270   6.340
 1774SOL     OW 6220   4.368   5.599   1.252
 1774SOL    HW1 6221   4.359   5.575   1.349
 1774SOL    HW2 6222   4.391   5.695   1.242
 1775SOL     OW 6223   1.087   3.855   2.261
 1775SOL    HW1 6224   1.060   3.943   2.222
 1775SOL    HW2 6225   1.096   3.788   2.187
 1776SOL     OW 6226   4.157   6.176   4.680
 1776SOL    HW1 6227   4.179   6.080   4.663
 1776SOL    HW2 6228   4.172   6.197   4.776
 1777SOL     OW 6229   4.296   5.943   0.514
 1777SOL    HW1 6230   4.256   5.920   0.602
 1777SOL    HW2 6231   4.227   5.983   0.454
 1778SOL     OW 6232   4.782   3.388   6.123
 1778SOL    HW1 6233   4.685   3.383   6.147
 1778SOL    HW2 6234   4.817   3.479   6.146
 1779SOL     OW 6235   3.758   1.027   4.967
 1779SOL    HW1 6236   3.737   0.929   4.966
 1779SOL    HW2 6237   3.820   1.046   5.043
 1780SOL     OW 6238   3.042   3.006   6.503
 1780SOL    HW1 6239   3.058   2.984   6.407
 1780SOL    HW2 6240   2.957   2.963   6.534
 1781SOL     OW 6241   4.431   5.465   2.872
 1781SOL    HW1 6242   4.482   5.380   2.886
 1781SOL    HW2 6243   4.495   5.542   2.873
 1782SOL     OW 6244   2.826   1.115   3.366
 1782SOL    HW1 6245   2.901   1.174   3.334
 1782SOL    HW2 6246   2.839   1.095   3.463
 1783SOL     OW 6247   2.731   5.294   6.136
 1783SOL    HW1 6248   2.676   5.296   6.053
 1783SOL    HW2 6249   2.713   5.377   6.190
 1784SOL     OW 6250   3.432   0.190   6.429
 1784SOL    HW1 6251   3.336   0.179   6.452
 1784SOL    HW2 6252   3.474   0.256   6.491
 1785SOL     OW 6253   5.981   3.274   2.560
 1785SOL    HW1 6254   5.913   3.347   2.550
 1785SOL    HW2 6255   6.058   3.307   2.615
 1786SOL     OW 6256   2.145   2.772   0.326
 1786SOL    HW1 6257   2.067   2.778   0.264
 1786SOL    HW2 6258   2.113   2.753   0.419
 1787SOL     OW 6259   3.199   1.493   5.678
 1787SOL    HW1 6260   3.199   1.558   5.753
 1787SOL    HW2 6261   3.121   1.511   5.618
 1788SOL     OW 6262   1.807   5.184   5.473
 1788SOL    HW1 6263   1.850   5.259   5.423
 1788SOL    HW2 6264   1.823   5.196   5.571
 1789SOL     OW 6265   5.537   1.850   0.255
 1789SOL    HW1 6266   5.544   1.868   0.353
 1789SOL    HW2 6267   5.542   1.751   0.239
 1790SOL     OW 6268   4.106   6.547   3.494
 1790SOL    HW1 6269   4.127   6.624   3.553
 1790SOL    HW2 6270   4.049   6.578   3.417
 1791SOL     OW 6271   6.963   0.408   2.639
 1791SOL    HW1 6272   6.897   0.389   2.712
 1791SOL    HW2 6273   7.022   0.328   2.627
 1792SOL     OW 6274   0.985   4.018   5.319
 1792SOL    HW1 6275   0.937   3.952   5.260
 1792SOL    HW2 6276   1.083   4.013   5.302
 1793SOL     OW 6277   6.654   0.683   3.414
 1793SOL    HW1 6278   6.717   0.619   3.458
 1793SOL    HW2 6279   6.673   0.689   3.316
 1794SOL     OW 6280   5.004   5.854   5.929
 1794SOL    HW1 6281   4.937   5.782   5.914
 1794SOL    HW2 6282   4.958   5.936   5.962
 1795SOL     OW 6283   6.989   2.599   0.628
 1795SOL    HW1 6284   6.998   2.525   0.695
 1795SOL    HW2 6285   6.892   2.618   0.613
 1796SOL     OW 6286   1.942   0.753   5.615
 1796SOL    HW1 6287   1.928   0.829   5.552
 1796SOL    HW2 6288   2.040   0.743   5.634
 1797SOL     OW 6289   1.002   6.627   0.640
 1797SOL    HW1 6290   1.046   6.712   0.669
 1797SOL    HW2 6291   1.027   6.554   0.703
 1798SOL     OW 6292   4.808   2.465   3.759
 1798SOL    HW1 6293   4.769   2.556   3.764
 1798SOL    HW2 6294   4.901   2.466   3.794
 1799SOL     OW 6295   0.096   2.174   5.697
 1799SOL    HW1 6296   0.145   2.244   5.750
 1799SOL    HW2 6297   0.138   2.164   5.608
 1800SOL     OW 6298   4.021   4.584   1.378
 1800SOL    HW1 6299   4.042   4.501   1.326
 1800SOL    HW2 6300   4.098   4.606   1.438
 1801SOL     OW 6301   6.792   0.666   2.149
 1801SOL    HW1 6302   6.714   0.728   2.158
 1801SOL    HW2 6303   6.830   0.646   2.239
 1802SOL     OW 6304   6.675   5.701   4.257
 1802SOL    HW1 6305   6.672   5.601   4.250
 1802SOL    HW2 6306   6.709   5.728   4.347
 1803SOL     OW 6307   6.874   5.599   0.172
 1803SOL    HW1 6308   6.941   5.525   0.180
 1803SOL    HW2 6309   6.923   5.685   0.154
 1804SOL     OW 6310   3.454   3.969   5.384
 1804SOL    HW1 6311   3.524   4.040   5.395
 1804SOL    HW2 6312   3.401   3.988   5.301
 1805SOL     OW 6313   5.111   3.916   6.191
 1805SOL    HW1 6314   5.019   3.950   6.170
 1805SOL    HW2 6315   5.154   3.884   6.107
 1806SOL     OW 6316   1.488   0.124   1.476
 1806SOL    HW1 6317   1.462   0.080   1.390
 1806SOL    HW2 6318   1.408   0.130   1.536
 1807SOL     OW 6319   6.477   1.792   4.939
 1807SOL    HW1 6320   6.440   1.750   4.856
 1807SOL    HW2 6321   6.536   1.726   4.986
 1808SOL     OW 6322   0.238   5.180   4.805
 1808SOL    HW1 6323   0.153   5.221   4.774
 1808SOL    HW2 6324   0.308   5.188   4.734
 1809SOL     OW 6325   2.888   1.888   5.913
 1809SOL    HW1 6326   2.976   1.903   5.958
 1809SOL    HW2 6327   2.886   1.938   5.827
 1810SOL     OW 6328   3.098   6.599   3.555
 1810SOL    HW1 6329   3.177   6.651   3.588
 1810SOL    HW2 6330   3.066   6.638   3.469
 1811SOL     OW 6331   5.765   5.378   3.092
 1811SOL    HW1 6332   5.863   5.367   3.109
 1811SOL    HW2 6333   5.715   5.372   3.178
 1812SOL     OW 6334   4.512   5.518   5.221
 1812SOL    HW1 6335   4.491   5.450   5.151
 1812SOL    HW2 6336   4.473   5.489   5.308
 1813SOL     OW 6337   5.699   4.205   0.126
 1813SOL    HW1 6338   5.714   4.196   0.225
 1813SOL    HW2 6339   5.787   4.222   0.081
 1814SOL     OW 6340   4.629   7.011   2.393
 1814SOL    HW1 6341   4.607   0.082   2.372
 1814SOL    HW2 6342   4.563   6.976   2.459
 1815SOL     OW 6343   0.200   1.276   3.528
 1815SOL    HW1 6344   0.125   1.227   3.483
 1815SOL    HW2 6345   0.188   1.271   3.627
 1816SOL     OW 6346   1.853   3.240   0.722
 1816SOL    HW1 6347   1.884   3.244   0.627
 1816SOL    HW2 6348   1.753   3.241   0.725
 1817SOL     OW 6349   1.778   5.954   2.559
 1817SOL    HW1 6350   1.772   5.977   2.462
 1817SOL    HW2 6351   1.871   5.969   2.591
 1818SOL     OW 6352   1.724   0.216   2.938
 1818SOL    HW1 6353   1.672   0.179   2.861
 1818SOL    HW2 6354   1.673   0.290   2.981
 1819SOL     OW 6355   1.194   3.919   1.567
 1819SOL    HW1 6356   1.196   3.889   1.663
 1819SOL    HW2 6357   1.232   4.011   1.561
 1820SOL     OW 6358   4.595   0.833   2.485
 1820SOL    HW1 6359   4.692   0.838   2.461
 1820SOL    HW2 6360   4.561   0.924   2.508
 1821SOL     OW 6361   2.085   1.192   2.776
 1821SOL    HW1 6362   2.038   1.278   2.799
 1821SOL    HW2 6363   2.083   1.178   2.677
 1822SOL     OW 6364   3.325   2.687   1.646
 1822SOL    HW1 6365   3.235   2.679   1.688
 1822SOL    HW2 6366   3.345   2.604   1.594
 1823SOL     OW 6367   4.691   6.594   2.701
 1823SOL    HW1 6368   4.618   6.661   2.718
 1823SOL    HW2 6369   4.651   6.513   2.657
 1824SOL     OW 6370   4.500   2.629   1.436
 1824SOL    HW1 6371   4.452   2.691   1.374
 1824SOL    HW2 6372   4.553   2.563   1.382
 1825SOL     OW 6373   0.813   0.564   1.434
 1825SOL    HW1 6374   0.913   0.565   1.446
 1825SOL    HW2 6375   0.775   0.649   1.468
 1826SOL     OW 6376   3.272   0.409   0.681
 1826SOL    HW1 6377   3.245   0.497   0.640
 1826SOL    HW2 6378   3.204   0.382   0.748
 1827SOL     OW 6379   6.734   5.469   1.812
 1827SOL    HW1 6380   6.767   5.380   1.779
 1827SOL    HW2 6381   6.812   5.525   1.839
 1828SOL     OW 6382   0.770   2.802   6.693
 1828SOL    HW1 6383   0.861   2.820   6.656
 1828SOL    HW2 6384   0.734   2.717   6.654
 1829SOL     OW 6385   4.937   5.848   3.183
 1829SOL    HW1 6386   4.896   5.878   3.269
 1829SOL    HW2 6387   5.016   5.790   3.201
 1830SOL     OW 6388   4.469   6.345   3.484
 1830SOL    HW1 6389   4.545   6.286   3.456
 1830SOL    HW2 6390   4.385   6.316   3.438
 1831SOL     OW 6391   5.342   6.275   1.721
 1831SOL    HW1 6392   5.410   6.305   1.787
 1831SOL    HW2 6393   5.375   6.192   1.675
 1832SOL     OW 6394   4.723   2.588   1.007
 1832SOL    HW1 6395   4.689   2.566   1.098
 1832SOL    HW2 6396   4.805   2.534   0.988
 1833SOL     OW 6397   5.276   0.432   4.907
 1833SOL    HW1 6398   5.245   0.476   4.992
 1833SOL    HW2 6399   5.279   0.333   4.920
 1834SOL     OW 6400   3.649   3.412   0.909
 1834SOL    HW1 6401   3.698   3.377   0.988
 1834SOL    HW2 6402   3.551   3.405   0.924
 1835SOL     OW 6403   1.589   5.031   0.896
 1835SOL    HW1 6404   1.664   4.967   0.909
 1835SOL    HW2 6405   1.620   5.108   0.841
 1836SOL     OW 6406   0.592   0.356   0.296
 1836SOL    HW1 6407   0.597   0.410   0.380
 1836SOL    HW2 6408   0.659   0.282   0.299
 1837SOL     OW 6409   0.747   2.539   4.574
 1837SOL    HW1 6410   0.805   2.521   4.654
 1837SOL    HW2 6411   0.803   2.540   4.492
 1838SOL     OW 6412   0.154   3.063   4.264
 1838SOL    HW1 6413   0.201   3.060   4.352
 1838SOL    HW2 6414   0.124   3.157   4.246
 1839SOL     OW 6415   6.338   3.057   5.241
 1839SOL    HW1 6416   6.424   3.088   5.200
 1839SOL    HW2 6417   6.352   2.968   5.284
 1840SOL     OW 6418   2.663   6.125   0.697
 1840SOL    HW1 6419   2.646   6.078   0.784
 1840SOL    HW2 6420   2.731   6.074   0.644
 1841SOL     OW 6421   2.127   3.161   3.850
 1841SOL    HW1 6422   2.149   3.171   3.948
 1841SOL    HW2 6423   2.126   3.251   3.807
 1842SOL     OW 6424   0.593   4.276   1.065
 1842SOL    HW1 6425   0.598   4.201   0.999
 1842SOL    HW2 6426   0.659   4.261   1.139
 1843SOL     OW 6427   2.445   1.424   5.418
 1843SOL    HW1 6428   2.385   1.423   5.498
 1843SOL    HW2 6429   2.462   1.519   5.391
 1844SOL     OW 6430   4.068   2.225   4.124
 1844SOL    HW1 6431   4.005   2.149   4.106
 1844SOL    HW2 6432   4.120   2.245   4.041
 1845SOL     OW 6433   3.823   0.146   0.300
 1845SOL    HW1 6434   3.907   0.116   0.253
 1845SOL    HW2 6435   3.818   0.246   0.300
 1846SOL     OW 6436   3.128   2.148   6.385
 1846SOL    HW1 6437   3.117   2.074   6.451
 1846SOL    HW2 6438   3.039   2.170   6.345
 1847SOL     OW 6439   0.922   0.049   1.190
 1847SOL    HW1 6440   0.910   0.138   1.233
 1847SOL    HW2 6441   1.009   0.047   1.140
 1848SOL     OW 6442   3.306   6.531   1.893
 1848SOL    HW1 6443   3.353   6.613   1.861
 1848SOL    HW2 6444   3.370   6.475   1.946
 1849SOL     OW 6445   3.254   1.662   7.013
 1849SOL    HW1 6446   3.154   1.667   7.014
 1849SOL    HW2 6447   3.291   1.735   0.046
 1850SOL     OW 6448   6.228   2.318   2.761
 1850SOL    HW1 6449   6.298   2.343   2.695
 1850SOL    HW2 6450   6.214   2.219   2.760
 1851SOL     OW 6451   0.281   2.089   2.563
 1851SOL    HW1 6452   0.375   2.121   2.577
 1851SOL    HW2 6453   0.226   2.164   2.526
 1852SOL     OW 6454   4.077   2.959   0.374
 1852SOL    HW1 6455   4.134   2.990   0.297
 1852SOL    HW2 6456   4.093   3.018   0.453
 1853SOL     OW 6457   0.684   3.929   1.226
 1853SOL    HW1 6458   0.588   3.922   1.254
 1853SOL    HW2 6459   0.731   3.844   1.249
 1854SOL     OW 6460   2.950   5.922   4.656
 1854SOL    HW1 6461   2.938   5.839   4.710
 1854SOL    HW2 6462   2.915   5.907   4.564
 1855SOL     OW 6463   5.123   5.382   0.706
 1855SOL    HW1 6464   5.136   5.480   0.723
 1855SOL    HW2 6465   5.074   5.370   0.619
 1856SOL     OW 6466   5.367   2.510   5.017
 1856SOL    HW1 6467   5.268   2.508   5.003
 1856SOL    HW2 6468   5.410   2.450   4.950
 1857SOL     OW 6469   4.029   0.834   4.180
 1857SOL    HW1 6470   4.084   0.776   4.120
 1857SOL    HW2 6471   4.045   0.808   4.275
 1858SOL     OW 6472   5.374   2.842   4.050
 1858SOL    HW1 6473   5.310   2.862   3.975
 1858SOL    HW2 6474   5.456   2.800   4.012
 1859SOL     OW 6475   4.349   2.219   3.386
 1859SOL    HW1 6476   4.283   2.256   3.450
 1859SOL    HW2 6477   4.393   2.294   3.336
 1860SOL     OW 6478   6.138   1.021   4.464
 1860SOL    HW1 6479   6.098   0.930   4.469
 1860SOL    HW2 6480   6.087   1.083   4.524
 1861SOL     OW 6481   5.288   6.412   2.756
 1861SOL    HW1 6482   5.299   6.480   2.829
 1861SOL    HW2 6483   5.375   6.368   2.739
 1862SOL     OW 6484   1.839   1.056   6.947
 1862SOL    HW1 6485   1.755   1.006   6.927
 1862SOL    HW2 6486   1.893   1.007   7.015
 1863SOL     OW 6487   2.874   2.582   1.282
 1863SOL    HW1 6488   2.796   2.622   1.234
 1863SOL    HW2 6489   2.956   2.635   1.264
 1864SOL     OW 6490   0.903   6.388   4.701
 1864SOL    HW1 6491   0.968   6.335   4.755
 1864SOL    HW2 6492   0.945   6.473   4.669
 1865SOL     OW 6493   4.128   1.959   5.940
 1865SOL    HW1 6494   4.044   1.962   5.994
 1865SOL    HW2 6495   4.121   1.885   5.872
 1866SOL     OW 6496   4.595   4.373   2.254
 1866SOL    HW1 6497   4.589   4.349   2.158
 1866SOL    HW2 6498   4.644   4.301   2.304
 1867SOL     OW 6499   6.952   4.007   6.961
 1867SOL    HW1 6500   6.989   3.919   6.989
 1867SOL    HW2 6501   7.024   4.060   6.915
 1868SOL     OW 6502   6.091   4.525   6.198
 1868SOL    HW1 6503   6.097   4.465   6.118
 1868SOL    HW2 6504   6.067   4.617   6.168
 1869SOL     OW 6505   6.470   1.344   5.251
 1869SOL    HW1 6506   6.466   1.343   5.151
 1869SOL    HW2 6507   6.507   1.257   5.284
 1870SOL     OW 6508   1.940   5.332   4.643
 1870SOL    HW1 6509   1.891   5.325   4.556
 1870SOL    HW2 6510   1.881   5.373   4.712
 1871SOL     OW 6511   1.989   0.026   0.551
 1871SOL    HW1 6512   1.941   0.025   0.638
 1871SOL    HW2 6513   2.085   0.001   0.565
 1872SOL     OW 6514   2.222   4.365   0.687
 1872SOL    HW1 6515   2.319   4.388   0.692
 1872SOL    HW2 6516   2.213   4.265   0.682
 1873SOL     OW 6517   4.096   1.100   6.186
 1873SOL    HW1 6518   4.106   1.195   6.157
 1873SOL    HW2 6519   4.000   1.073   6.179
 1874SOL     OW 6520   1.785   1.754   2.037
 1874SOL    HW1 6521   1.774   1.710   2.127
 1874SOL    HW2 6522   1.700   1.800   2.013
 1875SOL     OW 6523   0.134   6.874   6.410
 1875SOL    HW1 6524   0.132   6.774   6.408
 1875SOL    HW2 6525   0.209   6.905   6.468
 1876SOL     OW 6526   2.905   0.059   4.523
 1876SOL    HW1 6527   2.884   0.012   4.438
 1876SOL    HW2 6528   2.838   0.032   4.593
 1877SOL     OW 6529   0.883   0.385   3.804
 1877SOL    HW1 6530   0.917   0.425   3.889
 1877SOL    HW2 6531   0.952   0.323   3.767
 1878SOL     OW 6532   6.560   2.238   4.257
 1878SOL    HW1 6533   6.463   2.257   4.243
 1878SOL    HW2 6534   6.602   2.216   4.168
 1879SOL     OW 6535   0.793   4.039   4.981
 1879SOL    HW1 6536   0.706   4.014   5.024
 1879SOL    HW2 6537   0.838   4.109   5.037
 1880SOL     OW 6538   6.738   1.680   5.139
 1880SOL    HW1 6539   6.672   1.754   5.150
 1880SOL    HW2 6540   6.698   1.609   5.080
 1881SOL     OW 6541   6.190   2.106   0.190
 1881SOL    HW1 6542   6.125   2.176   0.220
 1881SOL    HW2 6543   6.224   2.129   0.099
 1882SOL     OW 6544   1.089   4.417   5.990
 1882SOL    HW1 6545   0.994   4.388   5.974
 1882SOL    HW2 6546   1.143   4.338   6.018
 1883SOL     OW 6547   0.003   2.685   3.024
 1883SOL    HW1 6548   0.022   2.687   3.122
 1883SOL    HW2 6549   6.973   2.604   3.003
 1884SOL     OW 6550   0.136   2.115   1.521
 1884SOL    HW1 6551   0.175   2.032   1.560
 1884SOL    HW2 6552   0.208   2.170   1.479
 1885SOL     OW 6553   2.385   1.741   5.512
 1885SOL    HW1 6554   2.392   1.772   5.607
 1885SOL    HW2 6555   2.356   1.817   5.454
 1886SOL     OW 6556   1.076   6.874   3.283
 1886SOL    HW1 6557   1.003   6.939   3.304
 1886SOL    HW2 6558   1.096   6.819   3.364
 1887SOL     OW 6559   1.347   6.221   6.219
 1887SOL    HW1 6560   1.362   6.137   6.166
 1887SOL    HW2 6561   1.275   6.205   6.286
 1888SOL     OW 6562   2.658   1.335   1.150
 1888SOL    HW1 6563   2.750   1.375   1.151
 1888SOL    HW2 6564   2.590   1.409   1.148
 1889SOL     OW 6565   1.382   3.595   3.292
 1889SOL    HW1 6566   1.416   3.604   3.385
 1889SOL    HW2 6567   1.441   3.533   3.240
 1890SOL     OW 6568   1.075   5.888   3.756
 1890SOL    HW1 6569   1.007   5.852   3.821
 1890SOL    HW2 6570   1.127   5.812   3.719
 1891SOL     OW 6571   4.059   3.795   2.780
 1891SOL    HW1 6572   4.046   3.697   2.795
 1891SOL    HW2 6573   4.118   3.810   2.701
 1892SOL     OW 6574   6.926   0.188   1.720
 1892SOL    HW1 6575   6.902   0.199   1.624
 1892SOL    HW2 6576   6.950   0.092   1.738
 1893SOL     OW 6577   3.533   3.572   3.288
 1893SOL    HW1 6578   3.578   3.547   3.202
 1893SOL    HW2 6579   3.519   3.671   3.290
 1894SOL     OW 6580   3.576   3.633   4.180
 1894SOL    HW1 6581   3.613   3.714   4.135
 1894SOL    HW2 6582   3.490   3.607   4.137
 1895SOL     OW 6583   4.476   0.236   0.207
 1895SOL    HW1 6584   4.484   0.324   0.253
 1895SOL    HW2 6585   4.504   0.245   0.111
 1896SOL     OW 6586   5.114   1.688   0.941
 1896SOL    HW1 6587   5.081   1.669   0.849
 1896SOL    HW2 6588   5.047   1.744   0.990
 1897SOL     OW 6589   2.407   4.916   3.467
 1897SOL    HW1 6590   2.405   4.900   3.565
 1897SOL    HW2 6591   2.392   4.830   3.418
 1898SOL     OW 6592   1.591   5.710   3.115
 1898SOL    HW1 6593   1.627   5.746   3.202
 1898SOL    HW2 6594   1.667   5.688   3.055
 1899SOL     OW 6595   0.118   0.340   1.814
 1899SOL    HW1 6596   0.078   0.252   1.787
 1899SOL    HW2 6597   0.104   0.353   1.913
 1900SOL     OW 6598   2.936   0.328   0.096
 1900SOL    HW1 6599   2.971   0.238   0.122
 1900SOL    HW2 6600   2.997   0.398   0.130
 1901SOL     OW 6601   2.949   3.788   1.196
 1901SOL    HW1 6602   2.954   3.860   1.265
 1901SOL    HW2 6603   2.860   3.790   1.152
 1902SOL     OW 6604   1.776   6.613   4.881
 1902SOL    HW1 6605   1.708   6.540   4.875
 1902SOL    HW2 6606   1.858   6.586   4.830
 1903SOL     OW 6607   0.904   2.874   4.099
 1903SOL    HW1 6608   0.920   2.968   4.068
 1903SOL    HW2 6609   0.985   2.840   4.146
 1904SOL     OW 6610   5.469   5.642   2.715
 1904SOL    HW1 6611   5.474   5.545   2.690
 1904SOL    HW2 6612   5.457   5.697   2.632
 1905SOL     OW 6613   0.582   0.683   3.874
 1905SOL    HW1 6614   0.647   0.760   3.876
 1905SOL    HW2 6615   0.513   0.701   3.803
 1906SOL     OW 6616   2.889   0.148   5.765
 1906SOL    HW1 6617   2.855   0.230   5.812
 1906SOL    HW2 6618   2.900   0.167   5.668
 1907SOL     OW 6619   4.809   2.841   6.964
 1907SOL    HW1 6620   4.898   2.835   6.919
 1907SOL    HW2 6621   4.792   2.757   7.016
 1908SOL     OW 6622   3.487   0.828   1.049
 1908SOL    HW1 6623   3.584   0.825   1.024
 1908SOL    HW2 6624   3.433   0.782   0.979
 1909SOL     OW 6625   7.001   4.621   5.250
 1909SOL    HW1 6626   0.048   4.681   5.284
 1909SOL    HW2 6627   0.016   4.534   5.221
 1910SOL     OW 6628   6.580   6.191   6.129
 1910SOL    HW1 6629   6.519   6.127   6.177
 1910SOL    HW2 6630   6.654   6.218   6.189
 1911SOL     OW 6631   0.082   5.173   4.395
 1911SOL    HW1 6632   0.063   5.093   4.451
 1911SOL    HW2 6633   0.152   5.150   4.327
 1912SOL     OW 6634   2.496   5.015   2.972
 1912SOL    HW1 6635   2.556   5.020   2.892
 1912SOL    HW2 6636   2.439   4.933   2.965
 1913SOL     OW 6637   2.629   4.711   5.113
 1913SOL    HW1 6638   2.719   4.674   5.090
 1913SOL    HW2 6639   2.609   4.692   5.209
 1914SOL     OW 6640   2.582   4.327   6.047
 1914SOL    HW1 6641   2.538   4.315   6.137
 1914SOL    HW2 6642   2.533   4.396   5.995
 1915SOL     OW 6643   5.191   2.599   5.972
 1915SOL    HW1 6644   5.288   2.623   5.981
 1915SOL    HW2 6645   5.148   2.601   6.063
 1916SOL     OW 6646   4.124   0.216   1.979
 1916SOL    HW1 6647   4.145   0.302   2.026
 1916SOL    HW2 6648   4.201   0.153   1.989
 1917SOL     OW 6649   2.421   4.356   1.299
 1917SOL    HW1 6650   2.484   4.423   1.339
 1917SOL    HW2 6651   2.360   4.402   1.235
 1918SOL     OW 6652   6.948   1.658   4.432
 1918SOL    HW1 6653   7.002   1.739   4.409
 1918SOL    HW2 6654   6.966   1.586   4.365
 1919SOL     OW 6655   1.022   1.929   0.984
 1919SOL    HW1 6656   0.922   1.929   0.983
 1919SOL    HW2 6657   1.054   1.970   1.069
 1920SOL     OW 6658   5.195   2.329   0.941
 1920SOL    HW1 6659   5.282   2.378   0.948
 1920SOL    HW2 6660   5.211   2.235   0.913
 1921SOL     OW 6661   2.006   3.082   6.883
 1921SOL    HW1 6662   2.077   3.104   6.816
 1921SOL    HW2 6663   1.922   3.057   6.835
 1922SOL     OW 6664   2.930   3.549   2.246
 1922SOL    HW1 6665   2.897   3.526   2.337
 1922SOL    HW2 6666   2.877   3.500   2.177
 1923SOL     OW 6667   4.433   0.476   5.221
 1923SOL    HW1 6668   4.344   0.438   5.195
 1923SOL    HW2 6669   4.506   0.413   5.194
 1924SOL     OW 6670   4.689   7.007   0.961
 1924SOL    HW1 6671   4.676   0.001   0.863
 1924SOL    HW2 6672   4.754   6.932   0.972
 1925SOL     OW 6673   1.011   4.159   0.973
 1925SOL    HW1 6674   0.937   4.178   1.037
 1925SOL    HW2 6675   1.082   4.105   1.018
 1926SOL     OW 6676   3.498   6.854   2.345
 1926SOL    HW1 6677   3.452   6.800   2.274
 1926SOL    HW2 6678   3.468   6.822   2.435
 1927SOL     OW 6679   2.002   5.077   1.358
 1927SOL    HW1 6680   1.921   5.082   1.416
 1927SOL    HW2 6681   2.041   4.985   1.364
 1928SOL     OW 6682   4.747   4.132   2.995
 1928SOL    HW1 6683   4.746   4.068   2.918
 1928SOL    HW2 6684   4.768   4.224   2.960
 1929SOL     OW 6685   2.875   0.738   2.970
 1929SOL    HW1 6686   2.838   0.817   3.018
 1929SOL    HW2 6687   2.800   0.678   2.941
 1930SOL     OW 6688   4.560   2.765   6.706
 1930SOL    HW1 6689   4.536   2.685   6.762
 1930SOL    HW2 6690   4.620   2.738   6.632
 1931SOL     OW 6691   1.011   1.311   4.975
 1931SOL    HW1 6692   1.033   1.378   4.904
 1931SOL    HW2 6693   0.957   1.237   4.935
 1932SOL     OW 6694   4.624   2.627   2.702
 1932SOL    HW1 6695   4.666   2.664   2.619
 1932SOL    HW2 6696   4.651   2.531   2.714
 1933SOL     OW 6697   0.969   1.285   0.983
 1933SOL    HW1 6698   0.960   1.240   1.071
 1933SOL    HW2 6699   0.931   1.377   0.987
 1934SOL     OW 6700   0.383   0.096   5.910
 1934SOL    HW1 6701   0.371   0.006   5.866
 1934SOL    HW2 6702   0.436   0.084   5.994
 1935SOL     OW 6703   6.723   4.909   4.281
 1935SOL    HW1 6704   6.674   4.832   4.240
 1935SOL    HW2 6705   6.808   4.925   4.232
 1936SOL     OW 6706   4.801   3.040   5.007
 1936SOL    HW1 6707   4.786   2.975   5.081
 1936SOL    HW2 6708   4.778   2.996   4.920
 1937SOL     OW 6709   5.099   5.226   6.971
 1937SOL    HW1 6710   5.070   5.139   7.011
 1937SOL    HW2 6711   5.195   5.219   6.944
 1938SOL     OW 6712   0.877   2.746   6.285
 1938SOL    HW1 6713   0.896   2.653   6.254
 1938SOL    HW2 6714   0.781   2.768   6.267
 1939SOL     OW 6715   1.271   7.025   4.967
 1939SOL    HW1 6716   1.330   6.975   5.030
 1939SOL    HW2 6717   1.309   7.019   4.874
 1940SOL     OW 6718   6.490   4.771   1.352
 1940SOL    HW1 6719   6.433   4.842   1.394
 1940SOL    HW2 6720   6.480   4.775   1.252
 1941SOL     OW 6721   0.317   2.749   4.101
 1941SOL    HW1 6722   0.248   2.813   4.137
 1941SOL    HW2 6723   0.397   2.800   4.071
 1942SOL     OW 6724   5.757   3.442   2.575
 1942SOL    HW1 6725   5.770   3.425   2.672
 1942SOL    HW2 6726   5.752   3.541   2.558
 1943SOL     OW 6727   0.985   1.296   2.821
 1943SOL    HW1 6728   0.905   1.334   2.774
 1943SOL    HW2 6729   1.029   1.367   2.875
 1944SOL     OW 6730   6.616   2.247   1.950
 1944SOL    HW1 6731   6.678   2.206   1.883
 1944SOL    HW2 6732   6.533   2.279   1.904
 1945SOL     OW 6733   4.680   0.371   1.964
 1945SOL    HW1 6734   4.673   0.281   2.009
 1945SOL    HW2 6735   4.590   0.415   1.966
 1946SOL     OW 6736   5.853   5.708   1.750
 1946SOL    HW1 6737   5.950   5.721   1.771
 1946SOL    HW2 6738   5.841   5.710   1.651
 1947SOL     OW 6739   6.239   4.684   4.192
 1947SOL    HW1 6740   6.245   4.750   4.117
 1947SOL    HW2 6741   6.163   4.709   4.252
 1948SOL     OW 6742   4.899   3.540   3.254
 1948SOL    HW1 6743   4.875   3.636   3.242
 1948SOL    HW2 6744   4.977   3.533   3.316
 1949SOL     OW 6745   3.540   5.116   6.687
 1949SOL    HW1 6746   3.526   5.020   6.712
 1949SOL    HW2 6747   3.475   5.141   6.615
 1950SOL     OW 6748   3.331   4.145   4.334
 1950SOL    HW1 6749   3.243   4.141   4.382
 1950SOL    HW2 6750   3.382   4.060   4.350
 1951SOL     OW 6751   6.356   4.431   5.841
 1951SOL    HW1 6752   6.438   4.473   5.804
 1951SOL    HW2 6753   6.329   4.353   5.785
 1952SOL     OW 6754   5.620   4.644   6.867
 1952SOL    HW1 6755   5.678   4.593   6.803
 1952SOL    HW2 6756   5.647   4.624   6.961
 1953SOL     OW 6757   0.645   1.486   6.675
 1953SOL    HW1 6758   0.695   1.407   6.638
 1953SOL    HW2 6759   0.549   1.461   6.687
 1954SOL     OW 6760   4.363   0.106   2.015
 1954SOL    HW1 6761   4.444   0.136   2.066
 1954SOL    HW2 6762   4.368   0.007   2.002
 1955SOL     OW 6763   1.024   1.690   2.443
 1955SOL    HW1 6764   1.036   1.678   2.542
 1955SOL    HW2 6765   1.113   1.694   2.399
 1956SOL     OW 6766   5.669   0.241   2.074
 1956SOL    HW1 6767   5.698   0.325   2.028
 1956SOL    HW2 6768   5.653   0.260   2.171
 1957SOL     OW 6769   5.283   1.941   4.183
 1957SOL    HW1 6770   5.289   1.924   4.085
 1957SOL    HW2 6771   5.346   2.015   4.209
 1958SOL     OW 6772   4.522   1.844   1.403
 1958SOL    HW1 6773   4.426   1.873   1.402
 1958SOL    HW2 6774   4.562   1.864   1.492
 1959SOL     OW 6775   0.540   0.530   4.561
 1959SOL    HW1 6776   0.532   0.466   4.637
 1959SOL    HW2 6777   0.458   0.526   4.505
 1960SOL     OW 6778   6.007   4.407   3.523
 1960SOL    HW1 6779   5.996   4.345   3.445
 1960SOL    HW2 6780   5.996   4.501   3.492
 1961SOL     OW 6781   6.447   3.783   4.883
 1961SOL    HW1 6782   6.358   3.828   4.873
 1961SOL    HW2 6783   6.517   3.851   4.907
 1962SOL     OW 6784   0.586   0.191   2.756
 1962SOL    HW1 6785   0.639   0.187   2.672
 1962SOL    HW2 6786   0.625   0.259   2.818
 1963SOL     OW 6787   0.668   1.916   1.941
 1963SOL    HW1 6788   0.701   1.973   1.866
 1963SOL    HW2 6789   0.743   1.901   2.006
 1964SOL     OW 6790   5.288   4.420   1.339
 1964SOL    HW1 6791   5.298   4.341   1.279
 1964SOL    HW2 6792   5.377   4.464   1.350
 1965SOL     OW 6793   0.532   4.906   4.212
 1965SOL    HW1 6794   0.536   4.973   4.287
 1965SOL    HW2 6795   0.580   4.823   4.240
 1966SOL     OW 6796   1.412   4.695   6.961
 1966SOL    HW1 6797   1.328   4.669   6.912
 1966SOL    HW2 6798   1.396   4.779   7.012
 1967SOL     OW 6799   5.524   3.040   3.480
 1967SOL    HW1 6800   5.608   3.094   3.485
 1967SOL    HW2 6801   5.485   3.047   3.389
 1968SOL     OW 6802   2.654   1.472   5.104
 1968SOL    HW1 6803   2.728   1.441   5.044
 1968SOL    HW2 6804   2.660   1.571   5.115
 1969SOL     OW 6805   3.172   6.848   0.511
 1969SOL    HW1 6806   3.135   6.761   0.478
 1969SOL    HW2 6807   3.108   6.889   0.576
 1970SOL     OW 6808   6.026   5.608   5.229
 1970SOL    HW1 6809   5.945   5.665   5.218
 1970SOL    HW2 6810   6.006   5.515   5.197
 1971SOL     OW 6811   1.652   6.288   5.222
 1971SOL    HW1 6812   1.609   6.224   5.286
 1971SOL    HW2 6813   1.599   6.373   5.220
 1972SOL     OW 6814   5.922   2.465   2.477
 1972SOL    HW1 6815   6.010   2.513   2.477
 1972SOL    HW2 6816   5.850   2.529   2.506
 1973SOL     OW 6817   1.868   4.452   0.258
 1973SOL    HW1 6818   1.817   4.501   0.328
 1973SOL    HW2 6819   1.807   4.428   0.183
 1974SOL     OW 6820   3.826   6.355   5.120
 1974SOL    HW1 6821   3.792   6.295   5.047
 1974SOL    HW2 6822   3.850   6.300   5.200
 1975SOL     OW 6823   1.626   1.877   3.341
 1975SOL    HW1 6824   1.565   1.848   3.414
 1975SOL    HW2 6825   1.606   1.972   3.317
 1976SOL     OW 6826   6.948   6.939   6.256
 1976SOL    HW1 6827   6.952   0.006   6.218
 1976SOL    HW2 6828   7.017   6.930   6.329
 1977SOL     OW 6829   2.126   4.700   5.843
 1977SOL    HW1 6830   2.098   4.626   5.904
 1977SOL    HW2 6831   2.211   4.740   5.875
 1978SOL     OW 6832   2.638   0.003   2.048
 1978SOL    HW1 6833   2.722   6.993   2.007
 1978SOL    HW2 6834   2.608   6.967   2.121
 1979SOL     OW 6835   0.213   4.719   6.623
 1979SOL    HW1 6836   0.275   4.641   6.634
 1979SOL    HW2 6837   0.229   4.763   6.535
 1980SOL     OW 6838   3.590   1.402   0.985
 1980SOL    HW1 6839   3.555   1.315   0.948
 1980SOL    HW2 6840   3.518   1.446   1.039
 1981SOL     OW 6841   4.124   2.268   3.169
 1981SOL    HW1 6842   4.189   2.243   3.240
 1981SOL    HW2 6843   4.033   2.235   3.193
 1982SOL     OW 6844   6.728   2.623   5.205
 1982SOL    HW1 6845   6.696   2.529   5.192
 1982SOL    HW2 6846   6.793   2.626   5.281
 1983SOL     OW 6847   6.981   0.312   1.120
 1983SOL    HW1 6848   6.916   0.271   1.056
 1983SOL    HW2 6849   6.975   0.412   1.114
 1984SOL     OW 6850   5.133   3.266   5.278
 1984SOL    HW1 6851   5.057   3.288   5.216
 1984SOL    HW2 6852   5.157   3.347   5.331
 1985SOL     OW 6853   5.851   3.745   2.751
 1985SOL    HW1 6854   5.858   3.648   2.776
 1985SOL    HW2 6855   5.819   3.752   2.656
 1986SOL     OW 6856   3.325   2.451   1.509
 1986SOL    HW1 6857   3.343   2.401   1.594
 1986SOL    HW2 6858   3.231   2.432   1.479
 1987SOL     OW 6859   2.318   0.812   2.332
 1987SOL    HW1 6860   2.295   0.909   2.334
 1987SOL    HW2 6861   2.237   0.759   2.310
 1988SOL     OW 6862   6.685   1.884   0.945
 1988SOL    HW1 6863   6.734   1.798   0.958
 1988SOL    HW2 6864   6.718   1.929   0.862
 1989SOL     OW 6865   3.096   5.008   5.161
 1989SOL    HW1 6866   3.148   5.050   5.087
 1989SOL    HW2 6867   3.152   4.938   5.206
 1990SOL     OW 6868   3.804   0.477   0.713
 1990SOL    HW1 6869   3.857   0.525   0.782
 1990SOL    HW2 6870   3.707   0.480   0.737
 1991SOL     OW 6871   3.037   5.385   0.624
 1991SOL    HW1 6872   3.029   5.459   0.690
 1991SOL    HW2 6873   3.101   5.411   0.551
 1992SOL     OW 6874   0.527   5.818   1.131
 1992SOL    HW1 6875   0.625   5.824   1.149
 1992SOL    HW2 6876   0.512   5.775   1.042
 1993SOL     OW 6877   2.092   3.141   4.140
 1993SOL    HW1 6878   2.099   3.094   4.228
 1993SOL    HW2 6879   2.067   3.236   4.154
 1994SOL     OW 6880   2.980   3.506   0.406
 1994SOL    HW1 6881   2.962   3.449   0.326
 1994SOL    HW2 6882   3.075   3.492   0.435
 1995SOL     OW 6883   5.689   2.259   4.854
 1995SOL    HW1 6884   5.595   2.295   4.850
 1995SOL    HW2 6885   5.686   2.159   4.851
 1996SOL     OW 6886   3.664   1.871   1.013
 1996SOL    HW1 6887   3.661   1.968   1.037
 1996SOL    HW2 6888   3.634   1.816   1.090
 1997SOL     OW 6889   4.188   0.972   3.439
 1997SOL    HW1 6890   4.092   0.953   3.417
 1997SOL    HW2 6891   4.192   1.026   3.523
 1998SOL     OW 6892   1.952   3.320   1.148
 1998SOL    HW1 6893   1.953   3.227   1.111
 1998SOL    HW2 6894   1.858   3.353   1.153
 1999SOL     OW 6895   1.896   6.814   6.065
 1999SOL    HW1 6896   1.917   6.813   5.967
 1999SOL    HW2 6897   1.798   6.826   6.078
 2000SOL     OW 6898   3.974   4.264   5.698
 2000SOL    HW1 6899   3.929   4.180   5.730
 2000SOL    HW2 6900   4.007   4.316   5.776
 2001SOL     OW 6901   2.244   1.534   0.028
 2001SOL    HW1 6902   2.172   1.471   0.057
 2001SOL    HW2 6903   2.267   1.595   0.103
 2002SOL     OW 6904   0.147   4.049   0.756
 2002SOL    HW1 6905   0.060   4.001   0.755
 2002SOL    HW2 6906   0.174   4.071   0.662
 2003SOL     OW 6907   6.463   5.611   1.938
 2003SOL    HW1 6908   6.533   5.615   1.868
 2003SOL    HW2 6909   6.501   5.643   2.025
 2004SOL     OW 6910   3.272   0.055   3.242
 2004SOL    HW1 6911   3.197   0.110   3.279
 2004SOL    HW2 6912   3.298   0.092   3.152
 2005SOL     OW 6913   1.485   6.376   1.054
 2005SOL    HW1 6914   1.434   6.340   0.977
 2005SOL    HW2 6915   1.580   6.343   1.050
 2006SOL     OW 6916   5.696   0.038   2.890
 2006SOL    HW1 6917   5.764   6.991   2.889
 2006SOL    HW2 6918   5.738   0.124   2.861
 2007SOL     OW 6919   5.949   4.566   0.009
 2007SOL    HW1 6920   5.965   4.664   0.019
 2007SOL    HW2 6921   5.852   4.547   0.020
 2008SOL     OW 6922   1.784   3.477   3.639
 2008SOL    HW1 6923   1.731   3.403   3.682
 2008SOL    HW2 6924   1.741   3.502   3.552
 2009SOL     OW 6925   5.839   6.982   2.240
 2009SOL    HW1 6926   5.878   7.018   2.325
 2009SOL    HW2 6927   5.890   7.019   2.162
 2010SOL     OW 6928   1.341   1.706   1.269
 2010SOL    HW1 6929   1.242   1.721   1.276
 2010SOL    HW2 6930   1.359   1.617   1.227
 2011SOL     OW 6931   1.191   6.659   5.791
 2011SOL    HW1 6932   1.128   6.692   5.721
 2011SOL    HW2 6933   1.171   6.564   5.813
 2012SOL     OW 6934   1.165   3.174   1.730
 2012SOL    HW1 6935   1.081   3.126   1.757
 2012SOL    HW2 6936   1.160   3.269   1.758
 2013SOL     OW 6937   0.203   3.389   2.537
 2013SOL    HW1 6938   0.242   3.312   2.588
 2013SOL    HW2 6939   0.109   3.404   2.566
 2014SOL     OW 6940   3.675   0.259   4.533
 2014SOL    HW1 6941   3.745   0.329   4.524
 2014SOL    HW2 6942   3.707   0.187   4.594
 2015SOL     OW 6943   4.551   0.509   1.595
 2015SOL    HW1 6944   4.590   0.570   1.526
 2015SOL    HW2 6945   4.529   0.421   1.553
 2016SOL     OW 6946   1.507   0.277   5.769
 2016SOL    HW1 6947   1.426   0.319   5.808
 2016SOL    HW2 6948   1.567   0.245   5.843
 2017SOL     OW 6949   4.155   6.165   2.880
 2017SOL    HW1 6950   4.090   6.233   2.912
 2017SOL    HW2 6951   4.248   6.194   2.904
 2018SOL     OW 6952   1.084   1.072   3.590
 2018SOL    HW1 6953   1.098   1.169   3.571
 2018SOL    HW2 6954   1.173   1.027   3.602
 2019SOL     OW 6955   6.169   5.097   6.329
 2019SOL    HW1 6956   6.232   5.173   6.345
 2019SOL    HW2 6957   6.075   5.132   6.324
 2020SOL     OW 6958   2.669   5.967   6.284
 2020SOL    HW1 6959   2.600   5.967   6.212
 2020SOL    HW2 6960   2.740   5.900   6.262
 2021SOL     OW 6961   0.305   6.181   4.003
 2021SOL    HW1 6962   0.359   6.261   4.030
 2021SOL    HW2 6963   0.341   6.099   4.047
 2022SOL     OW 6964   1.934   4.054   4.935
 2022SOL    HW1 6965   1.995   3.987   4.894
 2022SOL    HW2 6966   1.908   4.123   4.867
 2023SOL     OW 6967   0.379   6.550   0.318
 2023SOL    HW1 6968   0.393   6.520   0.413
 2023SOL    HW2 6969   0.283   6.577   0.306
 2024SOL     OW 6970   1.159   5.949   4.138
 2024SOL    HW1 6971   1.146   5.912   4.230
 2024SOL    HW2 6972   1.237   5.903   4.094
 2025SOL     OW 6973   1.568   6.809   4.853
 2025SOL    HW1 6974   1.573   6.900   4.811
 2025SOL    HW2 6975   1.659   6.768   4.854
 2026SOL     OW 6976   6.767   0.187   5.945
 2026SOL    HW1 6977   6.712   0.244   5.884
 2026SOL    HW2 6978   6.706   0.132   6.003
 2027SOL     OW 6979   6.898   5.928   2.344
 2027SOL    HW1 6980   6.901   5.967   2.436
 2027SOL    HW2 6981   6.989   5.896   2.319
 2028SOL     OW 6982   3.508   4.960   4.501
 2028SOL    HW1 6983   3.586   4.908   4.467
 2028SOL    HW2 6984   3.540   5.033   4.562
 2029SOL     OW 6985   6.085   2.471   6.463
 2029SOL    HW1 6986   6.069   2.383   6.507
 2029SOL    HW2 6987   6.008   2.533   6.482
 2030SOL     OW 6988   2.495   6.663   2.604
 2030SOL    HW1 6989   2.579   6.714   2.588
 2030SOL    HW2 6990   2.449   6.647   2.517
 2031SOL     OW 6991   0.053   5.972   3.465
 2031SOL    HW1 6992   0.068   5.909   3.389
 2031SOL    HW2 6993   0.139   5.986   3.514
 2032SOL     OW 6994   2.871   2.302   5.789
 2032SOL    HW1 6995   2.917   2.286   5.702
 2032SOL    HW2 6996   2.939   2.318   5.861
 2033SOL     OW 6997   1.910   2.042   0.580
 2033SOL    HW1 6998   1.964   2.013   0.659
 2033SOL    HW2 6999   1.892   1.964   0.520
 2034SOL     OW 7000   6.862   4.227   5.165
 2034SOL    HW1 7001   6.937   4.179   5.120
 2034SOL    HW2 7002   6.856   4.320   5.129
 2035SOL     OW 7003   5.733   0.395   3.038
 2035SOL    HW1 7004   5.762   0.357   2.950
 2035SOL    HW2 7005   5.784   0.479   3.056
 2036SOL     OW 7006   1.495   4.021   1.885
 2036SOL    HW1 7007   1.542   3.962   1.820
 2036SOL    HW2 7008   1.454   3.965   1.958
 2037SOL     OW 7009   0.219   3.098   6.986
 2037SOL    HW1 7010   0.167   3.134   0.039
 2037SOL    HW2 7011   0.316   3.118   6.998
 2038SOL     OW 7012   1.786   1.589   6.581
 2038SOL    HW1 7013   1.732   1.556   6.504
 2038SOL    HW2 7014   1.869   1.534   6.590
 2039SOL     OW 7015   6.038   5.872   2.586
 2039SOL    HW1 7016   5.984   5.941   2.538
 2039SOL    HW2 7017   6.081   5.913   2.666
 2040SOL     OW 7018   2.045   2.648   0.608
 2040SOL    HW1 7019   2.003   2.558   0.620
 2040SOL    HW2 7020   2.003   2.713   0.672
 2041SOL     OW 7021   2.199   0.044   6.273
 2041SOL    HW1 7022   2.136   0.117   6.246
 2041SOL    HW2 7023   2.292   0.079   6.276
 2042SOL     OW 7024   5.120   0.948   5.574
 2042SOL    HW1 7025   5.143   0.992   5.661
 2042SOL    HW2 7026   5.199   0.952   5.513
 2043SOL     OW 7027   6.802   4.298   1.246
 2043SOL    HW1 7028   6.708   4.287   1.280
 2043SOL    HW2 7029   6.856   4.350   1.312
 2044SOL     OW 7030   4.446   0.415   1.222
 2044SOL    HW1 7031   4.531   0.411   1.169
 2044SOL    HW2 7032   4.378   0.467   1.170
 2045SOL     OW 7033   1.347   6.703   6.156
 2045SOL    HW1 7034   1.267   6.749   6.118
 2045SOL    HW2 7035   1.332   6.604   6.156
 2046SOL     OW 7036   1.071   2.172   4.976
 2046SOL    HW1 7037   0.991   2.231   4.967
 2046SOL    HW2 7038   1.043   2.076   4.978
 2047SOL     OW 7039   0.339   0.334   0.489
 2047SOL    HW1 7040   0.422   0.363   0.441
 2047SOL    HW2 7041   0.298   0.412   0.536
 2048SOL     OW 7042   0.899   1.915   4.665
 2048SOL    HW1 7043   0.889   1.837   4.603
 2048SOL    HW2 7044   0.885   1.999   4.614
 2049SOL     OW 7045   4.860   1.800   5.047
 2049SOL    HW1 7046   4.925   1.838   5.113
 2049SOL    HW2 7047   4.909   1.738   4.985
 2050SOL     OW 7048   1.014   1.411   3.880
 2050SOL    HW1 7049   0.918   1.400   3.856
 2050SOL    HW2 7050   1.052   1.491   3.832
 2051SOL     OW 7051   3.010   6.411   0.280
 2051SOL    HW1 7052   2.937   6.360   0.324
 2051SOL    HW2 7053   2.978   6.502   0.255
 2052SOL     OW 7054   0.942   4.485   6.513
 2052SOL    HW1 7055   0.976   4.514   6.423
 2052SOL    HW2 7056   0.931   4.565   6.572
 2053SOL     OW 7057   0.457   5.333   3.410
 2053SOL    HW1 7058   0.409   5.387   3.478
 2053SOL    HW2 7059   0.411   5.343   3.321
 2054SOL     OW 7060   3.344   2.983   3.956
 2054SOL    HW1 7061   3.323   3.000   3.860
 2054SOL    HW2 7062   3.278   2.919   3.994
 2055SOL     OW 7063   3.194   2.317   5.770
 2055SOL    HW1 7064   3.188   2.390   5.702
 2055SOL    HW2 7065   3.211   2.230   5.724
 2056SOL     OW 7066   4.047   4.791   1.018
 2056SOL    HW1 7067   4.136   4.745   1.019
 2056SOL    HW2 7068   3.980   4.736   1.067
 2057SOL     OW 7069   5.898   2.426   4.514
 2057SOL    HW1 7070   5.853   2.449   4.600
 2057SOL    HW2 7071   5.838   2.450   4.437
 2058SOL     OW 7072   6.873   5.967   2.906
 2058SOL    HW1 7073   6.912   5.875   2.910
 2058SOL    HW2 7074   6.874   5.999   2.812
 2059SOL     OW 7075   2.116   0.414   6.336
 2059SOL    HW1 7076   2.083   0.488   6.394
 2059SOL    HW2 7077   2.207   0.437   6.300
 2060SOL     OW 7078   1.841   2.999   6.498
 2060SOL    HW1 7079   1.748   3.029   6.519
 2060SOL    HW2 7080   1.839   2.937   6.419
 2061SOL     OW 7081   1.942   2.787   2.161
 2061SOL    HW1 7082   1.879   2.810   2.235
 2061SOL    HW2 7083   2.036   2.786   2.196
 2062SOL     OW 7084   7.022   4.980   4.584
 2062SOL    HW1 7085   0.032   4.925   4.660
 2062SOL    HW2 7086   6.931   5.014   4.605
 2063SOL     OW 7087   0.601   0.727   4.723
 2063SOL    HW1 7088   0.555   0.809   4.691
 2063SOL    HW2 7089   0.570   0.648   4.670
 2064SOL     OW 7090   0.641   2.991   3.360
 2064SOL    HW1 7091   0.558   2.987   3.415
 2064SOL    HW2 7092   0.721   2.978   3.418
 2065SOL     OW 7093   4.065   2.945   5.576
 2065SOL    HW1 7094   4.034   3.030   5.533
 2065SOL    HW2 7095   4.103   2.885   5.507
 2066SOL     OW 7096   6.632   3.067   5.365
 2066SOL    HW1 7097   6.571   3.133   5.409
 2066SOL    HW2 7098   6.608   3.059   5.268
 2067SOL     OW 7099   6.006   5.612   1.222
 2067SOL    HW1 7100   6.076   5.673   1.261
 2067SOL    HW2 7101   6.024   5.518   1.251
 2068SOL     OW 7102   4.207   0.721   4.394
 2068SOL    HW1 7103   4.157   0.638   4.416
 2068SOL    HW2 7104   4.269   0.705   4.317
 2069SOL     OW 7105   0.530   2.935   3.754
 2069SOL    HW1 7106   0.573   2.944   3.843
 2069SOL    HW2 7107   0.565   2.853   3.708
 2070SOL     OW 7108   1.001   4.775   0.779
 2070SOL    HW1 7109   1.085   4.725   0.801
 2070SOL    HW2 7110   1.006   4.868   0.814
 2071SOL     OW 7111   6.864   1.367   5.939
 2071SOL    HW1 7112   6.961   1.382   5.919
 2071SOL    HW2 7113   6.808   1.426   5.881
 2072SOL     OW 7114   4.302   4.481   5.424
 2072SOL    HW1 7115   4.307   4.489   5.324
 2072SOL    HW2 7116   4.238   4.408   5.448
 2073SOL     OW 7117   3.071   5.563   6.445
 2073SOL    HW1 7118   3.087   5.654   6.482
 2073SOL    HW2 7119   2.978   5.534   6.466
 2074SOL     OW 7120   0.848   4.314   5.857
 2074SOL    HW1 7121   0.827   4.240   5.921
 2074SOL    HW2 7122   0.846   4.279   5.763
 2075SOL     OW 7123   6.697   1.627   1.494
 2075SOL    HW1 7124   6.653   1.646   1.582
 2075SOL    HW2 7125   6.643   1.667   1.420
 2076SOL     OW 7126   6.208   6.889   4.738
 2076SOL    HW1 7127   6.298   6.892   4.694
 2076SOL    HW2 7128   6.142   6.843   4.678
 2077SOL     OW 7129   6.334   4.323   0.532
 2077SOL    HW1 7130   6.291   4.323   0.442
 2077SOL    HW2 7131   6.433   4.321   0.521
 2078SOL     OW 7132   0.957   3.035   5.795
 2078SOL    HW1 7133   0.982   2.941   5.816
 2078SOL    HW2 7134   1.005   3.065   5.713
 2079SOL     OW 7135   4.914   2.135   2.172
 2079SOL    HW1 7136   4.996   2.082   2.152
 2079SOL    HW2 7137   4.863   2.151   2.087
 2080SOL     OW 7138   2.449   3.259   6.090
 2080SOL    HW1 7139   2.421   3.193   6.160
 2080SOL    HW2 7140   2.488   3.211   6.012
 2081SOL     OW 7141   5.433   6.238   2.443
 2081SOL    HW1 7142   5.408   6.298   2.366
 2081SOL    HW2 7143   5.357   6.176   2.463
 2082SOL     OW 7144   6.869   6.049   3.848
 2082SOL    HW1 7145   6.885   5.971   3.787
 2082SOL    HW2 7146   6.834   6.016   3.936
 2083SOL     OW 7147   0.922   6.429   4.183
 2083SOL    HW1 7148   0.849   6.460   4.244
 2083SOL    HW2 7149   0.923   6.329   4.181
 2084SOL     OW 7150   5.962   1.670   1.593
 2084SOL    HW1 7151   5.908   1.754   1.596
 2084SOL    HW2 7152   6.018   1.669   1.510
 2085SOL     OW 7153   5.315   5.939   0.770
 2085SOL    HW1 7154   5.305   5.998   0.850
 2085SOL    HW2 7155   5.307   5.843   0.797
 2086SOL     OW 7156   4.522   1.037   6.994
 2086SOL    HW1 7157   4.554   1.072   6.906
 2086SOL    HW2 7158   4.468   0.954   6.980
 2087SOL     OW 7159   3.944   1.581   6.725
 2087SOL    HW1 7160   3.914   1.653   6.788
 2087SOL    HW2 7161   3.961   1.621   6.635
 2088SOL     OW 7162   1.034   5.773   6.065
 2088SOL    HW1 7163   1.002   5.729   6.148
 2088SOL    HW2 7164   1.133   5.760   6.056
 2089SOL     OW 7165   2.692   3.676   0.068
 2089SOL    HW1 7166   2.759   3.710   0.134
 2089SOL    HW2 7167   2.709   3.579   0.049
 2090SOL     OW 7168   4.852   3.085   5.608
 2090SOL    HW1 7169   4.784   3.157   5.619
 2090SOL    HW2 7170   4.863   3.036   5.694
 2091SOL     OW 7171   5.453   6.036   2.164
 2091SOL    HW1 7172   5.529   6.101   2.164
 2091SOL    HW2 7173   5.484   5.948   2.128
 2092SOL     OW 7174   4.517   3.742   1.578
 2092SOL    HW1 7175   4.601   3.791   1.556
 2092SOL    HW2 7176   4.539   3.652   1.616
 2093SOL     OW 7177   3.593   1.009   2.208
 2093SOL    HW1 7178   3.636   1.034   2.121
 2093SOL    HW2 7179   3.542   0.923   2.196
 2094SOL     OW 7180   5.280   2.426   6.215
 2094SOL    HW1 7181   5.361   2.480   6.191
 2094SOL    HW2 7182   5.230   2.471   6.289
 2095SOL     OW 7183   5.463   5.940   3.737
 2095SOL    HW1 7184   5.379   5.946   3.789
 2095SOL    HW2 7185   5.452   5.872   3.664
 2096SOL     OW 7186   4.846   6.847   2.307
 2096SOL    HW1 7187   4.819   6.754   2.282
 2096SOL    HW2 7188   4.765   6.899   2.334
 2097SOL     OW 7189   1.177   5.527   6.492
 2097SOL    HW1 7190   1.211   5.522   6.586
 2097SOL    HW2 7191   1.124   5.444   6.471
 2098SOL     OW 7192   2.898   5.867   3.520
 2098SOL    HW1 7193   2.839   5.805   3.573
 2098SOL    HW2 7194   2.863   5.874   3.427
 2099SOL     OW 7195   4.980   1.737   6.201
 2099SOL    HW1 7196   4.933   1.681   6.269
 2099SOL    HW2 7197   4.936   1.725   6.112
 2100SOL     OW 7198   5.287   0.148   1.350
 2100SOL    HW1 7199   5.284   0.248   1.349
 2100SOL    HW2 7200   5.270   0.112   1.258
 2101SOL     OW 7201   0.423   6.824   1.931
 2101SOL    HW1 7202   0.409   6.810   2.029
 2101SOL    HW2 7203   0.378   6.751   1.880
 2102SOL     OW 7204   3.366   2.576   0.768
 2102SOL    HW1 7205   3.374   2.665   0.723
 2102SOL    HW2 7206   3.442   2.565   0.832
 2103SOL     OW 7207   2.859   6.069   0.459
 2103SOL    HW1 7208   2.844   6.157   0.415
 2103SOL    HW2 7209   2.942   6.027   0.423
 2104SOL     OW 7210   1.691   4.816   3.061
 2104SOL    HW1 7211   1.670   4.867   2.977
 2104SOL    HW2 7212   1.719   4.723   3.037
 2105SOL     OW 7213   6.028   5.037   5.145
 2105SOL    HW1 7214   6.092   5.108   5.175
 2105SOL    HW2 7215   6.064   4.992   5.064
 2106SOL     OW 7216   4.369   3.408   0.860
 2106SOL    HW1 7217   4.314   3.380   0.939
 2106SOL    HW2 7218   4.385   3.329   0.801
 2107SOL     OW 7219   4.914   4.682   5.352
 2107SOL    HW1 7220   4.929   4.590   5.315
 2107SOL    HW2 7221   4.994   4.739   5.333
 2108SOL     OW 7222   5.312   0.421   5.642
 2108SOL    HW1 7223   5.328   0.494   5.575
 2108SOL    HW2 7224   5.375   0.431   5.718
 2109SOL     OW 7225   2.970   6.637   2.867
 2109SOL    HW1 7226   2.873   6.649   2.888
 2109SOL    HW2 7227   3.022   6.715   2.902
 2110SOL     OW 7228   4.106   6.869   6.941
 2110SOL    HW1 7229   4.180   6.805   6.919
 2110SOL    HW2 7230   4.024   6.818   6.967
 2111SOL     OW 7231   0.831   2.287   5.669
 2111SOL    HW1 7232   0.911   2.346   5.659
 2111SOL    HW2 7233   0.804   2.284   5.766
 2112SOL     OW 7234   0.491   1.011   6.812
 2112SOL    HW1 7235   0.574   1.014   6.867
 2112SOL    HW2 7236   0.507   0.957   6.729
 2113SOL     OW 7237   0.545   0.654   4.966
 2113SOL    HW1 7238   0.589   0.678   4.880
 2113SOL    HW2 7239   0.492   0.732   4.999
 2114SOL     OW 7240   1.221   1.585   6.192
 2114SOL    HW1 7241   1.137   1.592   6.137
 2114SOL    HW2 7242   1.253   1.490   6.191
 2115SOL     OW 7243   6.497   6.562   2.939
 2115SOL    HW1 7244   6.519   6.479   2.991
 2115SOL    HW2 7245   6.466   6.633   3.003
 2116SOL     OW 7246   0.868   1.869   0.269
 2116SOL    HW1 7247   0.867   1.941   0.339
 2116SOL    HW2 7248   0.880   1.780   0.312
 2117SOL     OW 7249   6.393   1.603   2.288
 2117SOL    HW1 7250   6.315   1.608   2.226
 2117SOL    HW2 7251   6.413   1.507   2.308
 2118SOL     OW 7252   6.222   2.669   2.132
 2118SOL    HW1 7253   6.209   2.575   2.163
 2118SOL    HW2 7254   6.140   2.722   2.153
 2119SOL     OW 7255   1.834   1.312   0.314
 2119SOL    HW1 7256   1.756   1.370   0.290
 2119SOL    HW2 7257   1.806   1.246   0.383
 2120SOL     OW 7258   5.487   1.087   1.091
 2120SOL    HW1 7259   5.491   1.144   1.009
 2120SOL    HW2 7260   5.440   1.001   1.071
 2121SOL     OW 7261   1.246   0.363   6.848
 2121SOL    HW1 7262   1.231   0.379   6.946
 2121SOL    HW2 7263   1.279   0.448   6.805
 2122SOL     OW 7264   6.511   1.283   4.333
 2122SOL    HW1 7265   6.531   1.228   4.251
 2122SOL    HW2 7266   6.530   1.379   4.314
 2123SOL     OW 7267   1.527   5.288   2.701
 2123SOL    HW1 7268   1.478   5.337   2.772
 2123SOL    HW2 7269   1.625   5.305   2.710
 2124SOL     OW 7270   4.093   3.608   6.077
 2124SOL    HW1 7271   4.022   3.545   6.108
 2124SOL    HW2 7272   4.069   3.645   5.987
 2125SOL     OW 7273   1.865   5.974   3.918
 2125SOL    HW1 7274   1.816   6.009   3.838
 2125SOL    HW2 7275   1.907   6.051   3.967
 2126SOL     OW 7276   3.083   4.676   0.222
 2126SOL    HW1 7277   3.154   4.743   0.202
 2126SOL    HW2 7278   3.105   4.589   0.178
 2127SOL     OW 7279   0.225   2.281   4.443
 2127SOL    HW1 7280   0.216   2.366   4.391
 2127SOL    HW2 7281   0.321   2.269   4.471
 2128SOL     OW 7282   5.281   2.952   1.502
 2128SOL    HW1 7283   5.304   2.856   1.514
 2128SOL    HW2 7284   5.242   2.966   1.411
 2129SOL     OW 7285   5.337   4.450   4.165
 2129SOL    HW1 7286   5.374   4.412   4.249
 2129SOL    HW2 7287   5.238   4.459   4.173
 2130SOL     OW 7288   2.187   1.078   2.273
 2130SOL    HW1 7289   2.209   1.174   2.288
 2130SOL    HW2 7290   2.174   1.061   2.175
 2131SOL     OW 7291   5.674   0.747   4.922
 2131SOL    HW1 7292   5.612   0.815   4.884
 2131SOL    HW2 7293   5.766   0.761   4.884
 2132SOL     OW 7294   2.569   2.554   0.206
 2132SOL    HW1 7295   2.518   2.606   0.275
 2132SOL    HW2 7296   2.660   2.530   0.242
 2133SOL     OW 7297   3.047   2.025   1.571
 2133SOL    HW1 7298   3.040   2.112   1.620
 2133SOL    HW2 7299   3.143   1.997   1.568
 2134SOL     OW 7300   1.735   6.074   4.839
 2134SOL    HW1 7301   1.749   6.108   4.746
 2134SOL    HW2 7302   1.789   5.991   4.852
 2135SOL     OW 7303   1.753   0.724   4.409
 2135SOL    HW1 7304   1.666   0.692   4.372
 2135SOL    HW2 7305   1.817   0.742   4.334
 2136SOL     OW 7306   0.967   4.032   3.881
 2136SOL    HW1 7307   0.917   4.117   3.896
 2136SOL    HW2 7308   0.981   4.018   3.783
 2137SOL     OW 7309   0.940   0.547   5.097
 2137SOL    HW1 7310   0.954   0.640   5.062
 2137SOL    HW2 7311   0.843   0.534   5.119
 2138SOL     OW 7312   0.729   2.830   0.146
 2138SOL    HW1 7313   0.730   2.803   0.242
 2138SOL    HW2 7314   0.768   2.921   0.136
 2139SOL     OW 7315   2.888   1.423   4.960
 2139SOL    HW1 7316   2.946   1.469   5.027
 2139SOL    HW2 7317   2.928   1.335   4.935
 2140SOL     OW 7318   2.041   5.802   3.151
 2140SOL    HW1 7319   1.979   5.733   3.113
 2140SOL    HW2 7320   2.015   5.822   3.245
 2141SOL     OW 7321   5.820   1.424   0.363
 2141SOL    HW1 7322   5.858   1.511   0.332
 2141SOL    HW2 7323   5.871   1.349   0.323
 2142SOL     OW 7324   2.603   2.098   3.308
 2142SOL    HW1 7325   2.634   2.185   3.269
 2142SOL    HW2 7326   2.655   2.023   3.269
 2143SOL     OW 7327   3.761   6.754   0.271
 2143SOL    HW1 7328   3.844   6.772   0.325
 2143SOL    HW2 7329   3.726   6.840   0.235
 2144SOL     OW 7330   6.811   1.129   3.033
 2144SOL    HW1 7331   6.766   1.040   3.040
 2144SOL    HW2 7332   6.909   1.119   3.052
 2145SOL     OW 7333   3.729   5.559   3.055
 2145SOL    HW1 7334   3.815   5.564   3.105
 2145SOL    HW2 7335   3.747   5.536   2.959
 2146SOL     OW 7336   3.674   2.911   1.983
 2146SOL    HW1 7337   3.709   2.987   1.929
 2146SOL    HW2 7338   3.591   2.875   1.941
 2147SOL     OW 7339   0.615   0.941   5.177
 2147SOL    HW1 7340   0.552   0.903   5.245
 2147SOL    HW2 7341   0.709   0.932   5.210
 2148SOL     OW 7342   4.986   3.124   3.618
 2148SOL    HW1 7343   5.086   3.120   3.620
 2148SOL    HW2 7344   4.957   3.195   3.555
 2149SOL     OW 7345   3.235   0.991   3.259
 2149SOL    HW1 7346   3.177   0.913   3.236
 2149SOL    HW2 7347   3.178   1.067   3.290
 2150SOL     OW 7348   3.721   1.740   2.317
 2150SOL    HW1 7349   3.659   1.763   2.393
 2150SOL    HW2 7350   3.735   1.821   2.260
 2151SOL     OW 7351   4.120   2.931   5.851
 2151SOL    HW1 7352   4.115   2.929   5.752
 2151SOL    HW2 7353   4.060   3.003   5.886
 2152SOL     OW 7354   6.742   5.768   1.485
 2152SOL    HW1 7355   6.822   5.812   1.526
 2152SOL    HW2 7356   6.695   5.713   1.554
 2153SOL     OW 7357   4.853   2.919   3.453
 2153SOL    HW1 7358   4.872   2.992   3.518
 2153SOL    HW2 7359   4.939   2.879   3.420
 2154SOL     OW 7360   4.925   6.017   5.005
 2154SOL    HW1 7361   4.929   6.096   5.066
 2154SOL    HW2 7362   4.893   5.937   5.056
 2155SOL     OW 7363   6.835   3.675   0.340
 2155SOL    HW1 7364   6.762   3.609   0.323
 2155SOL    HW2 7365   6.813   3.730   0.421
 2156SOL     OW 7366   1.222   1.294   1.626
 2156SOL    HW1 7367   1.311   1.250   1.633
 2156SOL    HW2 7368   1.191   1.292   1.531
 2157SOL     OW 7369   0.731   1.267   4.633
 2157SOL    HW1 7370   0.731   1.205   4.712
 2157SOL    HW2 7371   0.809   1.329   4.638
 2158SOL     OW 7372   4.524   6.387   2.618
 2158SOL    HW1 7373   4.550   6.343   2.704
 2158SOL    HW2 7374   4.436   6.432   2.629
 2159SOL     OW 7375   2.226   5.934   4.296
 2159SOL    HW1 7376   2.256   5.877   4.372
 2159SOL    HW2 7377   2.300   5.942   4.229
 2160SOL     OW 7378   3.251   3.778   0.657
 2160SOL    HW1 7379   3.151   3.766   0.659
 2160SOL    HW2 7380   3.277   3.826   0.574
 2161SOL     OW 7381   5.347   2.451   3.676
 2161SOL    HW1 7382   5.275   2.417   3.616
 2161SOL    HW2 7383   5.390   2.531   3.635
 2162SOL     OW 7384   0.732   1.636   0.090
 2162SOL    HW1 7385   0.664   1.592   0.149
 2162SOL    HW2 7386   0.692   1.652   0.000
 2163SOL     OW 7387   2.109   2.078   6.969
 2163SOL    HW1 7388   2.190   2.042   7.016
 2163SOL    HW2 7389   2.076   2.158   7.018
 2164SOL     OW 7390   1.048   6.971   1.639
 2164SOL    HW1 7391   1.110   6.984   1.717
 2164SOL    HW2 7392   1.098   6.931   1.563
 2165SOL     OW 7393   2.780   6.499   1.612
 2165SOL    HW1 7394   2.694   6.473   1.568
 2165SOL    HW2 7395   2.797   6.440   1.691
 2166SOL     OW 7396   6.557   2.050   6.955
 2166SOL    HW1 7397   6.650   2.070   6.925
 2166SOL    HW2 7398   6.503   2.019   6.878
 2167SOL     OW 7399   2.652   0.454   2.013
 2167SOL    HW1 7400   2.682   0.389   1.942
 2167SOL    HW2 7401   2.553   0.448   2.023
 2168SOL     OW 7402   5.909   5.812   4.631
 2168SOL    HW1 7403   5.912   5.903   4.673
 2168SOL    HW2 7404   5.969   5.810   4.552
 2169SOL     OW 7405   4.905   2.293   5.251
 2169SOL    HW1 7406   4.908   2.388   5.219
 2169SOL    HW2 7407   4.887   2.291   5.349
 2170SOL     OW 7408   4.909   4.724   4.312
 2170SOL    HW1 7409   4.988   4.664   4.324
 2170SOL    HW2 7410   4.920   4.778   4.229
 2171SOL     OW 7411   0.106   2.377   0.154
 2171SOL    HW1 7412   0.092   2.474   0.173
 2171SOL    HW2 7413   0.146   2.366   0.063
 2172SOL     OW 7414   3.013   0.834   0.834
 2172SOL    HW1 7415   3.025   0.751   0.888
 2172SOL    HW2 7416   3.048   0.819   0.741
 2173SOL     OW 7417   5.235   0.768   5.182
 2173SOL    HW1 7418   5.315   0.726   5.140
 2173SOL    HW2 7419   5.264   0.843   5.242
 2174SOL     OW 7420   1.355   5.508   4.463
 2174SOL    HW1 7421   1.380   5.593   4.415
 2174SOL    HW2 7422   1.431   5.444   4.459
 2175SOL     OW 7423   2.697   6.214   5.246
 2175SOL    HW1 7424   2.665   6.274   5.319
 2175SOL    HW2 7425   2.626   6.146   5.226
 2176SOL     OW 7426   1.636   2.171   2.203
 2176SOL    HW1 7427   1.718   2.122   2.174
 2176SOL    HW2 7428   1.662   2.248   2.262
 2177SOL     OW 7429   6.301   1.502   1.881
 2177SOL    HW1 7430   6.234   1.468   1.816
 2177SOL    HW2 7431   6.370   1.556   1.833
 2178SOL     OW 7432   0.641   5.310   0.466
 2178SOL    HW1 7433   0.602   5.331   0.376
 2178SOL    HW2 7434   0.690   5.223   0.461
 2179SOL     OW 7435   0.914   4.591   3.614
 2179SOL    HW1 7436   0.942   4.682   3.582
 2179SOL    HW2 7437   0.979   4.558   3.681
 2180SOL     OW 7438   4.117   3.274   2.239
 2180SOL    HW1 7439   4.040   3.222   2.202
 2180SOL    HW2 7440   4.203   3.235   2.204
 2181SOL     OW 7441   4.846   6.241   6.837
 2181SOL    HW1 7442   4.810   6.155   6.800
 2181SOL    HW2 7443   4.770   6.301   6.863
 2182SOL     OW 7444   5.985   2.279   0.247
 2182SOL    HW1 7445   5.966   2.239   0.337
 2182SOL    HW2 7446   5.910   2.339   0.221
 2183SOL     OW 7447   2.838   2.961   0.512
 2183SOL    HW1 7448   2.925   2.913   0.497
 2183SOL    HW2 7449   2.855   3.052   0.549
 2184SOL     OW 7450   4.174   2.997   6.105
 2184SOL    HW1 7451   4.172   2.922   6.172
 2184SOL    HW2 7452   4.165   2.960   6.013
 2185SOL     OW 7453   1.620   1.256   1.010
 2185SOL    HW1 7454   1.707   1.223   1.046
 2185SOL    HW2 7455   1.569   1.179   0.970
 2186SOL     OW 7456   0.249   5.637   2.555
 2186SOL    HW1 7457   0.296   5.636   2.466
 2186SOL    HW2 7458   0.154   5.664   2.541
 2187SOL     OW 7459   0.409   1.116   6.308
 2187SOL    HW1 7460   0.369   1.149   6.393
 2187SOL    HW2 7461   0.461   1.032   6.326
 2188SOL     OW 7462   5.539   0.363   2.696
 2188SOL    HW1 7463   5.576   0.383   2.787
 2188SOL    HW2 7464   5.452   0.411   2.685
 2189SOL     OW 7465   2.679   0.493   6.819
 2189SOL    HW1 7466   2.597   0.455   6.777
 2189SOL    HW2 7467   2.655   0.547   6.899
 2190SOL     OW 7468   4.991   1.870   1.549
 2190SOL    HW1 7469   5.024   1.776   1.537
 2190SOL    HW2 7470   5.068   1.933   1.547
 2191SOL     OW 7471   2.946   1.806   0.445
 2191SOL    HW1 7472   3.031   1.767   0.408
 2191SOL    HW2 7473   2.901   1.737   0.502
 2192SOL     OW 7474   4.277   5.598   4.666
 2192SOL    HW1 7475   4.298   5.647   4.582
 2192SOL    HW2 7476   4.181   5.570   4.665
 2193SOL     OW 7477   0.401   4.894   5.878
 2193SOL    HW1 7478   0.316   4.848   5.852
 2193SOL    HW2 7479   0.380   4.973   5.936
 2194SOL     OW 7480   2.699   0.502   1.472
 2194SOL    HW1 7481   2.681   0.534   1.565
 2194SOL    HW2 7482   2.652   0.562   1.407
 2195SOL     OW 7483   1.404   4.490   2.556
 2195SOL    HW1 7484   1.434   4.578   2.593
 2195SOL    HW2 7485   1.374   4.431   2.630
 2196SOL     OW 7486   3.810   3.338   6.989
 2196SOL    HW1 7487   3.744   3.270   7.022
 2196SOL    HW2 7488   3.781   3.429   7.018
 2197SOL     OW 7489   4.535   4.358   0.568
 2197SOL    HW1 7490   4.464   4.332   0.633
 2197SOL    HW2 7491   4.566   4.452   0.588
 2198SOL     OW 7492   6.199   4.576   0.512
 2198SOL    HW1 7493   6.231   4.499   0.566
 2198SOL    HW2 7494   6.200   4.552   0.415
 2199SOL     OW 7495   4.421   0.491   1.930
 2199SOL    HW1 7496   4.436   0.405   1.881
 2199SOL    HW2 7497   4.424   0.567   1.865
 2200SOL     OW 7498   2.659   0.369   4.082
 2200SOL    HW1 7499   2.590   0.300   4.064
 2200SOL    HW2 7500   2.739   0.327   4.125
 2201SOL     OW 7501   4.808   4.210   2.004
 2201SOL    HW1 7502   4.713   4.242   2.006
 2201SOL    HW2 7503   4.862   4.261   2.071
 2202SOL     OW 7504   4.496   6.079   3.115
 2202SOL    HW1 7505   4.591   6.095   3.088
 2202SOL    HW2 7506   4.490   6.075   3.215
 2203SOL     OW 7507   3.107   1.851   2.729
 2203SOL    HW1 7508   3.033   1.898   2.777
 2203SOL    HW2 7509   3.073   1.765   2.690
 2204SOL     OW 7510   2.854   2.794   0.821
 2204SOL    HW1 7511   2.918   2.735   0.771
 2204SOL    HW2 7512   2.820   2.865   0.760
 2205SOL     OW 7513   2.674   0.301   0.250
 2205SOL    HW1 7514   2.768   0.309   0.219
 2205SOL    HW2 7515   2.618   0.261   0.178
 2206SOL     OW 7516   2.263   2.911   6.540
 2206SOL    HW1 7517   2.303   2.820   6.538
 2206SOL    HW2 7518   2.277   2.955   6.451
 2207SOL     OW 7519   1.125   4.435   5.107
 2207SOL    HW1 7520   1.156   4.510   5.049
 2207SOL    HW2 7521   1.053   4.383   5.060
 2208SOL     OW 7522   0.587   4.335   2.086
 2208SOL    HW1 7523   0.537   4.311   2.002
 2208SOL    HW2 7524   0.680   4.363   2.063
 2209SOL     OW 7525   1.164   5.849   0.972
 2209SOL    HW1 7526   1.105   5.868   0.892
 2209SOL    HW2 7527   1.146   5.757   1.005
 2210SOL     OW 7528   1.129   5.787   4.358
 2210SOL    HW1 7529   1.160   5.778   4.453
 2210SOL    HW2 7530   1.172   5.717   4.302
 2211SOL     OW 7531   6.607   0.927   6.151
 2211SOL    HW1 7532   6.605   0.994   6.225
 2211SOL    HW2 7533   6.693   0.876   6.155
 2212SOL     OW 7534   1.654   7.023   6.225
 2212SOL    HW1 7535   1.688   0.092   6.224
 2212SOL    HW2 7536   1.600   7.007   6.142
 2213SOL     OW 7537   2.956   0.847   3.476
 2213SOL    HW1 7538   2.946   0.847   3.377
 2213SOL    HW2 7539   2.892   0.913   3.516
 2214SOL     OW 7540   4.642   0.326   5.142
 2214SOL    HW1 7541   4.681   0.280   5.062
 2214SOL    HW2 7542   4.670   0.278   5.225
 2215SOL     OW 7543   5.587   3.450   5.150
 2215SOL    HW1 7544   5.674   3.484   5.113
 2215SOL    HW2 7545   5.542   3.391   5.083
 2216SOL     OW 7546   2.030   0.307   1.643
 2216SOL    HW1 7547   2.128   0.287   1.644
 2216SOL    HW2 7548   1.981   0.229   1.682
 2217SOL     OW 7549   4.873   0.918   1.811
 2217SOL    HW1 7550   4.816   0.860   1.752
 2217SOL    HW2 7551   4.909   0.995   1.759
 2218SOL     OW 7552   0.795   6.622   1.895
 2218SOL    HW1 7553   0.858   6.631   1.972
 2218SOL    HW2 7554   0.768   6.713   1.864
 2219SOL     OW 7555   1.305   1.868   2.698
 2219SOL    HW1 7556   1.387   1.923   2.711
 2219SOL    HW2 7557   1.224   1.922   2.722
 2220SOL     OW 7558   0.735   0.240   0.933
 2220SOL    HW1 7559   0.637   0.227   0.947
 2220SOL    HW2 7560   0.755   0.238   0.835
 2221SOL     OW 7561   0.089   1.725   0.422
 2221SOL    HW1 7562   0.009   1.767   0.380
 2221SOL    HW2 7563   0.112   1.641   0.373
 2222SOL     OW 7564   5.726   6.140   2.806
 2222SOL    HW1 7565   5.700   6.046   2.829
 2222SOL    HW2 7566   5.825   6.147   2.802
 2223SOL     OW 7567   5.807   5.079   1.530
 2223SOL    HW1 7568   5.771   5.012   1.595
 2223SOL    HW2 7569   5.757   5.072   1.443
 2224SOL     OW 7570   0.846   4.697   2.238
 2224SOL    HW1 7571   0.867   4.732   2.147
 2224SOL    HW2 7572   0.911   4.737   2.304
 2225SOL     OW 7573   6.960   4.939   0.707
 2225SOL    HW1 7574   7.007   4.860   0.747
 2225SOL    HW2 7575   6.887   4.906   0.646
 2226SOL     OW 7576   4.277   3.870   1.635
 2226SOL    HW1 7577   4.372   3.838   1.633
 2226SOL    HW2 7578   4.277   3.970   1.640
 2227SOL     OW 7579   0.910   3.438   3.866
 2227SOL    HW1 7580   0.913   3.344   3.900
 2227SOL    HW2 7581   0.953   3.442   3.776
 2228SOL     OW 7582   2.590   5.160   4.861
 2228SOL    HW1 7583   2.637   5.077   4.890
 2228SOL    HW2 7584   2.612   5.234   4.925
 2229SOL     OW 7585   5.464   0.698   3.282
 2229SOL    HW1 7586   5.514   0.613   3.298
 2229SOL    HW2 7587   5.366   0.683   3.298
 2230SOL     OW 7588   2.212   5.637   0.727
 2230SOL    HW1 7589   2.310   5.636   0.747
 2230SOL    HW2 7590   2.162   5.619   0.812
 2231SOL     OW 7591   3.089   5.996   1.216
 2231SOL    HW1 7592   3.183   5.962   1.213
 2231SOL    HW2 7593   3.051   5.997   1.124
 2232SOL     OW 7594   6.301   2.950   3.481
 2232SOL    HW1 7595   6.311   2.950   3.581
 2232SOL    HW2 7596   6.289   2.855   3.450
 2233SOL     OW 7597   2.960   1.666   0.035
 2233SOL    HW1 7598   2.951   1.591   0.101
 2233SOL    HW2 7599   2.878   1.724   0.039
 2234SOL     OW 7600   2.893   2.331   0.840
 2234SOL    HW1 7601   2.989   2.323   0.814
 2234SOL    HW2 7602   2.886   2.359   0.936
 2235SOL     OW 7603   1.959   0.108   1.308
 2235SOL    HW1 7604   2.031   0.088   1.375
 2235SOL    HW2 7605   1.875   0.133   1.356
 2236SOL     OW 7606   6.679   3.912   6.516
 2236SOL    HW1 7607   6.723   3.938   6.602
 2236SOL    HW2 7608   6.722   3.829   6.480
 2237SOL     OW 7609   6.252   2.210   4.023
 2237SOL    HW1 7610   6.276   2.212   4.121
 2237SOL    HW2 7611   6.195   2.289   4.002
 2238SOL     OW 7612   0.320   5.658   2.030
 2238SOL    HW1 7613   0.279   5.612   1.952
 2238SOL    HW2 7614   0.384   5.596   2.076
 2239SOL     OW 7615   5.595   5.182   2.868
 2239SOL    HW1 7616   5.557   5.090   2.856
 2239SOL    HW2 7617   5.520   5.247   2.880
 2240SOL     OW 7618   5.400   4.207   2.612
 2240SOL    HW1 7619   5.404   4.158   2.525
 2240SOL    HW2 7620   5.339   4.157   2.675
 2241SOL     OW 7621   0.785   6.588   2.521
 2241SOL    HW1 7622   0.710   6.564   2.458
 2241SOL    HW2 7623   0.777   6.684   2.547
 2242SOL     OW 7624   4.801   2.945   2.715
 2242SOL    HW1 7625   4.779   2.891   2.796
 2242SOL    HW2 7626   4.759   2.904   2.635
 2243SOL     OW 7627   3.124   6.188   5.669
 2243SOL    HW1 7628   3.053   6.216   5.733
 2243SOL    HW2 7629   3.090   6.195   5.575
 2244SOL     OW 7630   2.655   1.014   5.134
 2244SOL    HW1 7631   2.620   1.079   5.201
 2244SOL    HW2 7632   2.620   0.922   5.153
 2245SOL     OW 7633   0.139   1.855   2.201
 2245SOL    HW1 7634   0.162   1.917   2.126
 2245SOL    HW2 7635   0.186   1.768   2.188
 2246SOL     OW 7636   1.183   4.252   4.446
 2246SOL    HW1 7637   1.264   4.214   4.402
 2246SOL    HW2 7638   1.104   4.194   4.427
 2247SOL     OW 7639   1.947   1.635   5.608
 2247SOL    HW1 7640   1.998   1.694   5.671
 2247SOL    HW2 7641   1.967   1.662   5.514
 2248SOL     OW 7642   4.685   4.461   5.398
 2248SOL    HW1 7643   4.785   4.452   5.395
 2248SOL    HW2 7644   4.652   4.496   5.311
 2249SOL     OW 7645   4.365   5.663   4.413
 2249SOL    HW1 7646   4.360   5.565   4.399
 2249SOL    HW2 7647   4.461   5.692   4.415
 2250SOL     OW 7648   5.347   5.713   0.302
 2250SOL    HW1 7649   5.313   5.768   0.379
 2250SOL    HW2 7650   5.286   5.722   0.224
 2251SOL     OW 7651   0.243   0.613   6.622
 2251SOL    HW1 7652   0.225   0.607   6.523
 2251SOL    HW2 7653   0.341   0.608   6.638
 2252SOL     OW 7654   3.334   1.278   5.605
 2252SOL    HW1 7655   3.289   1.367   5.614
 2252SOL    HW2 7656   3.276   1.217   5.551
 2253SOL     OW 7657   1.484   2.384   5.834
 2253SOL    HW1 7658   1.419   2.331   5.888
 2253SOL    HW2 7659   1.509   2.332   5.752
 2254SOL     OW 7660   1.740   3.724   6.156
 2254SOL    HW1 7661   1.727   3.643   6.097
 2254SOL    HW2 7662   1.837   3.736   6.173
 2255SOL     OW 7663   5.241   2.055   0.820
 2255SOL    HW1 7664   5.263   1.968   0.777
 2255SOL    HW2 7665   5.232   2.042   0.919
 2256SOL     OW 7666   3.417   5.230   1.780
 2256SOL    HW1 7667   3.321   5.206   1.773
 2256SOL    HW2 7668   3.426   5.322   1.818
 2257SOL     OW 7669   2.119   3.687   3.672
 2257SOL    HW1 7670   2.197   3.724   3.622
 2257SOL    HW2 7671   2.097   3.747   3.748
 2258SOL     OW 7672   2.512   5.421   4.744
 2258SOL    HW1 7673   2.532   5.352   4.813
 2258SOL    HW2 7674   2.586   5.489   4.742
 2259SOL     OW 7675   5.754   3.549   6.281
 2259SOL    HW1 7676   5.816   3.473   6.264
 2259SOL    HW2 7677   5.675   3.517   6.333
 2260SOL     OW 7678   4.963   4.302   0.783
 2260SOL    HW1 7679   4.999   4.337   0.870
 2260SOL    HW2 7680   4.886   4.240   0.802
 2261SOL     OW 7681   4.086   6.633   5.720
 2261SOL    HW1 7682   4.140   6.549   5.730
 2261SOL    HW2 7683   4.033   6.648   5.804
 2262SOL     OW 7684   3.643   1.632   3.699
 2262SOL    HW1 7685   3.599   1.542   3.691
 2262SOL    HW2 7686   3.718   1.626   3.764
 2263SOL     OW 7687   6.954   4.026   6.277
 2263SOL    HW1 7688   6.863   4.065   6.290
 2263SOL    HW2 7689   6.946   3.935   6.237
 2264SOL     OW 7690   4.098   3.504   3.805
 2264SOL    HW1 7691   4.110   3.521   3.707
 2264SOL    HW2 7692   4.084   3.406   3.820
 2265SOL     OW 7693   0.056   0.653   2.689
 2265SOL    HW1 7694   0.022   0.570   2.646
 2265SOL    HW2 7695   0.156   0.652   2.687
 2266SOL     OW 7696   6.135   7.004   6.823
 2266SOL    HW1 7697   6.049   6.973   6.864
 2266SOL    HW2 7698   6.164   6.940   6.752
 2267SOL     OW 7699   5.424   1.217   5.654
 2267SOL    HW1 7700   5.365   1.273   5.596
 2267SOL    HW2 7701   5.400   1.231   5.750
 2268SOL     OW 7702   6.202   5.217   0.252
 2268SOL    HW1 7703   6.281   5.188   0.305
 2268SOL    HW2 7704   6.126   5.236   0.314
 2269SOL     OW 7705   0.249   5.634   4.659
 2269SOL    HW1 7706   0.348   5.638   4.643
 2269SOL    HW2 7707   0.215   5.542   4.637
 2270SOL     OW 7708   4.136   3.296   1.863
 2270SOL    HW1 7709   4.129   3.374   1.801
 2270SOL    HW2 7710   4.229   3.261   1.861
 2271SOL     OW 7711   6.911   4.232   3.096
 2271SOL    HW1 7712   6.817   4.201   3.114
 2271SOL    HW2 7713   6.917   4.331   3.111
 2272SOL     OW 7714   4.611   2.034   6.474
 2272SOL    HW1 7715   4.534   2.061   6.417
 2272SOL    HW2 7716   4.686   2.100   6.462
 2273SOL     OW 7717   0.225   1.766   4.093
 2273SOL    HW1 7718   0.296   1.803   4.153
 2273SOL    HW2 7719   0.145   1.826   4.095
 2274SOL     OW 7720   1.169   3.324   3.183
 2274SOL    HW1 7721   1.104   3.252   3.158
 2274SOL    HW2 7722   1.161   3.400   3.118
 2275SOL     OW 7723   4.962   6.546   3.570
 2275SOL    HW1 7724   4.914   6.589   3.493
 2275SOL    HW2 7725   5.050   6.592   3.584
 2276SOL     OW 7726   3.846   5.401   1.792
 2276SOL    HW1 7727   3.869   5.326   1.854
 2276SOL    HW2 7728   3.779   5.369   1.725
 2277SOL     OW 7729   2.990   3.703   0.626
 2277SOL    HW1 7730   2.979   3.617   0.676
 2277SOL    HW2 7731   2.968   3.689   0.529
 2278SOL     OW 7732   5.396   6.658   0.634
 2278SOL    HW1 7733   5.438   6.568   0.625
 2278SOL    HW2 7734   5.432   6.719   0.563
 2279SOL     OW 7735   4.807   4.668   4.867
 2279SOL    HW1 7736   4.715   4.637   4.842
 2279SOL    HW2 7737   4.843   4.610   4.940
 2280SOL     OW 7738   5.354   6.585   6.216
 2280SOL    HW1 7739   5.287   6.516   6.246
 2280SOL    HW2 7740   5.358   6.585   6.116
 2281SOL     OW 7741   2.605   2.926   0.329
 2281SOL    HW1 7742   2.679   2.947   0.394
 2281SOL    HW2 7743   2.641   2.932   0.236
 2282SOL     OW 7744   4.082   5.894   2.268
 2282SOL    HW1 7745   4.021   5.882   2.346
 2282SOL    HW2 7746   4.054   5.834   2.193
 2283SOL     OW 7747   0.188   4.015   2.560
 2283SOL    HW1 7748   0.158   3.920   2.563
 2283SOL    HW2 7749   0.134   4.069   2.625
 2284SOL     OW 7750   2.578   2.423   2.083
 2284SOL    HW1 7751   2.554   2.487   2.010
 2284SOL    HW2 7752   2.677   2.409   2.083
 2285SOL     OW 7753   1.702   4.305   0.076
 2285SOL    HW1 7754   1.625   4.368   0.078
 2285SOL    HW2 7755   1.671   4.215   0.047
 2286SOL     OW 7756   5.695   6.945   4.924
 2286SOL    HW1 7757   5.762   6.966   4.996
 2286SOL    HW2 7758   5.676   0.003   4.871
 2287SOL     OW 7759   2.228   2.969   1.652
 2287SOL    HW1 7760   2.297   2.975   1.581
 2287SOL    HW2 7761   2.224   3.056   1.702
 2288SOL     OW 7762   1.567   6.620   4.144
 2288SOL    HW1 7763   1.563   6.535   4.091
 2288SOL    HW2 7764   1.595   6.600   4.238
 2289SOL     OW 7765   4.558   1.979   0.599
 2289SOL    HW1 7766   4.585   2.071   0.572
 2289SOL    HW2 7767   4.459   1.976   0.612
 2290SOL     OW 7768   3.634   3.373   2.888
 2290SOL    HW1 7769   3.680   3.418   2.965
 2290SOL    HW2 7770   3.682   3.394   2.803
 2291SOL     OW 7771   0.979   2.334   7.003
 2291SOL    HW1 7772   1.020   2.272   0.046
 2291SOL    HW2 7773   1.011   2.427   7.019
 2292SOL     OW 7774   5.074   2.034   2.591
 2292SOL    HW1 7775   5.049   1.965   2.659
 2292SOL    HW2 7776   4.996   2.094   2.575
 2293SOL     OW 7777   0.765   0.704   0.213
 2293SOL    HW1 7778   0.816   0.701   0.127
 2293SOL    HW2 7779   0.706   0.624   0.220
 2294SOL     OW 7780   6.827   1.424   5.543
 2294SOL    HW1 7781   6.836   1.351   5.476
 2294SOL    HW2 7782   6.788   1.505   5.499
 2295SOL     OW 7783   5.569   6.402   1.187
 2295SOL    HW1 7784   5.634   6.478   1.193
 2295SOL    HW2 7785   5.480   6.433   1.222
 2296SOL     OW 7786   3.704   5.280   3.563
 2296SOL    HW1 7787   3.740   5.219   3.493
 2296SOL    HW2 7788   3.723   5.375   3.537
 2297SOL     OW 7789   4.390   4.017   5.441
 2297SOL    HW1 7790   4.451   4.094   5.420
 2297SOL    HW2 7791   4.366   4.018   5.538
 2298SOL     OW 7792   3.478   3.697   4.732
 2298SOL    HW1 7793   3.416   3.772   4.709
 2298SOL    HW2 7794   3.465   3.621   4.668
 2299SOL     OW 7795   6.177   3.283   5.181
 2299SOL    HW1 7796   6.245   3.219   5.217
 2299SOL    HW2 7797   6.103   3.293   5.247
 2300SOL     OW 7798   4.738   6.566   2.183
 2300SOL    HW1 7799   4.716   6.510   2.263
 2300SOL    HW2 7800   4.815   6.527   2.134
 2301SOL     OW 7801   3.655   3.082   4.591
 2301SOL    HW1 7802   3.618   2.989   4.598
 2301SOL    HW2 7803   3.735   3.081   4.532
 2302SOL     OW 7804   5.980   3.348   6.908
 2302SOL    HW1 7805   5.959   3.430   6.961
 2302SOL    HW2 7806   5.978   3.370   6.810
 2303SOL     OW 7807   3.019   1.880   6.855
 2303SOL    HW1 7808   2.972   1.822   6.922
 2303SOL    HW2 7809   3.109   1.906   6.890
 2304SOL     OW 7810   5.883   6.040   2.441
 2304SOL    HW1 7811   5.800   5.986   2.457
 2304SOL    HW2 7812   5.919   6.020   2.350
 2305SOL     OW 7813   2.864   0.314   4.251
 2305SOL    HW1 7814   2.903   0.260   4.325
 2305SOL    HW2 7815   2.924   0.392   4.231
 2306SOL     OW 7816   0.937   4.710   4.466
 2306SOL    HW1 7817   0.887   4.634   4.507
 2306SOL    HW2 7818   0.985   4.761   4.537
 2307SOL     OW 7819   6.669   3.116   6.022
 2307SOL    HW1 7820   6.631   3.107   6.114
 2307SOL    HW2 7821   6.738   3.189   6.022
 2308SOL     OW 7822   1.964   5.263   2.019
 2308SOL    HW1 7823   2.056   5.230   1.995
 2308SOL    HW2 7824   1.921   5.198   2.082
 2309SOL     OW 7825   1.646   0.218   5.362
 2309SOL    HW1 7826   1.549   0.226   5.382
 2309SOL    HW2 7827   1.699   0.248   5.442
 2310SOL     OW 7828   4.804   0.099   1.249
 2310SOL    HW1 7829   4.740   0.130   1.178
 2310SOL    HW2 7830   4.779   0.140   1.337
 2311SOL     OW 7831   3.244   5.440   1.216
 2311SOL    HW1 7832   3.150   5.474   1.222
 2311SOL    HW2 7833   3.267   5.420   1.121
 2312SOL     OW 7834   3.145   5.307   2.048
 2312SOL    HW1 7835   3.232   5.356   2.055
 2312SOL    HW2 7836   3.122   5.267   2.136
 2313SOL     OW 7837   5.228   5.930   1.548
 2313SOL    HW1 7838   5.138   5.966   1.572
 2313SOL    HW2 7839   5.245   5.943   1.450
 2314SOL     OW 7840   1.624   4.823   4.745
 2314SOL    HW1 7841   1.615   4.905   4.801
 2314SOL    HW2 7842   1.532   4.790   4.720
 2315SOL     OW 7843   4.024   2.852   6.802
 2315SOL    HW1 7844   4.074   2.808   6.727
 2315SOL    HW2 7845   4.039   2.801   6.886
 2316SOL     OW 7846   5.444   4.131   2.320
 2316SOL    HW1 7847   5.469   4.034   2.329
 2316SOL    HW2 7848   5.523   4.182   2.284
 2317SOL     OW 7849   0.105   5.160   3.548
 2317SOL    HW1 7850   0.169   5.179   3.623
 2317SOL    HW2 7851   0.049   5.080   3.571
 2318SOL     OW 7852   0.142   1.006   4.053
 2318SOL    HW1 7853   0.226   0.978   4.007
 2318SOL    HW2 7854   0.106   0.930   4.107
 2319SOL     OW 7855   0.637   4.734   3.264
 2319SOL    HW1 7856   0.614   4.669   3.192
 2319SOL    HW2 7857   0.671   4.685   3.344
 2320SOL     OW 7858   6.121   5.129   4.884
 2320SOL    HW1 7859   6.107   5.030   4.884
 2320SOL    HW2 7860   6.034   5.174   4.863
 2321SOL     OW 7861   3.123   5.358   4.940
 2321SOL    HW1 7862   3.039   5.345   4.889
 2321SOL    HW2 7863   3.192   5.291   4.909
 2322SOL     OW 7864   3.183   0.808   5.759
 2322SOL    HW1 7865   3.102   0.824   5.703
 2322SOL    HW2 7866   3.207   0.891   5.808
 2323SOL     OW 7867   5.281   4.280   2.117
 2323SOL    HW1 7868   5.263   4.265   2.019
 2323SOL    HW2 7869   5.363   4.230   2.143
 2324SOL     OW 7870   6.616   4.690   3.696
 2324SOL    HW1 7871   6.711   4.695   3.726
 2324SOL    HW2 7872   6.582   4.597   3.704
 2325SOL     OW 7873   6.714   2.623   0.609
 2325SOL    HW1 7874   6.678   2.532   0.587
 2325SOL    HW2 7875   6.661   2.693   0.561
 2326SOL     OW 7876   1.543   4.622   6.739
 2326SOL    HW1 7877   1.642   4.631   6.736
 2326SOL    HW2 7878   1.508   4.657   6.826
 2327SOL     OW 7879   5.360   1.634   4.181
 2327SOL    HW1 7880   5.342   1.603   4.087
 2327SOL    HW2 7881   5.442   1.690   4.183
 2328SOL     OW 7882   6.305   0.083   3.897
 2328SOL    HW1 7883   6.264   0.166   3.935
 2328SOL    HW2 7884   6.402   0.097   3.882
 2329SOL     OW 7885   6.748   5.981   3.341
 2329SOL    HW1 7886   6.727   6.053   3.407
 2329SOL    HW2 7887   6.797   5.907   3.386
 2330SOL     OW 7888   0.077   3.706   1.837
 2330SOL    HW1 7889   0.106   3.709   1.742
 2330SOL    HW2 7890   7.017   3.757   1.848
 2331SOL     OW 7891   0.478   4.668   5.493
 2331SOL    HW1 7892   0.437   4.587   5.453
 2331SOL    HW2 7893   0.449   4.677   5.589
 2332SOL     OW 7894   6.143   2.551   4.829
 2332SOL    HW1 7895   6.066   2.518   4.774
 2332SOL    HW2 7896   6.108   2.587   4.916
 2333SOL     OW 7897   1.762   4.895   3.919
 2333SOL    HW1 7898   1.799   4.824   3.979
 2333SOL    HW2 7899   1.690   4.945   3.967
 2334SOL     OW 7900   3.293   0.543   1.022
 2334SOL    HW1 7901   3.322   0.482   1.095
 2334SOL    HW2 7902   3.337   0.632   1.034
 2335SOL     OW 7903   4.135   5.317   3.984
 2335SOL    HW1 7904   4.165   5.382   4.054
 2335SOL    HW2 7905   4.199   5.240   3.981
 2336SOL     OW 7906   4.791   2.864   5.824
 2336SOL    HW1 7907   4.875   2.813   5.809
 2336SOL    HW2 7908   4.746   2.881   5.736
 2337SOL     OW 7909   5.603   0.430   3.741
 2337SOL    HW1 7910   5.654   0.425   3.655
 2337SOL    HW2 7911   5.525   0.366   3.737
 2338SOL     OW 7912   1.127   6.810   6.020
 2338SOL    HW1 7913   1.170   6.760   5.945
 2338SOL    HW2 7914   1.147   6.907   6.012
 2339SOL     OW 7915   3.949   5.054   6.225
 2339SOL    HW1 7916   4.001   5.069   6.309
 2339SOL    HW2 7917   3.877   5.123   6.218
 2340SOL     OW 7918   3.601   5.226   3.796
 2340SOL    HW1 7919   3.627   5.248   3.702
 2340SOL    HW2 7920   3.501   5.226   3.804
 2341SOL     OW 7921   6.654   5.232   6.625
 2341SOL    HW1 7922   6.695   5.290   6.555
 2341SOL    HW2 7923   6.585   5.284   6.675
 2342SOL     OW 7924   6.342   6.804   5.236
 2342SOL    HW1 7925   6.338   6.817   5.335
 2342SOL    HW2 7926   6.269   6.857   5.192
 2343SOL     OW 7927   0.724   6.680   0.561
 2343SOL    HW1 7928   0.659   6.672   0.637
 2343SOL    HW2 7929   0.817   6.671   0.597
 2344SOL     OW 7930   2.239   1.876   3.201
 2344SOL    HW1 7931   2.185   1.818   3.141
 2344SOL    HW2 7932   2.246   1.834   3.291
 2345SOL     OW 7933   1.874   1.292   3.622
 2345SOL    HW1 7934   1.912   1.205   3.652
 2345SOL    HW2 7935   1.784   1.306   3.663
 2346SOL     OW 7936   4.853   3.661   5.556
 2346SOL    HW1 7937   4.916   3.689   5.629
 2346SOL    HW2 7938   4.764   3.640   5.595
 2347SOL     OW 7939   1.362   3.399   1.480
 2347SOL    HW1 7940   1.301   3.323   1.503
 2347SOL    HW2 7941   1.313   3.485   1.491
 2348SOL     OW 7942   2.484   5.691   1.510
 2348SOL    HW1 7943   2.446   5.689   1.602
 2348SOL    HW2 7944   2.424   5.643   1.447
 2349SOL     OW 7945   4.935   4.960   5.920
 2349SOL    HW1 7946   4.938   5.038   5.858
 2349SOL    HW2 7947   4.936   4.875   5.866
 2350SOL     OW 7948   2.608   5.679   5.209
 2350SOL    HW1 7949   2.644   5.674   5.302
 2350SOL    HW2 7950   2.673   5.727   5.150
 2351SOL     OW 7951   2.199   5.987   3.648
 2351SOL    HW1 7952   2.155   6.000   3.737
 2351SOL    HW2 7953   2.299   5.986   3.660
 2352SOL     OW 7954   6.117   3.895   2.275
 2352SOL    HW1 7955   6.172   3.812   2.284
 2352SOL    HW2 7956   6.127   3.932   2.182
 2353SOL     OW 7957   2.957   3.663   5.889
 2353SOL    HW1 7958   2.991   3.581   5.934
 2353SOL    HW2 7959   2.901   3.715   5.953
 2354SOL     OW 7960   3.954   2.617   1.639
 2354SOL    HW1 7961   3.858   2.609   1.667
 2354SOL    HW2 7962   3.961   2.679   1.561
 2355SOL     OW 7963   6.515   0.316   1.136
 2355SOL    HW1 7964   6.584   0.281   1.200
 2355SOL    HW2 7965   6.464   0.389   1.180
 2356SOL     OW 7966   2.867   4.729   3.767
 2356SOL    HW1 7967   2.911   4.800   3.712
 2356SOL    HW2 7968   2.904   4.640   3.741
 2357SOL     OW 7969   6.427   4.746   1.054
 2357SOL    HW1 7970   6.497   4.675   1.065
 2357SOL    HW2 7971   6.469   4.825   1.009
 2358SOL     OW 7972   3.381   1.649   5.443
 2358SOL    HW1 7973   3.380   1.552   5.468
 2358SOL    HW2 7974   3.309   1.696   5.494
 2359SOL     OW 7975   2.118   1.312   5.751
 2359SOL    HW1 7976   2.135   1.385   5.685
 2359SOL    HW2 7977   2.040   1.257   5.721
 2360SOL     OW 7978   3.558   4.326   0.302
 2360SOL    HW1 7979   3.652   4.310   0.329
 2360SOL    HW2 7980   3.519   4.243   0.263
 2361SOL     OW 7981   4.559   5.693   1.644
 2361SOL    HW1 7982   4.634   5.648   1.692
 2361SOL    HW2 7983   4.588   5.783   1.613
 2362SOL     OW 7984   5.014   5.097   3.862
 2362SOL    HW1 7985   5.031   5.181   3.811
 2362SOL    HW2 7986   4.988   5.120   3.956
 2363SOL     OW 7987   2.267   3.790   0.475
 2363SOL    HW1 7988   2.215   3.705   0.465
 2363SOL    HW2 7989   2.230   3.859   0.413
 2364SOL     OW 7990   3.468   1.261   2.517
 2364SOL    HW1 7991   3.413   1.282   2.599
 2364SOL    HW2 7992   3.542   1.328   2.509
 2365SOL     OW 7993   4.998   3.727   3.485
 2365SOL    HW1 7994   4.947   3.733   3.571
 2365SOL    HW2 7995   4.948   3.777   3.413
 2366SOL     OW 7996   3.007   4.847   4.946
 2366SOL    HW1 7997   3.001   4.913   5.021
 2366SOL    HW2 7998   2.977   4.757   4.978
 2367SOL     OW 7999   5.373   4.353   6.098
 2367SOL    HW1 8000   5.333   4.442   6.122
 2367SOL    HW2 8001   5.428   4.319   6.174
 2368SOL     OW 8002   5.759   6.709   4.787
 2368SOL    HW1 8003   5.826   6.729   4.715
 2368SOL    HW2 8004   5.732   6.794   4.832
 2369SOL     OW 8005   3.032   1.826   4.422
 2369SOL    HW1 8006   3.043   1.739   4.470
 2369SOL    HW2 8007   3.122   1.863   4.400
 2370SOL     OW 8008   5.770   2.712   1.805
 2370SOL    HW1 8009   5.736   2.649   1.875
 2370SOL    HW2 8010   5.862   2.742   1.829
 2371SOL     OW 8011   0.134   6.071   2.737
 2371SOL    HW1 8012   0.199   6.005   2.775
 2371SOL    HW2 8013   0.155   6.088   2.640
 2372SOL     OW 8014   5.816   6.759   6.239
 2372SOL    HW1 8015   5.827   6.859   6.244
 2372SOL    HW2 8016   5.883   6.716   6.299
 2373SOL     OW 8017   6.306   5.326   6.352
 2373SOL    HW1 8018   6.235   5.376   6.302
 2373SOL    HW2 8019   6.344   5.385   6.424
 2374SOL     OW 8020   6.210   6.552   2.815
 2374SOL    HW1 8021   6.231   6.461   2.778
 2374SOL    HW2 8022   6.286   6.584   2.871
 2375SOL     OW 8023   1.253   0.054   4.385
 2375SOL    HW1 8024   1.198   6.996   4.397
 2375SOL    HW2 8025   1.203   0.118   4.326
 2376SOL     OW 8026   5.237   2.039   3.463
 2376SOL    HW1 8027   5.235   1.939   3.463
 2376SOL    HW2 8028   5.309   2.071   3.526
 2377SOL     OW 8029   4.700   4.633   5.615
 2377SOL    HW1 8030   4.620   4.592   5.660
 2377SOL    HW2 8031   4.699   4.608   5.518
 2378SOL     OW 8032   0.050   1.006   0.704
 2378SOL    HW1 8033   6.987   0.969   0.734
 2378SOL    HW2 8034   0.046   1.030   0.608
 2379SOL     OW 8035   6.623   5.232   1.583
 2379SOL    HW1 8036   6.566   5.276   1.653
 2379SOL    HW2 8037   6.719   5.236   1.610
 2380SOL     OW 8038   4.929   5.428   5.319
 2380SOL    HW1 8039   5.026   5.449   5.333
 2380SOL    HW2 8040   4.917   5.328   5.322
 2381SOL     OW 8041   2.345   4.745   4.522
 2381SOL    HW1 8042   2.373   4.723   4.616
 2381SOL    HW2 8043   2.409   4.702   4.458
 2382SOL     OW 8044   6.928   6.039   2.582
 2382SOL    HW1 8045   6.874   6.112   2.624
 2382SOL    HW2 8046   0.000   6.059   2.593
 2383SOL     OW 8047   5.574   5.162   6.067
 2383SOL    HW1 8048   5.614   5.217   6.140
 2383SOL    HW2 8049   5.582   5.065   6.091
 2384SOL     OW 8050   0.675   2.021   2.574
 2384SOL    HW1 8051   0.763   1.987   2.540
 2384SOL    HW2 8052   0.603   1.998   2.509
 2385SOL     OW 8053   0.633   1.530   0.768
 2385SOL    HW1 8054   0.559   1.480   0.812
 2385SOL    HW2 8055   0.700   1.466   0.732
 2386SOL     OW 8056   5.908   5.817   3.850
 2386SOL    HW1 8057   5.923   5.837   3.947
 2386SOL    HW2 8058   5.971   5.745   3.820
 2387SOL     OW 8059   1.769   1.428   3.984
 2387SOL    HW1 8060   1.808   1.515   3.955
 2387SOL    HW2 8061   1.708   1.393   3.913
 2388SOL     OW 8062   6.591   2.308   4.933
 2388SOL    HW1 8063   6.654   2.242   4.893
 2388SOL    HW2 8064   6.616   2.326   5.028
 2389SOL     OW 8065   4.636   4.277   3.965
 2389SOL    HW1 8066   4.611   4.187   3.929
 2389SOL    HW2 8067   4.604   4.348   3.902
 2390SOL     OW 8068   4.604   3.223   5.712
 2390SOL    HW1 8069   4.555   3.140   5.688
 2390SOL    HW2 8070   4.539   3.293   5.742
 2391SOL     OW 8071   3.119   4.244   5.932
 2391SOL    HW1 8072   3.025   4.216   5.951
 2391SOL    HW2 8073   3.150   4.308   6.003
 2392SOL     OW 8074   4.413   4.562   5.640
 2392SOL    HW1 8075   4.430   4.660   5.632
 2392SOL    HW2 8076   4.367   4.529   5.558
 2393SOL     OW 8077   4.101   4.374   1.230
 2393SOL    HW1 8078   4.032   4.346   1.163
 2393SOL    HW2 8079   4.172   4.304   1.236
 2394SOL     OW 8080   0.406   2.924   3.461
 2394SOL    HW1 8081   0.432   2.829   3.442
 2394SOL    HW2 8082   0.430   2.947   3.555
 2395SOL     OW 8083   0.704   3.006   4.657
 2395SOL    HW1 8084   0.665   2.930   4.710
 2395SOL    HW2 8085   0.632   3.046   4.600
 2396SOL     OW 8086   0.570   0.298   5.239
 2396SOL    HW1 8087   0.494   0.316   5.301
 2396SOL    HW2 8088   0.653   0.278   5.291
 2397SOL     OW 8089   0.269   4.189   5.368
 2397SOL    HW1 8090   0.237   4.191   5.462
 2397SOL    HW2 8091   0.199   4.150   5.309
 2398SOL     OW 8092   3.702   6.512   4.312
 2398SOL    HW1 8093   3.750   6.496   4.226
 2398SOL    HW2 8094   3.670   6.425   4.349
 2399SOL     OW 8095   3.193   2.131   3.497
 2399SOL    HW1 8096   3.247   2.144   3.580
 2399SOL    HW2 8097   3.107   2.181   3.505
 2400SOL     OW 8098   1.413   3.798   0.854
 2400SOL    HW1 8099   1.394   3.816   0.757
 2400SOL    HW2 8100   1.486   3.730   0.862
 2401SOL     OW 8101   2.749   6.945   5.830
 2401SOL    HW1 8102   2.812   7.016   5.797
 2401SOL    HW2 8103   2.684   6.986   5.895
 2402SOL     OW 8104   1.652   4.188   1.733
 2402SOL    HW1 8105   1.599   4.133   1.798
 2402SOL    HW2 8106   1.590   4.234   1.670
 2403SOL     OW 8107   4.051   3.211   3.175
 2403SOL    HW1 8108   4.101   3.125   3.186
 2403SOL    HW2 8109   3.954   3.191   3.159
 2404SOL     OW 8110   5.879   1.029   1.111
 2404SOL    HW1 8111   5.845   0.935   1.110
 2404SOL    HW2 8112   5.943   1.040   1.187
 2405SOL     OW 8113   2.731   3.041   0.890
 2405SOL    HW1 8114   2.688   2.991   0.815
 2405SOL    HW2 8115   2.778   2.976   0.951
 2406SOL     OW 8116   3.205   6.312   4.569
 2406SOL    HW1 8117   3.194   6.237   4.635
 2406SOL    HW2 8118   3.122   6.319   4.513
 2407SOL     OW 8119   2.530   0.864   3.573
 2407SOL    HW1 8120   2.615   0.813   3.568
 2407SOL    HW2 8121   2.504   0.895   3.481
 2408SOL     OW 8122   3.739   6.261   4.882
 2408SOL    HW1 8123   3.735   6.324   4.804
 2408SOL    HW2 8124   3.696   6.174   4.857
 2409SOL     OW 8125   1.589   3.309   1.371
 2409SOL    HW1 8126   1.542   3.335   1.286
 2409SOL    HW2 8127   1.538   3.346   1.449
 2410SOL     OW 8128   0.772   3.266   4.635
 2410SOL    HW1 8129   0.823   3.307   4.710
 2410SOL    HW2 8130   0.750   3.171   4.658
 2411SOL     OW 8131   3.133   3.249   0.088
 2411SOL    HW1 8132   3.111   3.228   7.017
 2411SOL    HW2 8133   3.069   3.317   0.122
 2412SOL     OW 8134   3.593   1.714   6.563
 2412SOL    HW1 8135   3.499   1.749   6.564
 2412SOL    HW2 8136   3.640   1.745   6.645
 2413SOL     OW 8137   0.580   3.447   6.976
 2413SOL    HW1 8138   0.564   3.410   6.885
 2413SOL    HW2 8139   0.541   3.385   0.019
 2414SOL     OW 8140   6.154   2.192   5.070
 2414SOL    HW1 8141   6.061   2.222   5.049
 2414SOL    HW2 8142   6.219   2.265   5.047
 2415SOL     OW 8143   2.663   5.620   0.378
 2415SOL    HW1 8144   2.620   5.627   0.288
 2415SOL    HW2 8145   2.761   5.638   0.370
 2416SOL     OW 8146   0.217   3.278   2.063
 2416SOL    HW1 8147   0.182   3.187   2.084
 2416SOL    HW2 8148   0.167   3.316   1.985
 2417SOL     OW 8149   3.083   2.656   1.725
 2417SOL    HW1 8150   3.007   2.683   1.666
 2417SOL    HW2 8151   3.050   2.592   1.795
 2418SOL     OW 8152   4.599   4.116   6.872
 2418SOL    HW1 8153   4.643   4.039   6.826
 2418SOL    HW2 8154   4.600   4.101   6.971
 2419SOL     OW 8155   2.509   6.878   3.258
 2419SOL    HW1 8156   2.563   6.958   3.233
 2419SOL    HW2 8157   2.422   6.908   3.296
 2420SOL     OW 8158   1.121   3.909   2.921
 2420SOL    HW1 8159   1.190   3.901   2.993
 2420SOL    HW2 8160   1.033   3.875   2.955
 2421SOL     OW 8161   2.968   6.659   4.662
 2421SOL    HW1 8162   2.964   6.578   4.721
 2421SOL    HW2 8163   3.058   6.701   4.669
 2422SOL     OW 8164   4.695   5.902   1.155
 2422SOL    HW1 8165   4.631   5.978   1.147
 2422SOL    HW2 8166   4.777   5.933   1.204
 2423SOL     OW 8167   2.782   5.317   2.768
 2423SOL    HW1 8168   2.831   5.334   2.682
 2423SOL    HW2 8169   2.696   5.271   2.748
 2424SOL     OW 8170   5.408   0.311   5.988
 2424SOL    HW1 8171   5.459   0.363   5.919
 2424SOL    HW2 8172   5.369   0.374   6.055
 2425SOL     OW 8173   5.202   5.357   4.839
 2425SOL    HW1 8174   5.237   5.374   4.932
 2425SOL    HW2 8175   5.146   5.275   4.840
 2426SOL     OW 8176   2.148   3.555   5.546
 2426SOL    HW1 8177   2.167   3.649   5.516
 2426SOL    HW2 8178   2.234   3.505   5.555
 2427SOL     OW 8179   5.188   1.016   6.637
 2427SOL    HW1 8180   5.175   0.955   6.715
 2427SOL    HW2 8181   5.286   1.021   6.615
 2428SOL     OW 8182   1.103   0.720   3.042
 2428SOL    HW1 8183   1.060   0.710   2.953
 2428SOL    HW2 8184   1.063   0.799   3.089
 2429SOL     OW 8185   5.618   5.332   1.594
 2429SOL    HW1 8186   5.657   5.365   1.680
 2429SOL    HW2 8187   5.672   5.367   1.517
 2430SOL     OW 8188   5.886   1.307   6.555
 2430SOL    HW1 8189   5.837   1.363   6.622
 2430SOL    HW2 8190   5.984   1.321   6.565
 2431SOL     OW 8191   6.993   2.958   1.583
 2431SOL    HW1 8192   0.055   2.909   1.584
 2431SOL    HW2 8193   6.959   2.969   1.676
 2432SOL     OW 8194   2.877   5.239   1.645
 2432SOL    HW1 8195   2.921   5.298   1.712
 2432SOL    HW2 8196   2.896   5.143   1.669
 2433SOL     OW 8197   6.481   4.037   5.330
 2433SOL    HW1 8198   6.487   4.082   5.242
 2433SOL    HW2 8199   6.430   3.952   5.321
 2434SOL     OW 8200   4.791   0.990   2.741
 2434SOL    HW1 8201   4.726   0.942   2.800
 2434SOL    HW2 8202   4.769   0.970   2.645
 2435SOL     OW 8203   6.203   6.767   6.686
 2435SOL    HW1 8204   6.272   6.704   6.651
 2435SOL    HW2 8205   6.159   6.814   6.609
 2436SOL     OW 8206   2.152   1.987   1.937
 2436SOL    HW1 8207   2.119   1.991   1.843
 2436SOL    HW2 8208   2.138   1.894   1.973
 2437SOL     OW 8209   0.023   4.432   2.492
 2437SOL    HW1 8210   0.111   4.418   2.447
 2437SOL    HW2 8211   0.035   4.430   2.591
 2438SOL     OW 8212   3.316   1.160   4.672
 2438SOL    HW1 8213   3.336   1.099   4.749
 2438SOL    HW2 8214   3.350   1.119   4.587
 2439SOL     OW 8215   1.380   6.903   1.627
 2439SOL    HW1 8216   1.309   6.875   1.562
 2439SOL    HW2 8217   1.453   6.834   1.627
 2440SOL     OW 8218   5.690   1.287   5.332
 2440SOL    HW1 8219   5.598   1.247   5.332
 2440SOL    HW2 8220   5.750   1.231   5.274
 2441SOL     OW 8221   6.967   0.203   0.050
 2441SOL    HW1 8222   6.902   0.157   7.014
 2441SOL    HW2 8223   0.035   0.189   0.017
 2442SOL     OW 8224   4.892   3.478   1.860
 2442SOL    HW1 8225   4.840   3.402   1.821
 2442SOL    HW2 8226   4.959   3.444   1.925
 2443SOL     OW 8227   0.411   2.655   1.375
 2443SOL    HW1 8228   0.365   2.598   1.443
 2443SOL    HW2 8229   0.409   2.751   1.404
 2444SOL     OW 8230   4.011   5.680   2.126
 2444SOL    HW1 8231   3.961   5.678   2.039
 2444SOL    HW2 8232   3.998   5.594   2.174
 2445SOL     OW 8233   6.920   2.604   0.935
 2445SOL    HW1 8234   6.999   2.598   0.996
 2445SOL    HW2 8235   6.865   2.521   0.942
 2446SOL     OW 8236   1.492   4.866   1.210
 2446SOL    HW1 8237   1.576   4.815   1.189
 2446SOL    HW2 8238   1.510   4.964   1.204
 2447SOL     OW 8239   2.378   6.619   6.989
 2447SOL    HW1 8240   2.338   6.554   6.923
 2447SOL    HW2 8241   2.435   6.569   0.029
 2448SOL     OW 8242   6.623   1.542   4.306
 2448SOL    HW1 8243   6.698   1.547   4.372
 2448SOL    HW2 8244   6.632   1.614   4.238
 2449SOL     OW 8245   1.570   4.067   1.439
 2449SOL    HW1 8246   1.522   4.031   1.518
 2449SOL    HW2 8247   1.596   4.163   1.456
 2450SOL     OW 8248   1.446   6.750   5.833
 2450SOL    HW1 8249   1.481   6.657   5.825
 2450SOL    HW2 8250   1.352   6.753   5.799
 2451SOL     OW 8251   1.075   0.017   4.634
 2451SOL    HW1 8252   1.164   6.996   4.643
 2451SOL    HW2 8253   1.045   0.012   4.538
 2452SOL     OW 8254   2.520   1.701   3.974
 2452SOL    HW1 8255   2.552   1.662   4.061
 2452SOL    HW2 8256   2.433   1.748   3.989
 2453SOL     OW 8257   1.089   1.157   6.493
 2453SOL    HW1 8258   1.110   1.060   6.476
 2453SOL    HW2 8259   1.158   1.196   6.553
 2454SOL     OW 8260   3.007   5.858   1.473
 2454SOL    HW1 8261   2.998   5.779   1.412
 2454SOL    HW2 8262   3.009   5.942   1.418
 2455SOL     OW 8263   3.663   2.706   0.714
 2455SOL    HW1 8264   3.606   2.733   0.792
 2455SOL    HW2 8265   3.744   2.765   0.709
 2456SOL     OW 8266   0.951   4.544   6.239
 2456SOL    HW1 8267   0.996   4.467   6.195
 2456SOL    HW2 8268   0.853   4.542   6.220
 2457SOL     OW 8269   4.831   2.172   5.016
 2457SOL    HW1 8270   4.735   2.151   4.997
 2457SOL    HW2 8271   4.837   2.223   5.102
 2458SOL     OW 8272   1.183   0.657   1.791
 2458SOL    HW1 8273   1.263   0.597   1.790
 2458SOL    HW2 8274   1.214   0.752   1.795
 2459SOL     OW 8275   2.621   6.383   0.962
 2459SOL    HW1 8276   2.627   6.469   1.013
 2459SOL    HW2 8277   2.596   6.403   0.867
 2460SOL     OW 8278   1.417   1.159   5.019
 2460SOL    HW1 8279   1.392   1.229   4.951
 2460SOL    HW2 8280   1.513   1.134   5.007
 2461SOL     OW 8281   4.474   0.971   3.751
 2461SOL    HW1 8282   4.385   0.938   3.718
 2461SOL    HW2 8283   4.487   0.942   3.846
 2462SOL     OW 8284   0.354   3.555   0.838
 2462SOL    HW1 8285   0.290   3.497   0.788
 2462SOL    HW2 8286   0.432   3.501   0.868
 2463SOL     OW 8287   6.737   1.040   6.944
 2463SOL    HW1 8288   6.660   1.032   6.880
 2463SOL    HW2 8289   6.823   1.027   6.894
 2464SOL     OW 8290   0.447   2.493   3.056
 2464SOL    HW1 8291   0.363   2.472   3.006
 2464SOL    HW2 8292   0.478   2.412   3.106
 2465SOL     OW 8293   0.464   5.056   5.396
 2465SOL    HW1 8294   0.521   5.135   5.419
 2465SOL    HW2 8295   0.419   5.022   5.478
 2466SOL     OW 8296   0.956   2.595   1.885
 2466SOL    HW1 8297   0.966   2.683   1.838
 2466SOL    HW2 8298   0.947   2.611   1.983
 2467SOL     OW 8299   5.897   2.187   5.502
 2467SOL    HW1 8300   5.884   2.145   5.413
 2467SOL    HW2 8301   5.810   2.224   5.534
 2468SOL     OW 8302   3.331   6.624   5.441
 2468SOL    HW1 8303   3.346   6.575   5.527
 2468SOL    HW2 8304   3.295   6.562   5.372
 2469SOL     OW 8305   3.374   2.420   5.946
 2469SOL    HW1 8306   3.372   2.359   6.025
 2469SOL    HW2 8307   3.325   2.377   5.870
 2470SOL     OW 8308   2.745   4.588   6.496
 2470SOL    HW1 8309   2.724   4.630   6.584
 2470SOL    HW2 8310   2.839   4.554   6.496
 2471SOL     OW 8311   3.545   5.625   1.647
 2471SOL    HW1 8312   3.547   5.701   1.581
 2471SOL    HW2 8313   3.496   5.655   1.729
 2472SOL     OW 8314   4.766   1.860   4.297
 2472SOL    HW1 8315   4.789   1.845   4.393
 2472SOL    HW2 8316   4.851   1.866   4.244
 2473SOL     OW 8317   0.633   4.432   5.262
 2473SOL    HW1 8318   0.718   4.459   5.306
 2473SOL    HW2 8319   0.593   4.354   5.310
 2474SOL     OW 8320   1.384   5.597   1.576
 2474SOL    HW1 8321   1.292   5.634   1.585
 2474SOL    HW2 8322   1.451   5.666   1.604
 2475SOL     OW 8323   4.917   0.319   0.687
 2475SOL    HW1 8324   4.859   0.286   0.612
 2475SOL    HW2 8325   4.955   0.408   0.663
 2476SOL     OW 8326   5.583   0.748   6.717
 2476SOL    HW1 8327   5.539   0.798   6.791
 2476SOL    HW2 8328   5.641   0.676   6.755
 2477SOL     OW 8329   3.417   0.018   3.566
 2477SOL    HW1 8330   3.384   0.086   3.501
 2477SOL    HW2 8331   3.460   0.063   3.644
 2478SOL     OW 8332   4.755   0.937   3.305
 2478SOL    HW1 8333   4.848   0.962   3.330
 2478SOL    HW2 8334   4.691   0.970   3.374
 2479SOL     OW 8335   0.518   4.215   0.094
 2479SOL    HW1 8336   0.447   4.162   0.140
 2479SOL    HW2 8337   0.584   4.152   0.052
 2480SOL     OW 8338   3.483   2.587   1.339
 2480SOL    HW1 8339   3.547   2.634   1.400
 2480SOL    HW2 8340   3.410   2.546   1.393
 2481SOL     OW 8341   3.150   0.157   1.210
 2481SOL    HW1 8342   3.238   0.197   1.183
 2481SOL    HW2 8343   3.118   0.094   1.140
 2482SOL     OW 8344   5.345   3.220   6.958
 2482SOL    HW1 8345   5.419   3.277   6.994
 2482SOL    HW2 8346   5.367   3.124   6.977
 2483SOL     OW 8347   0.756   1.986   1.077
 2483SOL    HW1 8348   0.730   2.077   1.110
 2483SOL    HW2 8349   0.684   1.951   1.016
 2484SOL     OW 8350   5.322   1.751   1.699
 2484SOL    HW1 8351   5.384   1.798   1.636
 2484SOL    HW2 8352   5.325   1.796   1.788
 2485SOL     OW 8353   5.488   2.587   6.199
 2485SOL    HW1 8354   5.434   2.670   6.186
 2485SOL    HW2 8355   5.585   2.611   6.203
 2486SOL     OW 8356   0.612   3.913   5.187
 2486SOL    HW1 8357   0.544   3.851   5.226
 2486SOL    HW2 8358   0.694   3.861   5.162
 2487SOL     OW 8359   4.518   5.684   0.327
 2487SOL    HW1 8360   4.425   5.693   0.292
 2487SOL    HW2 8361   4.544   5.767   0.376
 2488SOL     OW 8362   6.891   3.877   1.572
 2488SOL    HW1 8363   6.879   3.846   1.667
 2488SOL    HW2 8364   6.854   3.808   1.510
 2489SOL     OW 8365   0.668   5.988   4.224
 2489SOL    HW1 8366   0.638   6.062   4.284
 2489SOL    HW2 8367   0.768   5.992   4.212
 2490SOL     OW 8368   3.164   5.940   2.226
 2490SOL    HW1 8369   3.133   5.855   2.183
 2490SOL    HW2 8370   3.230   5.919   2.298
 2491SOL     OW 8371   3.916   4.421   1.689
 2491SOL    HW1 8372   3.845   4.354   1.667
 2491SOL    HW2 8373   3.995   4.407   1.629
 2492SOL     OW 8374   6.368   4.026   0.847
 2492SOL    HW1 8375   6.416   4.082   0.915
 2492SOL    HW2 8376   6.279   3.998   0.883
 2493SOL     OW 8377   6.774   6.454   1.581
 2493SOL    HW1 8378   6.794   6.522   1.511
 2493SOL    HW2 8379   6.846   6.454   1.650
 2494SOL     OW 8380   6.025   2.497   1.544
 2494SOL    HW1 8381   6.080   2.455   1.472
 2494SOL    HW2 8382   5.979   2.426   1.597
 2495SOL     OW 8383   6.605   5.837   3.768
 2495SOL    HW1 8384   6.557   5.822   3.682
 2495SOL    HW2 8385   6.704   5.838   3.752
 2496SOL     OW 8386   6.608   5.007   6.507
 2496SOL    HW1 8387   6.690   4.959   6.537
 2496SOL    HW2 8388   6.609   5.100   6.543
 2497SOL     OW 8389   0.227   6.449   2.236
 2497SOL    HW1 8390   0.209   6.548   2.242
 2497SOL    HW2 8391   0.278   6.420   2.316
 2498SOL     OW 8392   2.192   2.711   5.521
 2498SOL    HW1 8393   2.243   2.765   5.455
 2498SOL    HW2 8394   2.212   2.743   5.613
 2499SOL     OW 8395   6.545   3.520   0.981
 2499SOL    HW1 8396   6.554   3.502   1.079
 2499SOL    HW2 8397   6.633   3.549   0.944
 2500SOL     OW 8398   3.095   3.830   6.456
 2500SOL    HW1 8399   3.189   3.836   6.489
 2500SOL    HW2 8400   3.082   3.893   6.379
 2501SOL     OW 8401   6.040   5.299   0.470
 2501SOL    HW1 8402   6.056   5.271   0.564
 2501SOL    HW2 8403   6.082   5.388   0.453
 2502SOL     OW 8404   2.660   5.786   4.136
 2502SOL    HW1 8405   2.714   5.814   4.057
 2502SOL    HW2 8406   2.608   5.864   4.170
 2503SOL     OW 8407   2.858   6.989   5.133
 2503SOL    HW1 8408   2.772   6.963   5.088
 2503SOL    HW2 8409   2.931   6.928   5.101
 2504SOL     OW 8410   3.264   5.576   2.653
 2504SOL    HW1 8411   3.344   5.632   2.673
 2504SOL    HW2 8412   3.287   5.480   2.663
 2505SOL     OW 8413   6.791   6.220   2.713
 2505SOL    HW1 8414   6.748   6.310   2.701
 2505SOL    HW2 8415   6.721   6.153   2.740
 2506SOL     OW 8416   6.143   4.592   5.898
 2506SOL    HW1 8417   6.209   4.522   5.871
 2506SOL    HW2 8418   6.051   4.554   5.896
 2507SOL     OW 8419   6.988   3.549   0.564
 2507SOL    HW1 8420   6.907   3.586   0.518
 2507SOL    HW2 8421   0.044   3.598   0.533
 2508SOL     OW 8422   3.552   1.637   4.700
 2508SOL    HW1 8423   3.462   1.662   4.737
 2508SOL    HW2 8424   3.588   1.559   4.751
 2509SOL     OW 8425   6.768   3.525   6.161
 2509SOL    HW1 8426   6.815   3.452   6.111
 2509SOL    HW2 8427   6.680   3.544   6.118
 2510SOL     OW 8428   3.030   3.989   1.677
 2510SOL    HW1 8429   3.127   4.006   1.689
 2510SOL    HW2 8430   2.979   4.075   1.685
 2511SOL     OW 8431   2.576   0.740   4.964
 2511SOL    HW1 8432   2.545   0.712   5.055
 2511SOL    HW2 8433   2.644   0.813   4.973
 2512SOL     OW 8434   3.653   4.919   5.307
 2512SOL    HW1 8435   3.581   4.924   5.237
 2512SOL    HW2 8436   3.705   4.835   5.295
 2513SOL     OW 8437   1.999   6.313   5.947
 2513SOL    HW1 8438   2.056   6.313   6.029
 2513SOL    HW2 8439   1.935   6.389   5.951
 2514SOL     OW 8440   1.145   2.781   3.341
 2514SOL    HW1 8441   1.093   2.719   3.282
 2514SOL    HW2 8442   1.204   2.728   3.402
 2515SOL     OW 8443   1.750   0.885   1.184
 2515SOL    HW1 8444   1.829   0.834   1.217
 2515SOL    HW2 8445   1.764   0.982   1.199
 2516SOL     OW 8446   5.664   1.511   3.380
 2516SOL    HW1 8447   5.610   1.567   3.317
 2516SOL    HW2 8448   5.744   1.474   3.331
 2517SOL     OW 8449   1.209   0.972   4.564
 2517SOL    HW1 8450   1.153   0.983   4.646
 2517SOL    HW2 8451   1.190   1.047   4.500
 2518SOL     OW 8452   2.438   4.679   1.133
 2518SOL    HW1 8453   2.528   4.652   1.098
 2518SOL    HW2 8454   2.449   4.749   1.204
 2519SOL     OW 8455   2.352   1.328   1.531
 2519SOL    HW1 8456   2.335   1.247   1.588
 2519SOL    HW2 8457   2.377   1.405   1.590
 2520SOL     OW 8458   3.154   2.545   1.033
 2520SOL    HW1 8459   3.120   2.497   0.952
 2520SOL    HW2 8460   3.251   2.567   1.020
 2521SOL     OW 8461   4.021   1.670   5.138
 2521SOL    HW1 8462   4.078   1.589   5.127
 2521SOL    HW2 8463   4.079   1.750   5.156
 2522SOL     OW 8464   0.963   1.623   5.498
 2522SOL    HW1 8465   0.933   1.529   5.481
 2522SOL    HW2 8466   0.979   1.635   5.596
 2523SOL     OW 8467   1.583   4.622   0.815
 2523SOL    HW1 8468   1.649   4.559   0.856
 2523SOL    HW2 8469   1.575   4.704   0.873
 2524SOL     OW 8470   1.657   6.587   4.399
 2524SOL    HW1 8471   1.584   6.540   4.449
 2524SOL    HW2 8472   1.671   6.678   4.439
 2525SOL     OW 8473   0.897   3.087   4.382
 2525SOL    HW1 8474   0.889   2.988   4.372
 2525SOL    HW2 8475   0.992   3.111   4.403
 2526SOL     OW 8476   0.908   5.408   6.656
 2526SOL    HW1 8477   0.947   5.418   6.747
 2526SOL    HW2 8478   0.965   5.346   6.602
 2527SOL     OW 8479   5.318   5.511   5.855
 2527SOL    HW1 8480   5.228   5.470   5.844
 2527SOL    HW2 8481   5.358   5.482   5.942
 2528SOL     OW 8482   5.312   5.139   5.964
 2528SOL    HW1 8483   5.242   5.159   6.032
 2528SOL    HW2 8484   5.400   5.173   5.996
 2529SOL     OW 8485   0.491   7.010   6.148
 2529SOL    HW1 8486   0.497   6.951   6.067
 2529SOL    HW2 8487   0.474   6.954   6.229
 2530SOL     OW 8488   2.842   5.432   5.529
 2530SOL    HW1 8489   2.924   5.476   5.492
 2530SOL    HW2 8490   2.864   5.338   5.556
 2531SOL     OW 8491   6.261   5.471   5.613
 2531SOL    HW1 8492   6.258   5.551   5.553
 2531SOL    HW2 8493   6.205   5.488   5.694
 2532SOL     OW 8494   0.904   6.133   1.377
 2532SOL    HW1 8495   1.000   6.160   1.385
 2532SOL    HW2 8496   0.845   6.211   1.402
 2533SOL     OW 8497   5.263   0.913   3.341
 2533SOL    HW1 8498   5.233   0.988   3.400
 2533SOL    HW2 8499   5.346   0.940   3.292
 2534SOL     OW 8500   4.667   2.020   1.873
 2534SOL    HW1 8501   4.610   1.969   1.937
 2534SOL    HW2 8502   4.619   2.103   1.844
 2535SOL     OW 8503   3.404   2.621   6.605
 2535SOL    HW1 8504   3.388   2.620   6.704
 2535SOL    HW2 8505   3.502   2.630   6.587
 2536SOL     OW 8506   1.878   0.412   6.739
 2536SOL    HW1 8507   1.957   0.360   6.771
 2536SOL    HW2 8508   1.803   0.350   6.717
 2537SOL     OW 8509   4.025   0.679   6.803
 2537SOL    HW1 8510   4.088   0.619   6.754
 2537SOL    HW2 8511   4.076   0.755   6.843
 2538SOL     OW 8512   0.224   3.854   3.546
 2538SOL    HW1 8513   0.266   3.938   3.582
 2538SOL    HW2 8514   0.148   3.827   3.606
 2539SOL     OW 8515   6.241   1.111   4.228
 2539SOL    HW1 8516   6.197   1.073   4.309
 2539SOL    HW2 8517   6.329   1.064   4.213
 2540SOL     OW 8518   3.830   1.731   2.989
 2540SOL    HW1 8519   3.878   1.810   3.026
 2540SOL    HW2 8520   3.845   1.652   3.047
 2541SOL     OW 8521   3.146   0.240   4.940
 2541SOL    HW1 8522   3.221   0.231   4.875
 2541SOL    HW2 8523   3.142   0.334   4.973
 2542SOL     OW 8524   1.797   4.385   6.556
 2542SOL    HW1 8525   1.778   4.374   6.654
 2542SOL    HW2 8526   1.718   4.353   6.504
 2543SOL     OW 8527   0.620   1.946   4.310
 2543SOL    HW1 8528   0.694   1.996   4.355
 2543SOL    HW2 8529   0.578   2.004   4.240
 2544SOL     OW 8530   0.906   5.172   0.894
 2544SOL    HW1 8531   0.823   5.118   0.876
 2544SOL    HW2 8532   0.922   5.235   0.818
 2545SOL     OW 8533   1.463   6.774   2.630
 2545SOL    HW1 8534   1.558   6.753   2.652
 2545SOL    HW2 8535   1.422   6.827   2.704
 2546SOL     OW 8536   5.655   1.347   0.581
 2546SOL    HW1 8537   5.703   1.353   0.493
 2546SOL    HW2 8538   5.717   1.312   0.651
 2547SOL     OW 8539   0.209   3.554   5.895
 2547SOL    HW1 8540   0.215   3.606   5.980
 2547SOL    HW2 8541   0.301   3.527   5.867
 2548SOL     OW 8542   1.239   6.179   4.389
 2548SOL    HW1 8543   1.158   6.195   4.446
 2548SOL    HW2 8544   1.265   6.264   4.344
 2549SOL     OW 8545   0.261   0.166   1.505
 2549SOL    HW1 8546   0.182   0.167   1.443
 2549SOL    HW2 8547   0.272   0.257   1.545
 2550SOL     OW 8548   6.004   6.698   0.643
 2550SOL    HW1 8549   6.071   6.629   0.618
 2550SOL    HW2 8550   6.052   6.782   0.671
 2551SOL     OW 8551   2.406   4.248   6.821
 2551SOL    HW1 8552   2.443   4.333   6.856
 2551SOL    HW2 8553   2.306   4.251   6.824
 2552SOL     OW 8554   2.969   4.819   4.037
 2552SOL    HW1 8555   2.939   4.788   3.947
 2552SOL    HW2 8556   3.061   4.856   4.031
 2553SOL     OW 8557   3.999   3.834   6.204
 2553SOL    HW1 8558   4.019   3.921   6.158
 2553SOL    HW2 8559   4.049   3.760   6.159
 2554SOL     OW 8560   1.968   2.053   1.240
 2554SOL    HW1 8561   1.873   2.075   1.262
 2554SOL    HW2 8562   1.993   1.967   1.284
 2555SOL     OW 8563   5.075   2.931   4.637
 2555SOL    HW1 8564   5.082   2.861   4.709
 2555SOL    HW2 8565   4.980   2.944   4.612
 2556SOL     OW 8566   3.994   5.964   0.598
 2556SOL    HW1 8567   3.925   6.014   0.545
 2556SOL    HW2 8568   3.970   5.866   0.598
 2557SOL     OW 8569   1.798   3.997   6.864
 2557SOL    HW1 8570   1.787   4.016   6.766
 2557SOL    HW2 8571   1.742   4.060   6.917
 2558SOL     OW 8572   4.959   1.710   5.891
 2558SOL    HW1 8573   5.019   1.638   5.855
 2558SOL    HW2 8574   5.011   1.795   5.900
 2559SOL     OW 8575   0.294   4.565   5.715
 2559SOL    HW1 8576   0.261   4.554   5.809
 2559SOL    HW2 8577   0.225   4.612   5.661
 2560SOL     OW 8578   6.102   2.143   6.100
 2560SOL    HW1 8579   6.174   2.118   6.165
 2560SOL    HW2 8580   6.024   2.082   6.112
 2561SOL     OW 8581   3.257   5.122   4.954
 2561SOL    HW1 8582   3.311   5.150   5.034
 2561SOL    HW2 8583   3.301   5.043   4.911
 2562SOL     OW 8584   2.351   4.017   0.622
 2562SOL    HW1 8585   2.264   4.041   0.664
 2562SOL    HW2 8586   2.342   3.931   0.573
 2563SOL     OW 8587   2.832   0.875   0.238
 2563SOL    HW1 8588   2.870   0.962   0.269
 2563SOL    HW2 8589   2.786   0.889   0.150
 2564SOL     OW 8590   1.899   5.585   0.574
 2564SOL    HW1 8591   1.857   5.503   0.611
 2564SOL    HW2 8592   1.985   5.603   0.622
 2565SOL     OW 8593   1.054   0.814   1.076
 2565SOL    HW1 8594   1.105   0.736   1.040
 2565SOL    HW2 8595   1.101   0.899   1.053
 2566SOL     OW 8596   2.244   6.790   0.405
 2566SOL    HW1 8597   2.179   6.822   0.336
 2566SOL    HW2 8598   2.266   6.694   0.388
 2567SOL     OW 8599   1.731   6.743   0.715
 2567SOL    HW1 8600   1.777   6.823   0.753
 2567SOL    HW2 8601   1.792   6.695   0.652
 2568SOL     OW 8602   4.256   1.810   6.906
 2568SOL    HW1 8603   4.299   1.723   6.886
 2568SOL    HW2 8604   4.277   1.876   6.834
 2569SOL     OW 8605   3.641   0.504   3.779
 2569SOL    HW1 8606   3.639   0.420   3.725
 2569SOL    HW2 8607   3.587   0.491   3.862
 2570SOL     OW 8608   5.772   1.336   5.613
 2570SOL    HW1 8609   5.789   1.433   5.596
 2570SOL    HW2 8610   5.682   1.311   5.576
 2571SOL     OW 8611   1.220   5.076   3.925
 2571SOL    HW1 8612   1.245   5.110   3.834
 2571SOL    HW2 8613   1.122   5.088   3.939
 2572SOL     OW 8614   2.932   5.066   2.842
 2572SOL    HW1 8615   2.975   5.004   2.907
 2572SOL    HW2 8616   2.993   5.143   2.823
 2573SOL     OW 8617   0.324   1.250   1.295
 2573SOL    HW1 8618   0.356   1.334   1.338
 2573SOL    HW2 8619   0.286   1.189   1.365
 2574SOL     OW 8620   6.395   3.310   0.539
 2574SOL    HW1 8621   6.456   3.240   0.576
 2574SOL    HW2 8622   6.319   3.266   0.491
 2575SOL     OW 8623   6.444   6.005   0.234
 2575SOL    HW1 8624   6.350   5.981   0.257
 2575SOL    HW2 8625   6.450   6.102   0.213
 2576SOL     OW 8626   4.838   6.350   4.001
 2576SOL    HW1 8627   4.773   6.411   3.956
 2576SOL    HW2 8628   4.789   6.286   4.060
 2577SOL     OW 8629   2.998   4.794   2.274
 2577SOL    HW1 8630   2.966   4.828   2.185
 2577SOL    HW2 8631   3.093   4.822   2.288
 2578SOL     OW 8632   3.697   1.459   4.340
 2578SOL    HW1 8633   3.617   1.473   4.398
 2578SOL    HW2 8634   3.763   1.533   4.355
 2579SOL     OW 8635   0.697   6.971   3.904
 2579SOL    HW1 8636   0.714   6.888   3.957
 2579SOL    HW2 8637   0.766   6.979   3.832
 2580SOL     OW 8638   2.745   3.917   0.426
 2580SOL    HW1 8639   2.744   4.003   0.375
 2580SOL    HW2 8640   2.659   3.869   0.411
 2581SOL     OW 8641   3.058   6.963   5.708
 2581SOL    HW1 8642   3.051   6.898   5.784
 2581SOL    HW2 8643   3.030   0.029   5.739
 2582SOL     OW 8644   6.742   3.705   1.424
 2582SOL    HW1 8645   6.746   3.743   1.332
 2582SOL    HW2 8646   6.791   3.618   1.427
 2583SOL     OW 8647   6.165   6.908   0.743
 2583SOL    HW1 8648   6.210   6.833   0.791
 2583SOL    HW2 8649   6.233   6.978   0.719
 2584SOL     OW 8650   4.668   4.916   5.655
 2584SOL    HW1 8651   4.675   4.898   5.753
 2584SOL    HW2 8652   4.680   4.830   5.604
 2585SOL     OW 8653   3.264   5.446   6.743
 2585SOL    HW1 8654   3.360   5.420   6.746
 2585SOL    HW2 8655   3.256   5.544   6.723
 2586SOL     OW 8656   1.866   0.466   5.216
 2586SOL    HW1 8657   1.829   0.505   5.300
 2586SOL    HW2 8658   1.823   0.377   5.199
 2587SOL     OW 8659   0.362   1.685   2.779
 2587SOL    HW1 8660   0.334   1.781   2.780
 2587SOL    HW2 8661   0.367   1.653   2.685
 2588SOL     OW 8662   4.110   1.957   5.068
 2588SOL    HW1 8663   4.117   2.047   5.025
 2588SOL    HW2 8664   4.160   1.890   5.013
 2589SOL     OW 8665   1.258   6.242   6.801
 2589SOL    HW1 8666   1.279   6.305   6.876
 2589SOL    HW2 8667   1.167   6.263   6.765
 2590SOL     OW 8668   2.468   4.781   6.982
 2590SOL    HW1 8669   2.450   4.733   0.043
 2590SOL    HW2 8670   2.454   4.717   6.906
 2591SOL     OW 8671   6.458   5.859   4.292
 2591SOL    HW1 8672   6.538   5.805   4.266
 2591SOL    HW2 8673   6.487   5.940   4.341
 2592SOL     OW 8674   2.515   4.244   6.310
 2592SOL    HW1 8675   2.421   4.211   6.313
 2592SOL    HW2 8676   2.564   4.212   6.391
 2593SOL     OW 8677   2.780   5.490   0.605
 2593SOL    HW1 8678   2.869   5.450   0.584
 2593SOL    HW2 8679   2.733   5.513   0.521
 2594SOL     OW 8680   1.518   4.395   4.990
 2594SOL    HW1 8681   1.584   4.416   4.918
 2594SOL    HW2 8682   1.538   4.305   5.029
 2595SOL     OW 8683   1.777   1.056   4.336
 2595SOL    HW1 8684   1.799   1.153   4.347
 2595SOL    HW2 8685   1.720   1.025   4.411
 2596SOL     OW 8686   1.270   2.158   0.418
 2596SOL    HW1 8687   1.294   2.255   0.431
 2596SOL    HW2 8688   1.210   2.129   0.493
 2597SOL     OW 8689   0.683   6.283   6.463
 2597SOL    HW1 8690   0.701   6.195   6.419
 2597SOL    HW2 8691   0.682   6.355   6.394
 2598SOL     OW 8692   5.738   2.145   2.162
 2598SOL    HW1 8693   5.711   2.049   2.154
 2598SOL    HW2 8694   5.656   2.202   2.168
 2599SOL     OW 8695   3.074   6.996   2.507
 2599SOL    HW1 8696   3.087   6.897   2.508
 2599SOL    HW2 8697   3.162   0.016   2.495
 2600SOL     OW 8698   6.493   4.632   4.528
 2600SOL    HW1 8699   6.427   4.613   4.454
 2600SOL    HW2 8700   6.485   4.562   4.598
 2601SOL     OW 8701   1.309   1.702   2.419
 2601SOL    HW1 8702   1.389   1.643   2.408
 2601SOL    HW2 8703   1.308   1.741   2.511
 2602SOL     OW 8704   1.882   4.882   4.339
 2602SOL    HW1 8705   1.816   4.916   4.406
 2602SOL    HW2 8706   1.972   4.923   4.358
 2603SOL     OW 8707   2.822   1.045   2.735
 2603SOL    HW1 8708   2.755   0.972   2.743
 2603SOL    HW2 8709   2.778   1.128   2.702
 2604SOL     OW 8710   5.681   2.088   2.897
 2604SOL    HW1 8711   5.752   2.055   2.959
 2604SOL    HW2 8712   5.706   2.178   2.861
 2605SOL     OW 8713   1.175   3.442   1.776
 2605SOL    HW1 8714   1.258   3.481   1.815
 2605SOL    HW2 8715   1.170   3.466   1.679
 2606SOL     OW 8716   4.363   4.250   0.748
 2606SOL    HW1 8717   4.300   4.309   0.798
 2606SOL    HW2 8718   4.382   4.167   0.801
 2607SOL     OW 8719   2.293   1.757   0.879
 2607SOL    HW1 8720   2.266   1.661   0.888
 2607SOL    HW2 8721   2.376   1.773   0.932
 2608SOL     OW 8722   3.009   5.841   6.447
 2608SOL    HW1 8723   3.063   5.922   6.425
 2608SOL    HW2 8724   2.937   5.864   6.512
 2609SOL     OW 8725   0.559   0.167   1.251
 2609SOL    HW1 8726   0.542   0.184   1.154
 2609SOL    HW2 8727   0.601   0.077   1.262
 2610SOL     OW 8728   1.526   4.940   4.477
 2610SOL    HW1 8729   1.520   4.906   4.383
 2610SOL    HW2 8730   1.476   4.878   4.538
 2611SOL     OW 8731   5.479   6.643   6.581
 2611SOL    HW1 8732   5.497   6.545   6.578
 2611SOL    HW2 8733   5.512   6.686   6.496
 2612SOL     OW 8734   5.532   0.235   5.482
 2612SOL    HW1 8735   5.547   0.203   5.389
 2612SOL    HW2 8736   5.435   0.226   5.505
 2613SOL     OW 8737   0.597   5.979   6.788
 2613SOL    HW1 8738   0.583   5.893   6.739
 2613SOL    HW2 8739   0.591   5.963   6.887
 2614SOL     OW 8740   6.433   0.708   6.106
 2614SOL    HW1 8741   6.480   0.796   6.106
 2614SOL    HW2 8742   6.494   0.638   6.143
 2615SOL     OW 8743   1.202   3.538   0.684
 2615SOL    HW1 8744   1.234   3.549   0.590
 2615SOL    HW2 8745   1.281   3.521   0.743
 2616SOL     OW 8746   1.732   0.257   5.616
 2616SOL    HW1 8747   1.650   0.252   5.672
 2616SOL    HW2 8748   1.803   0.308   5.664
 2617SOL     OW 8749   5.434   0.148   0.827
 2617SOL    HW1 8750   5.531   0.170   0.833
 2617SOL    HW2 8751   5.421   0.050   0.843
 2618SOL     OW 8752   2.103   6.323   6.211
 2618SOL    HW1 8753   2.025   6.305   6.271
 2618SOL    HW2 8754   2.155   6.401   6.246
 2619SOL     OW 8755   5.075   1.515   2.449
 2619SOL    HW1 8756   5.042   1.597   2.402
 2619SOL    HW2 8757   5.151   1.475   2.397
 2620SOL     OW 8758   7.015   6.355   1.798
 2620SOL    HW1 8759   6.933   6.355   1.855
 2620SOL    HW2 8760   0.071   6.347   1.856
 2621SOL     OW 8761   1.684   6.198   2.779
 2621SOL    HW1 8762   1.613   6.181   2.847
 2621SOL    HW2 8763   1.746   6.119   2.776
 2622SOL     OW 8764   3.674   3.542   6.127
 2622SOL    HW1 8765   3.616   3.573   6.203
 2622SOL    HW2 8766   3.657   3.600   6.047
 2623SOL     OW 8767   1.085   6.804   3.930
 2623SOL    HW1 8768   1.083   6.712   3.892
 2623SOL    HW2 8769   1.100   6.870   3.856
 2624SOL     OW 8770   7.012   2.861   4.266
 2624SOL    HW1 8771   0.053   2.935   4.258
 2624SOL    HW2 8772   6.943   2.884   4.335
 2625SOL     OW 8773   1.909   5.400   5.348
 2625SOL    HW1 8774   1.838   5.438   5.289
 2625SOL    HW2 8775   1.998   5.410   5.303
 2626SOL     OW 8776   6.717   5.393   6.090
 2626SOL    HW1 8777   6.744   5.479   6.133
 2626SOL    HW2 8778   6.670   5.335   6.157
 2627SOL     OW 8779   2.002   6.769   5.833
 2627SOL    HW1 8780   2.040   6.849   5.787
 2627SOL    HW2 8781   2.050   6.687   5.801
 2628SOL     OW 8782   1.895   4.009   2.231
 2628SOL    HW1 8783   1.866   4.103   2.217
 2628SOL    HW2 8784   1.994   4.003   2.228
 2629SOL     OW 8785   3.190   4.058   3.555
 2629SOL    HW1 8786   3.230   4.099   3.472
 2629SOL    HW2 8787   3.100   4.020   3.533
 2630SOL     OW 8788   3.844   0.578   4.194
 2630SOL    HW1 8789   3.847   0.677   4.179
 2630SOL    HW2 8790   3.824   0.559   4.290
 2631SOL     OW 8791   5.879   0.935   0.090
 2631SOL    HW1 8792   5.967   0.983   0.084
 2631SOL    HW2 8793   5.894   0.843   0.124
 2632SOL     OW 8794   5.736   4.699   1.951
 2632SOL    HW1 8795   5.707   4.758   2.026
 2632SOL    HW2 8796   5.657   4.649   1.914
 2633SOL     OW 8797   0.168   2.871   6.236
 2633SOL    HW1 8798   0.071   2.853   6.254
 2633SOL    HW2 8799   0.176   2.934   6.158
 2634SOL     OW 8800   6.204   0.138   5.427
 2634SOL    HW1 8801   6.157   0.163   5.342
 2634SOL    HW2 8802   6.292   0.184   5.432
 2635SOL     OW 8803   5.885   5.544   4.113
 2635SOL    HW1 8804   5.940   5.624   4.090
 2635SOL    HW2 8805   5.803   5.574   4.162
 2636SOL     OW 8806   4.547   6.849   5.715
 2636SOL    HW1 8807   4.578   6.933   5.759
 2636SOL    HW2 8808   4.460   6.867   5.668
 2637SOL     OW 8809   1.591   1.474   3.343
 2637SOL    HW1 8810   1.663   1.540   3.325
 2637SOL    HW2 8811   1.529   1.470   3.265
 2638SOL     OW 8812   1.474   6.497   4.603
 2638SOL    HW1 8813   1.393   6.481   4.547
 2638SOL    HW2 8814   1.446   6.514   4.698
 2639SOL     OW 8815   4.014   4.742   5.169
 2639SOL    HW1 8816   3.989   4.798   5.091
 2639SOL    HW2 8817   3.932   4.705   5.213
 2640SOL     OW 8818   1.414   6.229   4.766
 2640SOL    HW1 8819   1.442   6.315   4.810
 2640SOL    HW2 8820   1.433   6.234   4.668
 2641SOL     OW 8821   5.630   2.706   6.499
 2641SOL    HW1 8822   5.652   2.802   6.482
 2641SOL    HW2 8823   5.533   2.689   6.479
 2642SOL     OW 8824   0.013   1.542   3.853
 2642SOL    HW1 8825   0.064   1.586   3.779
 2642SOL    HW2 8826   6.942   1.571   3.850
 2643SOL     OW 8827   1.622   4.681   3.759
 2643SOL    HW1 8828   1.682   4.601   3.766
 2643SOL    HW2 8829   1.660   4.757   3.810
 2644SOL     OW 8830   5.167   5.030   4.505
 2644SOL    HW1 8831   5.249   4.986   4.543
 2644SOL    HW2 8832   5.089   4.969   4.515
 2645SOL     OW 8833   5.385   5.503   3.226
 2645SOL    HW1 8834   5.445   5.439   3.273
 2645SOL    HW2 8835   5.438   5.555   3.159
 2646SOL     OW 8836   0.408   2.994   5.740
 2646SOL    HW1 8837   0.440   2.939   5.663
 2646SOL    HW2 8838   0.479   3.060   5.766
 2647SOL     OW 8839   4.956   0.368   1.996
 2647SOL    HW1 8840   4.858   0.386   2.000
 2647SOL    HW2 8841   4.972   0.272   2.019
 2648SOL     OW 8842   1.044   0.018   5.642
 2648SOL    HW1 8843   1.099   7.016   5.721
 2648SOL    HW2 8844   1.089   0.094   5.595
 2649SOL     OW 8845   4.990   2.916   1.622
 2649SOL    HW1 8846   5.079   2.953   1.597
 2649SOL    HW2 8847   4.920   2.986   1.606
 2650SOL     OW 8848   3.609   6.571   4.610
 2650SOL    HW1 8849   3.661   6.632   4.550
 2650SOL    HW2 8850   3.511   6.581   4.590
 2651SOL     OW 8851   3.857   2.174   4.943
 2651SOL    HW1 8852   3.817   2.201   4.855
 2651SOL    HW2 8853   3.953   2.200   4.946
 2652SOL     OW 8854   5.410   4.897   5.859
 2652SOL    HW1 8855   5.506   4.918   5.839
 2652SOL    HW2 8856   5.361   4.983   5.878
 2653SOL     OW 8857   2.765   6.310   0.418
 2653SOL    HW1 8858   2.792   6.353   0.505
 2653SOL    HW2 8859   2.669   6.282   0.423
 2654SOL     OW 8860   6.067   0.565   0.918
 2654SOL    HW1 8861   5.968   0.553   0.921
 2654SOL    HW2 8862   6.091   0.650   0.966
 2655SOL     OW 8863   4.537   5.722   2.853
 2655SOL    HW1 8864   4.624   5.740   2.900
 2655SOL    HW2 8865   4.488   5.809   2.841
 2656SOL     OW 8866   3.722   5.892   3.606
 2656SOL    HW1 8867   3.698   5.929   3.516
 2656SOL    HW2 8868   3.821   5.895   3.619
 2657SOL     OW 8869   1.633   3.853   0.168
 2657SOL    HW1 8870   1.586   3.771   0.202
 2657SOL    HW2 8871   1.726   3.827   0.139
 2658SOL     OW 8872   3.962   5.142   6.508
 2658SOL    HW1 8873   4.033   5.097   6.563
 2658SOL    HW2 8874   3.889   5.174   6.568
 2659SOL     OW 8875   6.646   2.141   4.654
 2659SOL    HW1 8876   6.689   2.092   4.579
 2659SOL    HW2 8877   6.644   2.239   4.632
 2660SOL     OW 8878   0.855   1.910   2.132
 2660SOL    HW1 8879   0.855   1.933   2.229
 2660SOL    HW2 8880   0.945   1.929   2.093
 2661SOL     OW 8881   2.001   1.134   0.579
 2661SOL    HW1 8882   2.064   1.112   0.504
 2661SOL    HW2 8883   1.943   1.054   0.598
 2662SOL     OW 8884   2.911   0.912   2.323
 2662SOL    HW1 8885   2.967   0.840   2.283
 2662SOL    HW2 8886   2.956   1.000   2.310
 2663SOL     OW 8887   4.565   6.542   0.401
 2663SOL    HW1 8888   4.622   6.619   0.370
 2663SOL    HW2 8889   4.509   6.572   0.479
 2664SOL     OW 8890   4.319   3.190   5.990
 2664SOL    HW1 8891   4.376   3.121   5.945
 2664SOL    HW2 8892   4.243   3.146   6.038
 2665SOL     OW 8893   1.971   3.595   4.473
 2665SOL    HW1 8894   1.995   3.682   4.429
 2665SOL    HW2 8895   2.003   3.595   4.567
 2666SOL     OW 8896   2.155   3.899   1.915
 2666SOL    HW1 8897   2.252   3.904   1.893
 2666SOL    HW2 8898   2.128   3.804   1.927
 2667SOL     OW 8899   6.416   3.758   4.536
 2667SOL    HW1 8900   6.368   3.796   4.615
 2667SOL    HW2 8901   6.364   3.681   4.500
 2668SOL     OW 8902   6.766   0.991   4.072
 2668SOL    HW1 8903   6.696   1.061   4.089
 2668SOL    HW2 8904   6.838   1.029   4.015
 2669SOL     OW 8905   2.536   0.667   0.280
 2669SOL    HW1 8906   2.571   0.759   0.297
 2669SOL    HW2 8907   2.562   0.607   0.355
 2670SOL     OW 8908   0.274   0.111   6.493
 2670SOL    HW1 8909   0.368   0.121   6.526
 2670SOL    HW2 8910   0.270   0.131   6.395
 2671SOL     OW 8911   4.171   4.833   6.425
 2671SOL    HW1 8912   4.238   4.795   6.362
 2671SOL    HW2 8913   4.167   4.778   6.508
 2672SOL     OW 8914   3.596   0.683   1.901
 2672SOL    HW1 8915   3.629   0.589   1.892
 2672SOL    HW2 8916   3.644   0.728   1.977
 2673SOL     OW 8917   4.617   0.878   2.965
 2673SOL    HW1 8918   4.546   0.864   2.896
 2673SOL    HW2 8919   4.598   0.819   3.044
 2674SOL     OW 8920   0.469   4.830   2.078
 2674SOL    HW1 8921   0.488   4.796   2.171
 2674SOL    HW2 8922   0.480   4.929   2.076
 2675SOL     OW 8923   5.565   0.354   4.809
 2675SOL    HW1 8924   5.526   0.378   4.898
 2675SOL    HW2 8925   5.492   0.321   4.749
 2676SOL     OW 8926   3.660   3.826   2.803
 2676SOL    HW1 8927   3.697   3.883   2.730
 2676SOL    HW2 8928   3.720   3.748   2.819
 2677SOL     OW 8929   2.330   5.057   1.294
 2677SOL    HW1 8930   2.319   5.142   1.242
 2677SOL    HW2 8931   2.347   5.080   1.390
 2678SOL     OW 8932   5.261   2.407   2.785
 2678SOL    HW1 8933   5.305   2.325   2.822
 2678SOL    HW2 8934   5.326   2.484   2.787
 2679SOL     OW 8935   2.074   4.622   3.578
 2679SOL    HW1 8936   2.086   4.685   3.654
 2679SOL    HW2 8937   2.121   4.657   3.497
 2680SOL     OW 8938   6.907   1.827   0.295
 2680SOL    HW1 8939   6.878   1.922   0.303
 2680SOL    HW2 8940   6.828   1.767   0.310
 2681SOL     OW 8941   1.662   2.218   5.451
 2681SOL    HW1 8942   1.609   2.168   5.520
 2681SOL    HW2 8943   1.741   2.261   5.494
 2682SOL     OW 8944   4.013   3.869   1.584
 2682SOL    HW1 8945   3.998   3.949   1.526
 2682SOL    HW2 8946   4.107   3.870   1.618
 2683SOL     OW 8947   2.553   4.563   2.585
 2683SOL    HW1 8948   2.635   4.575   2.529
 2683SOL    HW2 8949   2.472   4.570   2.526
 2684SOL     OW 8950   6.025   6.860   3.188
 2684SOL    HW1 8951   6.075   6.915   3.255
 2684SOL    HW2 8952   6.085   6.839   3.111
 2685SOL     OW 8953   1.655   5.938   5.591
 2685SOL    HW1 8954   1.611   5.899   5.511
 2685SOL    HW2 8955   1.744   5.976   5.566
 2686SOL     OW 8956   1.077   1.487   4.768
 2686SOL    HW1 8957   1.089   1.575   4.814
 2686SOL    HW2 8958   1.049   1.502   4.674
 2687SOL     OW 8959   3.851   1.431   1.830
 2687SOL    HW1 8960   3.937   1.422   1.779
 2687SOL    HW2 8961   3.863   1.394   1.922
 2688SOL     OW 8962   3.609   3.129   6.194
 2688SOL    HW1 8963   3.671   3.148   6.118
 2688SOL    HW2 8964   3.605   3.030   6.209
 2689SOL     OW 8965   1.333   3.426   2.736
 2689SOL    HW1 8966   1.373   3.422   2.645
 2689SOL    HW2 8967   1.376   3.500   2.788
 2690SOL     OW 8968   4.007   1.386   5.867
 2690SOL    HW1 8969   3.991   1.363   5.963
 2690SOL    HW2 8970   4.093   1.435   5.859
 2691SOL     OW 8971   7.009   4.307   4.222
 2691SOL    HW1 8972   6.922   4.275   4.184
 2691SOL    HW2 8973   7.016   4.406   4.210
 2692SOL     OW 8974   3.133   5.821   2.806
 2692SOL    HW1 8975   3.145   5.723   2.825
 2692SOL    HW2 8976   3.036   5.842   2.802
 2693SOL     OW 8977   2.364   5.603   3.181
 2693SOL    HW1 8978   2.414   5.582   3.097
 2693SOL    HW2 8979   2.315   5.521   3.212
 2694SOL     OW 8980   3.323   6.917   3.830
 2694SOL    HW1 8981   3.360   6.970   3.754
 2694SOL    HW2 8982   3.308   6.822   3.800
 2695SOL     OW 8983   0.103   5.626   3.567
 2695SOL    HW1 8984   0.123   5.672   3.481
 2695SOL    HW2 8985   0.023   5.567   3.555
 2696SOL     OW 8986   5.063   4.293   6.575
 2696SOL    HW1 8987   5.044   4.367   6.510
 2696SOL    HW2 8988   5.039   4.205   6.534
 2697SOL     OW 8989   3.831   1.965   0.057
 2697SOL    HW1 8990   3.746   1.912   0.059
 2697SOL    HW2 8991   3.824   2.042   0.121
 2698SOL     OW 8992   1.807   4.405   6.031
 2698SOL    HW1 8993   1.832   4.309   6.019
 2698SOL    HW2 8994   1.778   4.442   5.942
 2699SOL     OW 8995   3.443   6.366   2.040
 2699SOL    HW1 8996   3.421   6.341   2.134
 2699SOL    HW2 8997   3.478   6.286   1.991
 2700SOL     OW 8998   3.796   1.872   1.735
 2700SOL    HW1 8999   3.740   1.930   1.795
 2700SOL    HW2 9000   3.838   1.799   1.790
 2701SOL     OW 9001   5.365   2.978   4.961
 2701SOL    HW1 9002   5.432   2.964   4.888
 2701SOL    HW2 9003   5.353   2.892   5.012
 2702SOL     OW 9004   2.397   1.337   5.086
 2702SOL    HW1 9005   2.336   1.413   5.064
 2702SOL    HW2 9006   2.488   1.372   5.109
 2703SOL     OW 9007   1.408   0.059   2.253
 2703SOL    HW1 9008   1.410   6.984   2.240
 2703SOL    HW2 9009   1.324   0.084   2.300
 2704SOL     OW 9010   5.018   0.214   4.715
 2704SOL    HW1 9011   5.037   0.117   4.706
 2704SOL    HW2 9012   4.948   0.241   4.648
 2705SOL     OW 9013   6.824   0.014   5.139
 2705SOL    HW1 9014   6.919   7.012   5.155
 2705SOL    HW2 9015   6.801   0.091   5.198
 2706SOL     OW 9016   0.028   3.768   3.725
 2706SOL    HW1 9017   7.021   3.675   3.743
 2706SOL    HW2 9018   6.980   3.820   3.680
 2707SOL     OW 9019   3.610   0.560   3.350
 2707SOL    HW1 9020   3.571   0.572   3.442
 2707SOL    HW2 9021   3.543   0.515   3.291
 2708SOL     OW 9022   5.978   3.068   6.871
 2708SOL    HW1 9023   5.982   3.160   6.909
 2708SOL    HW2 9024   5.969   3.001   6.945
 2709SOL     OW 9025   4.540   1.219   4.283
 2709SOL    HW1 9026   4.493   1.141   4.240
 2709SOL    HW2 9027   4.545   1.295   4.218
 2710SOL     OW 9028   1.007   2.724   3.626
 2710SOL    HW1 9029   1.103   2.732   3.652
 2710SOL    HW2 9030   0.949   2.743   3.705
 2711SOL     OW 9031   3.457   1.924   2.280
 2711SOL    HW1 9032   3.427   1.985   2.207
 2711SOL    HW2 9033   3.554   1.943   2.301
 2712SOL     OW 9034   3.938   5.657   1.855
 2712SOL    HW1 9035   3.901   5.567   1.830
 2712SOL    HW2 9036   4.021   5.674   1.802
 2713SOL     OW 9037   3.276   4.632   6.722
 2713SOL    HW1 9038   3.185   4.603   6.750
 2713SOL    HW2 9039   3.337   4.553   6.720
 2714SOL     OW 9040   2.362   4.578   6.781
 2714SOL    HW1 9041   2.450   4.545   6.745
 2714SOL    HW2 9042   2.313   4.627   6.710
 2715SOL     OW 9043   4.348   0.939   1.057
 2715SOL    HW1 9044   4.278   1.000   1.094
 2715SOL    HW2 9045   4.362   0.863   1.120
 2716SOL     OW 9046   4.211   1.806   3.243
 2716SOL    HW1 9047   4.271   1.733   3.211
 2716SOL    HW2 9048   4.131   1.766   3.288
 2717SOL     OW 9049   0.817   0.793   2.940
 2717SOL    HW1 9050   0.834   0.818   2.844
 2717SOL    HW2 9051   0.842   0.870   2.999
 2718SOL     OW 9052   0.676   0.491   5.965
 2718SOL    HW1 9053   0.645   0.536   5.881
 2718SOL    HW2 9054   0.602   0.494   6.033
 2719SOL     OW 9055   2.041   3.522   2.439
 2719SOL    HW1 9056   2.075   3.462   2.367
 2719SOL    HW2 9057   2.057   3.618   2.414
 2720SOL     OW 9058   2.176   6.528   5.766
 2720SOL    HW1 9059   2.245   6.498   5.700
 2720SOL    HW2 9060   2.140   6.448   5.814
 2721SOL     OW 9061   3.401   6.212   1.794
 2721SOL    HW1 9062   3.364   6.240   1.706
 2721SOL    HW2 9063   3.329   6.216   1.864
 2722SOL     OW 9064   4.820   6.157   0.086
 2722SOL    HW1 9065   4.805   6.077   0.028
 2722SOL    HW2 9066   4.831   6.238   0.029
 2723SOL     OW 9067   3.279   6.595   0.246
 2723SOL    HW1 9068   3.221   6.519   0.275
 2723SOL    HW2 9069   3.323   6.636   0.325
 2724SOL     OW 9070   1.047   6.187   0.908
 2724SOL    HW1 9071   0.995   6.145   0.983
 2724SOL    HW2 9072   1.091   6.270   0.941
 2725SOL     OW 9073   5.627   3.898   5.224
 2725SOL    HW1 9074   5.578   3.815   5.195
 2725SOL    HW2 9075   5.572   3.978   5.202
 2726SOL     OW 9076   6.724   1.439   1.880
 2726SOL    HW1 9077   6.823   1.448   1.888
 2726SOL    HW2 9078   6.687   1.401   1.964
 2727SOL     OW 9079   1.445   4.206   4.540
 2727SOL    HW1 9080   1.511   4.199   4.615
 2727SOL    HW2 9081   1.353   4.187   4.574
 2728SOL     OW 9082   5.675   5.966   5.848
 2728SOL    HW1 9083   5.658   6.048   5.903
 2728SOL    HW2 9084   5.754   5.917   5.885
 2729SOL     OW 9085   5.456   6.124   6.269
 2729SOL    HW1 9086   5.491   6.056   6.333
 2729SOL    HW2 9087   5.517   6.203   6.267
 2730SOL     OW 9088   0.924   5.692   2.107
 2730SOL    HW1 9089   0.867   5.657   2.181
 2730SOL    HW2 9090   0.908   5.790   2.096
 2731SOL     OW 9091   3.297   3.657   4.130
 2731SOL    HW1 9092   3.264   3.712   4.207
 2731SOL    HW2 9093   3.243   3.573   4.123
 2732SOL     OW 9094   5.492   1.486   1.900
 2732SOL    HW1 9095   5.561   1.557   1.916
 2732SOL    HW2 9096   5.421   1.522   1.840
 2733SOL     OW 9097   0.938   0.196   6.510
 2733SOL    HW1 9098   0.974   0.103   6.514
 2733SOL    HW2 9099   0.914   0.218   6.416
 2734SOL     OW 9100   3.223   6.255   1.563
 2734SOL    HW1 9101   3.237   6.278   1.467
 2734SOL    HW2 9102   3.176   6.167   1.569
 2735SOL     OW 9103   0.345   1.207   2.060
 2735SOL    HW1 9104   0.335   1.253   1.972
 2735SOL    HW2 9105   0.256   1.176   2.092
 2736SOL     OW 9106   5.323   4.648   3.220
 2736SOL    HW1 9107   5.274   4.577   3.269
 2736SOL    HW2 9108   5.259   4.700   3.163
 2737SOL     OW 9109   2.381   2.020   6.282
 2737SOL    HW1 9110   2.430   2.105   6.303
 2737SOL    HW2 9111   2.361   1.971   6.367
 2738SOL     OW 9112   5.639   6.552   1.950
 2738SOL    HW1 9113   5.655   6.651   1.946
 2738SOL    HW2 9114   5.644   6.514   1.858
 2739SOL     OW 9115   0.767   5.729   1.885
 2739SOL    HW1 9116   0.841   5.728   1.953
 2739SOL    HW2 9117   0.750   5.636   1.852
 2740SOL     OW 9118   6.499   5.734   3.482
 2740SOL    HW1 9119   6.559   5.761   3.406
 2740SOL    HW2 9120   6.492   5.634   3.485
 2741SOL     OW 9121   1.157   1.428   5.160
 2741SOL    HW1 9122   1.110   1.514   5.179
 2741SOL    HW2 9123   1.107   1.378   5.089
 2742SOL     OW 9124   3.238   5.483   1.673
 2742SOL    HW1 9125   3.227   5.581   1.658
 2742SOL    HW2 9126   3.272   5.440   1.589
 2743SOL     OW 9127   5.280   4.045   2.800
 2743SOL    HW1 9128   5.294   3.946   2.805
 2743SOL    HW2 9129   5.309   4.088   2.885
 2744SOL     OW 9130   3.341   4.125   3.320
 2744SOL    HW1 9131   3.435   4.158   3.322
 2744SOL    HW2 9132   3.336   4.043   3.262
 2745SOL     OW 9133   0.239   0.138   6.226
 2745SOL    HW1 9134   0.177   0.156   6.149
 2745SOL    HW2 9135   0.327   0.105   6.190
 2746SOL     OW 9136   1.717   0.814   3.632
 2746SOL    HW1 9137   1.646   0.754   3.595
 2746SOL    HW2 9138   1.738   0.786   3.725
 2747SOL     OW 9139   3.950   5.704   0.786
 2747SOL    HW1 9140   3.886   5.639   0.827
 2747SOL    HW2 9141   4.038   5.699   0.833
 2748SOL     OW 9142   4.464   6.930   1.800
 2748SOL    HW1 9143   4.532   6.980   1.747
 2748SOL    HW2 9144   4.394   6.894   1.739
 2749SOL     OW 9145   2.279   3.241   0.129
 2749SOL    HW1 9146   2.221   3.160   0.124
 2749SOL    HW2 9147   2.287   3.282   0.037
 2750SOL     OW 9148   1.970   5.680   2.050
 2750SOL    HW1 9149   1.944   5.684   2.147
 2750SOL    HW2 9150   1.891   5.707   1.994
 2751SOL     OW 9151   6.519   3.248   0.932
 2751SOL    HW1 9152   6.510   3.227   1.029
 2751SOL    HW2 9153   6.563   3.337   0.921
 2752SOL     OW 9154   3.482   4.832   6.773
 2752SOL    HW1 9155   3.506   4.831   6.870
 2752SOL    HW2 9156   3.412   4.763   6.756
 2753SOL     OW 9157   6.249   6.028   5.591
 2753SOL    HW1 9158   6.253   6.124   5.564
 2753SOL    HW2 9159   6.230   5.971   5.511
 2754SOL     OW 9160   1.323   0.097   6.290
 2754SOL    HW1 9161   1.339   0.174   6.352
 2754SOL    HW2 9162   1.328   0.011   6.342
 2755SOL     OW 9163   2.391   6.994   2.485
 2755SOL    HW1 9164   2.422   0.004   2.397
 2755SOL    HW2 9165   2.436   0.020   2.559
 2756SOL     OW 9166   5.106   6.515   0.432
 2756SOL    HW1 9167   5.113   6.440   0.497
 2756SOL    HW2 9168   5.051   6.588   0.472
 2757SOL     OW 9169   0.584   4.770   1.632
 2757SOL    HW1 9170   0.518   4.722   1.690
 2757SOL    HW2 9171   0.590   4.865   1.660
 2758SOL     OW 9172   5.247   0.570   5.386
 2758SOL    HW1 9173   5.237   0.476   5.352
 2758SOL    HW2 9174   5.239   0.634   5.310
 2759SOL     OW 9175   5.730   5.762   4.841
 2759SOL    HW1 9176   5.643   5.801   4.814
 2759SOL    HW2 9177   5.792   5.760   4.763
 2760SOL     OW 9178   2.536   5.209   2.513
 2760SOL    HW1 9179   2.600   5.136   2.485
 2760SOL    HW2 9180   2.562   5.294   2.467
 2761SOL     OW 9181   2.566   6.328   3.106
 2761SOL    HW1 9182   2.512   6.395   3.157
 2761SOL    HW2 9183   2.520   6.240   3.107
 2762SOL     OW 9184   0.964   0.058   4.901
 2762SOL    HW1 9185   1.036   0.041   4.968
 2762SOL    HW2 9186   0.995   0.031   4.810
 2763SOL     OW 9187   5.344   1.770   3.422
 2763SOL    HW1 9188   5.314   1.681   3.457
 2763SOL    HW2 9189   5.423   1.757   3.362
 2764SOL     OW 9190   6.238   0.843   2.237
 2764SOL    HW1 9191   6.193   0.813   2.321
 2764SOL    HW2 9192   6.177   0.904   2.187
 2765SOL     OW 9193   6.352   1.270   2.009
 2765SOL    HW1 9194   6.331   1.361   1.973
 2765SOL    HW2 9195   6.276   1.237   2.064
 2766SOL     OW 9196   6.026   0.988   2.087
 2766SOL    HW1 9197   5.947   1.000   2.147
 2766SOL    HW2 9198   6.000   1.006   1.992
 2767SOL     OW 9199   5.534   4.290   6.529
 2767SOL    HW1 9200   5.529   4.329   6.437
 2767SOL    HW2 9201   5.448   4.306   6.577
 2768SOL     OW 9202   5.277   1.746   0.101
 2768SOL    HW1 9203   5.328   1.805   0.163
 2768SOL    HW2 9204   5.179   1.752   0.122
 2769SOL     OW 9205   6.976   4.102   1.947
 2769SOL    HW1 9206   6.894   4.141   1.989
 2769SOL    HW2 9207   0.032   4.150   1.981
 2770SOL     OW 9208   0.552   5.083   2.022
 2770SOL    HW1 9209   0.599   5.155   2.073
 2770SOL    HW2 9210   0.619   5.023   1.978
 2771SOL     OW 9211   5.024   1.285   1.419
 2771SOL    HW1 9212   5.087   1.345   1.370
 2771SOL    HW2 9213   5.004   1.205   1.363
 2772SOL     OW 9214   3.145   2.846   7.013
 2772SOL    HW1 9215   3.057   2.812   6.980
 2772SOL    HW2 9216   3.130   2.921   0.052
 2773SOL     OW 9217   3.667   3.777   6.726
 2773SOL    HW1 9218   3.759   3.760   6.690
 2773SOL    HW2 9219   3.674   3.830   6.810
 2774SOL     OW 9220   5.860   3.321   1.760
 2774SOL    HW1 9221   5.775   3.371   1.780
 2774SOL    HW2 9222   5.840   3.225   1.745
 2775SOL     OW 9223   0.197   5.839   1.683
 2775SOL    HW1 9224   0.229   5.924   1.641
 2775SOL    HW2 9225   0.272   5.772   1.683
 2776SOL     OW 9226   3.175   6.062   6.410
 2776SOL    HW1 9227   3.119   6.137   6.445
 2776SOL    HW2 9228   3.198   6.080   6.315
 2777SOL     OW 9229   3.224   1.574   2.522
 2777SOL    HW1 9230   3.245   1.481   2.553
 2777SOL    HW2 9231   3.249   1.640   2.593
 2778SOL     OW 9232   2.412   2.366   5.608
 2778SOL    HW1 9233   2.362   2.431   5.667
 2778SOL    HW2 9234   2.391   2.386   5.513
 2779SOL     OW 9235   5.202   0.402   6.814
 2779SOL    HW1 9236   5.281   0.453   6.849
 2779SOL    HW2 9237   5.230   0.308   6.792
 2780SOL     OW 9238   5.561   5.724   6.502
 2780SOL    HW1 9239   5.543   5.749   6.597
 2780SOL    HW2 9240   5.626   5.647   6.499
 2781SOL     OW 9241   5.746   4.592   1.128
 2781SOL    HW1 9242   5.740   4.691   1.119
 2781SOL    HW2 9243   5.705   4.548   1.049
 2782SOL     OW 9244   2.804   2.858   6.577
 2782SOL    HW1 9245   2.723   2.896   6.532
 2782SOL    HW2 9246   2.811   2.760   6.557
 2783SOL     OW 9247   6.708   4.916   5.496
 2783SOL    HW1 9248   6.621   4.960   5.519
 2783SOL    HW2 9249   6.773   4.985   5.464
 2784SOL     OW 9250   2.439   1.867   1.503
 2784SOL    HW1 9251   2.385   1.907   1.430
 2784SOL    HW2 9252   2.521   1.923   1.519
 2785SOL     OW 9253   6.632   0.577   0.349
 2785SOL    HW1 9254   6.578   0.647   0.304
 2785SOL    HW2 9255   6.585   0.545   0.431
 2786SOL     OW 9256   4.128   6.507   1.287
 2786SOL    HW1 9257   4.051   6.495   1.225
 2786SOL    HW2 9258   4.202   6.554   1.238
 2787SOL     OW 9259   2.393   2.952   5.595
 2787SOL    HW1 9260   2.343   2.928   5.512
 2787SOL    HW2 9261   2.483   2.907   5.595
 2788SOL     OW 9262   1.996   4.430   0.559
 2788SOL    HW1 9263   2.081   4.414   0.610
 2788SOL    HW2 9264   2.014   4.497   0.487
 2789SOL     OW 9265   0.422   2.032   4.154
 2789SOL    HW1 9266   0.328   2.025   4.186
 2789SOL    HW2 9267   0.430   2.109   4.091
 2790SOL     OW 9268   3.861   5.409   2.769
 2790SOL    HW1 9269   3.948   5.459   2.765
 2790SOL    HW2 9270   3.873   5.326   2.823
 2791SOL     OW 9271   1.769   3.209   5.135
 2791SOL    HW1 9272   1.797   3.115   5.115
 2791SOL    HW2 9273   1.797   3.269   5.060
 2792SOL     OW 9274   0.519   1.777   4.828
 2792SOL    HW1 9275   0.432   1.795   4.874
 2792SOL    HW2 9276   0.555   1.862   4.789
 2793SOL     OW 9277   4.815   1.805   3.086
 2793SOL    HW1 9278   4.840   1.710   3.068
 2793SOL    HW2 9279   4.717   1.811   3.104
 2794SOL     OW 9280   0.754   0.241   0.630
 2794SOL    HW1 9281   0.739   0.149   0.594
 2794SOL    HW2 9282   0.700   0.307   0.578
 2795SOL     OW 9283   2.947   3.749   1.485
 2795SOL    HW1 9284   2.860   3.724   1.528
 2795SOL    HW2 9285   2.979   3.836   1.521
 2796SOL     OW 9286   5.561   4.190   2.835
 2796SOL    HW1 9287   5.523   4.206   2.927
 2796SOL    HW2 9288   5.508   4.241   2.768
 2797SOL     OW 9289   5.045   5.145   4.856
 2797SOL    HW1 9290   4.977   5.141   4.783
 2797SOL    HW2 9291   5.118   5.079   4.837
 2798SOL     OW 9292   0.903   3.165   3.665
 2798SOL    HW1 9293   0.809   3.199   3.661
 2798SOL    HW2 9294   0.967   3.240   3.649
 2799SOL     OW 9295   6.618   4.997   6.231
 2799SOL    HW1 9296   6.646   4.905   6.204
 2799SOL    HW2 9297   6.610   5.001   6.331
 2800SOL     OW 9298   2.675   4.688   6.740
 2800SOL    HW1 9299   2.729   4.752   6.795
 2800SOL    HW2 9300   2.649   4.610   6.796
 2801SOL     OW 9301   5.539   5.698   1.628
 2801SOL    HW1 9302   5.501   5.615   1.588
 2801SOL    HW2 9303   5.604   5.674   1.700
 2802SOL     OW 9304   4.190   1.612   5.971
 2802SOL    HW1 9305   4.251   1.690   5.954
 2802SOL    HW2 9306   4.110   1.644   6.022
 2803SOL     OW 9307   2.731   6.902   6.517
 2803SOL    HW1 9308   2.792   6.829   6.486
 2803SOL    HW2 9309   2.637   6.881   6.489
 2804SOL     OW 9310   7.006   4.247   3.555
 2804SOL    HW1 9311   0.013   4.317   3.491
 2804SOL    HW2 9312   0.044   4.243   3.633
 2805SOL     OW 9313   5.044   3.259   0.969
 2805SOL    HW1 9314   4.966   3.296   0.918
 2805SOL    HW2 9315   5.021   3.253   1.066
 2806SOL     OW 9316   6.323   5.620   3.127
 2806SOL    HW1 9317   6.333   5.532   3.174
 2806SOL    HW2 9318   6.226   5.636   3.108
 2807SOL     OW 9319   4.229   4.856   3.168
 2807SOL    HW1 9320   4.258   4.772   3.215
 2807SOL    HW2 9321   4.130   4.859   3.162
 2808SOL     OW 9322   5.627   1.004   3.761
 2808SOL    HW1 9323   5.645   1.100   3.741
 2808SOL    HW2 9324   5.595   0.958   3.678
 2809SOL     OW 9325   4.783   2.498   0.562
 2809SOL    HW1 9326   4.834   2.573   0.604
 2809SOL    HW2 9327   4.807   2.412   0.607
 2810SOL     OW 9328   2.758   0.004   5.476
 2810SOL    HW1 9329   2.831   0.073   5.470
 2810SOL    HW2 9330   2.796   6.939   5.458
 2811SOL     OW 9331   0.474   1.790   3.381
 2811SOL    HW1 9332   0.416   1.850   3.327
 2811SOL    HW2 9333   0.430   1.700   3.390
 2812SOL     OW 9334   4.817   3.933   2.136
 2812SOL    HW1 9335   4.766   3.983   2.067
 2812SOL    HW2 9336   4.840   3.842   2.102
 2813SOL     OW 9337   5.980   0.644   6.236
 2813SOL    HW1 9338   5.956   0.683   6.325
 2813SOL    HW2 9339   5.965   0.545   6.238
 2814SOL     OW 9340   4.411   4.069   5.741
 2814SOL    HW1 9341   4.430   3.971   5.732
 2814SOL    HW2 9342   4.497   4.120   5.739
 2815SOL     OW 9343   0.494   0.960   4.606
 2815SOL    HW1 9344   0.487   1.059   4.603
 2815SOL    HW2 9345   0.431   0.919   4.540
 2816SOL     OW 9346   5.893   0.141   4.285
 2816SOL    HW1 9347   5.830   0.119   4.360
 2816SOL    HW2 9348   5.858   0.221   4.236
 2817SOL     OW 9349   1.565   1.298   1.633
 2817SOL    HW1 9350   1.637   1.361   1.602
 2817SOL    HW2 9351   1.526   1.332   1.719
 2818SOL     OW 9352   6.805   4.543   5.812
 2818SOL    HW1 9353   6.752   4.461   5.791
 2818SOL    HW2 9354   6.862   4.525   5.893
 2819SOL     OW 9355   0.211   3.186   0.502
 2819SOL    HW1 9356   0.299   3.138   0.509
 2819SOL    HW2 9357   0.138   3.125   0.533
 2820SOL     OW 9358   6.899   3.225   2.897
 2820SOL    HW1 9359   6.926   3.272   2.981
 2820SOL    HW2 9360   6.873   3.293   2.828
 2821SOL     OW 9361   1.327   4.644   4.959
 2821SOL    HW1 9362   1.391   4.579   4.999
 2821SOL    HW2 9363   1.282   4.603   4.879
 2822SOL     OW 9364   4.915   2.274   6.954
 2822SOL    HW1 9365   4.984   2.343   6.978
 2822SOL    HW2 9366   4.938   2.233   6.865
 2823SOL     OW 9367   2.226   6.677   2.266
 2823SOL    HW1 9368   2.238   6.734   2.347
 2823SOL    HW2 9369   2.315   6.640   2.239
 2824SOL     OW 9370   2.773   1.083   5.633
 2824SOL    HW1 9371   2.797   1.094   5.536
 2824SOL    HW2 9372   2.818   1.154   5.687
 2825SOL     OW 9373   6.435   6.563   1.316
 2825SOL    HW1 9374   6.417   6.503   1.238
 2825SOL    HW2 9375   6.349   6.582   1.363
 2826SOL     OW 9376   4.989   1.620   4.831
 2826SOL    HW1 9377   4.922   1.547   4.814
 2826SOL    HW2 9378   5.012   1.664   4.745
 2827SOL     OW 9379   6.018   1.083   5.331
 2827SOL    HW1 9380   5.991   1.063   5.237
 2827SOL    HW2 9381   6.088   1.155   5.331
 2828SOL     OW 9382   4.329   0.817   5.868
 2828SOL    HW1 9383   4.236   0.818   5.832
 2828SOL    HW2 9384   4.344   0.732   5.920
 2829SOL     OW 9385   3.652   6.450   5.934
 2829SOL    HW1 9386   3.624   6.496   6.018
 2829SOL    HW2 9387   3.657   6.351   5.950
 2830SOL     OW 9388   4.369   3.251   0.051
 2830SOL    HW1 9389   4.387   3.330   7.018
 2830SOL    HW2 9390   4.331   3.282   0.139
 2831SOL     OW 9391   5.362   6.085   4.083
 2831SOL    HW1 9392   5.321   6.157   4.138
 2831SOL    HW2 9393   5.460   6.079   4.103
 2832SOL     OW 9394   0.229   0.945   1.862
 2832SOL    HW1 9395   0.199   0.852   1.837
 2832SOL    HW2 9396   0.226   0.954   1.962
 2833SOL     OW 9397   5.954   2.773   2.173
 2833SOL    HW1 9398   5.925   2.857   2.128
 2833SOL    HW2 9399   5.876   2.712   2.184
 2834SOL     OW 9400   3.301   1.563   5.181
 2834SOL    HW1 9401   3.371   1.597   5.243
 2834SOL    HW2 9402   3.326   1.471   5.149
 2835SOL     OW 9403   0.420   6.809   2.195
 2835SOL    HW1 9404   0.428   6.895   2.244
 2835SOL    HW2 9405   0.335   6.762   2.222
 2836SOL     OW 9406   6.909   6.975   1.407
 2836SOL    HW1 9407   6.903   6.904   1.337
 2836SOL    HW2 9408   6.852   6.949   1.485
 2837SOL     OW 9409   5.525   3.858   3.786
 2837SOL    HW1 9410   5.590   3.804   3.733
 2837SOL    HW2 9411   5.441   3.805   3.801
 2838SOL     OW 9412   2.727   4.944   2.251
 2838SOL    HW1 9413   2.796   5.011   2.276
 2838SOL    HW2 9414   2.737   4.862   2.309
 2839SOL     OW 9415   5.488   1.707   1.148
 2839SOL    HW1 9416   5.452   1.633   1.090
 2839SOL    HW2 9417   5.503   1.673   1.240
 2840SOL     OW 9418   6.218   1.256   5.334
 2840SOL    HW1 9419   6.278   1.317   5.283
 2840SOL    HW2 9420   6.274   1.194   5.389
 2841SOL     OW 9421   0.793   5.816   1.050
 2841SOL    HW1 9422   0.789   5.816   0.950
 2841SOL    HW2 9423   0.856   5.887   1.082
 2842SOL     OW 9424   6.882   3.332   3.597
 2842SOL    HW1 9425   6.941   3.254   3.615
 2842SOL    HW2 9426   6.794   3.301   3.559
 2843SOL     OW 9427   3.834   0.781   4.448
 2843SOL    HW1 9428   3.909   0.810   4.507
 2843SOL    HW2 9429   3.808   0.856   4.387
 2844SOL     OW 9430   0.405   4.100   6.804
 2844SOL    HW1 9431   0.359   4.036   6.865
 2844SOL    HW2 9432   0.341   4.133   6.735
 2845SOL     OW 9433   0.122   4.411   6.320
 2845SOL    HW1 9434   0.083   4.481   6.259
 2845SOL    HW2 9435   0.119   4.322   6.274
 2846SOL     OW 9436   4.718   1.785   6.361
 2846SOL    HW1 9437   4.726   1.876   6.402
 2846SOL    HW2 9438   4.643   1.785   6.295
 2847SOL     OW 9439   6.365   4.464   4.296
 2847SOL    HW1 9440   6.441   4.442   4.234
 2847SOL    HW2 9441   6.314   4.542   4.259
 2848SOL     OW 9442   0.820   4.982   4.716
 2848SOL    HW1 9443   0.827   5.044   4.794
 2848SOL    HW2 9444   0.783   4.894   4.746
 2849SOL     OW 9445   2.854   1.727   1.055
 2849SOL    HW1 9446   2.876   1.824   1.043
 2849SOL    HW2 9447   2.758   1.712   1.032
 2850SOL     OW 9448   3.871   0.014   0.852
 2850SOL    HW1 9449   3.897   6.945   0.832
 2850SOL    HW2 9450   3.913   0.075   0.785
 2851SOL     OW 9451   0.973   4.665   5.628
 2851SOL    HW1 9452   0.918   4.639   5.707
 2851SOL    HW2 9453   1.049   4.602   5.617
 2852SOL     OW 9454   6.743   3.440   6.421
 2852SOL    HW1 9455   6.763   3.442   6.323
 2852SOL    HW2 9456   6.732   3.345   6.451
 2853SOL     OW 9457   3.553   3.024   0.910
 2853SOL    HW1 9458   3.472   2.969   0.888
 2853SOL    HW2 9459   3.554   3.046   1.007
 2854SOL     OW 9460   2.629   0.624   4.190
 2854SOL    HW1 9461   2.646   0.532   4.153
 2854SOL    HW2 9462   2.569   0.674   4.127
 2855SOL     OW 9463   1.909   1.014   5.178
 2855SOL    HW1 9464   1.826   0.965   5.151
 2855SOL    HW2 9465   1.968   1.026   5.099
 2856SOL     OW 9466   2.529   2.786   5.278
 2856SOL    HW1 9467   2.625   2.773   5.303
 2856SOL    HW2 9468   2.518   2.876   5.235
 2857SOL     OW 9469   3.024   2.386   1.423
 2857SOL    HW1 9470   2.956   2.448   1.383
 2857SOL    HW2 9471   3.098   2.371   1.358
 2858SOL     OW 9472   6.189   3.017   2.946
 2858SOL    HW1 9473   6.267   3.073   2.922
 2858SOL    HW2 9474   6.132   3.003   2.865
 2859SOL     OW 9475   5.323   0.684   0.880
 2859SOL    HW1 9476   5.322   0.588   0.908
 2859SOL    HW2 9477   5.263   0.696   0.801
 2860SOL     OW 9478   3.947   1.697   1.887
 2860SOL    HW1 9479   3.899   1.612   1.862
 2860SOL    HW2 9480   3.916   1.728   1.977
 2861SOL     OW 9481   3.711   5.764   5.454
 2861SOL    HW1 9482   3.669   5.837   5.508
 2861SOL    HW2 9483   3.730   5.685   5.513
 2862SOL     OW 9484   5.689   1.064   4.098
 2862SOL    HW1 9485   5.609   1.124   4.089
 2862SOL    HW2 9486   5.731   1.051   4.009
 2863SOL     OW 9487   6.353   1.746   0.075
 2863SOL    HW1 9488   6.329   1.769   7.005
 2863SOL    HW2 9489   6.452   1.733   0.083
 2864SOL     OW 9490   3.961   0.672   0.860
 2864SOL    HW1 9491   4.027   0.598   0.870
 2864SOL    HW2 9492   4.009   0.759   0.853
 2865SOL     OW 9493   4.574   4.502   5.153
 2865SOL    HW1 9494   4.486   4.527   5.112
 2865SOL    HW2 9495   4.616   4.429   5.100
 2866SOL     OW 9496   6.811   6.203   6.461
 2866SOL    HW1 9497   6.821   6.246   6.372
 2866SOL    HW2 9498   6.900   6.175   6.495
 2867SOL     OW 9499   6.414   4.968   3.346
 2867SOL    HW1 9500   6.462   4.880   3.349
 2867SOL    HW2 9501   6.366   4.983   3.432
 2868SOL     OW 9502   1.182   4.241   5.287
 2868SOL    HW1 9503   1.166   4.313   5.219
 2868SOL    HW2 9504   1.125   4.258   5.367
 2869SOL     OW 9505   5.590   0.725   2.034
 2869SOL    HW1 9506   5.644   0.670   2.098
 2869SOL    HW2 9507   5.494   0.723   2.061
 2870SOL     OW 9508   6.317   2.156   3.126
 2870SOL    HW1 9509   6.396   2.211   3.098
 2870SOL    HW2 9510   6.294   2.090   3.054
 2871SOL     OW 9511   1.790   2.001   5.916
 2871SOL    HW1 9512   1.768   2.096   5.938
 2871SOL    HW2 9513   1.874   1.975   5.963
 2872SOL     OW 9514   2.586   0.600   3.822
 2872SOL    HW1 9515   2.649   0.534   3.782
 2872SOL    HW2 9516   2.623   0.692   3.814
 2873SOL     OW 9517   0.955   5.182   2.140
 2873SOL    HW1 9518   1.002   5.269   2.152
 2873SOL    HW2 9519   0.942   5.138   2.229
 2874SOL     OW 9520   5.723   3.761   2.497
 2874SOL    HW1 9521   5.638   3.712   2.514
 2874SOL    HW2 9522   5.705   3.842   2.442
 2875SOL     OW 9523   3.960   5.965   6.292
 2875SOL    HW1 9524   3.923   5.999   6.378
 2875SOL    HW2 9525   3.898   5.991   6.217
 2876SOL     OW 9526   0.242   1.034   1.441
 2876SOL    HW1 9527   0.211   1.054   1.534
 2876SOL    HW2 9528   0.315   0.966   1.444
 2877SOL     OW 9529   2.833   2.798   5.361
 2877SOL    HW1 9530   2.917   2.834   5.320
 2877SOL    HW2 9531   2.818   2.704   5.329
 2878SOL     OW 9532   2.378   4.953   5.216
 2878SOL    HW1 9533   2.433   4.896   5.155
 2878SOL    HW2 9534   2.397   4.930   5.311
 2879SOL     OW 9535   5.071   4.823   0.565
 2879SOL    HW1 9536   5.106   4.823   0.659
 2879SOL    HW2 9537   5.083   4.914   0.525
 2880SOL     OW 9538   0.637   6.423   2.034
 2880SOL    HW1 9539   0.586   6.397   1.952
 2880SOL    HW2 9540   0.703   6.494   2.011
 2881SOL     OW 9541   6.724   6.249   0.964
 2881SOL    HW1 9542   6.683   6.278   0.878
 2881SOL    HW2 9543   6.661   6.187   1.012
 2882SOL     OW 9544   7.006   3.108   2.217
 2882SOL    HW1 9545   0.069   3.083   2.257
 2882SOL    HW2 9546   6.949   3.027   2.208
 2883SOL     OW 9547   3.829   6.890   2.441
 2883SOL    HW1 9548   3.907   6.907   2.503
 2883SOL    HW2 9549   3.776   6.974   2.432
 2884SOL     OW 9550   0.872   5.970   3.250
 2884SOL    HW1 9551   0.944   6.038   3.269
 2884SOL    HW2 9552   0.817   5.957   3.332
 2885SOL     OW 9553   0.905   1.929   2.425
 2885SOL    HW1 9554   0.968   2.006   2.418
 2885SOL    HW2 9555   0.956   1.843   2.412
 2886SOL     OW 9556   2.370   1.932   6.556
 2886SOL    HW1 9557   2.459   1.979   6.558
 2886SOL    HW2 9558   2.299   1.994   6.588
 2887SOL     OW 9559   1.315   6.902   4.676
 2887SOL    HW1 9560   1.405   6.944   4.686
 2887SOL    HW2 9561   1.300   6.877   4.581
 2888SOL     OW 9562   6.126   4.812   0.007
 2888SOL    HW1 9563   6.166   4.900   0.035
 2888SOL    HW2 9564   6.127   4.805   6.932
 2889SOL     OW 9565   0.478   0.201   0.952
 2889SOL    HW1 9566   0.451   0.106   0.933
 2889SOL    HW2 9567   0.398   0.261   0.942
 2890SOL     OW 9568   4.434   0.251   1.796
 2890SOL    HW1 9569   4.399   0.214   1.710
 2890SOL    HW2 9570   4.416   0.186   1.870
 2891SOL     OW 9571   2.229   4.551   4.148
 2891SOL    HW1 9572   2.138   4.550   4.188
 2891SOL    HW2 9573   2.260   4.457   4.134
 2892SOL     OW 9574   4.413   3.871   7.017
 2892SOL    HW1 9575   4.338   3.914   6.966
 2892SOL    HW2 9576   4.441   3.930   0.067
 2893SOL     OW 9577   2.375   0.190   5.101
 2893SOL    HW1 9578   2.361   0.148   5.011
 2893SOL    HW2 9579   2.324   0.276   5.106
 2894SOL     OW 9580   3.419   3.039   0.281
 2894SOL    HW1 9581   3.392   3.064   0.188
 2894SOL    HW2 9582   3.512   3.072   0.299
 2895SOL     OW 9583   4.028   3.179   6.531
 2895SOL    HW1 9584   4.091   3.186   6.454
 2895SOL    HW2 9585   4.079   3.155   6.614
 2896SOL     OW 9586   1.915   5.319   7.015
 2896SOL    HW1 9587   1.984   5.282   6.953
 2896SOL    HW2 9588   1.952   5.324   0.083
 2897SOL     OW 9589   2.516   5.995   3.377
 2897SOL    HW1 9590   2.482   5.903   3.398
 2897SOL    HW2 9591   2.529   6.046   3.462
 2898SOL     OW 9592   4.000   5.078   1.734
 2898SOL    HW1 9593   4.025   5.173   1.712
 2898SOL    HW2 9594   3.952   5.076   1.822
 2899SOL     OW 9595   0.086   0.039   6.674
 2899SOL    HW1 9596   0.077   6.965   6.677
 2899SOL    HW2 9597   0.145   0.066   6.598
 2900SOL     OW 9598   1.362   5.525   5.597
 2900SOL    HW1 9599   1.336   5.428   5.591
 2900SOL    HW2 9600   1.375   5.549   5.694
 2901SOL     OW 9601   3.063   0.738   2.185
 2901SOL    HW1 9602   3.110   0.820   2.150
 2901SOL    HW2 9603   2.983   0.719   2.127
 2902SOL     OW 9604   5.272   6.059   1.021
 2902SOL    HW1 9605   5.237   6.150   1.046
 2902SOL    HW2 9606   5.352   6.038   1.077
 2903SOL     OW 9607   2.744   1.196   2.237
 2903SOL    HW1 9608   2.724   1.293   2.249
 2903SOL    HW2 9609   2.695   1.143   2.307
 2904SOL     OW 9610   1.939   2.998   4.972
 2904SOL    HW1 9611   2.020   3.030   5.020
 2904SOL    HW2 9612   1.965   2.968   4.880
 2905SOL     OW 9613   1.895   2.191   1.969
 2905SOL    HW1 9614   1.949   2.142   1.900
 2905SOL    HW2 9615   1.884   2.133   2.049
 2906SOL     OW 9616   5.292   5.443   2.112
 2906SOL    HW1 9617   5.264   5.425   2.206
 2906SOL    HW2 9618   5.311   5.356   2.066
 2907SOL     OW 9619   7.006   1.418   5.153
 2907SOL    HW1 9620   0.013   1.426   5.059
 2907SOL    HW2 9621   0.009   1.499   5.205
 2908SOL     OW 9622   3.627   6.176   4.022
 2908SOL    HW1 9623   3.709   6.228   4.046
 2908SOL    HW2 9624   3.654   6.087   3.984
 2909SOL     OW 9625   1.637   5.610   4.419
 2909SOL    HW1 9626   1.693   5.666   4.480
 2909SOL    HW2 9627   1.634   5.516   4.454
 2910SOL     OW 9628   4.206   6.120   5.479
 2910SOL    HW1 9629   4.285   6.141   5.537
 2910SOL    HW2 9630   4.231   6.050   5.412
 2911SOL     OW 9631   1.938   4.546   3.332
 2911SOL    HW1 9632   1.881   4.468   3.360
 2911SOL    HW2 9633   1.890   4.631   3.354
 2912SOL     OW 9634   2.977   6.080   0.063
 2912SOL    HW1 9635   2.918   6.138   0.007
 2912SOL    HW2 9636   3.067   6.123   0.072
 2913SOL     OW 9637   1.661   3.383   2.713
 2913SOL    HW1 9638   1.608   3.431   2.784
 2913SOL    HW2 9639   1.698   3.449   2.649
 2914SOL     OW 9640   5.798   4.972   6.274
 2914SOL    HW1 9641   5.867   4.941   6.209
 2914SOL    HW2 9642   5.711   4.927   6.255
 2915SOL     OW 9643   4.185   1.925   3.985
 2915SOL    HW1 9644   4.087   1.911   3.975
 2915SOL    HW2 9645   4.208   2.019   3.959
 2916SOL     OW 9646   6.262   5.185   5.200
 2916SOL    HW1 9647   6.333   5.193   5.130
 2916SOL    HW2 9648   6.303   5.197   5.291
 2917SOL     OW 9649   4.816   0.416   1.708
 2917SOL    HW1 9650   4.718   0.434   1.700
 2917SOL    HW2 9651   4.838   0.392   1.802
 2918SOL     OW 9652   0.429   4.131   4.053
 2918SOL    HW1 9653   0.381   4.043   4.066
 2918SOL    HW2 9654   0.478   4.154   4.137
 2919SOL     OW 9655   5.851   6.318   0.558
 2919SOL    HW1 9656   5.801   6.382   0.500
 2919SOL    HW2 9657   5.830   6.336   0.654
 2920SOL     OW 9658   3.862   1.907   2.564
 2920SOL    HW1 9659   3.868   2.002   2.595
 2920SOL    HW2 9660   3.766   1.881   2.558
 2921SOL     OW 9661   0.551   1.082   2.890
 2921SOL    HW1 9662   0.461   1.106   2.854
 2921SOL    HW2 9663   0.609   1.049   2.816
 2922SOL     OW 9664   4.930   0.356   5.272
 2922SOL    HW1 9665   4.865   0.280   5.277
 2922SOL    HW2 9666   4.995   0.339   5.198
 2923SOL     OW 9667   6.394   5.337   2.149
 2923SOL    HW1 9668   6.378   5.321   2.246
 2923SOL    HW2 9669   6.327   5.402   2.114
 2924SOL     OW 9670   0.424   1.700   5.415
 2924SOL    HW1 9671   0.506   1.644   5.425
 2924SOL    HW2 9672   0.343   1.643   5.429
 2925SOL     OW 9673   5.621   3.152   1.513
 2925SOL    HW1 9674   5.641   3.151   1.415
 2925SOL    HW2 9675   5.531   3.192   1.529
 2926SOL     OW 9676   7.011   2.176   4.756
 2926SOL    HW1 9677   6.961   2.162   4.671
 2926SOL    HW2 9678   0.039   2.261   4.750
 2927SOL     OW 9679   1.628   2.568   2.061
 2927SOL    HW1 9680   1.603   2.652   2.013
 2927SOL    HW2 9681   1.603   2.489   2.005
 2928SOL     OW 9682   6.338   0.386   0.236
 2928SOL    HW1 9683   6.265   0.371   0.169
 2928SOL    HW2 9684   6.426   0.384   0.189
 2929SOL     OW 9685   0.584   0.247   6.197
 2929SOL    HW1 9686   0.567   0.155   6.161
 2929SOL    HW2 9687   0.507   0.306   6.173
 2930SOL     OW 9688   4.894   0.589   4.721
 2930SOL    HW1 9689   4.830   0.662   4.698
 2930SOL    HW2 9690   4.938   0.610   4.808
 2931SOL     OW 9691   4.710   6.600   6.676
 2931SOL    HW1 9692   4.702   6.531   6.748
 2931SOL    HW2 9693   4.634   6.591   6.612
 2932SOL     OW 9694   1.285   3.750   1.368
 2932SOL    HW1 9695   1.258   3.764   1.272
 2932SOL    HW2 9696   1.269   3.833   1.420
 2933SOL     OW 9697   5.566   2.700   3.896
 2933SOL    HW1 9698   5.539   2.645   3.976
 2933SOL    HW2 9699   5.630   2.648   3.840
 2934SOL     OW 9700   2.912   0.643   0.344
 2934SOL    HW1 9701   2.905   0.719   0.280
 2934SOL    HW2 9702   2.824   0.597   0.352
 2935SOL     OW 9703   5.785   2.840   0.748
 2935SOL    HW1 9704   5.860   2.881   0.801
 2935SOL    HW2 9705   5.708   2.903   0.744
 2936SOL     OW 9706   4.533   5.630   6.900
 2936SOL    HW1 9707   4.614   5.571   6.898
 2936SOL    HW2 9708   4.556   5.721   6.868
 2937SOL     OW 9709   3.574   5.733   0.426
 2937SOL    HW1 9710   3.652   5.731   0.489
 2937SOL    HW2 9711   3.607   5.744   0.332
 2938SOL     OW 9712   5.459   5.454   5.206
 2938SOL    HW1 9713   5.442   5.479   5.111
 2938SOL    HW2 9714   5.371   5.442   5.253
 2939SOL     OW 9715   6.656   6.510   5.605
 2939SOL    HW1 9716   6.746   6.467   5.596
 2939SOL    HW2 9717   6.661   6.606   5.577
 2940SOL     OW 9718   5.566   6.927   5.543
 2940SOL    HW1 9719   5.647   6.977   5.513
 2940SOL    HW2 9720   5.512   6.901   5.463
 2941SOL     OW 9721   0.795   2.159   5.067
 2941SOL    HW1 9722   0.840   2.168   5.156
 2941SOL    HW2 9723   0.699   2.136   5.080
 2942SOL     OW 9724   3.866   0.339   2.566
 2942SOL    HW1 9725   3.897   0.338   2.471
 2942SOL    HW2 9726   3.779   0.388   2.572
 2943SOL     OW 9727   6.132   3.475   3.256
 2943SOL    HW1 9728   6.135   3.574   3.273
 2943SOL    HW2 9729   6.195   3.429   3.318
 2944SOL     OW 9730   3.688   5.308   5.429
 2944SOL    HW1 9731   3.753   5.244   5.471
 2944SOL    HW2 9732   3.693   5.396   5.476
 2945SOL     OW 9733   3.187   3.205   3.448
 2945SOL    HW1 9734   3.114   3.229   3.385
 2945SOL    HW2 9735   3.148   3.185   3.538
 2946SOL     OW 9736   6.687   5.785   5.943
 2946SOL    HW1 9737   6.733   5.699   5.921
 2946SOL    HW2 9738   6.637   5.817   5.862
 2947SOL     OW 9739   6.666   4.071   7.009
 2947SOL    HW1 9740   6.683   3.999   0.051
 2947SOL    HW2 9741   6.691   4.038   6.918
 2948SOL     OW 9742   6.037   4.180   4.559
 2948SOL    HW1 9743   6.075   4.269   4.586
 2948SOL    HW2 9744   5.961   4.194   4.495
 2949SOL     OW 9745   1.336   6.479   0.242
 2949SOL    HW1 9746   1.403   6.477   0.316
 2949SOL    HW2 9747   1.275   6.557   0.255
 2950SOL     OW 9748   5.853   3.365   4.325
 2950SOL    HW1 9749   5.853   3.327   4.417
 2950SOL    HW2 9750   5.914   3.444   4.321
 2951SOL     OW 9751   0.452   1.195   1.071
 2951SOL    HW1 9752   0.376   1.164   1.014
 2951SOL    HW2 9753   0.417   1.225   1.160
 2952SOL     OW 9754   1.557   4.126   2.613
 2952SOL    HW1 9755   1.488   4.098   2.679
 2952SOL    HW2 9756   1.557   4.226   2.605
 2953SOL     OW 9757   4.710   2.881   1.449
 2953SOL    HW1 9758   4.725   2.792   1.405
 2953SOL    HW2 9759   4.668   2.868   1.538
 2954SOL     OW 9760   6.698   6.512   2.759
 2954SOL    HW1 9761   6.775   6.531   2.819
 2954SOL    HW2 9762   6.612   6.523   2.810
 2955SOL     OW 9763   0.950   2.979   0.954
 2955SOL    HW1 9764   0.852   2.987   0.937
 2955SOL    HW2 9765   0.997   3.058   0.914
 2956SOL     OW 9766   0.077   4.933   2.964
 2956SOL    HW1 9767   0.169   4.916   2.997
 2956SOL    HW2 9768   0.066   4.893   2.873
 2957SOL     OW 9769   0.615   3.464   1.349
 2957SOL    HW1 9770   0.564   3.546   1.324
 2957SOL    HW2 9771   0.553   3.397   1.390
 2958SOL     OW 9772   1.566   4.718   5.600
 2958SOL    HW1 9773   1.647   4.679   5.556
 2958SOL    HW2 9774   1.573   4.707   5.699
 2959SOL     OW 9775   4.860   5.610   6.560
 2959SOL    HW1 9776   4.791   5.677   6.531
 2959SOL    HW2 9777   4.949   5.655   6.569
 2960SOL     OW 9778   2.385   2.062   0.025
 2960SOL    HW1 9779   2.383   2.156   7.016
 2960SOL    HW2 9780   2.383   1.999   6.972
 2961SOL     OW 9781   5.808   3.840   4.156
 2961SOL    HW1 9782   5.836   3.867   4.249
 2961SOL    HW2 9783   5.715   3.874   4.139
 2962SOL     OW 9784   4.437   1.150   3.364
 2962SOL    HW1 9785   4.493   1.097   3.428
 2962SOL    HW2 9786   4.373   1.089   3.317
 2963SOL     OW 9787   1.846   1.639   5.193
 2963SOL    HW1 9788   1.750   1.623   5.218
 2963SOL    HW2 9789   1.850   1.696   5.111
 2964SOL     OW 9790   2.168   6.492   1.382
 2964SOL    HW1 9791   2.259   6.520   1.352
 2964SOL    HW2 9792   2.103   6.566   1.364
 2965SOL     OW 9793   0.335   1.357   5.791
 2965SOL    HW1 9794   0.339   1.457   5.780
 2965SOL    HW2 9795   0.410   1.316   5.738
 2966SOL     OW 9796   4.887   4.887   4.088
 2966SOL    HW1 9797   4.804   4.876   4.033
 2966SOL    HW2 9798   4.896   4.983   4.116
 2967SOL     OW 9799   5.619   2.549   3.357
 2967SOL    HW1 9800   5.608   2.602   3.273
 2967SOL    HW2 9801   5.667   2.464   3.336
 2968SOL     OW 9802   0.457   4.046   4.367
 2968SOL    HW1 9803   0.447   3.977   4.439
 2968SOL    HW2 9804   0.512   4.122   4.401
 2969SOL     OW 9805   5.274   2.122   4.663
 2969SOL    HW1 9806   5.256   2.209   4.616
 2969SOL    HW2 9807   5.188   2.083   4.695
 2970SOL     OW 9808   0.445   4.321   6.114
 2970SOL    HW1 9809   0.355   4.361   6.098
 2970SOL    HW2 9810   0.493   4.373   6.184
 2971SOL     OW 9811   5.830   2.602   3.014
 2971SOL    HW1 9812   5.733   2.604   3.036
 2971SOL    HW2 9813   5.844   2.635   2.921
 2972SOL     OW 9814   6.478   3.567   6.039
 2972SOL    HW1 9815   6.454   3.497   5.972
 2972SOL    HW2 9816   6.558   3.618   6.005
 2973SOL     OW 9817   5.095   6.681   4.193
 2973SOL    HW1 9818   5.126   6.771   4.161
 2973SOL    HW2 9819   5.153   6.652   4.270
 2974SOL     OW 9820   6.847   4.727   3.176
 2974SOL    HW1 9821   6.757   4.706   3.213
 2974SOL    HW2 9822   6.869   4.664   3.102
 2975SOL     OW 9823   0.425   0.630   5.350
 2975SOL    HW1 9824   0.346   0.648   5.293
 2975SOL    HW2 9825   0.432   0.532   5.369
 2976SOL     OW 9826   4.239   1.644   2.470
 2976SOL    HW1 9827   4.240   1.624   2.568
 2976SOL    HW2 9828   4.331   1.637   2.433
 2977SOL     OW 9829   3.104   6.834   4.237
 2977SOL    HW1 9830   3.063   6.840   4.146
 2977SOL    HW2 9831   3.144   6.922   4.261
 2978SOL     OW 9832   5.189   5.389   0.185
 2978SOL    HW1 9833   5.280   5.346   0.195
 2978SOL    HW2 9834   5.153   5.367   0.094
 2979SOL     OW 9835   3.653   0.496   2.822
 2979SOL    HW1 9836   3.580   0.563   2.812
 2979SOL    HW2 9837   3.737   0.542   2.849
 2980SOL     OW 9838   0.919   6.223   3.944
 2980SOL    HW1 9839   0.848   6.176   3.891
 2980SOL    HW2 9840   0.974   6.280   3.883
 2981SOL     OW 9841   1.812   0.950   5.828
 2981SOL    HW1 9842   1.845   0.907   5.744
 2981SOL    HW2 9843   1.811   1.049   5.816
 2982SOL     OW 9844   4.613   5.769   2.524
 2982SOL    HW1 9845   4.545   5.776   2.451
 2982SOL    HW2 9846   4.618   5.675   2.556
 2983SOL     OW 9847   0.072   1.059   4.703
 2983SOL    HW1 9848   0.161   1.101   4.721
 2983SOL    HW2 9849   0.052   1.062   4.605
 2984SOL     OW 9850   5.684   5.493   1.812
 2984SOL    HW1 9851   5.760   5.557   1.799
 2984SOL    HW2 9852   5.662   5.486   1.909
 2985SOL     OW 9853   0.271   2.171   3.240
 2985SOL    HW1 9854   0.277   2.080   3.200
 2985SOL    HW2 9855   0.356   2.221   3.224
 2986SOL     OW 9856   1.501   3.850   5.219
 2986SOL    HW1 9857   1.567   3.867   5.146
 2986SOL    HW2 9858   1.459   3.760   5.205
 2987SOL     OW 9859   4.192   1.903   4.660
 2987SOL    HW1 9860   4.291   1.907   4.649
 2987SOL    HW2 9861   4.156   1.994   4.681
 2988SOL     OW 9862   0.811   0.497   1.752
 2988SOL    HW1 9863   0.730   0.540   1.713
 2988SOL    HW2 9864   0.872   0.467   1.678
 2989SOL     OW 9865   6.625   5.277   1.052
 2989SOL    HW1 9866   6.690   5.327   1.109
 2989SOL    HW2 9867   6.606   5.188   1.093
 2990SOL     OW 9868   3.442   1.652   1.677
 2990SOL    HW1 9869   3.495   1.578   1.721
 2990SOL    HW2 9870   3.460   1.650   1.579
 2991SOL     OW 9871   0.328   4.026   0.174
 2991SOL    HW1 9872   0.291   3.970   0.100
 2991SOL    HW2 9873   0.259   4.035   0.247
 2992SOL     OW 9874   3.344   5.348   6.198
 2992SOL    HW1 9875   3.388   5.432   6.228
 2992SOL    HW2 9876   3.258   5.335   6.249
 2993SOL     OW 9877   1.295   5.308   1.162
 2993SOL    HW1 9878   1.283   5.282   1.066
 2993SOL    HW2 9879   1.351   5.391   1.167
 2994SOL     OW 9880   5.017   0.332   0.223
 2994SOL    HW1 9881   5.048   0.393   0.150
 2994SOL    HW2 9882   4.928   0.362   0.255
 2995SOL     OW 9883   1.505   2.038   6.568
 2995SOL    HW1 9884   1.544   1.949   6.588
 2995SOL    HW2 9885   1.450   2.069   6.646
 2996SOL     OW 9886   4.144   5.059   5.985
 2996SOL    HW1 9887   4.053   5.019   5.985
 2996SOL    HW2 9888   4.148   5.134   5.919
 2997SOL     OW 9889   5.572   6.658   0.938
 2997SOL    HW1 9890   5.474   6.658   0.959
 2997SOL    HW2 9891   5.624   6.672   1.022
 2998SOL     OW 9892   6.117   5.625   3.763
 2998SOL    HW1 9893   6.171   5.630   3.847
 2998SOL    HW2 9894   6.156   5.687   3.695
 2999SOL     OW 9895   3.514   0.054   2.681
 2999SOL    HW1 9896   3.528   0.128   2.747
 2999SOL    HW2 9897   3.574   0.067   2.603
 3000SOL     OW 9898   1.367   3.528   5.904
 3000SOL    HW1 9899   1.392   3.606   5.846
 3000SOL    HW2 9900   1.434   3.518   5.977
 3001SOL     OW 9901   4.767   1.033   5.578
 3001SOL    HW1 9902   4.835   1.019   5.506
 3001SOL    HW2 9903   4.813   1.062   5.662
 3002SOL     OW 9904   4.676   0.201   5.380
 3002SOL    HW1 9905   4.659   0.121   5.322
 3002SOL    HW2 9906   4.615   0.198   5.459
 3003SOL     OW 9907   3.325   6.359   5.914
 3003SOL    HW1 9908   3.354   6.445   5.955
 3003SOL    HW2 9909   3.228   6.343   5.933
 3004SOL     OW 9910   6.181   3.612   3.933
 3004SOL    HW1 9911   6.189   3.704   3.970
 3004SOL    HW2 9912   6.181   3.616   3.833
 3005SOL     OW 9913   3.598   3.011   1.175
 3005SOL    HW1 9914   3.552   2.989   1.261
 3005SOL    HW2 9915   3.670   2.943   1.157
 3006SOL     OW 9916   4.868   0.884   1.229
 3006SOL    HW1 9917   4.862   0.984   1.225
 3006SOL    HW2 9918   4.804   0.849   1.297
 3007SOL     OW 9919   6.300   4.755   2.964
 3007SOL    HW1 9920   6.248   4.785   3.044
 3007SOL    HW2 9921   6.360   4.829   2.934
 3008SOL     OW 9922   3.423   6.520   5.676
 3008SOL    HW1 9923   3.400   6.487   5.768
 3008SOL    HW2 9924   3.511   6.480   5.648
 3009SOL     OW 9925   0.976   6.879   3.008
 3009SOL    HW1 9926   1.046   6.881   2.936
 3009SOL    HW2 9927   1.020   6.866   3.097
 3010SOL     OW 9928   3.464   6.026   2.465
 3010SOL    HW1 9929   3.516   5.946   2.435
 3010SOL    HW2 9930   3.386   5.997   2.520
 3011SOL     OW 9931   6.100   0.215   6.686
 3011SOL    HW1 9932   6.136   0.299   6.727
 3011SOL    HW2 9933   6.153   0.137   6.717
 3012SOL     OW 9934   0.499   4.163   3.451
 3012SOL    HW1 9935   0.479   4.115   3.366
 3012SOL    HW2 9936   0.427   4.142   3.518
 3013SOL     OW 9937   5.567   5.572   2.034
 3013SOL    HW1 9938   5.594   5.668   2.044
 3013SOL    HW2 9939   5.468   5.567   2.023
 3014SOL     OW 9940   5.099   1.391   4.159
 3014SOL    HW1 9941   5.170   1.434   4.214
 3014SOL    HW2 9942   5.136   1.310   4.113
 3015SOL     OW 9943   2.757   2.573   0.466
 3015SOL    HW1 9944   2.678   2.626   0.498
 3015SOL    HW2 9945   2.812   2.629   0.404
 3016SOL     OW 9946   3.695   6.262   3.565
 3016SOL    HW1 9947   3.702   6.194   3.491
 3016SOL    HW2 9948   3.643   6.223   3.641
 3017SOL     OW 9949   1.159   6.192   1.424
 3017SOL    HW1 9950   1.201   6.282   1.415
 3017SOL    HW2 9951   1.197   6.131   1.355
 3018SOL     OW 9952   4.258   6.757   6.544
 3018SOL    HW1 9953   4.228   6.852   6.554
 3018SOL    HW2 9954   4.262   6.713   6.633
 3019SOL     OW 9955   3.517   6.543   1.170
 3019SOL    HW1 9956   3.603   6.592   1.159
 3019SOL    HW2 9957   3.518   6.461   1.112
 3020SOL     OW 9958   2.869   3.435   1.562
 3020SOL    HW1 9959   2.902   3.453   1.470
 3020SOL    HW2 9960   2.944   3.449   1.627
 3021SOL     OW 9961   2.048   2.496   6.535
 3021SOL    HW1 9962   1.962   2.544   6.519
 3021SOL    HW2 9963   2.040   2.440   6.618
 3022SOL     OW 9964   5.034   6.500   3.099
 3022SOL    HW1 9965   5.067   6.484   3.192
 3022SOL    HW2 9966   5.111   6.531   3.042
 3023SOL     OW 9967   4.277   5.696   3.125
 3023SOL    HW1 9968   4.363   5.744   3.140
 3023SOL    HW2 9969   4.228   5.738   3.049
 3024SOL     OW 9970   2.789   1.194   0.319
 3024SOL    HW1 9971   2.834   1.275   0.356
 3024SOL    HW2 9972   2.690   1.204   0.325
 3025SOL     OW 9973   2.304   2.721   1.001
 3025SOL    HW1 9974   2.244   2.685   1.072
 3025SOL    HW2 9975   2.330   2.815   1.025
 3026SOL     OW 9976   1.925   2.830   0.773
 3026SOL    HW1 9977   1.854   2.896   0.801
 3026SOL    HW2 9978   1.997   2.827   0.842
 3027SOL     OW 9979   2.101   1.506   3.091
 3027SOL    HW1 9980   2.165   1.467   3.157
 3027SOL    HW2 9981   2.069   1.595   3.123
 3028SOL     OW 9982   1.781   5.682   6.099
 3028SOL    HW1 9983   1.826   5.723   6.019
 3028SOL    HW2 9984   1.705   5.625   6.068
 3029SOL     OW 9985   6.242   5.562   5.030
 3029SOL    HW1 9986   6.207   5.510   4.952
 3029SOL    HW2 9987   6.165   5.597   5.084
 3030SOL     OW 9988   1.638   0.983   5.534
 3030SOL    HW1 9989   1.595   0.903   5.492
 3030SOL    HW2 9990   1.607   0.993   5.628
 3031SOL     OW 9991   0.617   3.771   6.541
 3031SOL    HW1 9992   0.616   3.805   6.447
 3031SOL    HW2 9993   0.527   3.732   6.563
 3032SOL     OW 9994   4.834   0.558   6.037
 3032SOL    HW1 9995   4.918   0.592   5.994
 3032SOL    HW2 9996   4.783   0.635   6.075
 3033SOL     OW 9997   0.475   3.733   6.828
 3033SOL    HW1 9998   0.540   3.658   6.831
 3033SOL    HW2 9999   0.441   3.744   6.735
 3034SOL     OW10000   3.295   6.539   3.911
 3034SOL    HW110001   3.307   6.442   3.935
 3034SOL    HW210002   3.345   6.596   3.976
 3035SOL     OW10003   5.610   1.349   0.032
 3035SOL    HW110004   5.693   1.346   7.001
 3035SOL    HW210005   5.607   1.268   0.090
 3036SOL     OW10006   0.997   4.279   6.684
 3036SOL    HW110007   1.092   4.303   6.703
 3036SOL    HW210008   0.956   4.349   6.625
 3037SOL     OW10009   6.731   6.388   5.042
 3037SOL    HW110010   6.803   6.458   5.049
 3037SOL    HW210011   6.739   6.324   5.118
 3038SOL     OW10012   5.211   6.804   6.121
 3038SOL    HW110013   5.253   6.719   6.153
 3038SOL    HW210014   5.135   6.828   6.181
 3039SOL     OW10015   0.405   4.011   2.017
 3039SOL    HW110016   0.381   3.929   1.965
 3039SOL    HW210017   0.323   4.063   2.038
 3040SOL     OW10018   2.917   3.628   6.448
 3040SOL    HW110019   2.972   3.710   6.467
 3040SOL    HW210020   2.835   3.654   6.398
 3041SOL     OW10021   1.826   2.376   5.593
 3041SOL    HW110022   1.884   2.330   5.660
 3041SOL    HW210023   1.878   2.392   5.509
 3042SOL     OW10024   4.566   0.249   2.340
 3042SOL    HW110025   4.466   0.259   2.341
 3042SOL    HW210026   4.608   0.339   2.348
 3043SOL     OW10027   0.891   5.602   0.115
 3043SOL    HW110028   0.874   5.635   0.022
 3043SOL    HW210029   0.895   5.680   0.177
 3044SOL     OW10030   3.354   4.128   5.785
 3044SOL    HW110031   3.279   4.160   5.842
 3044SOL    HW210032   3.320   4.062   5.718
 3045SOL     OW10033   5.375   1.751   2.403
 3045SOL    HW110034   5.287   1.798   2.397
 3045SOL    HW210035   5.371   1.683   2.477
 3046SOL     OW10036   1.517   2.962   5.420
 3046SOL    HW110037   1.550   3.055   5.430
 3046SOL    HW210038   1.586   2.906   5.375
 3047SOL     OW10039   6.044   5.490   2.350
 3047SOL    HW110040   5.971   5.544   2.308
 3047SOL    HW210041   6.038   5.395   2.317
 3048SOL     OW10042   3.671   3.221   1.348
 3048SOL    HW110043   3.651   3.154   1.276
 3048SOL    HW210044   3.709   3.174   1.427
 3049SOL     OW10045   0.858   0.765   1.857
 3049SOL    HW110046   0.777   0.733   1.906
 3049SOL    HW210047   0.902   0.688   1.812
 3050SOL     OW10048   4.329   5.667   3.727
 3050SOL    HW110049   4.241   5.708   3.752
 3050SOL    HW210050   4.357   5.702   3.638
 3051SOL     OW10051   2.941   5.366   6.726
 3051SOL    HW110052   2.939   5.266   6.730
 3051SOL    HW210053   3.032   5.398   6.750
 3052SOL     OW10054   3.962   0.273   2.822
 3052SOL    HW110055   4.044   0.219   2.804
 3052SOL    HW210056   3.928   0.312   2.736
 3053SOL     OW10057   5.847   6.733   6.701
 3053SOL    HW110058   5.915   6.796   6.737
 3053SOL    HW210059   5.756   6.776   6.706
 3054SOL     OW10060   0.530   3.674   0.104
 3054SOL    HW110061   0.574   3.751   0.060
 3054SOL    HW210062   0.549   3.590   0.052
 3055SOL     OW10063   5.602   6.433   3.549
 3055SOL    HW110064   5.561   6.357   3.600
 3055SOL    HW210065   5.541   6.459   3.474
 3056SOL     OW10066   6.900   0.661   0.284
 3056SOL    HW110067   6.810   0.618   0.281
 3056SOL    HW210068   6.942   0.646   0.373
 3057SOL     OW10069   6.112   4.677   2.801
 3057SOL    HW110070   6.182   4.710   2.865
 3057SOL    HW210071   6.111   4.577   2.801
 3058SOL     OW10072   6.095   5.585   0.574
 3058SOL    HW110073   6.016   5.639   0.546
 3058SOL    HW210074   6.145   5.633   0.646
 3059SOL     OW10075   0.726   3.331   5.079
 3059SOL    HW110076   0.775   3.293   5.000
 3059SOL    HW210077   0.754   3.281   5.162
 3060SOL     OW10078   0.331   6.071   1.599
 3060SOL    HW110079   0.332   6.169   1.578
 3060SOL    HW210080   0.377   6.021   1.525
 3061SOL     OW10081   7.007   0.521   5.146
 3061SOL    HW110082   6.996   0.451   5.076
 3061SOL    HW210083   0.070   0.567   5.135
 3062SOL     OW10084   2.786   6.197   1.066
 3062SOL    HW110085   2.720   6.261   1.027
 3062SOL    HW210086   2.736   6.125   1.115
 3063SOL     OW10087   1.549   5.118   1.304
 3063SOL    HW110088   1.508   5.196   1.351
 3063SOL    HW210089   1.610   5.070   1.366
 3064SOL     OW10090   6.485   3.757   3.278
 3064SOL    HW110091   6.540   3.731   3.199
 3064SOL    HW210092   6.414   3.822   3.250
 3065SOL     OW10093   1.763   0.591   0.167
 3065SOL    HW110094   1.804   0.620   0.254
 3065SOL    HW210095   1.702   0.513   0.184
 3066SOL     OW10096   6.073   4.488   0.827
 3066SOL    HW110097   6.107   4.403   0.787
 3066SOL    HW210098   6.005   4.529   0.766
 3067SOL     OW10099   4.645   0.526   4.143
 3067SOL    HW110100   4.579   0.483   4.204
 3067SOL    HW210101   4.603   0.540   4.053
 3068SOL     OW10102   5.644   5.475   1.052
 3068SOL    HW110103   5.671   5.551   0.992
 3068SOL    HW210104   5.716   5.406   1.052
 3069SOL     OW10105   0.725   5.453   1.853
 3069SOL    HW110106   0.642   5.402   1.829
 3069SOL    HW210107   0.754   5.428   1.945
 3070SOL     OW10108   2.869   1.480   3.378
 3070SOL    HW110109   2.907   1.564   3.339
 3070SOL    HW210110   2.791   1.450   3.323
 3071SOL     OW10111   6.148   0.326   3.988
 3071SOL    HW110112   6.078   0.297   3.923
 3071SOL    HW210113   6.185   0.414   3.959
 3072SOL     OW10114   0.629   6.613   2.247
 3072SOL    HW110115   0.542   6.655   2.222
 3072SOL    HW210116   0.639   6.526   2.198
 3073SOL     OW10117   1.190   3.717   5.558
 3073SOL    HW110118   1.277   3.681   5.592
 3073SOL    HW210119   1.134   3.747   5.635
 3074SOL     OW10120   4.185   2.712   6.602
 3074SOL    HW110121   4.244   2.776   6.552
 3074SOL    HW210122   4.242   2.644   6.649
 3075SOL     OW10123   1.839   6.514   1.185
 3075SOL    HW110124   1.915   6.519   1.121
 3075SOL    HW210125   1.827   6.420   1.217
 3076SOL     OW10126   6.314   0.399   5.180
 3076SOL    HW110127   6.299   0.498   5.177
 3076SOL    HW210128   6.375   0.377   5.256
 3077SOL     OW10129   5.893   4.420   4.770
 3077SOL    HW110130   5.854   4.441   4.860
 3077SOL    HW210131   5.979   4.370   4.782
 3078SOL     OW10132   1.863   3.780   2.055
 3078SOL    HW110133   1.955   3.747   2.035
 3078SOL    HW210134   1.868   3.871   2.095
 3079SOL     OW10135   0.287   2.222   5.042
 3079SOL    HW110136   0.329   2.222   4.952
 3079SOL    HW210137   0.331   2.290   5.100
 3080SOL     OW10138   6.120   5.172   1.211
 3080SOL    HW110139   6.140   5.181   1.113
 3080SOL    HW210140   6.105   5.076   1.233
 3081SOL     OW10141   0.543   4.209   5.759
 3081SOL    HW110142   0.548   4.201   5.659
 3081SOL    HW210143   0.582   4.297   5.787
 3082SOL     OW10144   3.687   0.107   2.454
 3082SOL    HW110145   3.599   0.126   2.411
 3082SOL    HW210146   3.729   0.192   2.484
 3083SOL     OW10147   3.675   0.433   1.827
 3083SOL    HW110148   3.651   0.388   1.741
 3083SOL    HW210149   3.774   0.446   1.833
 3084SOL     OW10150   5.057   5.298   4.499
 3084SOL    HW110151   5.069   5.199   4.493
 3084SOL    HW210152   5.146   5.342   4.508
 3085SOL     OW10153   6.641   5.840   2.422
 3085SOL    HW110154   6.729   5.886   2.406
 3085SOL    HW210155   6.585   5.897   2.483
 3086SOL     OW10156   5.002   1.884   2.850
 3086SOL    HW110157   4.913   1.881   2.896
 3086SOL    HW210158   5.019   1.796   2.805
 3087SOL     OW10159   6.392   4.127   2.999
 3087SOL    HW110160   6.306   4.173   3.020
 3087SOL    HW210161   6.411   4.135   2.902
 3088SOL     OW10162   2.503   4.624   5.332
 3088SOL    HW110163   2.572   4.554   5.317
 3088SOL    HW210164   2.412   4.584   5.320
 3089SOL     OW10165   1.241   2.515   6.936
 3089SOL    HW110166   1.157   2.566   6.952
 3089SOL    HW210167   1.251   2.496   6.838
 3090SOL     OW10168   1.327   1.242   1.185
 3090SOL    HW110169   1.353   1.329   1.143
 3090SOL    HW210170   1.398   1.212   1.248
 3091SOL     OW10171   2.072   6.592   1.041
 3091SOL    HW110172   2.162   6.555   1.061
 3091SOL    HW210173   2.071   6.690   1.061
 3092SOL     OW10174   6.357   0.061   0.741
 3092SOL    HW110175   6.455   0.041   0.741
 3092SOL    HW210176   6.329   0.096   0.652
 3093SOL     OW10177   6.446   5.456   5.243
 3093SOL    HW110178   6.385   5.442   5.166
 3093SOL    HW210179   6.445   5.553   5.269
 3094SOL     OW10180   3.399   5.476   5.216
 3094SOL    HW110181   3.310   5.522   5.219
 3094SOL    HW210182   3.420   5.450   5.122
 3095SOL     OW10183   2.816   4.736   4.233
 3095SOL    HW110184   2.858   4.781   4.311
 3095SOL    HW210185   2.866   4.759   4.150
 3096SOL     OW10186   0.426   6.843   5.274
 3096SOL    HW110187   0.355   6.815   5.209
 3096SOL    HW210188   0.397   6.927   5.320
 3097SOL     OW10189   0.996   2.882   0.466
 3097SOL    HW110190   0.896   2.889   0.469
 3097SOL    HW210191   1.036   2.960   0.514
 3098SOL     OW10192   2.629   3.641   0.663
 3098SOL    HW110193   2.600   3.572   0.729
 3098SOL    HW210194   2.665   3.721   0.711
 3099SOL     OW10195   0.946   6.091   5.641
 3099SOL    HW110196   0.999   6.040   5.573
 3099SOL    HW210197   0.959   6.051   5.731
 3100SOL     OW10198   6.723   6.852   6.399
 3100SOL    HW110199   6.742   6.867   6.496
 3100SOL    HW210200   6.806   6.867   6.346
 3101SOL     OW10201   4.887   6.670   6.410
 3101SOL    HW110202   4.803   6.700   6.366
 3101SOL    HW210203   4.897   6.571   6.400
 3102SOL     OW10204   1.439   4.109   1.191
 3102SOL    HW110205   1.489   4.078   1.272
 3102SOL    HW210206   1.409   4.204   1.205
 3103SOL     OW10207   4.137   2.650   1.294
 3103SOL    HW110208   4.047   2.619   1.265
 3103SOL    HW210209   4.181   2.579   1.349
 3104SOL     OW10210   5.609   5.640   4.207
 3104SOL    HW110211   5.652   5.659   4.295
 3104SOL    HW210212   5.509   5.643   4.217
 3105SOL     OW10213   5.888   6.831   4.206
 3105SOL    HW110214   5.972   6.869   4.166
 3105SOL    HW210215   5.838   6.781   4.135
 3106SOL     OW10216   6.494   2.727   3.129
 3106SOL    HW110217   6.410   2.729   3.185
 3106SOL    HW210218   6.560   2.792   3.166
 3107SOL     OW10219   3.266   0.404   4.081
 3107SOL    HW110220   3.201   0.379   4.153
 3107SOL    HW210221   3.267   0.333   4.011
 3108SOL     OW10222   2.368   0.940   4.345
 3108SOL    HW110223   2.402   0.909   4.256
 3108SOL    HW210224   2.421   0.897   4.418
 3109SOL     OW10225   5.204   6.109   3.310
 3109SOL    HW110226   5.290   6.067   3.281
 3109SOL    HW210227   5.136   6.100   3.237
 3110SOL     OW10228   0.493   2.971   2.328
 3110SOL    HW110229   0.411   3.018   2.295
 3110SOL    HW210230   0.541   2.930   2.250
 3111SOL     OW10231   6.951   5.410   3.475
 3111SOL    HW110232   7.014   5.356   3.419
 3111SOL    HW210233   6.945   5.368   3.566
 3112SOL     OW10234   4.622   3.624   6.601
 3112SOL    HW110235   4.652   3.694   6.536
 3112SOL    HW210236   4.542   3.576   6.563
 3113SOL     OW10237   2.180   6.802   3.434
 3113SOL    HW110238   2.234   6.719   3.449
 3113SOL    HW210239   2.115   6.813   3.509
 3114SOL     OW10240   5.931   4.625   0.612
 3114SOL    HW110241   6.023   4.605   0.577
 3114SOL    HW210242   5.882   4.682   0.547
 3115SOL     OW10243   3.768   3.894   0.147
 3115SOL    HW110244   3.677   3.866   0.116
 3115SOL    HW210245   3.761   3.932   0.239
 3116SOL     OW10246   6.500   2.274   6.694
 3116SOL    HW110247   6.566   2.287   6.768
 3116SOL    HW210248   6.470   2.363   6.660
 3117SOL     OW10249   3.959   3.299   5.309
 3117SOL    HW110250   3.979   3.247   5.392
 3117SOL    HW210251   4.044   3.314   5.258
 3118SOL     OW10252   6.762   4.292   0.820
 3118SOL    HW110253   6.823   4.333   0.752
 3118SOL    HW210254   6.793   4.317   0.912
 3119SOL     OW10255   1.527   4.562   5.199
 3119SOL    HW110256   1.482   4.503   5.267
 3119SOL    HW210257   1.537   4.512   5.113
 3120SOL     OW10258   3.109   5.150   4.603
 3120SOL    HW110259   3.140   5.060   4.634
 3120SOL    HW210260   3.015   5.164   4.633
 3121SOL     OW10261   6.701   1.083   2.339
 3121SOL    HW110262   6.745   1.065   2.427
 3121SOL    HW210263   6.700   1.182   2.322
 3122SOL     OW10264   2.780   5.468   6.533
 3122SOL    HW110265   2.696   5.512   6.564
 3122SOL    HW210266   2.829   5.430   6.611
 3123SOL     OW10267   3.961   6.815   3.789
 3123SOL    HW110268   3.884   6.810   3.725
 3123SOL    HW210269   4.003   6.905   3.783
 3124SOL     OW10270   4.328   1.517   5.564
 3124SOL    HW110271   4.367   1.500   5.655
 3124SOL    HW210272   4.231   1.542   5.574
 3125SOL     OW10273   6.427   1.894   6.008
 3125SOL    HW110274   6.513   1.857   6.043
 3125SOL    HW210275   6.444   1.943   5.923
 3126SOL     OW10276   4.338   5.855   6.932
 3126SOL    HW110277   4.383   5.870   7.020
 3126SOL    HW210278   4.268   5.783   6.942
 3127SOL     OW10279   0.913   2.141   3.971
 3127SOL    HW110280   0.932   2.051   3.932
 3127SOL    HW210281   0.968   2.210   3.923
 3128SOL     OW10282   2.037   1.143   0.946
 3128SOL    HW110283   2.086   1.081   0.886
 3128SOL    HW210284   1.998   1.219   0.893
 3129SOL     OW10285   6.705   3.899   5.403
 3129SOL    HW110286   6.697   3.801   5.381
 3129SOL    HW210287   6.620   3.945   5.381
 3130SOL     OW10288   1.920   4.807   2.029
 3130SOL    HW110289   1.899   4.849   1.941
 3130SOL    HW210290   1.877   4.717   2.034
 3131SOL     OW10291   6.747   3.185   2.437
 3131SOL    HW110292   6.731   3.182   2.339
 3131SOL    HW210293   6.775   3.095   2.469
 3132SOL     OW10294   5.735   6.271   5.540
 3132SOL    HW110295   5.795   6.327   5.598
 3132SOL    HW210296   5.644   6.267   5.580
 3133SOL     OW10297   2.850   2.337   2.937
 3133SOL    HW110298   2.911   2.365   2.862
 3133SOL    HW210299   2.853   2.238   2.946
 3134SOL     OW10300   5.110   3.447   1.420
 3134SOL    HW110301   5.126   3.534   1.372
 3134SOL    HW210302   5.187   3.428   1.481
 3135SOL     OW10303   3.595   2.134   3.560
 3135SOL    HW110304   3.595   2.055   3.499
 3135SOL    HW210305   3.524   2.121   3.630
 3136SOL     OW10306   6.351   6.055   5.995
 3136SOL    HW110307   6.376   6.014   6.083
 3136SOL    HW210308   6.253   6.072   5.992
 3137SOL     OW10309   5.490   2.101   4.250
 3137SOL    HW110310   5.547   2.071   4.173
 3137SOL    HW210311   5.547   2.109   4.332
 3138SOL     OW10312   6.344   1.307   4.714
 3138SOL    HW110313   6.303   1.384   4.666
 3138SOL    HW210314   6.343   1.226   4.655
 3139SOL     OW10315   5.047   6.266   5.132
 3139SOL    HW110316   5.004   6.355   5.150
 3139SOL    HW210317   5.132   6.259   5.185
 3140SOL     OW10318   6.505   6.489   6.819
 3140SOL    HW110319   6.601   6.478   6.846
 3140SOL    HW210320   6.462   6.399   6.811
 3141SOL     OW10321   1.535   5.760   0.284
 3141SOL    HW110322   1.631   5.762   0.258
 3141SOL    HW210323   1.482   5.713   0.214
 3142SOL     OW10324   4.312   6.146   5.926
 3142SOL    HW110325   4.269   6.058   5.946
 3142SOL    HW210326   4.289   6.211   5.999
 3143SOL     OW10327   6.587   1.976   0.474
 3143SOL    HW110328   6.525   2.054   0.484
 3143SOL    HW210329   6.634   1.983   0.386
 3144SOL     OW10330   2.132   3.643   6.638
 3144SOL    HW110331   2.134   3.578   6.562
 3144SOL    HW210332   2.061   3.616   6.703
 3145SOL     OW10333   2.878   5.732   2.950
 3145SOL    HW110334   2.950   5.727   3.020
 3145SOL    HW210335   2.803   5.788   2.983
 3146SOL     OW10336   1.395   0.331   3.252
 3146SOL    HW110337   1.316   0.325   3.312
 3146SOL    HW210338   1.367   0.369   3.164
 3147SOL     OW10339   5.174   3.629   0.327
 3147SOL    HW110340   5.223   3.689   0.264
 3147SOL    HW210341   5.078   3.626   0.302
 3148SOL     OW10342   3.612   5.504   4.672
 3148SOL    HW110343   3.677   5.578   4.693
 3148SOL    HW210344   3.656   5.416   4.686
 3149SOL     OW10345   3.564   0.285   5.778
 3149SOL    HW110346   3.591   0.377   5.806
 3149SOL    HW210347   3.604   0.266   5.688
 3150SOL     OW10348   5.785   6.513   4.460
 3150SOL    HW110349   5.746   6.457   4.387
 3150SOL    HW210350   5.867   6.558   4.426
 3151SOL     OW10351   4.242   1.754   6.357
 3151SOL    HW110352   4.238   1.831   6.294
 3151SOL    HW210353   4.310   1.688   6.324
 3152SOL     OW10354   0.812   5.230   1.577
 3152SOL    HW110355   0.905   5.265   1.567
 3152SOL    HW210356   0.761   5.246   1.492
 3153SOL     OW10357   6.350   4.302   2.331
 3153SOL    HW110358   6.295   4.386   2.334
 3153SOL    HW210359   6.290   4.223   2.345
 3154SOL     OW10360   5.838   2.723   5.865
 3154SOL    HW110361   5.766   2.792   5.878
 3154SOL    HW210362   5.912   2.739   5.930
 3155SOL     OW10363   5.367   5.690   0.836
 3155SOL    HW110364   5.453   5.727   0.872
 3155SOL    HW210365   5.335   5.617   0.897
 3156SOL     OW10366   3.781   4.040   3.788
 3156SOL    HW110367   3.766   4.060   3.692
 3156SOL    HW210368   3.700   4.066   3.841
 3157SOL     OW10369   2.115   3.872   3.922
 3157SOL    HW110370   2.024   3.906   3.948
 3157SOL    HW210371   2.165   3.946   3.876
 3158SOL     OW10372   4.968   6.909   1.189
 3158SOL    HW110373   4.913   6.990   1.207
 3158SOL    HW210374   4.954   6.880   1.094
 3159SOL     OW10375   5.018   5.685   6.852
 3159SOL    HW110376   5.027   5.692   6.753
 3159SOL    HW210377   5.004   5.590   6.879
 3160SOL     OW10378   4.777   4.302   6.963
 3160SOL    HW110379   4.697   4.251   6.931
 3160SOL    HW210380   4.748   4.372   0.003
 3161SOL     OW10381   1.283   1.374   3.130
 3161SOL    HW110382   1.351   1.305   3.105
 3161SOL    HW210383   1.196   1.329   3.153
 3162SOL     OW10384   0.391   5.061   6.088
 3162SOL    HW110385   0.388   5.160   6.079
 3162SOL    HW210386   0.454   5.036   6.161
 3163SOL     OW10387   3.191   4.116   6.427
 3163SOL    HW110388   3.268   4.181   6.430
 3163SOL    HW210389   3.202   4.055   6.349
 3164SOL     OW10390   5.351   4.182   0.116
 3164SOL    HW110391   5.408   4.109   0.154
 3164SOL    HW210392   5.393   4.219   0.034
 3165SOL     OW10393   6.977   1.348   2.032
 3165SOL    HW110394   7.011   1.425   1.979
 3165SOL    HW210395   6.949   1.379   2.123
 3166SOL     OW10396   5.518   3.425   6.401
 3166SOL    HW110397   5.524   3.335   6.446
 3166SOL    HW210398   5.472   3.489   6.463
 3167SOL     OW10399   0.505   5.307   1.817
 3167SOL    HW110400   0.424   5.324   1.761
 3167SOL    HW210401   0.486   5.233   1.881
 3168SOL     OW10402   5.228   3.500   1.062
 3168SOL    HW110403   5.179   3.414   1.045
 3168SOL    HW210404   5.304   3.483   1.124
 3169SOL     OW10405   1.057   3.077   4.871
 3169SOL    HW110406   1.085   3.170   4.849
 3169SOL    HW210407   0.976   3.052   4.817
 3170SOL     OW10408   4.477   0.722   0.168
 3170SOL    HW110409   4.454   0.726   0.071
 3170SOL    HW210410   4.461   0.812   0.210
 3171SOL     OW10411   5.321   6.618   2.972
 3171SOL    HW110412   5.408   6.595   3.016
 3171SOL    HW210413   5.312   6.718   2.967
 3172SOL     OW10414   6.567   0.096   5.140
 3172SOL    HW110415   6.638   0.026   5.135
 3172SOL    HW210416   6.492   0.072   5.078
 3173SOL     OW10417   2.472   0.601   1.735
 3173SOL    HW110418   2.469   0.508   1.698
 3173SOL    HW210419   2.439   0.599   1.830
 3174SOL     OW10420   2.367   3.065   6.327
 3174SOL    HW110421   2.382   2.981   6.275
 3174SOL    HW210422   2.271   3.090   6.323
 3175SOL     OW10423   0.886   6.499   0.992
 3175SOL    HW110424   0.979   6.491   0.956
 3175SOL    HW210425   0.821   6.458   0.928
 3176SOL     OW10426   0.548   4.471   6.493
 3176SOL    HW110427   0.599   4.400   6.444
 3176SOL    HW210428   0.612   4.534   6.536
 3177SOL     OW10429   6.188   5.774   6.142
 3177SOL    HW110430   6.184   5.786   6.043
 3177SOL    HW210431   6.217   5.860   6.185
 3178SOL     OW10432   0.453   3.654   1.275
 3178SOL    HW110433   0.468   3.750   1.297
 3178SOL    HW210434   0.358   3.630   1.294
 3179SOL     OW10435   1.607   1.495   2.317
 3179SOL    HW110436   1.577   1.430   2.386
 3179SOL    HW210437   1.672   1.450   2.255
 3180SOL     OW10438   5.538   0.683   6.050
 3180SOL    HW110439   5.535   0.775   6.089
 3180SOL    HW210440   5.565   0.689   5.954
 3181SOL     OW10441   0.864   0.980   3.427
 3181SOL    HW110442   0.930   1.023   3.488
 3181SOL    HW210443   0.815   1.050   3.375
 3182SOL     OW10444   2.230   5.804   5.419
 3182SOL    HW110445   2.199   5.826   5.511
 3182SOL    HW210446   2.290   5.877   5.385
 3183SOL     OW10447   4.073   3.453   1.174
 3183SOL    HW110448   4.104   3.513   1.248
 3183SOL    HW210449   4.142   3.383   1.156
 3184SOL     OW10450   2.511   2.026   2.072
 3184SOL    HW110451   2.483   1.962   2.000
 3184SOL    HW210452   2.596   2.071   2.045
 3185SOL     OW10453   6.517   0.084   6.009
 3185SOL    HW110454   6.448   0.017   6.037
 3185SOL    HW210455   6.504   0.169   6.059
 3186SOL     OW10456   2.950   0.874   2.584
 3186SOL    HW110457   2.903   0.942   2.640
 3186SOL    HW210458   2.919   0.882   2.489
 3187SOL     OW10459   3.674   4.568   0.230
 3187SOL    HW110460   3.641   4.489   0.282
 3187SOL    HW210461   3.771   4.582   0.248
 3188SOL     OW10462   4.203   6.050   3.522
 3188SOL    HW110463   4.114   6.080   3.487
 3188SOL    HW210464   4.206   6.062   3.621
 3189SOL     OW10465   0.820   5.967   2.694
 3189SOL    HW110466   0.891   6.022   2.650
 3189SOL    HW210467   0.840   5.959   2.792
 3190SOL     OW10468   1.178   5.952   2.629
 3190SOL    HW110469   1.191   6.044   2.592
 3190SOL    HW210470   1.121   5.956   2.711
 3191SOL     OW10471   4.117   0.610   1.245
 3191SOL    HW110472   4.108   0.518   1.282
 3191SOL    HW210473   4.174   0.608   1.163
 3192SOL     OW10474   0.248   3.167   2.331
 3192SOL    HW110475   0.170   3.221   2.363
 3192SOL    HW210476   0.332   3.217   2.349
 3193SOL     OW10477   4.431   2.786   6.213
 3193SOL    HW110478   4.394   2.811   6.302
 3193SOL    HW210479   4.451   2.688   6.211
 3194SOL     OW10480   0.458   3.494   5.782
 3194SOL    HW110481   0.515   3.417   5.752
 3194SOL    HW210482   0.516   3.568   5.814
 3195SOL     OW10483   0.994   3.119   3.272
 3195SOL    HW110484   0.981   3.029   3.230
 3195SOL    HW210485   1.032   3.107   3.364
 3196SOL     OW10486   6.870   0.202   5.339
 3196SOL    HW110487   6.795   0.254   5.380
 3196SOL    HW210488   6.954   0.256   5.341
 3197SOL     OW10489   1.047   4.441   3.804
 3197SOL    HW110490   0.975   4.454   3.873
 3197SOL    HW210491   1.106   4.365   3.831
 3198SOL     OW10492   7.022   1.819   0.013
 3198SOL    HW110493   0.084   1.863   0.034
 3198SOL    HW210494   6.978   1.789   0.098
 3199SOL     OW10495   4.918   2.139   1.833
 3199SOL    HW110496   4.828   2.096   1.837
 3199SOL    HW210497   4.914   2.220   1.774
 3200SOL     OW10498   6.936   1.719   1.379
 3200SOL    HW110499   6.915   1.814   1.358
 3200SOL    HW210500   6.852   1.670   1.402
 3201SOL     OW10501   4.529   4.580   2.894
 3201SOL    HW110502   4.436   4.603   2.920
 3201SOL    HW210503   4.528   4.519   2.814
 3202SOL     OW10504   1.853   5.684   1.663
 3202SOL    HW110505   1.829   5.687   1.760
 3202SOL    HW210506   1.879   5.590   1.639
 3203SOL     OW10507   6.474   6.885   1.761
 3203SOL    HW110508   6.493   6.981   1.741
 3203SOL    HW210509   6.408   6.880   1.836
 3204SOL     OW10510   6.275   5.604   1.581
 3204SOL    HW110511   6.226   5.655   1.652
 3204SOL    HW210512   6.267   5.506   1.599
 3205SOL     OW10513   0.567   4.012   3.809
 3205SOL    HW110514   0.532   4.053   3.893
 3205SOL    HW210515   0.526   3.922   3.795
 3206SOL     OW10516   1.447   0.045   6.580
 3206SOL    HW110517   1.498   6.989   6.551
 3206SOL    HW210518   1.505   0.126   6.572
 3207SOL     OW10519   0.287   1.550   4.347
 3207SOL    HW110520   0.202   1.519   4.304
 3207SOL    HW210521   0.358   1.481   4.334
 3208SOL     OW10522   5.063   6.597   5.470
 3208SOL    HW110523   5.148   6.544   5.467
 3208SOL    HW210524   4.985   6.534   5.469
 3209SOL     OW10525   2.281   0.656   4.079
 3209SOL    HW110526   2.231   0.680   4.162
 3209SOL    HW210527   2.342   0.731   4.054
 3210SOL     OW10528   0.060   4.440   2.755
 3210SOL    HW110529   6.999   4.471   2.795
 3210SOL    HW210530   0.137   4.483   2.803
 3211SOL     OW10531   1.899   4.298   2.331
 3211SOL    HW110532   1.836   4.317   2.256
 3211SOL    HW210533   1.858   4.233   2.394
 3212SOL     OW10534   4.816   2.152   5.949
 3212SOL    HW110535   4.825   2.120   6.043
 3212SOL    HW210536   4.899   2.203   5.923
 3213SOL     OW10537   6.410   6.177   1.930
 3213SOL    HW110538   6.495   6.155   1.882
 3213SOL    HW210539   6.421   6.262   1.981
 3214SOL     OW10540   4.586   6.102   6.107
 3214SOL    HW110541   4.603   6.147   6.020
 3214SOL    HW210542   4.531   6.162   6.166
 3215SOL     OW10543   5.895   1.673   6.826
 3215SOL    HW110544   5.908   1.737   6.901
 3215SOL    HW210545   5.982   1.655   6.781
 3216SOL     OW10546   5.737   6.679   4.057
 3216SOL    HW110547   5.705   6.739   3.984
 3216SOL    HW210548   5.658   6.643   4.108
 3217SOL     OW10549   6.715   3.914   2.108
 3217SOL    HW110550   6.797   3.951   2.154
 3217SOL    HW210551   6.637   3.973   2.129
 3218SOL     OW10552   2.735   0.406   3.208
 3218SOL    HW110553   2.826   0.411   3.166
 3218SOL    HW210554   2.673   0.357   3.147
 3219SOL     OW10555   6.487   0.643   3.938
 3219SOL    HW110556   6.417   0.594   3.887
 3219SOL    HW210557   6.448   0.727   3.975
 3220SOL     OW10558   6.424   3.798   5.719
 3220SOL    HW110559   6.452   3.893   5.704
 3220SOL    HW210560   6.505   3.739   5.719
 3221SOL     OW10561   2.709   0.031   3.183
 3221SOL    HW110562   2.776   0.008   3.112
 3221SOL    HW210563   2.672   0.122   3.166
 3222SOL     OW10564   5.710   2.668   2.602
 3222SOL    HW110565   5.695   2.741   2.535
 3222SOL    HW210566   5.672   2.695   2.690
 3223SOL     OW10567   2.368   5.133   4.703
 3223SOL    HW110568   2.343   5.037   4.714
 3223SOL    HW210569   2.445   5.154   4.763
 3224SOL     OW10570   3.934   5.197   0.182
 3224SOL    HW110571   4.028   5.182   0.152
 3224SOL    HW210572   3.934   5.236   0.274
 3225SOL     OW10573   2.511   3.542   6.794
 3225SOL    HW110574   2.433   3.600   6.773
 3225SOL    HW210575   2.552   3.509   6.709
 3226SOL     OW10576   1.151   0.588   3.961
 3226SOL    HW110577   1.200   0.507   3.993
 3226SOL    HW210578   1.053   0.575   3.972
 3227SOL     OW10579   2.311   1.227   6.578
 3227SOL    HW110580   2.222   1.187   6.557
 3227SOL    HW210581   2.379   1.196   6.511
 3228SOL     OW10582   5.473   3.706   5.090
 3228SOL    HW110583   5.395   3.743   5.141
 3228SOL    HW210584   5.473   3.606   5.097
 3229SOL     OW10585   4.005   2.427   5.352
 3229SOL    HW110586   4.068   2.451   5.279
 3229SOL    HW210587   4.047   2.358   5.412
 3230SOL     OW10588   1.108   0.577   3.503
 3230SOL    HW110589   1.084   0.626   3.419
 3230SOL    HW210590   1.048   0.606   3.577
 3231SOL     OW10591   5.803   5.863   1.264
 3231SOL    HW110592   5.838   5.809   1.187
 3231SOL    HW210593   5.712   5.832   1.288
 3232SOL     OW10594   1.860   4.721   4.118
 3232SOL    HW110595   1.887   4.788   4.188
 3232SOL    HW210596   1.909   4.635   4.134
 3233SOL     OW10597   0.437   3.919   1.315
 3233SOL    HW110598   0.353   3.922   1.261
 3233SOL    HW210599   0.431   3.985   1.390
 3234SOL     OW10600   0.352   1.896   5.577
 3234SOL    HW110601   0.378   1.837   5.500
 3234SOL    HW210602   0.435   1.926   5.625
 3235SOL     OW10603   4.946   6.996   2.514
 3235SOL    HW110604   5.022   6.955   2.563
 3235SOL    HW210605   4.926   6.942   2.432
 3236SOL     OW10606   0.758   3.009   1.862
 3236SOL    HW110607   0.707   3.086   1.824
 3236SOL    HW210608   0.803   2.959   1.787
 3237SOL     OW10609   3.285   0.425   4.430
 3237SOL    HW110610   3.323   0.417   4.523
 3237SOL    HW210611   3.234   0.511   4.423
 3238SOL     OW10612   0.167   6.500   7.013
 3238SOL    HW110613   0.090   6.538   0.039
 3238SOL    HW210614   0.233   6.572   6.993
 3239SOL     OW10615   6.555   6.789   5.604
 3239SOL    HW110616   6.479   6.824   5.550
 3239SOL    HW210617   6.595   6.863   5.657
 3240SOL     OW10618   1.028   1.810   4.400
 3240SOL    HW110619   1.110   1.767   4.362
 3240SOL    HW210620   0.982   1.864   4.329
 3241SOL     OW10621   5.731   0.886   4.598
 3241SOL    HW110622   5.719   0.887   4.499
 3241SOL    HW210623   5.688   0.968   4.637
 3242SOL     OW10624   3.648   6.504   0.377
 3242SOL    HW110625   3.683   6.582   0.326
 3242SOL    HW210626   3.617   6.534   0.467
 3243SOL     OW10627   3.484   5.314   0.561
 3243SOL    HW110628   3.442   5.330   0.650
 3243SOL    HW210629   3.414   5.280   0.498
 3244SOL     OW10630   2.986   6.251   6.492
 3244SOL    HW110631   3.028   6.333   6.530
 3244SOL    HW210632   2.889   6.247   6.518
 3245SOL     OW10633   3.754   2.568   6.281
 3245SOL    HW110634   3.743   2.493   6.216
 3245SOL    HW210635   3.848   2.568   6.317
 3246SOL     OW10636   5.470   6.212   3.700
 3246SOL    HW110637   5.429   6.250   3.783
 3246SOL    HW210638   5.488   6.115   3.713
 3247SOL     OW10639   0.522   2.811   4.441
 3247SOL    HW110640   0.600   2.791   4.381
 3247SOL    HW210641   0.449   2.854   4.389
 3248SOL     OW10642   5.934   3.689   2.219
 3248SOL    HW110643   5.967   3.705   2.126
 3248SOL    HW210644   5.951   3.770   2.275
 3249SOL     OW10645   2.355   4.609   5.026
 3249SOL    HW110646   2.430   4.594   5.090
 3249SOL    HW210647   2.328   4.522   4.984
 3250SOL     OW10648   4.184   6.485   1.786
 3250SOL    HW110649   4.270   6.497   1.737
 3250SOL    HW210650   4.194   6.521   1.879
 3251SOL     OW10651   3.063   0.754   3.188
 3251SOL    HW110652   2.992   0.724   3.124
 3251SOL    HW210653   3.065   0.692   3.266
 3252SOL     OW10654   3.168   2.141   3.048
 3252SOL    HW110655   3.237   2.200   3.090
 3252SOL    HW210656   3.138   2.073   3.115
 3253SOL     OW10657   4.994   3.282   1.251
 3253SOL    HW110658   5.015   3.343   1.327
 3253SOL    HW210659   4.929   3.212   1.280
 3254SOL     OW10660   5.730   5.067   2.531
 3254SOL    HW110661   5.647   5.015   2.508
 3254SOL    HW210662   5.748   5.135   2.460
 3255SOL     OW10663   4.032   4.435   0.374
 3255SOL    HW110664   4.123   4.395   0.374
 3255SOL    HW210665   4.038   4.531   0.348
 3256SOL     OW10666   6.771   6.285   5.292
 3256SOL    HW110667   6.836   6.279   5.367
 3256SOL    HW210668   6.706   6.359   5.310
 3257SOL     OW10669   2.209   2.236   0.422
 3257SOL    HW110670   2.123   2.242   0.472
 3257SOL    HW210671   2.264   2.161   0.458
 3258SOL     OW10672   5.872   0.090   1.565
 3258SOL    HW110673   5.786   0.045   1.591
 3258SOL    HW210674   5.889   0.166   1.627
 3259SOL     OW10675   5.770   6.183   3.360
 3259SOL    HW110676   5.781   6.251   3.287
 3259SOL    HW210677   5.831   6.205   3.436
 3260SOL     OW10678   1.669   2.501   6.680
 3260SOL    HW110679   1.602   2.463   6.617
 3260SOL    HW210680   1.724   2.570   6.633
 3261SOL     OW10681   4.067   0.961   2.955
 3261SOL    HW110682   4.064   0.862   2.964
 3261SOL    HW210683   3.975   0.998   2.967
 3262SOL     OW10684   3.600   1.537   3.120
 3262SOL    HW110685   3.628   1.528   3.025
 3262SOL    HW210686   3.515   1.486   3.135
 3263SOL     OW10687   3.473   5.756   1.945
 3263SOL    HW110688   3.391   5.813   1.941
 3263SOL    HW210689   3.549   5.810   1.981
 3264SOL     OW10690   5.349   5.504   6.624
 3264SOL    HW110691   5.323   5.520   6.528
 3264SOL    HW210692   5.385   5.588   6.663
 3265SOL     OW10693   4.421   0.769   6.915
 3265SOL    HW110694   4.368   0.687   6.939
 3265SOL    HW210695   4.372   0.820   6.844
 3266SOL     OW10696   0.474   1.614   5.810
 3266SOL    HW110697   0.543   1.623   5.738
 3266SOL    HW210698   0.520   1.611   5.899
 3267SOL     OW10699   3.418   2.610   1.060
 3267SOL    HW110700   3.380   2.695   1.023
 3267SOL    HW210701   3.479   2.632   1.137
 3268SOL     OW10702   0.344   4.614   6.342
 3268SOL    HW110703   0.413   4.562   6.392
 3268SOL    HW210704   0.256   4.567   6.349
 3269SOL     OW10705   4.754   3.599   0.725
 3269SOL    HW110706   4.719   3.660   0.653
 3269SOL    HW210707   4.682   3.584   0.792
 3270SOL     OW10708   1.160   6.239   4.867
 3270SOL    HW110709   1.249   6.250   4.823
 3270SOL    HW210710   1.129   6.144   4.856
 3271SOL     OW10711   5.611   1.823   0.901
 3271SOL    HW110712   5.567   1.790   0.985
 3271SOL    HW210713   5.593   1.921   0.890
 3272SOL     OW10714   5.700   0.165   0.281
 3272SOL    HW110715   5.778   0.103   0.284
 3272SOL    HW210716   5.623   0.122   0.234
 3273SOL     OW10717   6.557   6.833   2.376
 3273SOL    HW110718   6.614   6.912   2.398
 3273SOL    HW210719   6.474   6.863   2.330
 3274SOL     OW10720   3.551   2.160   6.204
 3274SOL    HW110721   3.563   2.075   6.256
 3274SOL    HW210722   3.564   2.239   6.265
 3275SOL     OW10723   3.029   1.009   6.996
 3275SOL    HW110724   3.058   1.103   7.015
 3275SOL    HW210725   2.937   1.011   6.956
 3276SOL     OW10726   3.200   6.255   0.047
 3276SOL    HW110727   3.156   6.315   0.114
 3276SOL    HW210728   3.214   6.304   6.987
 3277SOL     OW10729   6.853   6.735   5.361
 3277SOL    HW110730   6.817   6.695   5.277
 3277SOL    HW210731   6.793   6.811   5.390
 3278SOL     OW10732   1.255   0.972   7.009
 3278SOL    HW110733   1.284   0.926   0.068
 3278SOL    HW210734   1.320   1.044   6.986
 3279SOL     OW10735   1.852   7.007   0.805
 3279SOL    HW110736   1.852   6.979   0.901
 3279SOL    HW210737   1.787   0.058   0.793
 3280SOL     OW10738   1.479   4.903   6.303
 3280SOL    HW110739   1.464   4.841   6.381
 3280SOL    HW210740   1.575   4.933   6.302
 3281SOL     OW10741   2.704   6.038   0.199
 3281SOL    HW110742   2.720   6.003   0.292
 3281SOL    HW210743   2.782   6.094   0.171
 3282SOL     OW10744   1.950   5.589   2.648
 3282SOL    HW110745   1.917   5.612   2.556
 3282SOL    HW210746   1.971   5.672   2.698
 3283SOL     OW10747   2.109   0.409   3.691
 3283SOL    HW110748   2.192   0.364   3.660
 3283SOL    HW210749   2.046   0.420   3.614
 3284SOL     OW10750   7.013   3.711   6.959
 3284SOL    HW110751   7.007   3.659   0.019
 3284SOL    HW210752   6.946   3.675   6.893
 3285SOL     OW10753   6.703   2.142   4.056
 3285SOL    HW110754   6.726   2.063   4.113
 3285SOL    HW210755   6.781   2.164   3.997
 3286SOL     OW10756   3.571   4.558   5.421
 3286SOL    HW110757   3.606   4.485   5.480
 3286SOL    HW210758   3.482   4.532   5.384
 3287SOL     OW10759   1.083   4.933   0.994
 3287SOL    HW110760   1.182   4.932   0.976
 3287SOL    HW210761   1.042   5.012   0.949
 3288SOL     OW10762   0.787   6.175   0.031
 3288SOL    HW110763   0.759   6.244   0.097
 3288SOL    HW210764   0.855   6.213   6.993
 3289SOL     OW10765   1.744   5.432   4.100
 3289SOL    HW110766   1.813   5.380   4.149
 3289SOL    HW210767   1.788   5.487   4.029
 3290SOL     OW10768   6.818   5.069   1.405
 3290SOL    HW110769   6.765   5.151   1.427
 3290SOL    HW210770   6.844   5.071   1.309
 3291SOL     OW10771   2.137   0.116   0.954
 3291SOL    HW110772   2.167   0.099   0.860
 3291SOL    HW210773   2.045   0.155   0.954
 3292SOL     OW10774   0.701   6.255   6.103
 3292SOL    HW110775   0.643   6.175   6.113
 3292SOL    HW210776   0.731   6.263   6.008
 3293SOL     OW10777   6.705   0.829   3.144
 3293SOL    HW110778   6.804   0.812   3.148
 3293SOL    HW210779   6.675   0.824   3.049
 3294SOL     OW10780   0.422   0.145   0.028
 3294SOL    HW110781   0.416   0.240   0.061
 3294SOL    HW210782   0.331   0.112   0.003
 3295SOL     OW10783   1.272   2.659   6.455
 3295SOL    HW110784   1.211   2.623   6.385
 3295SOL    HW210785   1.335   2.588   6.485
 3296SOL     OW10786   0.798   6.382   2.712
 3296SOL    HW110787   0.783   6.468   2.662
 3296SOL    HW210788   0.805   6.307   2.647
 3297SOL     OW10789   3.061   2.677   5.868
 3297SOL    HW110790   3.096   2.753   5.813
 3297SOL    HW210791   3.136   2.613   5.888
 3298SOL     OW10792   6.152   3.103   3.231
 3298SOL    HW110793   6.123   3.028   3.290
 3298SOL    HW210794   6.152   3.072   3.136
 3299SOL     OW10795   1.877   6.964   5.135
 3299SOL    HW110796   1.849   6.869   5.145
 3299SOL    HW210797   1.949   6.970   5.065
 3300SOL     OW10798   6.459   6.906   4.644
 3300SOL    HW110799   6.435   6.889   4.549
 3300SOL    HW210800   6.519   6.833   4.678
 3301SOL     OW10801   0.343   3.576   2.390
 3301SOL    HW110802   0.285   3.509   2.437
 3301SOL    HW210803   0.434   3.577   2.432
 3302SOL     OW10804   0.989   4.821   3.838
 3302SOL    HW110805   1.086   4.803   3.826
 3302SOL    HW210806   0.943   4.816   3.749
 3303SOL     OW10807   3.348   3.815   3.107
 3303SOL    HW110808   3.415   3.822   3.181
 3303SOL    HW210809   3.281   3.743   3.129
 3304SOL     OW10810   0.972   6.194   4.471
 3304SOL    HW110811   0.979   6.160   4.377
 3304SOL    HW210812   0.930   6.124   4.529
 3305SOL     OW10813   1.547   1.007   1.903
 3305SOL    HW110814   1.537   1.105   1.884
 3305SOL    HW210815   1.637   0.991   1.944
 3306SOL     OW10816   1.052   3.467   2.739
 3306SOL    HW110817   1.150   3.457   2.722
 3306SOL    HW210818   1.004   3.478   2.653
 3307SOL     OW10819   0.461   5.953   0.430
 3307SOL    HW110820   0.402   6.007   0.371
 3307SOL    HW210821   0.551   5.998   0.437
 3308SOL     OW10822   4.571   5.923   0.461
 3308SOL    HW110823   4.478   5.944   0.491
 3308SOL    HW210824   4.637   5.968   0.522
 3309SOL     OW10825   0.635   5.127   3.047
 3309SOL    HW110826   0.698   5.119   2.970
 3309SOL    HW210827   0.643   5.218   3.087
 3310SOL     OW10828   1.405   6.512   1.620
 3310SOL    HW110829   1.315   6.522   1.663
 3310SOL    HW210830   1.469   6.575   1.663
 3311SOL     OW10831   3.836   6.341   0.622
 3311SOL    HW110832   3.747   6.341   0.668
 3311SOL    HW210833   3.836   6.270   0.551
 3312SOL     OW10834   2.684   3.749   6.801
 3312SOL    HW110835   2.613   3.682   6.782
 3312SOL    HW210836   2.716   3.739   6.895
 3313SOL     OW10837   6.847   5.297   4.415
 3313SOL    HW110838   6.946   5.290   4.399
 3313SOL    HW210839   6.806   5.206   4.407
 3314SOL     OW10840   0.666   3.037   5.853
 3314SOL    HW110841   0.622   2.947   5.848
 3314SOL    HW210842   0.760   3.030   5.821
 3315SOL     OW10843   0.344   2.322   2.728
 3315SOL    HW110844   0.273   2.363   2.785
 3315SOL    HW210845   0.345   2.367   2.638
 3316SOL     OW10846   4.516   0.593   0.803
 3316SOL    HW110847   4.509   0.688   0.771
 3316SOL    HW210848   4.489   0.531   0.730
 3317SOL     OW10849   4.344   2.729   1.683
 3317SOL    HW110850   4.411   2.716   1.609
 3317SOL    HW210851   4.321   2.640   1.722
 3318SOL     OW10852   3.005   5.574   4.669
 3318SOL    HW110853   2.917   5.581   4.718
 3318SOL    HW210854   2.988   5.556   4.572
 3319SOL     OW10855   0.524   5.312   4.831
 3319SOL    HW110856   0.517   5.241   4.760
 3319SOL    HW210857   0.585   5.385   4.799
 3320SOL     OW10858   0.181   1.029   6.156
 3320SOL    HW110859   0.116   1.048   6.230
 3320SOL    HW210860   0.274   1.037   6.190
 3321SOL     OW10861   3.456   4.101   3.622
 3321SOL    HW110862   3.472   4.143   3.711
 3321SOL    HW210863   3.359   4.110   3.598
 3322SOL     OW10864   4.373   1.937   1.744
 3322SOL    HW110865   4.384   2.033   1.769
 3322SOL    HW210866   4.382   1.927   1.645
 3323SOL     OW10867   2.242   5.091   0.123
 3323SOL    HW110868   2.340   5.080   0.106
 3323SOL    HW210869   2.225   5.095   0.221
 3324SOL     OW10870   0.917   2.164   0.393
 3324SOL    HW110871   0.850   2.236   0.408
 3324SOL    HW210872   0.985   2.196   0.326
 3325SOL     OW10873   2.233   3.257   0.512
 3325SOL    HW110874   2.151   3.216   0.472
 3325SOL    HW210875   2.311   3.195   0.500
 3326SOL     OW10876   6.622   0.844   1.699
 3326SOL    HW110877   6.677   0.909   1.751
 3326SOL    HW210878   6.532   0.833   1.742
 3327SOL     OW10879   3.075   6.402   1.940
 3327SOL    HW110880   3.001   6.443   1.993
 3327SOL    HW210881   3.147   6.470   1.926
 3328SOL     OW10882   4.511   1.117   2.558
 3328SOL    HW110883   4.550   1.175   2.487
 3328SOL    HW210884   4.413   1.132   2.563
 3329SOL     OW10885   5.055   0.569   5.035
 3329SOL    HW110886   4.972   0.579   5.090
 3329SOL    HW210887   5.117   0.645   5.055
 3330SOL     OW10888   6.638   5.763   2.785
 3330SOL    HW110889   6.561   5.766   2.849
 3330SOL    HW210890   6.695   5.684   2.805
 3331SOL     OW10891   2.116   3.324   2.699
 3331SOL    HW110892   2.112   3.398   2.632
 3331SOL    HW210893   2.104   3.236   2.653
 3332SOL     OW10894   3.414   5.096   1.406
 3332SOL    HW110895   3.321   5.064   1.390
 3332SOL    HW210896   3.411   5.191   1.439
 3333SOL     OW10897   2.667   2.974   1.661
 3333SOL    HW110898   2.756   2.929   1.655
 3333SOL    HW210899   2.679   3.073   1.660
 3334SOL     OW10900   2.252   2.167   2.154
 3334SOL    HW110901   2.351   2.162   2.137
 3334SOL    HW210902   2.204   2.113   2.085
 3335SOL     OW10903   3.691   4.357   5.613
 3335SOL    HW110904   3.657   4.293   5.682
 3335SOL    HW210905   3.784   4.385   5.637
 3336SOL     OW10906   4.637   5.498   4.125
 3336SOL    HW110907   4.625   5.525   4.221
 3336SOL    HW210908   4.735   5.501   4.102
 3337SOL     OW10909   3.326   3.356   3.252
 3337SOL    HW110910   3.280   3.304   3.323
 3337SOL    HW210911   3.395   3.415   3.293
 3338SOL     OW10912   2.876   2.667   1.540
 3338SOL    HW110913   2.861   2.645   1.443
 3338SOL    HW210914   2.849   2.589   1.597
 3339SOL     OW10915   2.087   0.021   5.842
 3339SOL    HW110916   2.019   0.070   5.897
 3339SOL    HW210917   2.152   0.087   5.804
 3340SOL     OW10918   3.845   0.686   3.883
 3340SOL    HW110919   3.755   0.649   3.859
 3340SOL    HW210920   3.836   0.782   3.908
 3341SOL     OW10921   1.594   3.755   3.031
 3341SOL    HW110922   1.613   3.720   3.123
 3341SOL    HW210923   1.679   3.785   2.988
 3342SOL     OW10924   0.070   0.723   2.354
 3342SOL    HW110925   7.023   0.653   2.353
 3342SOL    HW210926   0.159   0.678   2.370
 3343SOL     OW10927   4.688   5.189   6.654
 3343SOL    HW110928   4.735   5.114   6.700
 3343SOL    HW210929   4.742   5.272   6.662
 3344SOL     OW10930   0.599   3.233   2.090
 3344SOL    HW110931   0.602   3.134   2.085
 3344SOL    HW210932   0.554   3.262   2.175
 3345SOL     OW10933   6.415   5.340   6.789
 3345SOL    HW110934   6.412   5.406   6.864
 3345SOL    HW210935   6.345   5.270   6.804
 3346SOL     OW10936   1.870   0.677   0.423
 3346SOL    HW110937   1.934   0.606   0.450
 3346SOL    HW210938   1.792   0.678   0.486
 3347SOL     OW10939   0.521   3.816   6.045
 3347SOL    HW110940   0.515   3.914   6.023
 3347SOL    HW210941   0.554   3.766   5.966
 3348SOL     OW10942   3.536   3.951   6.216
 3348SOL    HW110943   3.602   3.991   6.279
 3348SOL    HW210944   3.476   4.023   6.180
 3349SOL     OW10945   1.458   4.908   3.634
 3349SOL    HW110946   1.462   4.828   3.694
 3349SOL    HW210947   1.383   4.896   3.569
 3350SOL     OW10948   1.871   4.281   4.791
 3350SOL    HW110949   1.804   4.352   4.771
 3350SOL    HW210950   1.963   4.315   4.769
 3351SOL     OW10951   5.205   0.902   1.816
 3351SOL    HW110952   5.136   0.870   1.880
 3351SOL    HW210953   5.291   0.917   1.865
 3352SOL     OW10954   6.305   1.455   6.985
 3352SOL    HW110955   6.363   1.519   0.010
 3352SOL    HW210956   6.346   1.364   6.987
 3353SOL     OW10957   3.544   0.203   1.294
 3353SOL    HW110958   3.504   0.117   1.261
 3353SOL    HW210959   3.599   0.244   1.221
 3354SOL     OW10960   2.933   4.335   6.334
 3354SOL    HW110961   2.877   4.381   6.265
 3354SOL    HW210962   2.982   4.259   6.292
 3355SOL     OW10963   1.724   0.797   5.172
 3355SOL    HW110964   1.674   0.822   5.089
 3355SOL    HW210965   1.752   0.701   5.166
 3356SOL     OW10966   1.780   0.479   6.255
 3356SOL    HW110967   1.771   0.498   6.353
 3356SOL    HW210968   1.850   0.408   6.241
 3357SOL     OW10969   3.133   3.207   1.608
 3357SOL    HW110970   3.198   3.134   1.628
 3357SOL    HW210971   3.065   3.173   1.543
 3358SOL     OW10972   6.737   0.466   1.291
 3358SOL    HW110973   6.818   0.493   1.343
 3358SOL    HW210974   6.735   0.515   1.204
 3359SOL     OW10975   0.510   6.475   4.714
 3359SOL    HW110976   0.537   6.386   4.677
 3359SOL    HW210977   0.564   6.495   4.796
 3360SOL     OW10978   1.256   3.553   4.403
 3360SOL    HW110979   1.281   3.568   4.308
 3360SOL    HW210980   1.157   3.562   4.413
 3361SOL     OW10981   6.630   6.687   4.685
 3361SOL    HW110982   6.646   6.629   4.605
 3361SOL    HW210983   6.598   6.631   4.761
 3362SOL     OW10984   3.875   0.631   3.600
 3362SOL    HW110985   3.860   0.654   3.696
 3362SOL    HW210986   3.865   0.714   3.544
 3363SOL     OW10987   5.857   3.793   6.904
 3363SOL    HW110988   5.837   3.711   6.851
 3363SOL    HW210989   5.808   3.871   6.865
 3364SOL     OW10990   1.823   3.440   3.097
 3364SOL    HW110991   1.868   3.466   3.012
 3364SOL    HW210992   1.890   3.403   3.161
 3365SOL     OW10993   1.957   4.029   3.244
 3365SOL    HW110994   1.930   4.097   3.312
 3365SOL    HW210995   2.034   3.976   3.280
 3366SOL     OW10996   5.877   3.911   4.413
 3366SOL    HW110997   5.976   3.908   4.400
 3366SOL    HW210998   5.848   4.007   4.420
 3367SOL     OW10999   3.985   3.780   3.672
 3367SOL    HW111000   3.930   3.864   3.674
 3367SOL    HW211001   4.001   3.749   3.765
 3368SOL     OW11002   1.802   0.361   1.900
 3368SOL    HW111003   1.881   0.300   1.888
 3368SOL    HW211004   1.771   0.356   1.995
 3369SOL     OW11005   4.907   1.885   1.051
 3369SOL    HW111006   4.856   1.902   1.135
 3369SOL    HW211007   4.846   1.897   0.972
 3370SOL     OW11008   0.798   5.394   2.548
 3370SOL    HW111009   0.800   5.458   2.471
 3370SOL    HW211010   0.737   5.318   2.526
 3371SOL     OW11011   2.212   2.848   2.223
 3371SOL    HW111012   2.278   2.808   2.287
 3371SOL    HW211013   2.257   2.865   2.136
 3372SOL     OW11014   6.390   3.140   2.836
 3372SOL    HW111015   6.448   3.121   2.756
 3372SOL    HW211016   6.421   3.223   2.881
 3373SOL     OW11017   6.282   2.846   1.354
 3373SOL    HW111018   6.264   2.779   1.281
 3373SOL    HW211019   6.242   2.812   1.440
 3374SOL     OW11020   0.631   6.690   4.549
 3374SOL    HW111021   0.605   6.612   4.608
 3374SOL    HW211022   0.706   6.740   4.592
 3375SOL     OW11023   6.986   5.183   5.643
 3375SOL    HW111024   6.978   5.118   5.719
 3375SOL    HW211025   0.043   5.161   5.590
 3376SOL     OW11026   3.258   3.351   4.042
 3376SOL    HW111027   3.182   3.298   4.004
 3376SOL    HW211028   3.326   3.289   4.080
 3377SOL     OW11029   6.540   5.241   3.782
 3377SOL    HW111030   6.465   5.278   3.727
 3377SOL    HW211031   6.588   5.170   3.729
 3378SOL     OW11032   1.199   6.109   0.390
 3378SOL    HW111033   1.181   6.013   0.372
 3378SOL    HW211034   1.256   6.118   0.472
 3379SOL     OW11035   6.940   3.951   3.564
 3379SOL    HW111036   6.855   4.002   3.561
 3379SOL    HW211037   7.017   4.014   3.554
 3380SOL     OW11038   2.662   4.811   0.548
 3380SOL    HW111039   2.710   4.737   0.501
 3380SOL    HW211040   2.643   4.885   0.483
 3381SOL     OW11041   1.692   3.463   6.038
 3381SOL    HW111042   1.673   3.395   6.109
 3381SOL    HW211043   1.779   3.441   5.994
 3382SOL     OW11044   6.719   3.441   0.739
 3382SOL    HW111045   6.672   3.374   0.681
 3382SOL    HW211046   6.701   3.533   0.705
 3383SOL     OW11047   4.129   5.106   0.467
 3383SOL    HW111048   4.114   5.011   0.494
 3383SOL    HW211049   4.041   5.154   0.464
 3384SOL     OW11050   3.392   4.355   6.720
 3384SOL    HW111051   3.468   4.378   6.659
 3384SOL    HW211052   3.373   4.257   6.715
 3385SOL     OW11053   0.093   2.317   3.900
 3385SOL    HW111054   0.007   2.303   3.852
 3385SOL    HW211055   0.074   2.351   3.993
 3386SOL     OW11056   0.427   4.382   5.034
 3386SOL    HW111057   0.468   4.335   5.112
 3386SOL    HW211058   0.488   4.456   5.004
 3387SOL     OW11059   6.348   1.065   3.057
 3387SOL    HW111060   6.292   1.043   3.137
 3387SOL    HW211061   6.346   1.163   3.040
 3388SOL     OW11062   6.640   4.040   1.047
 3388SOL    HW111063   6.545   4.061   1.071
 3388SOL    HW211064   6.698   4.119   1.069
 3389SOL     OW11065   5.535   6.328   0.035
 3389SOL    HW111066   5.478   6.252   0.066
 3389SOL    HW211067   5.499   6.364   6.974
 3390SOL     OW11068   2.858   5.771   6.219
 3390SOL    HW111069   2.927   5.775   6.292
 3390SOL    HW211070   2.898   5.802   6.133
 3391SOL     OW11071   5.692   3.560   4.043
 3391SOL    HW111072   5.652   3.496   4.109
 3391SOL    HW211073   5.729   3.639   4.092
 3392SOL     OW11074   5.058   0.324   5.846
 3392SOL    HW111075   5.025   0.359   5.758
 3392SOL    HW211076   5.138   0.266   5.830
 3393SOL     OW11077   4.800   6.376   0.545
 3393SOL    HW111078   4.707   6.414   0.542
 3393SOL    HW211079   4.865   6.448   0.565
 3394SOL     OW11080   2.476   5.462   1.041
 3394SOL    HW111081   2.509   5.532   0.978
 3394SOL    HW211082   2.554   5.408   1.073
 3395SOL     OW11083   1.899   0.054   3.652
 3395SOL    HW111084   1.915   0.067   3.555
 3395SOL    HW211085   1.897   6.981   3.673
 3396SOL     OW11086   4.777   1.148   4.448
 3396SOL    HW111087   4.858   1.162   4.391
 3396SOL    HW211088   4.701   1.201   4.411
 3397SOL     OW11089   2.458   5.846   6.886
 3397SOL    HW111090   2.546   5.812   6.917
 3397SOL    HW211091   2.386   5.783   6.914
 3398SOL     OW11092   6.597   2.572   4.856
 3398SOL    HW111093   6.625   2.477   4.844
 3398SOL    HW211094   6.677   2.629   4.869
 3399SOL     OW11095   6.785   6.137   1.799
 3399SOL    HW111096   6.762   6.215   1.858
 3399SOL    HW211097   6.806   6.170   1.707
 3400SOL     OW11098   4.737   2.830   6.080
 3400SOL    HW111099   4.667   2.763   6.106
 3400SOL    HW211100   4.745   2.832   5.980
 3401SOL     OW11101   5.954   3.938   5.798
 3401SOL    HW111102   6.028   3.873   5.817
 3401SOL    HW211103   5.989   4.011   5.739
 3402SOL     OW11104   6.525   3.343   1.218
 3402SOL    HW111105   6.558   3.309   1.305
 3402SOL    HW211106   6.425   3.331   1.213
 3403SOL     OW11107   5.552   6.753   6.314
 3403SOL    HW111108   5.499   6.678   6.275
 3403SOL    HW211109   5.647   6.747   6.283
 3404SOL     OW11110   4.974   4.263   4.831
 3404SOL    HW111111   4.917   4.181   4.825
 3404SOL    HW211112   5.069   4.236   4.846
 3405SOL     OW11113   5.051   6.571   0.156
 3405SOL    HW111114   4.978   6.512   0.122
 3405SOL    HW211115   5.075   6.544   0.249
 3406SOL     OW11116   2.614   5.078   1.760
 3406SOL    HW111117   2.683   5.093   1.830
 3406SOL    HW211118   2.548   5.154   1.762
 3407SOL     OW11119   0.973   4.080   6.892
 3407SOL    HW111120   0.919   4.000   6.868
 3407SOL    HW211121   1.002   4.127   6.808
 3408SOL     OW11122   4.699   0.443   3.691
 3408SOL    HW111123   4.752   0.517   3.732
 3408SOL    HW211124   4.760   0.378   3.647
 3409SOL     OW11125   4.335   0.734   1.376
 3409SOL    HW111126   4.248   0.696   1.344
 3409SOL    HW211127   4.319   0.822   1.421
 3410SOL     OW11128   6.223   0.563   3.449
 3410SOL    HW111129   6.133   0.523   3.436
 3410SOL    HW211130   6.292   0.490   3.448
 3411SOL     OW11131   5.837   3.294   6.389
 3411SOL    HW111132   5.907   3.295   6.319
 3411SOL    HW211133   5.753   3.255   6.352
 3412SOL     OW11134   5.483   3.206   1.834
 3412SOL    HW111135   5.535   3.123   1.855
 3412SOL    HW211136   5.391   3.181   1.803
 3413SOL     OW11137   6.953   1.398   0.091
 3413SOL    HW111138   6.969   1.302   0.068
 3413SOL    HW211139   6.866   1.428   0.052
 3414SOL     OW11140   3.139   4.169   1.183
 3414SOL    HW111141   3.194   4.131   1.109
 3414SOL    HW211142   3.184   4.152   1.270
 3415SOL     OW11143   1.800   1.188   6.396
 3415SOL    HW111144   1.716   1.242   6.395
 3415SOL    HW211145   1.786   1.102   6.347
 3416SOL     OW11146   6.082   6.913   6.465
 3416SOL    HW111147   5.989   6.940   6.440
 3416SOL    HW211148   6.146   6.949   6.398
 3417SOL     OW11149   5.408   6.422   3.345
 3417SOL    HW111150   5.309   6.414   3.362
 3417SOL    HW211151   5.448   6.330   3.341
 3418SOL     OW11152   4.338   5.271   0.972
 3418SOL    HW111153   4.437   5.288   0.969
 3418SOL    HW211154   4.295   5.342   1.028
 3419SOL     OW11155   2.765   5.133   5.355
 3419SOL    HW111156   2.674   5.169   5.332
 3419SOL    HW211157   2.781   5.049   5.303
 3420SOL     OW11158   4.519   2.080   2.431
 3420SOL    HW111159   4.530   2.175   2.462
 3420SOL    HW211160   4.597   2.054   2.375
 3421SOL     OW11161   0.185   3.015   4.536
 3421SOL    HW111162   0.207   3.111   4.551
 3421SOL    HW211163   0.087   3.001   4.550
 3422SOL     OW11164   2.301   6.464   1.071
 3422SOL    HW111165   2.331   6.443   1.164
 3422SOL    HW211166   2.311   6.382   1.014
 3423SOL     OW11167   1.358   4.548   5.550
 3423SOL    HW111168   1.439   4.607   5.557
 3423SOL    HW211169   1.360   4.499   5.462
 3424SOL     OW11170   4.551   1.261   2.083
 3424SOL    HW111171   4.526   1.358   2.074
 3424SOL    HW211172   4.498   1.220   2.158
 3425SOL     OW11173   6.033   3.356   6.593
 3425SOL    HW111174   6.068   3.414   6.520
 3425SOL    HW211175   5.943   3.320   6.567
 3426SOL     OW11176   6.443   2.823   6.190
 3426SOL    HW111177   6.362   2.808   6.247
 3426SOL    HW211178   6.464   2.921   6.186
 3427SOL     OW11179   1.080   2.079   0.584
 3427SOL    HW111180   1.045   2.009   0.646
 3427SOL    HW211181   1.006   2.116   0.529
 3428SOL     OW11182   4.718   6.501   4.979
 3428SOL    HW111183   4.774   6.496   5.062
 3428SOL    HW211184   4.630   6.542   5.000
 3429SOL     OW11185   5.686   6.991   1.086
 3429SOL    HW111186   5.736   6.923   1.140
 3429SOL    HW211187   5.672   6.956   0.993
 3430SOL     OW11188   2.432   4.870   5.476
 3430SOL    HW111189   2.466   4.777   5.464
 3430SOL    HW211190   2.489   4.918   5.543
 3431SOL     OW11191   0.709   4.436   2.708
 3431SOL    HW111192   0.753   4.418   2.796
 3431SOL    HW211193   0.749   4.377   2.638
 3432SOL     OW11194   1.234   4.372   6.813
 3432SOL    HW111195   1.199   4.463   6.791
 3432SOL    HW211196   1.284   4.376   6.900
 3433SOL     OW11197   2.652   1.745   6.780
 3433SOL    HW111198   2.673   1.800   6.700
 3433SOL    HW211199   2.721   1.674   6.791
 3434SOL     OW11200   3.700   2.587   1.760
 3434SOL    HW111201   3.681   2.645   1.839
 3434SOL    HW211202   3.703   2.491   1.789
 3435SOL     OW11203   1.966   1.255   1.338
 3435SOL    HW111204   2.044   1.245   1.277
 3435SOL    HW211205   1.999   1.279   1.430
 3436SOL     OW11206   3.577   6.542   6.178
 3436SOL    HW111207   3.566   6.480   6.256
 3436SOL    HW211208   3.653   6.604   6.195
 3437SOL     OW11209   1.647   6.885   6.477
 3437SOL    HW111210   1.630   6.880   6.379
 3437SOL    HW211211   1.729   6.938   6.495
 3438SOL     OW11212   1.637   3.671   0.882
 3438SOL    HW111213   1.681   3.586   0.912
 3438SOL    HW211214   1.679   3.702   0.797
 3439SOL     OW11215   2.104   5.292   1.724
 3439SOL    HW111216   2.025   5.230   1.727
 3439SOL    HW211217   2.082   5.371   1.667
 3440SOL     OW11218   3.680   4.003   4.849
 3440SOL    HW111219   3.634   3.960   4.771
 3440SOL    HW211220   3.611   4.043   4.910
 3441SOL     OW11221   5.972   4.742   6.096
 3441SOL    HW111222   6.000   4.782   6.009
 3441SOL    HW211223   5.897   4.678   6.081
 3442SOL     OW11224   2.906   3.523   1.276
 3442SOL    HW111225   2.819   3.557   1.312
 3442SOL    HW211226   2.959   3.599   1.239
 3443SOL     OW11227   0.417   5.993   2.207
 3443SOL    HW111228   0.495   6.055   2.207
 3443SOL    HW211229   0.352   6.022   2.138
 3444SOL     OW11230   6.021   3.856   6.445
 3444SOL    HW111231   5.922   3.852   6.455
 3444SOL    HW211232   6.047   3.825   6.353
 3445SOL     OW11233   6.288   4.809   3.910
 3445SOL    HW111234   6.203   4.845   3.871
 3445SOL    HW211235   6.288   4.709   3.902
 3446SOL     OW11236   4.742   0.811   1.602
 3446SOL    HW111237   4.748   0.738   1.534
 3446SOL    HW211238   4.712   0.895   1.558
 3447SOL     OW11239   4.903   1.148   6.327
 3447SOL    HW111240   4.919   1.244   6.349
 3447SOL    HW211241   4.978   1.092   6.362
 3448SOL     OW11242   1.826   4.714   5.394
 3448SOL    HW111243   1.900   4.709   5.327
 3448SOL    HW211244   1.748   4.763   5.354
 3449SOL     OW11245   6.861   4.696   5.586
 3449SOL    HW111246   6.830   4.637   5.661
 3449SOL    HW211247   6.787   4.757   5.558
 3450SOL     OW11248   2.409   6.114   1.823
 3450SOL    HW111249   2.358   6.045   1.873
 3450SOL    HW211250   2.488   6.072   1.778
 3451SOL     OW11251   1.995   1.322   1.616
 3451SOL    HW111252   2.084   1.359   1.645
 3451SOL    HW211253   1.928   1.396   1.616
 3452SOL     OW11254   4.461   1.198   4.544
 3452SOL    HW111255   4.446   1.294   4.569
 3452SOL    HW211256   4.490   1.193   4.448
 3453SOL     OW11257   4.585   6.313   6.620
 3453SOL    HW111258   4.511   6.329   6.685
 3453SOL    HW211259   4.560   6.349   6.531
 3454SOL     OW11260   6.957   2.910   0.951
 3454SOL    HW111261   6.905   2.959   1.022
 3454SOL    HW211262   6.944   2.811   0.963
 3455SOL     OW11263   0.954   3.022   5.417
 3455SOL    HW111264   0.963   2.995   5.321
 3455SOL    HW211265   1.044   3.023   5.460
 3456SOL     OW11266   5.319   5.653   3.920
 3456SOL    HW111267   5.306   5.752   3.916
 3456SOL    HW211268   5.391   5.626   3.856
 3457SOL     OW11269   2.722   4.199   6.470
 3457SOL    HW111270   2.811   4.219   6.429
 3457SOL    HW211271   2.722   4.229   6.565
 3458SOL     OW11272   4.316   1.101   1.856
 3458SOL    HW111273   4.250   1.031   1.829
 3458SOL    HW211274   4.402   1.057   1.884
 3459SOL     OW11275   5.022   6.241   2.401
 3459SOL    HW111276   4.927   6.210   2.401
 3459SOL    HW211277   5.079   6.172   2.445
 3460SOL     OW11278   3.892   1.838   4.876
 3460SOL    HW111279   3.930   1.930   4.870
 3460SOL    HW211280   3.909   1.800   4.967
 3461SOL     OW11281   5.802   5.001   4.770
 3461SOL    HW111282   5.811   4.968   4.864
 3461SOL    HW211283   5.763   4.929   4.713
 3462SOL     OW11284   1.364   3.549   6.401
 3462SOL    HW111285   1.317   3.494   6.332
 3462SOL    HW211286   1.318   3.637   6.410
 3463SOL     OW11287   4.993   4.044   0.278
 3463SOL    HW111288   5.024   4.114   0.214
 3463SOL    HW211289   5.073   4.000   0.319
 3464SOL     OW11290   0.110   4.577   4.781
 3464SOL    HW111291   0.048   4.500   4.795
 3464SOL    HW211292   0.143   4.577   4.687
 3465SOL     OW11293   0.722   1.604   2.407
 3465SOL    HW111294   0.808   1.576   2.450
 3465SOL    HW211295   0.736   1.685   2.350
 3466SOL     OW11296   6.328   3.824   5.309
 3466SOL    HW111297   6.319   3.757   5.236
 3466SOL    HW211298   6.322   3.778   5.397
 3467SOL     OW11299   2.220   3.136   6.692
 3467SOL    HW111300   2.239   3.049   6.646
 3467SOL    HW211301   2.146   3.183   6.645
 3468SOL     OW11302   4.207   6.868   2.985
 3468SOL    HW111303   4.278   6.910   2.929
 3468SOL    HW211304   4.249   6.805   3.051
 3469SOL     OW11305   4.925   3.690   2.581
 3469SOL    HW111306   4.934   3.605   2.633
 3469SOL    HW211307   4.872   3.673   2.498
 3470SOL     OW11308   6.811   5.440   1.227
 3470SOL    HW111309   6.891   5.391   1.192
 3470SOL    HW211310   6.781   5.508   1.160
 3471SOL     OW11311   4.134   0.480   4.506
 3471SOL    HW111312   4.109   0.383   4.513
 3471SOL    HW211313   4.186   0.507   4.587
 3472SOL     OW11314   3.994   1.237   5.193
 3472SOL    HW111315   4.000   1.171   5.268
 3472SOL    HW211316   4.082   1.240   5.145
 3473SOL     OW11317   4.718   0.414   4.607
 3473SOL    HW111318   4.657   0.346   4.649
 3473SOL    HW211319   4.771   0.460   4.679
 3474SOL     OW11320   5.230   3.935   0.438
 3474SOL    HW111321   5.327   3.955   0.446
 3474SOL    HW211322   5.207   3.853   0.490
 3475SOL     OW11323   2.242   6.248   5.015
 3475SOL    HW111324   2.230   6.224   5.112
 3475SOL    HW211325   2.194   6.333   4.996
 3476SOL     OW11326   4.523   1.788   4.199
 3476SOL    HW111327   4.603   1.827   4.244
 3476SOL    HW211328   4.512   1.831   4.109
 3477SOL     OW11329   4.370   5.500   2.100
 3477SOL    HW111330   4.457   5.534   2.066
 3477SOL    HW211331   4.330   5.567   2.162
 3478SOL     OW11332   4.184   4.733   6.686
 3478SOL    HW111333   4.236   4.672   6.745
 3478SOL    HW211334   4.145   4.808   6.740
 3479SOL     OW11335   0.661   0.349   1.962
 3479SOL    HW111336   0.735   0.335   1.897
 3479SOL    HW211337   0.587   0.402   1.918
 3480SOL     OW11338   1.472   1.187   4.252
 3480SOL    HW111339   1.417   1.189   4.168
 3480SOL    HW211340   1.511   1.096   4.264
 3481SOL     OW11341   2.504   6.869   6.389
 3481SOL    HW111342   2.441   6.939   6.356
 3481SOL    HW211343   2.510   6.795   6.321
 3482SOL     OW11344   1.067   1.663   1.318
 3482SOL    HW111345   0.995   1.692   1.255
 3482SOL    HW211346   1.050   1.569   1.347
 3483SOL     OW11347   3.679   1.449   0.549
 3483SOL    HW111348   3.757   1.507   0.524
 3483SOL    HW211349   3.651   1.471   0.643
 3484SOL     OW11350   3.062   3.184   3.695
 3484SOL    HW111351   3.058   3.192   3.795
 3484SOL    HW211352   2.989   3.238   3.654
 3485SOL     OW11353   6.809   1.625   4.654
 3485SOL    HW111354   6.841   1.648   4.562
 3485SOL    HW211355   6.881   1.645   4.720
 3486SOL     OW11356   4.540   1.629   2.705
 3486SOL    HW111357   4.639   1.631   2.721
 3486SOL    HW211358   4.521   1.610   2.609
 3487SOL     OW11359   0.578   0.393   6.833
 3487SOL    HW111360   0.531   0.442   6.906
 3487SOL    HW211361   0.578   0.448   6.749
 3488SOL     OW11362   6.091   3.061   3.624
 3488SOL    HW111363   6.160   3.060   3.551
 3488SOL    HW211364   6.127   3.011   3.703
 3489SOL     OW11365   2.616   6.563   0.762
 3489SOL    HW111366   2.599   6.641   0.822
 3489SOL    HW211367   2.529   6.530   0.725
 3490SOL     OW11368   3.713   3.091   0.695
 3490SOL    HW111369   3.658   3.067   0.774
 3490SOL    HW211370   3.671   3.168   0.646
 3491SOL     OW11371   6.868   2.856   4.836
 3491SOL    HW111372   6.964   2.843   4.861
 3491SOL    HW211373   6.859   2.848   4.737
 3492SOL     OW11374   5.923   5.217   6.244
 3492SOL    HW111375   5.854   5.147   6.265
 3492SOL    HW211376   5.882   5.287   6.186
 3493SOL     OW11377   6.890   5.145   0.294
 3493SOL    HW111378   6.959   5.074   0.307
 3493SOL    HW211379   6.844   5.131   0.207
 3494SOL     OW11380   2.969   6.337   1.189
 3494SOL    HW111381   2.912   6.277   1.133
 3494SOL    HW211382   3.047   6.369   1.136
 3495SOL     OW11383   5.177   4.493   0.649
 3495SOL    HW111384   5.260   4.532   0.611
 3495SOL    HW211385   5.156   4.407   0.603
 3496SOL     OW11386   1.405   4.477   0.635
 3496SOL    HW111387   1.445   4.558   0.678
 3496SOL    HW211388   1.426   4.396   0.690
 3497SOL     OW11389   4.678   6.583   3.883
 3497SOL    HW111390   4.616   6.649   3.840
 3497SOL    HW211391   4.752   6.633   3.929
 3498SOL     OW11392   1.872   1.716   1.775
 3498SOL    HW111393   1.896   1.794   1.718
 3498SOL    HW211394   1.840   1.748   1.864
 3499SOL     OW11395   6.156   3.627   3.683
 3499SOL    HW111396   6.152   3.541   3.632
 3499SOL    HW211397   6.182   3.701   3.622
 3500SOL     OW11398   6.411   2.726   0.583
 3500SOL    HW111399   6.495   2.776   0.562
 3500SOL    HW211400   6.360   2.774   0.655
 3501SOL     OW11401   0.605   4.533   4.239
 3501SOL    HW111402   0.668   4.456   4.251
 3501SOL    HW211403   0.540   4.536   4.316
 3502SOL     OW11404   1.343   3.625   1.881
 3502SOL    HW111405   1.270   3.690   1.860
 3502SOL    HW211406   1.391   3.655   1.963
 3503SOL     OW11407   4.570   5.929   3.617
 3503SOL    HW111408   4.524   5.851   3.576
 3503SOL    HW211409   4.628   5.898   3.693
 3504SOL     OW11410   2.125   3.102   2.513
 3504SOL    HW111411   2.157   3.094   2.418
 3504SOL    HW211412   2.038   3.054   2.523
 3505SOL     OW11413   4.370   5.380   5.032
 3505SOL    HW111414   4.385   5.405   4.936
 3505SOL    HW211415   4.333   5.288   5.038
 3506SOL     OW11416   5.685   4.876   2.162
 3506SOL    HW111417   5.689   4.970   2.129
 3506SOL    HW211418   5.659   4.874   2.258
 3507SOL     OW11419   0.792   0.867   6.302
 3507SOL    HW111420   0.819   0.772   6.286
 3507SOL    HW211421   0.820   0.894   6.395
 3508SOL     OW11422   6.743   3.049   0.330
 3508SOL    HW111423   6.704   3.066   0.239
 3508SOL    HW211424   6.760   3.136   0.376
 3509SOL     OW11425   6.850   0.092   0.983
 3509SOL    HW111426   6.931   0.037   1.004
 3509SOL    HW211427   6.788   0.091   1.061
 3510SOL     OW11428   1.549   2.658   1.642
 3510SOL    HW111429   1.568   2.641   1.545
 3510SOL    HW211430   1.453   2.684   1.653
 3511SOL     OW11431   0.689   0.580   5.286
 3511SOL    HW111432   0.593   0.592   5.311
 3511SOL    HW211433   0.747   0.611   5.361
 3512SOL     OW11434   3.161   3.171   1.255
 3512SOL    HW111435   3.082   3.149   1.312
 3512SOL    HW211436   3.180   3.269   1.261
 3513SOL     OW11437   6.250   4.136   1.544
 3513SOL    HW111438   6.267   4.229   1.578
 3513SOL    HW211439   6.164   4.134   1.494
 3514SOL     OW11440   1.636   6.661   1.747
 3514SOL    HW111441   1.666   6.566   1.760
 3514SOL    HW211442   1.690   6.722   1.805
 3515SOL     OW11443   3.219   5.901   3.439
 3515SOL    HW111444   3.253   5.899   3.345
 3515SOL    HW211445   3.182   5.811   3.463
 3516SOL     OW11446   3.373   1.008   0.568
 3516SOL    HW111447   3.365   1.107   0.567
 3516SOL    HW211448   3.282   0.967   0.583
 3517SOL     OW11449   1.279   0.741   6.864
 3517SOL    HW111450   1.264   0.810   6.935
 3517SOL    HW211451   1.369   0.699   6.877
 3518SOL     OW11452   4.446   3.397   5.833
 3518SOL    HW111453   4.387   3.319   5.853
 3518SOL    HW211454   4.458   3.453   5.915
 3519SOL     OW11455   2.681   6.609   1.112
 3519SOL    HW111456   2.746   6.650   1.048
 3519SOL    HW211457   2.728   6.584   1.196
 3520SOL     OW11458   3.780   5.908   1.426
 3520SOL    HW111459   3.734   5.904   1.338
 3520SOL    HW211460   3.712   5.912   1.499
 3521SOL     OW11461   5.398   2.414   6.981
 3521SOL    HW111462   5.444   2.350   0.017
 3521SOL    HW211463   5.462   2.483   6.949
 3522SOL     OW11464   3.237   5.785   1.623
 3522SOL    HW111465   3.215   5.830   1.709
 3522SOL    HW211466   3.174   5.817   1.552
 3523SOL     OW11467   2.150   5.337   5.777
 3523SOL    HW111468   2.181   5.401   5.707
 3523SOL    HW211469   2.089   5.270   5.736
 3524SOL     OW11470   2.758   6.829   1.475
 3524SOL    HW111471   2.766   6.744   1.527
 3524SOL    HW211472   2.832   6.834   1.408
 3525SOL     OW11473   1.695   3.160   2.585
 3525SOL    HW111474   1.683   3.247   2.632
 3525SOL    HW211475   1.642   3.161   2.500
 3526SOL     OW11476   2.489   0.182   3.273
 3526SOL    HW111477   2.533   0.222   3.353
 3526SOL    HW211478   2.419   0.118   3.302
 3527SOL     OW11479   4.839   3.295   5.830
 3527SOL    HW111480   4.820   3.358   5.905
 3527SOL    HW211481   4.752   3.258   5.795
 3528SOL     OW11482   1.077   6.470   4.419
 3528SOL    HW111483   1.028   6.504   4.338
 3528SOL    HW211484   1.033   6.386   4.451
 3529SOL     OW11485   3.669   6.005   0.213
 3529SOL    HW111486   3.669   6.078   0.145
 3529SOL    HW211487   3.652   5.917   0.168
 3530SOL     OW11488   1.660   5.603   2.843
 3530SOL    HW111489   1.666   5.658   2.760
 3530SOL    HW211490   1.615   5.516   2.823
 3531SOL     OW11491   4.614   3.690   6.881
 3531SOL    HW111492   4.616   3.673   6.783
 3531SOL    HW211493   4.524   3.725   6.908
 3532SOL     OW11494   1.697   6.512   0.400
 3532SOL    HW111495   1.668   6.597   0.355
 3532SOL    HW211496   1.776   6.475   0.351
 3533SOL     OW11497   1.229   1.242   4.108
 3533SOL    HW111498   1.166   1.164   4.117
 3533SOL    HW211499   1.275   1.238   4.019
 3534SOL     OW11500   5.324   0.666   4.780
 3534SOL    HW111501   5.309   0.571   4.808
 3534SOL    HW211502   5.259   0.690   4.708
 3535SOL     OW11503   4.019   6.346   0.049
 3535SOL    HW111504   3.932   6.347   7.024
 3535SOL    HW211505   4.043   6.440   0.075
 3536SOL     OW11506   0.990   4.286   3.166
 3536SOL    HW111507   0.973   4.187   3.175
 3536SOL    HW211508   1.059   4.314   3.233
 3537SOL     OW11509   2.611   5.247   0.572
 3537SOL    HW111510   2.594   5.235   0.669
 3537SOL    HW211511   2.708   5.231   0.553
 3538SOL     OW11512   2.722   0.714   3.524
 3538SOL    HW111513   2.674   0.675   3.446
 3538SOL    HW211514   2.819   0.689   3.520
 3539SOL     OW11515   5.529   6.158   6.612
 3539SOL    HW111516   5.441   6.128   6.650
 3539SOL    HW211517   5.569   6.084   6.558
 3540SOL     OW11518   2.907   4.031   6.182
 3540SOL    HW111519   2.861   4.098   6.123
 3540SOL    HW211520   2.848   4.008   6.259
 3541SOL     OW11521   2.079   2.955   1.274
 3541SOL    HW111522   1.982   2.973   1.262
 3541SOL    HW211523   2.091   2.887   1.347
 3542SOL     OW11524   5.500   1.583   6.734
 3542SOL    HW111525   5.434   1.628   6.674
 3542SOL    HW211526   5.490   1.620   6.827
 3543SOL     OW11527   0.502   2.262   3.706
 3543SOL    HW111528   0.522   2.244   3.802
 3543SOL    HW211529   0.517   2.359   3.687
 3544SOL     OW11530   3.255   3.775   6.911
 3544SOL    HW111531   3.308   3.691   6.909
 3544SOL    HW211532   3.289   3.838   6.842
 3545SOL     OW11533   3.820   0.253   1.471
 3545SOL    HW111534   3.765   0.266   1.553
 3545SOL    HW211535   3.778   0.184   1.413
 3546SOL     OW11536   6.472   4.093   2.745
 3546SOL    HW111537   6.515   4.157   2.682
 3546SOL    HW211538   6.400   4.042   2.697
 3547SOL     OW11539   1.227   3.705   4.761
 3547SOL    HW111540   1.275   3.618   4.770
 3547SOL    HW211541   1.275   3.775   4.813
 3548SOL     OW11542   5.705   0.460   5.455
 3548SOL    HW111543   5.804   0.443   5.452
 3548SOL    HW211544   5.658   0.377   5.487
 3549SOL     OW11545   2.882   6.638   0.240
 3549SOL    HW111546   2.878   6.738   0.249
 3549SOL    HW211547   2.827   6.596   0.313
 3550SOL     OW11548   5.706   1.063   5.065
 3550SOL    HW111549   5.774   1.006   5.020
 3550SOL    HW211550   5.677   1.018   5.150
 3551SOL     OW11551   4.711   2.147   4.326
 3551SOL    HW111552   4.739   2.052   4.337
 3551SOL    HW211553   4.612   2.154   4.335
 3552SOL     OW11554   6.489   6.994   3.563
 3552SOL    HW111555   6.409   0.016   3.526
 3552SOL    HW211556   6.478   6.895   3.552
 3553SOL     OW11557   5.717   5.884   6.731
 3553SOL    HW111558   5.681   5.798   6.767
 3553SOL    HW211559   5.772   5.929   6.802
 3554SOL     OW11560   6.128   4.164   0.369
 3554SOL    HW111561   6.124   4.186   0.466
 3554SOL    HW211562   6.036   4.167   0.330
 3555SOL     OW11563   3.201   1.975   4.766
 3555SOL    HW111564   3.104   1.956   4.780
 3555SOL    HW211565   3.229   2.051   4.824
 3556SOL     OW11566   5.495   1.224   6.319
 3556SOL    HW111567   5.554   1.239   6.239
 3556SOL    HW211568   5.496   1.304   6.378
 3557SOL     OW11569   6.344   0.496   1.214
 3557SOL    HW111570   6.290   0.413   1.202
 3557SOL    HW211571   6.297   0.558   1.277
 3558SOL     OW11572   3.525   5.548   2.504
 3558SOL    HW111573   3.552   5.605   2.426
 3558SOL    HW211574   3.508   5.606   2.584
 3559SOL     OW11575   4.539   6.939   6.079
 3559SOL    HW111576   4.463   6.877   6.063
 3559SOL    HW211577   4.506   0.009   6.078
 3560SOL     OW11578   1.874   5.296   3.692
 3560SOL    HW111579   1.879   5.351   3.608
 3560SOL    HW211580   1.785   5.307   3.734
 3561SOL     OW11581   4.608   3.809   5.331
 3561SOL    HW111582   4.519   3.841   5.298
 3561SOL    HW211583   4.631   3.722   5.288
 3562SOL     OW11584   2.261   1.576   6.110
 3562SOL    HW111585   2.287   1.662   6.066
 3562SOL    HW211586   2.216   1.595   6.197
 3563SOL     OW11587   6.236   2.743   5.761
 3563SOL    HW111588   6.168   2.734   5.833
 3563SOL    HW211589   6.230   2.833   5.720
 3564SOL     OW11590   5.915   3.752   1.946
 3564SOL    HW111591   5.943   3.678   1.886
 3564SOL    HW211592   5.822   3.734   1.980
 3565SOL     OW11593   3.873   6.313   4.043
 3565SOL    HW111594   3.968   6.286   4.027
 3565SOL    HW211595   3.862   6.411   4.028
 3566SOL     OW11596   0.933   6.628   5.045
 3566SOL    HW111597   1.019   6.675   5.062
 3566SOL    HW211598   0.874   6.685   4.988
 3567SOL     OW11599   6.907   2.931   6.354
 3567SOL    HW111600   6.916   2.867   6.430
 3567SOL    HW211601   6.832   2.901   6.295
 3568SOL     OW11602   5.041   4.118   6.361
 3568SOL    HW111603   5.076   4.037   6.313
 3568SOL    HW211604   4.941   4.122   6.351
 3569SOL     OW11605   1.952   1.146   4.652
 3569SOL    HW111606   1.869   1.095   4.628
 3569SOL    HW211607   2.033   1.094   4.624
 3570SOL     OW11608   5.556   1.788   3.885
 3570SOL    HW111609   5.479   1.848   3.909
 3570SOL    HW211610   5.589   1.813   3.794
 3571SOL     OW11611   6.182   6.288   5.505
 3571SOL    HW111612   6.258   6.343   5.542
 3571SOL    HW211613   6.145   6.334   5.424
 3572SOL     OW11614   6.623   6.169   4.352
 3572SOL    HW111615   6.669   6.246   4.307
 3572SOL    HW211616   6.689   6.119   4.407
 3573SOL     OW11617   1.547   1.904   1.989
 3573SOL    HW111618   1.506   1.907   1.897
 3573SOL    HW211619   1.547   1.995   2.029
 3574SOL     OW11620   6.886   3.689   0.813
 3574SOL    HW111621   6.893   3.633   0.730
 3574SOL    HW211622   6.882   3.629   0.893
 3575SOL     OW11623   6.579   5.599   1.637
 3575SOL    HW111624   6.617   5.537   1.706
 3575SOL    HW211625   6.481   5.610   1.653
 3576SOL     OW11626   0.579   2.111   6.229
 3576SOL    HW111627   0.576   2.089   6.131
 3576SOL    HW211628   0.511   2.182   6.249
 3577SOL     OW11629   1.680   2.993   6.966
 3577SOL    HW111630   1.731   3.001   0.027
 3577SOL    HW211631   1.725   2.926   6.906
 3578SOL     OW11632   4.085   5.389   0.803
 3578SOL    HW111633   4.110   5.391   0.706
 3578SOL    HW211634   4.168   5.387   0.858
 3579SOL     OW11635   0.496   4.160   5.207
 3579SOL    HW111636   0.567   4.092   5.226
 3579SOL    HW211637   0.425   4.155   5.277
 3580SOL     OW11638   6.742   1.925   1.951
 3580SOL    HW111639   6.681   1.945   2.028
 3580SOL    HW211640   6.799   1.846   1.973
 3581SOL     OW11641   6.438   0.516   2.677
 3581SOL    HW111642   6.403   0.423   2.686
 3581SOL    HW211643   6.497   0.521   2.596
 3582SOL     OW11644   0.835   0.597   6.178
 3582SOL    HW111645   0.783   0.610   6.094
 3582SOL    HW211646   0.871   0.503   6.181
 3583SOL     OW11647   2.302   5.610   0.446
 3583SOL    HW111648   2.244   5.613   0.528
 3583SOL    HW211649   2.361   5.529   0.451
 3584SOL     OW11650   4.850   6.729   5.931
 3584SOL    HW111651   4.945   6.714   5.902
 3584SOL    HW211652   4.838   6.825   5.956
 3585SOL     OW11653   2.598   4.711   3.678
 3585SOL    HW111654   2.675   4.748   3.730
 3585SOL    HW211655   2.512   4.740   3.721
 3586SOL     OW11656   6.707   1.846   6.740
 3586SOL    HW111657   6.788   1.894   6.707
 3586SOL    HW211658   6.624   1.893   6.708
 3587SOL     OW11659   3.940   6.862   6.185
 3587SOL    HW111660   3.927   6.822   6.275
 3587SOL    HW211661   4.018   6.926   6.187
 3588SOL     OW11662   2.066   1.543   5.339
 3588SOL    HW111663   1.996   1.582   5.279
 3588SOL    HW211664   2.076   1.445   5.319
 3589SOL     OW11665   3.264   0.446   5.528
 3589SOL    HW111666   3.265   0.361   5.582
 3589SOL    HW211667   3.319   0.515   5.575
 3590SOL     OW11668   1.821   5.054   6.304
 3590SOL    HW111669   1.918   5.036   6.319
 3590SOL    HW211670   1.808   5.089   6.211
 3591SOL     OW11671   5.045   2.257   5.632
 3591SOL    HW111672   5.006   2.204   5.557
 3591SOL    HW211673   5.135   2.219   5.656
 3592SOL     OW11674   4.962   2.917   1.905
 3592SOL    HW111675   4.978   2.919   1.806
 3592SOL    HW211676   4.869   2.948   1.925
 3593SOL     OW11677   1.583   5.312   2.985
 3593SOL    HW111678   1.598   5.223   2.943
 3593SOL    HW211679   1.669   5.345   3.025
 3594SOL     OW11680   2.917   0.772   4.072
 3594SOL    HW111681   2.848   0.784   4.001
 3594SOL    HW211682   2.912   0.849   4.136
 3595SOL     OW11683   3.081   5.953   5.208
 3595SOL    HW111684   3.156   5.934   5.146
 3595SOL    HW211685   3.014   6.013   5.164
 3596SOL     OW11686   6.668   2.894   3.217
 3596SOL    HW111687   6.752   2.920   3.170
 3596SOL    HW211688   6.691   2.843   3.300
 3597SOL     OW11689   3.992   5.846   3.667
 3597SOL    HW111690   3.943   5.769   3.708
 3597SOL    HW211691   4.063   5.877   3.729
 3598SOL     OW11692   1.133   6.830   6.767
 3598SOL    HW111693   1.063   6.866   6.828
 3598SOL    HW211694   1.190   6.905   6.733
 3599SOL     OW11695   0.172   2.055   4.280
 3599SOL    HW111696   0.134   1.997   4.352
 3599SOL    HW211697   0.189   2.147   4.317
 3600SOL     OW11698   5.670   0.796   0.390
 3600SOL    HW111699   5.753   0.848   0.411
 3600SOL    HW211700   5.595   0.829   0.447
 3601SOL     OW11701   6.467   4.043   5.606
 3601SOL    HW111702   6.539   4.080   5.665
 3601SOL    HW211703   6.483   4.073   5.512
 3602SOL     OW11704   1.824   1.826   0.430
 3602SOL    HW111705   1.731   1.813   0.395
 3602SOL    HW211706   1.889   1.815   0.355
 3603SOL     OW11707   3.924   4.935   4.985
 3603SOL    HW111708   3.828   4.945   4.956
 3603SOL    HW211709   3.957   5.022   5.022
 3604SOL     OW11710   0.306   3.167   2.705
 3604SOL    HW111711   0.369   3.117   2.645
 3604SOL    HW211712   0.356   3.205   2.782
 3605SOL     OW11713   6.133   3.530   6.410
 3605SOL    HW111714   6.199   3.577   6.469
 3605SOL    HW211715   6.117   3.585   6.328
 3606SOL     OW11716   0.973   4.672   4.886
 3606SOL    HW111717   0.878   4.687   4.860
 3606SOL    HW211718   0.996   4.731   4.963
 3607SOL     OW11719   5.001   6.957   6.944
 3607SOL    HW111720   5.052   6.982   0.001
 3607SOL    HW211721   4.919   7.014   6.937
 3608SOL     OW11722   0.991   2.222   2.662
 3608SOL    HW111723   1.012   2.204   2.566
 3608SOL    HW211724   0.999   2.320   2.681
 3609SOL     OW11725   6.924   0.520   4.743
 3609SOL    HW111726   6.930   0.426   4.777
 3609SOL    HW211727   6.860   0.525   4.667
 3610SOL     OW11728   1.205   6.359   5.103
 3610SOL    HW111729   1.259   6.438   5.077
 3610SOL    HW211730   1.190   6.300   5.023
 3611SOL     OW11731   3.341   5.478   5.510
 3611SOL    HW111732   3.407   5.463   5.437
 3611SOL    HW211733   3.386   5.522   5.588
 3612SOL     OW11734   0.956   0.299   1.393
 3612SOL    HW111735   0.930   0.344   1.307
 3612SOL    HW211736   0.874   0.267   1.440
 3613SOL     OW11737   5.256   6.017   6.642
 3613SOL    HW111738   5.208   5.969   6.716
 3613SOL    HW211739   5.290   5.951   6.576
 3614SOL     OW11740   3.601   2.850   3.361
 3614SOL    HW111741   3.515   2.894   3.387
 3614SOL    HW211742   3.615   2.860   3.263
 3615SOL     OW11743   6.663   6.597   6.378
 3615SOL    HW111744   6.679   6.696   6.382
 3615SOL    HW211745   6.572   6.580   6.340
 3616SOL     OW11746   0.037   1.578   5.592
 3616SOL    HW111747   6.994   1.505   5.593
 3616SOL    HW211748   0.055   1.608   5.685
 3617SOL     OW11749   6.986   1.102   6.335
 3617SOL    HW111750   6.994   1.176   6.402
 3617SOL    HW211751   6.952   1.020   6.381
 3618SOL     OW11752   2.462   1.815   6.142
 3618SOL    HW111753   2.431   1.898   6.189
 3618SOL    HW211754   2.492   1.748   6.210
 3619SOL     OW11755   5.890   2.284   4.202
 3619SOL    HW111756   5.975   2.306   4.250
 3619SOL    HW211757   5.824   2.357   4.216
 3620SOL     OW11758   6.133   0.116   4.817
 3620SOL    HW111759   6.164   0.028   4.781
 3620SOL    HW211760   6.042   0.137   4.780
 3621SOL     OW11761   1.569   4.006   5.784
 3621SOL    HW111762   1.609   4.064   5.713
 3621SOL    HW211763   1.634   3.993   5.858
 3622SOL     OW11764   0.749   2.796   1.350
 3622SOL    HW111765   0.710   2.873   1.399
 3622SOL    HW211766   0.677   2.728   1.332
 3623SOL     OW11767   6.544   4.876   3.853
 3623SOL    HW111768   6.450   4.881   3.886
 3623SOL    HW211769   6.557   4.790   3.802
 3624SOL     OW11770   2.817   0.190   2.404
 3624SOL    HW111771   2.808   0.280   2.361
 3624SOL    HW211772   2.853   0.124   2.338
 3625SOL     OW11773   6.845   3.154   4.929
 3625SOL    HW111774   6.805   3.223   4.869
 3625SOL    HW211775   6.863   3.070   4.877
 3626SOL     OW11776   2.458   3.939   5.353
 3626SOL    HW111777   2.398   3.940   5.274
 3626SOL    HW211778   2.501   3.849   5.362
 3627SOL     OW11779   3.000   3.714   3.609
 3627SOL    HW111780   3.078   3.658   3.637
 3627SOL    HW211781   2.933   3.717   3.683
 3628SOL     OW11782   2.958   5.108   2.352
 3628SOL    HW111783   3.052   5.126   2.325
 3628SOL    HW211784   2.957   5.058   2.439
 3629SOL     OW11785   6.359   2.426   4.997
 3629SOL    HW111786   6.448   2.388   4.970
 3629SOL    HW211787   6.328   2.491   4.927
 3630SOL     OW11788   6.103   1.944   4.344
 3630SOL    HW111789   6.190   1.988   4.325
 3630SOL    HW211790   6.035   1.975   4.278
 3631SOL     OW11791   2.273   1.037   4.691
 3631SOL    HW111792   2.282   0.948   4.736
 3631SOL    HW211793   2.233   1.025   4.600
 3632SOL     OW11794   4.737   0.491   6.880
 3632SOL    HW111795   4.680   0.515   6.802
 3632SOL    HW211796   4.792   0.570   6.907
 3633SOL     OW11797   1.862   3.171   5.834
 3633SOL    HW111798   1.773   3.213   5.816
 3633SOL    HW211799   1.878   3.098   5.767
 3634SOL     OW11800   1.929   5.968   5.302
 3634SOL    HW111801   1.868   5.996   5.228
 3634SOL    HW211802   1.949   5.870   5.294
 3635SOL     OW11803   2.425   1.083   5.535
 3635SOL    HW111804   2.326   1.067   5.544
 3635SOL    HW211805   2.449   1.168   5.583
 3636SOL     OW11806   0.950   5.630   6.298
 3636SOL    HW111807   0.882   5.564   6.327
 3636SOL    HW211808   1.005   5.659   6.377
 3637SOL     OW11809   5.792   1.218   2.118
 3637SOL    HW111810   5.811   1.132   2.166
 3637SOL    HW211811   5.697   1.217   2.087
 3638SOL     OW11812   7.024   4.785   3.953
 3638SOL    HW111813   6.940   4.743   3.919
 3638SOL    HW211814   7.004   4.837   4.036
 3639SOL     OW11815   2.092   4.877   0.672
 3639SOL    HW111816   2.186   4.910   0.682
 3639SOL    HW211817   2.070   4.816   0.747
 3640SOL     OW11818   3.785   6.141   1.040
 3640SOL    HW111819   3.859   6.115   1.102
 3640SOL    HW211820   3.776   6.071   0.969
 3641SOL     OW11821   2.290   1.105   4.950
 3641SOL    HW111822   2.311   1.087   4.854
 3641SOL    HW211823   2.337   1.188   4.980
 3642SOL     OW11824   5.532   0.028   4.699
 3642SOL    HW111825   5.480   6.996   4.636
 3642SOL    HW211826   5.503   0.123   4.689
 3643SOL     OW11827   3.071   4.845   4.686
 3643SOL    HW111828   3.040   4.856   4.780
 3643SOL    HW211829   3.165   4.809   4.685
 3644SOL     OW11830   6.840   0.404   0.690
 3644SOL    HW111831   6.917   0.346   0.715
 3644SOL    HW211832   6.754   0.354   0.702
 3645SOL     OW11833   3.911   0.851   3.396
 3645SOL    HW111834   3.925   0.795   3.314
 3645SOL    HW211835   3.813   0.864   3.410
 3646SOL     OW11836   0.228   4.740   5.317
 3646SOL    HW111837   0.282   4.793   5.251
 3646SOL    HW211838   0.276   4.655   5.339
 3647SOL     OW11839   2.360   2.973   1.123
 3647SOL    HW111840   2.375   2.970   1.222
 3647SOL    HW211841   2.294   3.046   1.102
 3648SOL     OW11842   3.204   6.439   2.498
 3648SOL    HW111843   3.279   6.420   2.434
 3648SOL    HW211844   3.128   6.377   2.478
 3649SOL     OW11845   3.716   3.610   0.706
 3649SOL    HW111846   3.714   3.559   0.793
 3649SOL    HW211847   3.744   3.704   0.723
 3650SOL     OW11848   0.406   6.552   1.374
 3650SOL    HW111849   0.427   6.647   1.393
 3650SOL    HW211850   0.463   6.520   1.298
 3651SOL     OW11851   1.966   5.845   2.753
 3651SOL    HW111852   1.986   5.934   2.794
 3651SOL    HW211853   1.867   5.836   2.740
 3652SOL     OW11854   4.704   5.408   3.356
 3652SOL    HW111855   4.620   5.448   3.393
 3652SOL    HW211856   4.694   5.394   3.258
 3653SOL     OW11857   0.217   1.655   3.227
 3653SOL    HW111858   0.273   1.717   3.172
 3653SOL    HW211859   0.206   1.569   3.178
 3654SOL     OW11860   1.343   6.392   1.390
 3654SOL    HW111861   1.357   6.435   1.479
 3654SOL    HW211862   1.417   6.417   1.328
 3655SOL     OW11863   1.911   0.377   4.926
 3655SOL    HW111864   2.009   0.358   4.936
 3655SOL    HW211865   1.868   0.382   5.016
 3656SOL     OW11866   2.078   2.778   1.504
 3656SOL    HW111867   2.017   2.736   1.572
 3656SOL    HW211868   2.143   2.839   1.550
 3657SOL     OW11869   3.825   5.892   0.921
 3657SOL    HW111870   3.877   5.836   0.856
 3657SOL    HW211871   3.885   5.917   0.998
 3658SOL     OW11872   1.400   5.997   6.104
 3658SOL    HW111873   1.496   5.974   6.090
 3658SOL    HW211874   1.346   5.913   6.105
 3659SOL     OW11875   2.585   4.082   6.972
 3659SOL    HW111876   2.547   3.991   6.990
 3659SOL    HW211877   2.519   4.136   6.920
 3660SOL     OW11878   4.619   5.908   1.491
 3660SOL    HW111879   4.697   5.943   1.440
 3660SOL    HW211880   4.537   5.912   1.435
 3661SOL     OW11881   4.786   0.665   0.376
 3661SOL    HW111882   4.779   0.579   0.327
 3661SOL    HW211883   4.700   0.715   0.370
 3662SOL     OW11884   3.176   6.950   5.244
 3662SOL    HW111885   3.173   6.850   5.239
 3662SOL    HW211886   3.164   6.988   5.152
 3663SOL     OW11887   1.250   2.524   0.184
 3663SOL    HW111888   1.241   2.524   0.085
 3663SOL    HW211889   1.165   2.556   0.225
 3664SOL     OW11890   4.982   0.950   0.824
 3664SOL    HW111891   5.022   1.014   0.889
 3664SOL    HW211892   4.884   0.940   0.843
 3665SOL     OW11893   0.739   6.972   5.504
 3665SOL    HW111894   0.827   6.993   5.547
 3665SOL    HW211895   0.699   6.890   5.547
 3666SOL     OW11896   1.627   4.541   4.195
 3666SOL    HW111897   1.678   4.531   4.110
 3666SOL    HW211898   1.571   4.460   4.210
 3667SOL     OW11899   6.110   1.450   6.052
 3667SOL    HW111900   6.071   1.372   6.004
 3667SOL    HW211901   6.184   1.419   6.113
 3668SOL     OW11902   1.250   6.224   2.480
 3668SOL    HW111903   1.340   6.227   2.436
 3668SOL    HW211904   1.218   6.317   2.498
 3669SOL     OW11905   6.743   2.748   3.444
 3669SOL    HW111906   6.828   2.784   3.482
 3669SOL    HW211907   6.711   2.672   3.500
 3670SOL     OW11908   2.335   6.100   5.813
 3670SOL    HW111909   2.327   6.006   5.780
 3670SOL    HW211910   2.327   6.101   5.913
 3671SOL     OW11911   1.250   0.272   2.816
 3671SOL    HW111912   1.206   0.351   2.773
 3671SOL    HW211913   1.225   0.269   2.913
 3672SOL     OW11914   6.709   0.817   0.097
 3672SOL    HW111915   6.717   0.892   0.032
 3672SOL    HW211916   6.784   0.753   0.084
 3673SOL     OW11917   4.901   0.698   6.545
 3673SOL    HW111918   4.948   0.647   6.473
 3673SOL    HW211919   4.822   0.646   6.577
 3674SOL     OW11920   1.244   6.364   0.586
 3674SOL    HW111921   1.305   6.438   0.558
 3674SOL    HW211922   1.154   6.401   0.607
 3675SOL     OW11923   2.158   2.205   5.486
 3675SOL    HW111924   2.111   2.293   5.487
 3675SOL    HW211925   2.107   2.139   5.542
 3676SOL     OW11926   2.901   5.379   3.482
 3676SOL    HW111927   2.845   5.344   3.407
 3676SOL    HW211928   2.857   5.359   3.569
 3677SOL     OW11929   6.534   6.822   4.350
 3677SOL    HW111930   6.604   6.813   4.421
 3677SOL    HW211931   6.568   6.881   4.277
 3678SOL     OW11932   1.438   1.607   3.774
 3678SOL    HW111933   1.487   1.677   3.826
 3678SOL    HW211934   1.340   1.617   3.788
 3679SOL     OW11935   0.570   1.041   2.099
 3679SOL    HW111936   0.487   1.072   2.054
 3679SOL    HW211937   0.562   0.943   2.120
 3680SOL     OW11938   6.740   3.115   4.261
 3680SOL    HW111939   6.653   3.164   4.271
 3680SOL    HW211940   6.802   3.169   4.203
 3681SOL     OW11941   0.142   6.846   5.628
 3681SOL    HW111942   0.130   6.894   5.715
 3681SOL    HW211943   0.098   6.897   5.555
 3682SOL     OW11944   6.548   1.608   6.368
 3682SOL    HW111945   6.606   1.630   6.289
 3682SOL    HW211946   6.457   1.645   6.354
 3683SOL     OW11947   5.735   6.770   4.428
 3683SOL    HW111948   5.732   6.670   4.434
 3683SOL    HW211949   5.774   6.797   4.341
 3684SOL     OW11950   1.433   3.193   1.740
 3684SOL    HW111951   1.334   3.182   1.727
 3684SOL    HW211952   1.450   3.266   1.806
 3685SOL     OW11953   6.222   6.417   6.940
 3685SOL    HW111954   6.232   6.516   6.952
 3685SOL    HW211955   6.311   6.376   6.923
 3686SOL     OW11956   6.327   4.375   1.662
 3686SOL    HW111957   6.352   4.471   1.674
 3686SOL    HW211958   6.257   4.349   1.729
 3687SOL     OW11959   3.801   0.676   0.123
 3687SOL    HW111960   3.773   0.771   0.130
 3687SOL    HW211961   3.864   0.664   0.047
 3688SOL     OW11962   1.303   3.612   0.408
 3688SOL    HW111963   1.259   3.601   0.319
 3688SOL    HW211964   1.281   3.701   0.446
 3689SOL     OW11965   1.781   0.310   4.350
 3689SOL    HW111966   1.808   0.349   4.263
 3689SOL    HW211967   1.776   0.210   4.342
 3690SOL     OW11968   5.728   7.005   5.990
 3690SOL    HW111969   5.636   6.989   6.024
 3690SOL    HW211970   5.724   0.007   5.894
 3691SOL     OW11971   2.723   3.415   0.035
 3691SOL    HW111972   2.734   3.361   6.976
 3691SOL    HW211973   2.645   3.380   0.087
 3692SOL     OW11974   1.613   6.825   5.346
 3692SOL    HW111975   1.664   6.874   5.417
 3692SOL    HW211976   1.676   6.769   5.292
 3693SOL     OW11977   2.668   2.383   3.122
 3693SOL    HW111978   2.681   2.396   3.220
 3693SOL    HW211979   2.757   2.385   3.076
 3694SOL     OW11980   2.103   6.105   3.243
 3694SOL    HW111981   2.134   6.023   3.291
 3694SOL    HW211982   2.127   6.098   3.147
 3695SOL     OW11983   1.902   1.844   2.387
 3695SOL    HW111984   1.867   1.751   2.371
 3695SOL    HW211985   1.993   1.838   2.427
 3696SOL     OW11986   4.372   0.117   6.018
 3696SOL    HW111987   4.410   0.170   5.942
 3696SOL    HW211988   4.306   0.051   5.983
 3697SOL     OW11989   6.543   0.177   4.284
 3697SOL    HW111990   6.524   0.272   4.309
 3697SOL    HW211991   6.601   0.136   4.354
 3698SOL     OW11992   3.045   0.370   6.047
 3698SOL    HW111993   3.117   0.342   5.983
 3698SOL    HW211994   2.956   0.368   6.001
 3699SOL     OW11995   0.240   3.800   3.283
 3699SOL    HW111996   0.278   3.883   3.241
 3699SOL    HW211997   0.214   3.819   3.377
 3700SOL     OW11998   0.117   0.104   4.140
 3700SOL    HW111999   0.175   0.178   4.173
 3700SOL    HW212000   0.097   0.041   4.215
 3701SOL     OW12001   6.392   1.123   4.518
 3701SOL    HW112002   6.305   1.088   4.483
 3701SOL    HW212003   6.428   1.191   4.454
 3702SOL     OW12004   3.465   1.283   0.495
 3702SOL    HW112005   3.462   1.248   0.401
 3702SOL    HW212006   3.545   1.342   0.506
 3703SOL     OW12007   3.939   4.654   6.641
 3703SOL    HW112008   3.893   4.707   6.569
 3703SOL    HW212009   4.026   4.698   6.664
 3704SOL     OW12010   2.292   0.332   2.764
 3704SOL    HW112011   2.380   0.362   2.729
 3704SOL    HW212012   2.268   0.244   2.722
 3705SOL     OW12013   4.904   0.604   3.771
 3705SOL    HW112014   4.902   0.631   3.867
 3705SOL    HW212015   4.994   0.624   3.733
 3706SOL     OW12016   2.052   2.635   3.905
 3706SOL    HW112017   1.998   2.674   3.980
 3706SOL    HW212018   2.090   2.547   3.933
 3707SOL     OW12019   4.865   2.785   5.436
 3707SOL    HW112020   4.826   2.775   5.345
 3707SOL    HW212021   4.899   2.878   5.448
 3708SOL     OW12022   5.959   0.995   6.584
 3708SOL    HW112023   5.971   1.055   6.506
 3708SOL    HW212024   5.894   1.035   6.648
 3709SOL     OW12025   3.705   0.327   6.454
 3709SOL    HW112026   3.718   0.407   6.395
 3709SOL    HW212027   3.662   0.253   6.401
 3710SOL     OW12028   6.636   4.708   0.725
 3710SOL    HW112029   6.672   4.743   0.638
 3710SOL    HW212030   6.545   4.670   0.710
 3711SOL     OW12031   6.503   5.717   2.196
 3711SOL    HW112032   6.415   5.694   2.236
 3711SOL    HW212033   6.558   5.767   2.263
 3712SOL     OW12034   0.867   6.642   0.029
 3712SOL    HW112035   0.841   6.680   0.118
 3712SOL    HW212036   0.883   6.717   6.990
 3713SOL     OW12037   3.851   5.985   5.772
 3713SOL    HW112038   3.782   6.056   5.766
 3713SOL    HW212039   3.893   5.971   5.682
 3714SOL     OW12040   4.031   0.228   4.556
 3714SOL    HW112041   3.931   0.232   4.565
 3714SOL    HW212042   4.068   0.168   4.627
 3715SOL     OW12043   5.660   4.793   4.656
 3715SOL    HW112044   5.707   4.742   4.584
 3715SOL    HW212045   5.608   4.730   4.713
 3716SOL     OW12046   0.011   6.945   4.333
 3716SOL    HW112047   6.958   6.884   4.315
 3716SOL    HW212048   0.058   6.915   4.417
 3717SOL     OW12049   6.091   6.606   1.042
 3717SOL    HW112050   6.025   6.676   1.017
 3717SOL    HW212051   6.131   6.628   1.131
 3718SOL     OW12052   1.174   5.842   0.336
 3718SOL    HW112053   1.204   5.750   0.364
 3718SOL    HW212054   1.074   5.845   0.331
 3719SOL     OW12055   4.178   4.954   5.652
 3719SOL    HW112056   4.232   4.952   5.736
 3719SOL    HW212057   4.092   4.906   5.666
 3720SOL     OW12058   5.568   1.474   5.802
 3720SOL    HW112059   5.596   1.395   5.748
 3720SOL    HW212060   5.477   1.504   5.772
 3721SOL     OW12061   5.439   4.547   0.611
 3721SOL    HW112062   5.529   4.503   0.602
 3721SOL    HW212063   5.452   4.643   0.636
 3722SOL     OW12064   6.219   6.247   2.739
 3722SOL    HW112065   6.257   6.188   2.667
 3722SOL    HW212066   6.119   6.239   2.739
 3723SOL     OW12067   5.229   0.457   0.981
 3723SOL    HW112068   5.159   0.387   0.967
 3723SOL    HW212069   5.240   0.475   1.078
 3724SOL     OW12070   1.289   5.459   6.736
 3724SOL    HW112071   1.301   5.388   6.806
 3724SOL    HW212072   1.377   5.477   6.692
 3725SOL     OW12073   6.610   6.164   6.674
 3725SOL    HW112074   6.697   6.206   6.649
 3725SOL    HW212075   6.539   6.194   6.611
 3726SOL     OW12076   5.592   4.044   1.286
 3726SOL    HW112077   5.495   4.022   1.275
 3726SOL    HW212078   5.619   4.030   1.381
 3727SOL     OW12079   2.196   3.160   5.118
 3727SOL    HW112080   2.263   3.087   5.102
 3727SOL    HW212081   2.226   3.215   5.196
 3728SOL     OW12082   1.762   3.412   6.620
 3728SOL    HW112083   1.705   3.362   6.685
 3728SOL    HW212084   1.829   3.467   6.669
 3729SOL     OW12085   0.791   2.002   3.565
 3729SOL    HW112086   0.723   1.933   3.591
 3729SOL    HW212087   0.752   2.093   3.579
 3730SOL     OW12088   3.699   0.935   0.151
 3730SOL    HW112089   3.640   0.932   0.232
 3730SOL    HW212090   3.670   1.008   0.090
 3731SOL     OW12091   4.620   7.004   0.109
 3731SOL    HW112092   4.663   0.017   0.027
 3731SOL    HW212093   4.590   0.054   0.169
 3732SOL     OW12094   2.138   3.757   5.152
 3732SOL    HW112095   2.208   3.824   5.173
 3732SOL    HW212096   2.107   3.769   5.058
 3733SOL     OW12097   2.746   3.938   1.696
 3733SOL    HW112098   2.844   3.957   1.692
 3733SOL    HW212099   2.731   3.840   1.702
 3734SOL     OW12100   5.063   1.243   2.615
 3734SOL    HW112101   5.008   1.326   2.628
 3734SOL    HW212102   5.056   1.214   2.519
 3735SOL     OW12103   2.814   2.232   2.287
 3735SOL    HW112104   2.719   2.226   2.316
 3735SOL    HW212105   2.821   2.292   2.206
 3736SOL     OW12106   5.930   2.139   0.486
 3736SOL    HW112107   5.852   2.172   0.540
 3736SOL    HW212108   5.910   2.047   0.451
 3737SOL     OW12109   4.892   6.866   3.839
 3737SOL    HW112110   4.991   6.877   3.843
 3737SOL    HW212111   4.863   6.798   3.907
 3738SOL     OW12112   7.019   6.614   3.591
 3738SOL    HW112113   6.999   6.586   3.497
 3738SOL    HW212114   0.060   6.550   3.631
 3739SOL     OW12115   0.464   4.381   2.604
 3739SOL    HW112116   0.464   4.287   2.569
 3739SOL    HW212117   0.552   4.401   2.646
 3740SOL     OW12118   5.438   1.567   6.991
 3740SOL    HW112119   5.360   1.574   0.028
 3740SOL    HW212120   5.486   1.480   7.007
 3741SOL     OW12121   4.161   2.593   6.981
 3741SOL    HW112122   4.106   2.541   6.916
 3741SOL    HW212123   4.190   2.533   0.031
 3742SOL     OW12124   3.588   2.661   5.682
 3742SOL    HW112125   3.594   2.593   5.609
 3742SOL    HW212126   3.680   2.695   5.703
 3743SOL     OW12127   6.979   4.712   6.745
 3743SOL    HW112128   0.040   4.720   6.695
 3743SOL    HW212129   6.985   4.637   6.811
 3744SOL     OW12130   0.287   5.260   4.072
 3744SOL    HW112131   0.322   5.281   3.980
 3744SOL    HW212132   0.321   5.328   4.137
 3745SOL     OW12133   3.990   5.895   2.519
 3745SOL    HW112134   3.997   5.994   2.532
 3745SOL    HW212135   4.063   5.850   2.570
 3746SOL     OW12136   4.449   1.903   2.060
 3746SOL    HW112137   4.431   1.936   2.152
 3746SOL    HW212138   4.376   1.933   1.999
 3747SOL     OW12139   3.456   0.946   0.315
 3747SOL    HW112140   3.435   1.027   0.260
 3747SOL    HW212141   3.444   0.968   0.412
 3748SOL     OW12142   5.787   0.855   2.959
 3748SOL    HW112143   5.763   0.952   2.947
 3748SOL    HW212144   5.704   0.799   2.952
 3749SOL     OW12145   1.160   6.771   5.094
 3749SOL    HW112146   1.256   6.792   5.072
 3749SOL    HW212147   1.135   6.818   5.178
 3750SOL     OW12148   0.281   3.803   0.706
 3750SOL    HW112149   0.288   3.742   0.785
 3750SOL    HW212150   0.253   3.894   0.736
 3751SOL     OW12151   0.429   4.359   2.901
 3751SOL    HW112152   0.441   4.296   2.825
 3751SOL    HW212153   0.346   4.413   2.886
 3752SOL     OW12154   6.243   0.882   6.035
 3752SOL    HW112155   6.283   0.960   6.083
 3752SOL    HW212156   6.293   0.799   6.059
 3753SOL     OW12157   6.922   0.557   4.292
 3753SOL    HW112158   6.865   0.625   4.339
 3753SOL    HW212159   6.877   0.468   4.296
 3754SOL     OW12160   2.134   1.494   0.909
 3754SOL    HW112161   2.139   1.457   1.001
 3754SOL    HW212162   2.073   1.437   0.853
 3755SOL     OW12163   2.949   4.970   3.629
 3755SOL    HW112164   2.998   4.984   3.543
 3755SOL    HW212165   2.961   5.051   3.688
 3756SOL     OW12166   2.468   6.167   6.981
 3756SOL    HW112167   2.546   6.133   0.009
 3756SOL    HW212168   2.468   6.125   6.890
 3757SOL     OW12169   6.315   5.004   1.419
 3757SOL    HW112170   6.325   5.100   1.394
 3757SOL    HW212171   6.220   4.975   1.405
 3758SOL     OW12172   1.711   0.274   3.833
 3758SOL    HW112173   1.788   0.234   3.882
 3758SOL    HW212174   1.739   0.362   3.793
 3759SOL     OW12175   5.019   0.793   4.384
 3759SOL    HW112176   4.926   0.771   4.355
 3759SOL    HW212177   5.039   0.747   4.470
 3760SOL     OW12178   0.299   0.822   3.331
 3760SOL    HW112179   0.318   0.917   3.356
 3760SOL    HW212180   0.382   0.767   3.342
 3761SOL     OW12181   5.367   0.772   3.761
 3761SOL    HW112182   5.432   0.796   3.689
 3761SOL    HW212183   5.359   0.847   3.827
 3762SOL     OW12184   0.569   2.944   2.045
 3762SOL    HW112185   0.500   2.907   1.984
 3762SOL    HW212186   0.658   2.943   2.000
 3763SOL     OW12187   0.656   4.514   0.815
 3763SOL    HW112188   0.644   4.420   0.849
 3763SOL    HW212189   0.568   4.548   0.782
 3764SOL     OW12190   2.117   0.537   2.818
 3764SOL    HW112191   2.194   0.477   2.794
 3764SOL    HW212192   2.038   0.481   2.842
 3765SOL     OW12193   5.667   2.459   1.925
 3765SOL    HW112194   5.574   2.485   1.951
 3765SOL    HW212195   5.667   2.423   1.831
 3766SOL     OW12196   0.902   3.409   3.331
 3766SOL    HW112197   0.974   3.478   3.334
 3766SOL    HW212198   0.942   3.318   3.336
 3767SOL     OW12199   1.297   4.918   6.056
 3767SOL    HW112200   1.364   4.895   6.127
 3767SOL    HW212201   1.248   4.835   6.029
 3768SOL     OW12202   1.085   0.322   4.407
 3768SOL    HW112203   0.994   0.345   4.441
 3768SOL    HW212204   1.145   0.301   4.484
 3769SOL     OW12205   5.462   5.314   4.709
 3769SOL    HW112206   5.379   5.290   4.760
 3769SOL    HW212207   5.442   5.310   4.611
 3770SOL     OW12208   1.484   0.945   0.994
 3770SOL    HW112209   1.551   0.908   1.059
 3770SOL    HW212210   1.407   0.984   1.044
 3771SOL     OW12211   6.345   4.908   0.230
 3771SOL    HW112212   6.355   4.849   0.310
 3771SOL    HW212213   6.378   4.860   0.148
 3772SOL     OW12214   1.839   6.153   0.629
 3772SOL    HW112215   1.857   6.158   0.531
 3772SOL    HW212216   1.923   6.130   0.678
 3773SOL     OW12217   5.135   4.187   6.096
 3773SOL    HW112218   5.109   4.190   6.193
 3773SOL    HW212219   5.212   4.249   6.080
 3774SOL     OW12220   6.380   5.279   1.391
 3774SOL    HW112221   6.473   5.268   1.426
 3774SOL    HW212222   6.382   5.339   1.311
 3775SOL     OW12223   4.196   4.769   4.282
 3775SOL    HW112224   4.126   4.760   4.212
 3775SOL    HW212225   4.157   4.809   4.365
 3776SOL     OW12226   3.610   2.855   6.216
 3776SOL    HW112227   3.681   2.787   6.198
 3776SOL    HW212228   3.576   2.844   6.309
 3777SOL     OW12229   2.992   6.237   4.402
 3777SOL    HW112230   2.941   6.171   4.348
 3777SOL    HW212231   3.018   6.315   4.345
 3778SOL     OW12232   3.171   5.343   5.791
 3778SOL    HW112233   3.082   5.327   5.834
 3778SOL    HW212234   3.195   5.265   5.733
 3779SOL     OW12235   6.755   4.356   6.798
 3779SOL    HW112236   6.703   4.437   6.772
 3779SOL    HW212237   6.780   4.362   6.895
 3780SOL     OW12238   5.958   4.050   1.477
 3780SOL    HW112239   5.864   4.050   1.509
 3780SOL    HW212240   5.975   4.133   1.423
 3781SOL     OW12241   2.993   5.755   4.901
 3781SOL    HW112242   3.011   5.665   4.862
 3781SOL    HW212243   3.070   5.816   4.882
 3782SOL     OW12244   5.023   6.271   1.783
 3782SOL    HW112245   5.121   6.256   1.795
 3782SOL    HW212246   4.986   6.202   1.721
 3783SOL     OW12247   4.932   4.819   4.575
 3783SOL    HW112248   4.938   4.743   4.641
 3783SOL    HW212249   4.909   4.783   4.485
 3784SOL     OW12250   5.926   1.741   4.452
 3784SOL    HW112251   5.979   1.818   4.418
 3784SOL    HW212252   5.866   1.772   4.526
 3785SOL     OW12253   1.962   3.371   4.212
 3785SOL    HW112254   1.867   3.353   4.190
 3785SOL    HW212255   1.980   3.470   4.206
 3786SOL     OW12256   2.570   2.346   4.348
 3786SOL    HW112257   2.620   2.330   4.434
 3786SOL    HW212258   2.486   2.397   4.368
 3787SOL     OW12259   4.124   0.316   3.200
 3787SOL    HW112260   4.156   0.369   3.121
 3787SOL    HW212261   4.025   0.307   3.196
 3788SOL     OW12262   6.543   3.284   5.516
 3788SOL    HW112263   6.567   3.250   5.607
 3788SOL    HW212264   6.614   3.345   5.483
 3789SOL     OW12265   1.536   2.605   2.791
 3789SOL    HW112266   1.604   2.672   2.820
 3789SOL    HW212267   1.573   2.513   2.805
 3790SOL     OW12268   0.422   6.779   1.539
 3790SOL    HW112269   0.436   6.788   1.637
 3790SOL    HW212270   0.329   6.808   1.516
 3791SOL     OW12271   5.208   1.255   5.899
 3791SOL    HW112272   5.194   1.264   5.998
 3791SOL    HW212273   5.226   1.159   5.877
 3792SOL     OW12274   7.009   0.881   4.235
 3792SOL    HW112275   0.027   0.793   4.253
 3792SOL    HW212276   6.929   0.867   4.177
 3793SOL     OW12277   4.789   5.419   0.377
 3793SOL    HW112278   4.724   5.450   0.447
 3793SOL    HW212279   4.746   5.346   0.323
 3794SOL     OW12280   1.335   3.952   6.667
 3794SOL    HW112281   1.276   4.005   6.607
 3794SOL    HW212282   1.431   3.976   6.649
 3795SOL     OW12283   1.784   5.988   1.687
 3795SOL    HW112284   1.711   5.921   1.675
 3795SOL    HW212285   1.748   6.080   1.671
 3796SOL     OW12286   4.386   1.563   6.843
 3796SOL    HW112287   4.429   1.621   6.774
 3796SOL    HW212288   4.327   1.496   6.798
 3797SOL     OW12289   1.358   4.333   2.786
 3797SOL    HW112290   1.395   4.361   2.875
 3797SOL    HW212291   1.359   4.234   2.779
 3798SOL     OW12292   1.689   6.731   3.175
 3798SOL    HW112293   1.605   6.678   3.189
 3798SOL    HW212294   1.710   6.782   3.258
 3799SOL     OW12295   6.973   1.459   2.914
 3799SOL    HW112296   6.971   1.553   2.881
 3799SOL    HW212297   0.024   1.447   2.977
 3800SOL     OW12298   5.730   2.320   2.793
 3800SOL    HW112299   5.816   2.372   2.796
 3800SOL    HW212300   5.658   2.377   2.754
 3801SOL     OW12301   5.423   0.963   1.950
 3801SOL    HW112302   5.460   0.943   2.041
 3801SOL    HW212303   5.498   0.982   1.888
 3802SOL     OW12304   6.331   2.177   2.273
 3802SOL    HW112305   6.408   2.124   2.237
 3802SOL    HW212306   6.295   2.131   2.355
 3803SOL     OW12307   3.174   3.698   3.886
 3803SOL    HW112308   3.097   3.635   3.894
 3803SOL    HW212309   3.228   3.695   3.970
 3804SOL     OW12310   3.433   6.077   3.520
 3804SOL    HW112311   3.355   6.017   3.501
 3804SOL    HW212312   3.476   6.102   3.433
 3805SOL     OW12313   2.703   2.931   0.086
 3805SOL    HW112314   2.751   3.017   0.105
 3805SOL    HW212315   2.678   2.927   7.015
 3806SOL     OW12316   3.569   4.460   1.326
 3806SOL    HW112317   3.505   4.528   1.360
 3806SOL    HW212318   3.523   4.400   1.260
 3807SOL     OW12319   1.791   4.124   4.205
 3807SOL    HW112320   1.715   4.148   4.265
 3807SOL    HW212321   1.877   4.159   4.243
 3808SOL     OW12322   3.619   6.504   6.471
 3808SOL    HW112323   3.626   6.567   6.549
 3808SOL    HW212324   3.707   6.499   6.424
 3809SOL     OW12325   4.915   2.438   1.275
 3809SOL    HW112326   4.993   2.424   1.336
 3809SOL    HW212327   4.936   2.402   1.184
 3810SOL     OW12328   5.780   2.045   1.645
 3810SOL    HW112329   5.785   2.107   1.567
 3810SOL    HW212330   5.866   2.048   1.696
 3811SOL     OW12331   0.318   5.393   5.009
 3811SOL    HW112332   0.239   5.383   4.949
 3811SOL    HW212333   0.401   5.366   4.959
 3812SOL     OW12334   4.805   6.775   0.983
 3812SOL    HW112335   4.795   6.714   1.062
 3812SOL    HW212336   4.844   6.724   0.906
 3813SOL     OW12337   6.500   4.329   0.790
 3813SOL    HW112338   6.466   4.279   0.710
 3813SOL    HW212339   6.600   4.321   0.793
 3814SOL     OW12340   6.923   0.144   4.684
 3814SOL    HW112341   6.981   0.177   4.610
 3814SOL    HW212342   6.944   0.048   4.703
 3815SOL     OW12343   6.271   3.248   6.301
 3815SOL    HW112344   6.333   3.308   6.352
 3815SOL    HW212345   6.235   3.297   6.222
 3816SOL     OW12346   0.920   5.930   5.856
 3816SOL    HW112347   0.953   5.870   5.928
 3816SOL    HW212348   0.821   5.920   5.846
 3817SOL     OW12349   5.195   3.773   1.945
 3817SOL    HW112350   5.105   3.810   1.922
 3817SOL    HW212351   5.201   3.758   2.044
 3818SOL     OW12352   6.243   0.479   2.430
 3818SOL    HW112353   6.222   0.554   2.492
 3818SOL    HW212354   6.308   0.511   2.360
 3819SOL     OW12355   6.765   4.250   4.539
 3819SOL    HW112356   6.675   4.235   4.497
 3819SOL    HW212357   6.755   4.254   4.638
 3820SOL     OW12358   4.570   0.233   4.739
 3820SOL    HW112359   4.613   0.153   4.782
 3820SOL    HW212360   4.500   0.202   4.675
 3821SOL     OW12361   1.445   6.872   0.499
 3821SOL    HW112362   1.363   6.837   0.454
 3821SOL    HW212363   1.525   6.855   0.442
 3822SOL     OW12364   4.696   1.209   1.775
 3822SOL    HW112365   4.632   1.139   1.806
 3822SOL    HW212366   4.647   1.296   1.762
 3823SOL     OW12367   4.877   5.600   6.093
 3823SOL    HW112368   4.817   5.679   6.080
 3823SOL    HW212369   4.828   5.529   6.144
 3824SOL     OW12370   2.131   3.027   0.082
 3824SOL    HW112371   2.081   2.941   0.097
 3824SOL    HW212372   2.083   3.081   0.012
 3825SOL     OW12373   1.218   4.090   5.575
 3825SOL    HW112374   1.254   4.074   5.483
 3825SOL    HW212375   1.285   4.143   5.628
 3826SOL     OW12376   5.980   4.261   3.315
 3826SOL    HW112377   5.889   4.247   3.276
 3826SOL    HW212378   6.013   4.176   3.355
 3827SOL     OW12379   1.281   0.921   1.797
 3827SOL    HW112380   1.369   0.964   1.816
 3827SOL    HW212381   1.211   0.962   1.856
 3828SOL     OW12382   4.069   3.652   4.011
 3828SOL    HW112383   4.133   3.596   3.958
 3828SOL    HW212384   4.051   3.737   3.963
 3829SOL     OW12385   0.654   3.527   2.495
 3829SOL    HW112386   0.645   3.483   2.584
 3829SOL    HW212387   0.655   3.627   2.507
 3830SOL     OW12388   6.790   1.223   4.357
 3830SOL    HW112389   6.828   1.251   4.445
 3830SOL    HW212390   6.698   1.261   4.346
 3831SOL     OW12391   4.276   2.027   3.653
 3831SOL    HW112392   4.338   2.069   3.719
 3831SOL    HW212393   4.326   2.004   3.570
 3832SOL     OW12394   6.897   1.383   3.241
 3832SOL    HW112395   6.819   1.341   3.195
 3832SOL    HW212396   6.954   1.311   3.282
 3833SOL     OW12397   0.554   1.273   5.214
 3833SOL    HW112398   0.614   1.280   5.134
 3833SOL    HW212399   0.595   1.210   5.280
 3834SOL     OW12400   4.840   3.971   0.485
 3834SOL    HW112401   4.884   3.896   0.534
 3834SOL    HW212402   4.901   4.006   0.414
 3835SOL     OW12403   4.015   5.558   4.632
 3835SOL    HW112404   3.953   5.603   4.696
 3835SOL    HW212405   4.002   5.459   4.638
 3836SOL     OW12406   0.341   5.981   5.438
 3836SOL    HW112407   0.349   5.943   5.346
 3836SOL    HW212408   0.263   6.043   5.443
 3837SOL     OW12409   4.320   4.873   4.981
 3837SOL    HW112410   4.398   4.839   4.930
 3837SOL    HW212411   4.335   4.969   5.005
 3838SOL     OW12412   1.153   1.643   3.796
 3838SOL    HW112413   1.109   1.658   3.708
 3838SOL    HW212414   1.117   1.708   3.863
 3839SOL     OW12415   3.578   0.901   3.065
 3839SOL    HW112416   3.535   0.834   3.005
 3839SOL    HW212417   3.654   0.945   3.017
 3840SOL     OW12418   2.589   0.611   0.032
 3840SOL    HW112419   2.561   0.639   0.124
 3840SOL    HW212420   2.508   0.595   7.001
 3841SOL     OW12421   6.745   4.342   3.507
 3841SOL    HW112422   6.728   4.282   3.429
 3841SOL    HW212423   6.819   4.303   3.563
 3842SOL     OW12424   2.243   2.848   5.278
 3842SOL    HW112425   2.199   2.799   5.203
 3842SOL    HW212426   2.327   2.891   5.244
 3843SOL     OW12427   5.209   2.688   0.239
 3843SOL    HW112428   5.281   2.757   0.250
 3843SOL    HW212429   5.181   2.685   0.143
 3844SOL     OW12430   1.512   5.884   0.526
 3844SOL    HW112431   1.493   5.974   0.485
 3844SOL    HW212432   1.517   5.815   0.454
 3845SOL     OW12433   2.274   6.197   0.662
 3845SOL    HW112434   2.327   6.162   0.584
 3845SOL    HW212435   2.197   6.135   0.680
 3846SOL     OW12436   0.950   2.528   3.419
 3846SOL    HW112437   0.911   2.602   3.365
 3846SOL    HW212438   0.991   2.565   3.502
 3847SOL     OW12439   6.585   0.973   5.877
 3847SOL    HW112440   6.606   0.959   5.974
 3847SOL    HW212441   6.486   0.983   5.866
 3848SOL     OW12442   5.157   3.714   2.231
 3848SOL    HW112443   5.078   3.674   2.276
 3848SOL    HW212444   5.238   3.657   2.246
 3849SOL     OW12445   6.680   5.919   6.800
 3849SOL    HW112446   6.638   5.999   6.757
 3849SOL    HW212447   6.632   5.899   6.886
 3850SOL     OW12448   2.526   2.492   1.041
 3850SOL    HW112449   2.500   2.418   1.104
 3850SOL    HW212450   2.451   2.557   1.034
 3851SOL     OW12451   0.493   5.696   2.680
 3851SOL    HW112452   0.425   5.678   2.608
 3851SOL    HW212453   0.540   5.611   2.704
 3852SOL     OW12454   3.816   6.199   5.339
 3852SOL    HW112455   3.763   6.253   5.405
 3852SOL    HW212456   3.853   6.118   5.384
 3853SOL     OW12457   2.482   0.868   4.031
 3853SOL    HW112458   2.531   0.940   4.079
 3853SOL    HW212459   2.439   0.905   3.949
 3854SOL     OW12460   1.896   2.981   2.497
 3854SOL    HW112461   1.923   2.886   2.514
 3854SOL    HW212462   1.818   3.004   2.554
 3855SOL     OW12463   4.351   6.929   0.799
 3855SOL    HW112464   4.309   6.994   0.862
 3855SOL    HW212465   4.370   6.843   0.847
 3856SOL     OW12466   0.486   1.748   6.520
 3856SOL    HW112467   0.490   1.651   6.494
 3856SOL    HW212468   0.404   1.763   6.576
 3857SOL     OW12469   2.137   1.033   5.556
 3857SOL    HW112470   2.075   1.106   5.529
 3857SOL    HW212471   2.126   1.014   5.654
 3858SOL     OW12472   4.187   1.437   4.888
 3858SOL    HW112473   4.119   1.363   4.882
 3858SOL    HW212474   4.242   1.425   4.970
 3859SOL     OW12475   5.554   0.632   1.434
 3859SOL    HW112476   5.589   0.670   1.348
 3859SOL    HW212477   5.518   0.706   1.491
 3860SOL     OW12478   1.554   0.598   4.285
 3860SOL    HW112479   1.613   0.539   4.230
 3860SOL    HW212480   1.461   0.562   4.284
 3861SOL     OW12481   4.343   5.542   1.530
 3861SOL    HW112482   4.314   5.474   1.598
 3861SOL    HW212483   4.424   5.590   1.564
 3862SOL     OW12484   0.999   6.531   3.963
 3862SOL    HW112485   0.948   6.486   3.889
 3862SOL    HW212486   0.968   6.496   4.051
 3863SOL     OW12487   4.620   0.534   1.038
 3863SOL    HW112488   4.712   0.499   1.022
 3863SOL    HW212489   4.577   0.556   0.951
 3864SOL     OW12490   2.471   0.330   4.337
 3864SOL    HW112491   2.535   0.405   4.349
 3864SOL    HW212492   2.379   0.360   4.359
 3865SOL     OW12493   4.127   0.287   7.005
 3865SOL    HW112494   4.126   0.231   6.923
 3865SOL    HW212495   4.046   0.346   7.006
 3866SOL     OW12496   2.378   2.661   6.589
 3866SOL    HW112497   2.438   2.711   6.653
 3866SOL    HW212498   2.352   2.574   6.630
 3867SOL     OW12499   0.495   4.104   2.756
 3867SOL    HW112500   0.495   4.095   2.656
 3867SOL    HW212501   0.461   4.019   2.797
 3868SOL     OW12502   3.708   1.085   6.917
 3868SOL    HW112503   3.643   1.147   6.874
 3868SOL    HW212504   3.709   0.998   6.868
 3869SOL     OW12505   6.314   3.292   3.370
 3869SOL    HW112506   6.401   3.273   3.415
 3869SOL    HW212507   6.280   3.209   3.328
 3870SOL     OW12508   6.528   0.423   3.489
 3870SOL    HW112509   6.539   0.513   3.446
 3870SOL    HW212510   6.587   0.357   3.443
 3871SOL     OW12511   2.811   5.824   3.898
 3871SOL    HW112512   2.786   5.783   3.810
 3871SOL    HW212513   2.907   5.850   3.897
 3872SOL     OW12514   3.379   3.306   4.343
 3872SOL    HW112515   3.407   3.266   4.256
 3872SOL    HW212516   3.281   3.292   4.356
 3873SOL     OW12517   4.546   2.225   0.325
 3873SOL    HW112518   4.570   2.322   0.320
 3873SOL    HW212519   4.460   2.215   0.376
 3874SOL     OW12520   4.115   0.219   1.133
 3874SOL    HW112521   4.142   0.268   1.215
 3874SOL    HW212522   4.032   0.165   1.151
 3875SOL     OW12523   1.555   2.039   5.105
 3875SOL    HW112524   1.586   1.990   5.187
 3875SOL    HW212525   1.555   2.137   5.125
 3876SOL     OW12526   4.431   6.574   1.201
 3876SOL    HW112527   4.488   6.515   1.258
 3876SOL    HW212528   4.453   6.670   1.219
 3877SOL     OW12529   6.885   2.195   0.400
 3877SOL    HW112530   6.975   2.164   0.369
 3877SOL    HW212531   6.875   2.175   0.498
 3878SOL     OW12532   4.597   0.204   4.252
 3878SOL    HW112533   4.636   0.249   4.172
 3878SOL    HW212534   4.612   0.106   4.246
 3879SOL     OW12535   4.867   5.010   6.777
 3879SOL    HW112536   4.960   5.038   6.756
 3879SOL    HW212537   4.855   4.914   6.751
 3880SOL     OW12538   5.414   4.313   4.366
 3880SOL    HW112539   5.353   4.235   4.382
 3880SOL    HW212540   5.404   4.379   4.440
 3881SOL     OW12541   1.215   4.103   0.245
 3881SOL    HW112542   1.225   4.039   0.321
 3881SOL    HW212543   1.295   4.164   0.242
 3882SOL     OW12544   1.256   1.687   0.304
 3882SOL    HW112545   1.244   1.784   0.281
 3882SOL    HW212546   1.197   1.664   0.381
 3883SOL     OW12547   4.384   0.036   3.284
 3883SOL    HW112548   4.336   0.115   3.323
 3883SOL    HW212549   4.473   0.026   3.330
 3884SOL     OW12550   0.711   6.002   3.639
 3884SOL    HW112551   0.618   5.997   3.603
 3884SOL    HW212552   0.769   5.936   3.591
 3885SOL     OW12553   5.819   7.010   3.293
 3885SOL    HW112554   5.882   6.954   3.240
 3885SOL    HW212555   5.764   6.951   3.353
 3886SOL     OW12556   4.471   6.568   5.704
 3886SOL    HW112557   4.487   6.664   5.729
 3886SOL    HW212558   4.373   6.549   5.703
 3887SOL     OW12559   0.541   6.208   1.280
 3887SOL    HW112560   0.592   6.256   1.351
 3887SOL    HW212561   0.506   6.122   1.316
 3888SOL     OW12562   6.011   6.130   4.217
 3888SOL    HW112563   6.009   6.219   4.171
 3888SOL    HW212564   6.094   6.123   4.273
 3889SOL     OW12565   6.262   2.946   6.850
 3889SOL    HW112566   6.174   2.994   6.852
 3889SOL    HW212567   6.336   3.013   6.857
 3890SOL     OW12568   5.691   4.162   4.150
 3890SOL    HW112569   5.640   4.242   4.118
 3890SOL    HW212570   5.638   4.079   4.130
 3891SOL     OW12571   5.421   4.636   3.774
 3891SOL    HW112572   5.478   4.556   3.758
 3891SOL    HW212573   5.335   4.626   3.723
 3892SOL     OW12574   6.668   2.023   1.297
 3892SOL    HW112575   6.762   2.035   1.266
 3892SOL    HW212576   6.638   1.929   1.277
 3893SOL     OW12577   4.472   3.316   1.371
 3893SOL    HW112578   4.495   3.255   1.446
 3893SOL    HW212579   4.417   3.392   1.405
 3894SOL     OW12580   4.971   0.305   6.606
 3894SOL    HW112581   4.942   0.326   6.699
 3894SOL    HW212582   5.066   0.276   6.606
 3895SOL     OW12583   1.378   6.753   5.492
 3895SOL    HW112584   1.464   6.764   5.443
 3895SOL    HW212585   1.347   6.842   5.525
 3896SOL     OW12586   0.726   0.989   7.012
 3896SOL    HW112587   0.796   1.023   6.949
 3896SOL    HW212588   0.726   1.046   0.070
 3897SOL     OW12589   4.392   5.752   1.864
 3897SOL    HW112590   4.431   5.811   1.935
 3897SOL    HW212591   4.444   5.762   1.780
 3898SOL     OW12592   3.907   2.281   6.564
 3898SOL    HW112593   3.939   2.375   6.552
 3898SOL    HW212594   3.816   2.280   6.605
 3899SOL     OW12595   4.881   0.272   6.042
 3899SOL    HW112596   4.850   0.367   6.048
 3899SOL    HW212597   4.945   0.263   5.966
 3900SOL     OW12598   5.432   3.541   3.677
 3900SOL    HW112599   5.445   3.536   3.578
 3900SOL    HW212600   5.514   3.581   3.719
 3901SOL     OW12601   3.156   0.256   6.341
 3901SOL    HW112602   3.183   0.350   6.360
 3901SOL    HW212603   3.190   0.229   6.251
 3902SOL     OW12604   5.563   3.263   2.530
 3902SOL    HW112605   5.488   3.280   2.466
 3902SOL    HW212606   5.627   3.341   2.527
 3903SOL     OW12607   4.029   6.443   0.437
 3903SOL    HW112608   3.956   6.438   0.369
 3903SOL    HW212609   3.994   6.409   0.525
 3904SOL     OW12610   1.032   0.848   6.774
 3904SOL    HW112611   0.978   0.765   6.788
 3904SOL    HW212612   1.124   0.835   6.810
 3905SOL     OW12613   6.772   6.463   6.888
 3905SOL    HW112614   6.786   6.490   6.983
 3905SOL    HW212615   6.815   6.530   6.827
 3906SOL     OW12616   5.538   6.351   5.919
 3906SOL    HW112617   5.486   6.433   5.942
 3906SOL    HW212618   5.636   6.373   5.919
 3907SOL     OW12619   5.765   1.422   3.843
 3907SOL    HW112620   5.799   1.501   3.792
 3907SOL    HW212621   5.833   1.348   3.841
 3908SOL     OW12622   0.965   2.472   6.596
 3908SOL    HW112623   0.965   2.565   6.560
 3908SOL    HW212624   0.871   2.438   6.599
 3909SOL     OW12625   4.696   5.626   4.776
 3909SOL    HW112626   4.737   5.711   4.745
 3909SOL    HW212627   4.740   5.549   4.731
 3910SOL     OW12628   3.383   4.152   2.536
 3910SOL    HW112629   3.474   4.151   2.578
 3910SOL    HW212630   3.354   4.247   2.523
 3911SOL     OW12631   6.286   1.733   4.690
 3911SOL    HW112632   6.332   1.787   4.620
 3911SOL    HW212633   6.276   1.638   4.659
 3912SOL     OW12634   5.119   2.139   5.106
 3912SOL    HW112635   5.033   2.132   5.157
 3912SOL    HW212636   5.107   2.103   5.014
 3913SOL     OW12637   1.849   0.197   6.344
 3913SOL    HW112638   1.931   0.198   6.402
 3913SOL    HW212639   1.769   0.218   6.399
 3914SOL     OW12640   3.040   0.079   0.149
 3914SOL    HW112641   3.111   0.071   0.219
 3914SOL    HW212642   2.968   0.012   0.167
 3915SOL     OW12643   5.314   5.466   1.028
 3915SOL    HW112644   5.388   5.403   1.002
 3915SOL    HW212645   5.237   5.413   1.063
 3916SOL     OW12646   0.475   6.998   2.644
 3916SOL    HW112647   0.479   6.917   2.701
 3916SOL    HW212648   0.513   0.051   2.694
 3917SOL     OW12649   1.114   6.547   6.836
 3917SOL    HW112650   1.114   6.635   6.788
 3917SOL    HW212651   1.070   6.477   6.779
 3918SOL     OW12652   5.312   4.821   1.412
 3918SOL    HW112653   5.231   4.879   1.428
 3918SOL    HW212654   5.380   4.838   1.483
 3919SOL     OW12655   4.149   0.325   0.872
 3919SOL    HW112656   4.087   0.281   0.808
 3919SOL    HW212657   4.121   0.303   0.966
 3920SOL     OW12658   2.517   3.465   0.473
 3920SOL    HW112659   2.561   3.538   0.525
 3920SOL    HW212660   2.440   3.503   0.422
 3921SOL     OW12661   0.277   4.033   1.612
 3921SOL    HW112662   0.183   4.050   1.641
 3921SOL    HW212663   0.301   4.095   1.538
 3922SOL     OW12664   6.956   3.993   2.253
 3922SOL    HW112665   6.961   4.071   2.191
 3922SOL    HW212666   0.023   3.968   2.284
 3923SOL     OW12667   0.519   0.707   0.744
 3923SOL    HW112668   0.456   0.677   0.816
 3923SOL    HW212669   0.612   0.680   0.769
 3924SOL     OW12670   6.181   4.446   4.505
 3924SOL    HW112671   6.255   4.413   4.447
 3924SOL    HW212672   6.161   4.541   4.481
 3925SOL     OW12673   1.338   4.515   1.510
 3925SOL    HW112674   1.240   4.536   1.509
 3925SOL    HW212675   1.390   4.601   1.513
 3926SOL     OW12676   4.333   4.970   2.502
 3926SOL    HW112677   4.363   4.969   2.598
 3926SOL    HW212678   4.252   4.912   2.493
 3927SOL     OW12679   6.811   2.822   5.566
 3927SOL    HW112680   6.879   2.753   5.589
 3927SOL    HW212681   6.728   2.777   5.531
 3928SOL     OW12682   4.510   5.894   6.693
 3928SOL    HW112683   4.445   5.883   6.768
 3928SOL    HW212684   4.475   5.963   6.629
 3929SOL     OW12685   0.846   0.295   4.825
 3929SOL    HW112686   0.900   0.214   4.851
 3929SOL    HW212687   0.804   0.334   4.907
 3930SOL     OW12688   2.702   2.074   4.192
 3930SOL    HW112689   2.731   1.981   4.170
 3930SOL    HW212690   2.780   2.136   4.184
 3931SOL     OW12691   0.637   1.541   1.675
 3931SOL    HW112692   0.726   1.538   1.720
 3931SOL    HW212693   0.571   1.489   1.730
 3932SOL     OW12694   0.629   3.570   3.901
 3932SOL    HW112695   0.641   3.535   3.994
 3932SOL    HW212696   0.702   3.534   3.842
 3933SOL     OW12697   2.379   0.287   5.977
 3933SOL    HW112698   2.305   0.264   5.914
 3933SOL    HW212699   2.340   0.325   6.061
 3934SOL     OW12700   5.967   0.307   6.106
 3934SOL    HW112701   5.996   0.227   6.054
 3934SOL    HW212702   5.869   0.302   6.126
 3935SOL     OW12703   3.848   0.044   0.549
 3935SOL    HW112704   3.876   6.973   0.542
 3935SOL    HW212705   3.822   0.077   0.458
 3936SOL     OW12706   6.825   5.501   4.619
 3936SOL    HW112707   6.822   5.591   4.575
 3936SOL    HW212708   6.830   5.430   4.549
 3937SOL     OW12709   0.473   2.290   2.377
 3937SOL    HW112710   0.412   2.366   2.398
 3937SOL    HW212711   0.439   2.242   2.296
 3938SOL     OW12712   0.791   1.619   3.399
 3938SOL    HW112713   0.751   1.694   3.346
 3938SOL    HW212714   0.777   1.637   3.497
 3939SOL     OW12715   2.747   2.083   2.892
 3939SOL    HW112716   2.780   2.114   2.803
 3939SOL    HW212717   2.803   2.006   2.923
 3940SOL     OW12718   4.156   3.701   1.308
 3940SOL    HW112719   4.149   3.682   1.406
 3940SOL    HW212720   4.091   3.773   1.283
 3941SOL     OW12721   5.007   5.276   6.035
 3941SOL    HW112722   4.943   5.348   6.063
 3941SOL    HW212723   4.964   5.219   5.966
 3942SOL     OW12724   6.826   5.974   0.034
 3942SOL    HW112725   6.842   5.975   6.961
 3942SOL    HW212726   6.748   5.914   0.054
 3943SOL     OW12727   0.740   3.307   4.360
 3943SOL    HW112728   0.729   3.336   4.455
 3943SOL    HW212729   0.794   3.222   4.356
 3944SOL     OW12730   4.692   2.611   5.017
 3944SOL    HW112731   4.603   2.566   5.015
 3944SOL    HW212732   4.737   2.599   4.929
 3945SOL     OW12733   7.014   1.705   0.728
 3945SOL    HW112734   7.000   1.703   0.629
 3945SOL    HW212735   0.048   1.783   0.752
 3946SOL     OW12736   5.209   4.107   3.746
 3946SOL    HW112737   5.174   4.034   3.804
 3946SOL    HW212738   5.203   4.194   3.795
 3947SOL     OW12739   4.779   6.443   0.194
 3947SOL    HW112740   4.790   6.460   0.292
 3947SOL    HW212741   4.697   6.388   0.179
 3948SOL     OW12742   6.764   4.493   1.847
 3948SOL    HW112743   6.775   4.482   1.946
 3948SOL    HW212744   6.709   4.418   1.811
 3949SOL     OW12745   5.258   5.732   3.255
 3949SOL    HW112746   5.294   5.806   3.199
 3949SOL    HW212747   5.328   5.662   3.267
 3950SOL     OW12748   1.327   5.227   0.906
 3950SOL    HW112749   1.414   5.261   0.870
 3950SOL    HW212750   1.326   5.127   0.900
 3951SOL     OW12751   5.392   0.867   1.497
 3951SOL    HW112752   5.337   0.945   1.528
 3951SOL    HW212753   5.332   0.790   1.477
 3952SOL     OW12754   0.117   2.131   1.069
 3952SOL    HW112755   0.059   2.131   0.987
 3952SOL    HW212756   0.191   2.065   1.057
 3953SOL     OW12757   3.814   3.776   0.905
 3953SOL    HW112758   3.775   3.790   0.996
 3953SOL    HW212759   3.886   3.706   0.911
 3954SOL     OW12760   4.300   5.566   5.591
 3954SOL    HW112761   4.324   5.651   5.543
 3954SOL    HW212762   4.306   5.489   5.527
 3955SOL     OW12763   2.897   1.290   5.958
 3955SOL    HW112764   2.832   1.307   6.032
 3955SOL    HW212765   2.862   1.328   5.873
 3956SOL     OW12766   1.322   0.765   2.115
 3956SOL    HW112767   1.250   0.696   2.107
 3956SOL    HW212768   1.408   0.720   2.142
 3957SOL     OW12769   4.048   0.190   4.283
 3957SOL    HW112770   4.051   0.219   4.379
 3957SOL    HW212771   4.133   0.215   4.238
 3958SOL     OW12772   6.147   1.953   3.996
 3958SOL    HW112773   6.192   2.040   3.976
 3958SOL    HW212774   6.070   1.968   4.058
 3959SOL     OW12775   5.177   5.052   0.510
 3959SOL    HW112776   5.136   5.141   0.493
 3959SOL    HW212777   5.265   5.063   0.555
 3960SOL     OW12778   5.699   1.573   5.466
 3960SOL    HW112779   5.707   1.499   5.398
 3960SOL    HW212780   5.731   1.659   5.425
 3961SOL     OW12781   5.209   0.663   3.403
 3961SOL    HW112782   5.207   0.762   3.391
 3961SOL    HW212783   5.132   0.622   3.354
 3962SOL     OW12784   0.932   4.740   6.008
 3962SOL    HW112785   0.889   4.679   5.942
 3962SOL    HW212786   1.027   4.713   6.022
 3963SOL     OW12787   5.009   6.047   1.997
 3963SOL    HW112788   4.927   6.031   2.053
 3963SOL    HW212789   5.007   6.140   1.961
 3964SOL     OW12790   4.671   4.286   3.490
 3964SOL    HW112791   4.682   4.244   3.400
 3964SOL    HW212792   4.747   4.349   3.506
 3965SOL     OW12793   4.875   3.478   4.246
 3965SOL    HW112794   4.806   3.451   4.180
 3965SOL    HW212795   4.904   3.398   4.299
 3966SOL     OW12796   3.980   5.918   6.917
 3966SOL    HW112797   3.883   5.936   6.899
 3966SOL    HW212798   4.034   5.998   6.892
 3967SOL     OW12799   2.337   4.333   1.576
 3967SOL    HW112800   2.405   4.404   1.554
 3967SOL    HW212801   2.352   4.254   1.518
 3968SOL     OW12802   5.011   0.557   0.567
 3968SOL    HW112803   5.064   0.634   0.601
 3968SOL    HW212804   4.933   0.590   0.514
 3969SOL     OW12805   1.234   5.167   1.789
 3969SOL    HW112806   1.296   5.096   1.821
 3969SOL    HW212807   1.233   5.243   1.854
 3970SOL     OW12808   5.225   6.069   2.493
 3970SOL    HW112809   5.201   6.046   2.399
 3970SOL    HW212810   5.204   5.992   2.553
 3971SOL     OW12811   2.853   5.874   4.419
 3971SOL    HW112812   2.863   5.819   4.336
 3971SOL    HW212813   2.771   5.930   4.411
 3972SOL     OW12814   1.356   4.086   6.898
 3972SOL    HW112815   1.371   4.043   6.808
 3972SOL    HW212816   1.258   4.106   6.908
 3973SOL     OW12817   1.094   5.546   0.779
 3973SOL    HW112818   1.050   5.625   0.738
 3973SOL    HW212819   1.185   5.533   0.738
 3974SOL     OW12820   2.117   0.784   6.018
 3974SOL    HW112821   2.080   0.811   6.107
 3974SOL    HW212822   2.077   0.697   5.990
 3975SOL     OW12823   5.096   2.194   6.051
 3975SOL    HW112824   5.111   2.214   6.148
 3975SOL    HW212825   5.056   2.274   6.006
 3976SOL     OW12826   2.083   6.471   2.378
 3976SOL    HW112827   2.136   6.545   2.337
 3976SOL    HW212828   2.127   6.441   2.463
 3977SOL     OW12829   1.494   3.697   6.621
 3977SOL    HW112830   1.453   3.730   6.535
 3977SOL    HW212831   1.443   3.735   6.698
 3978SOL     OW12832   6.448   5.147   3.139
 3978SOL    HW112833   6.453   5.080   3.212
 3978SOL    HW212834   6.526   5.134   3.076
 3979SOL     OW12835   3.613   1.099   6.073
 3979SOL    HW112836   3.598   1.184   6.024
 3979SOL    HW212837   3.534   1.080   6.132
 3980SOL     OW12838   6.020   6.657   6.382
 3980SOL    HW112839   6.041   6.751   6.406
 3980SOL    HW212840   5.993   6.606   6.464
 3981SOL     OW12841   4.512   6.107   1.146
 3981SOL    HW112842   4.425   6.088   1.191
 3981SOL    HW212843   4.498   6.116   1.048
 3982SOL     OW12844   2.510   0.095   2.687
 3982SOL    HW112845   2.506   0.027   2.760
 3982SOL    HW212846   2.583   0.161   2.707
 3983SOL     OW12847   5.122   4.871   3.767
 3983SOL    HW112848   5.072   4.944   3.813
 3983SOL    HW212849   5.154   4.804   3.835
 3984SOL     OW12850   6.045   1.265   2.954
 3984SOL    HW112851   6.067   1.171   2.930
 3984SOL    HW212852   5.972   1.267   3.022
 3985SOL     OW12853   3.789   5.226   6.720
 3985SOL    HW112854   3.705   5.172   6.714
 3985SOL    HW212855   3.796   5.266   6.812
 3986SOL     OW12856   4.688   1.553   2.966
 3986SOL    HW112857   4.705   1.514   3.056
 3986SOL    HW212858   4.599   1.521   2.932
 3987SOL     OW12859   3.354   4.978   4.271
 3987SOL    HW112860   3.369   4.949   4.366
 3987SOL    HW212861   3.403   5.064   4.255
 3988SOL     OW12862   3.814   5.546   0.060
 3988SOL    HW112863   3.881   5.592   0.002
 3988SOL    HW212864   3.767   5.475   0.007
 3989SOL     OW12865   6.482   2.232   0.204
 3989SOL    HW112866   6.566   2.215   0.256
 3989SOL    HW212867   6.425   2.150   0.205
 3990SOL     OW12868   5.134   2.413   1.756
 3990SOL    HW112869   5.074   2.349   1.708
 3990SOL    HW212870   5.102   2.506   1.740
 3991SOL     OW12871   0.421   1.262   2.317
 3991SOL    HW112872   0.430   1.193   2.246
 3991SOL    HW212873   0.472   1.344   2.292
 3992SOL     OW12874   2.859   2.054   0.694
 3992SOL    HW112875   2.952   2.023   0.711
 3992SOL    HW212876   2.860   2.147   0.657
 3993SOL     OW12877   1.526   2.777   1.905
 3993SOL    HW112878   1.568   2.769   1.814
 3993SOL    HW212879   1.442   2.831   1.898
 3994SOL     OW12880   2.906   0.210   5.242
 3994SOL    HW112881   2.816   0.248   5.219
 3994SOL    HW212882   2.913   0.118   5.205
 3995SOL     OW12883   1.666   3.210   5.410
 3995SOL    HW112884   1.675   3.304   5.378
 3995SOL    HW212885   1.703   3.147   5.341
 3996SOL     OW12886   0.608   6.698   5.596
 3996SOL    HW112887   0.511   6.699   5.571
 3996SOL    HW212888   0.653   6.620   5.553
 3997SOL     OW12889   6.024   1.411   4.849
 3997SOL    HW112890   6.000   1.412   4.752
 3997SOL    HW212891   6.068   1.324   4.871
 3998SOL     OW12892   3.367   1.669   4.105
 3998SOL    HW112893   3.320   1.673   4.017
 3998SOL    HW212894   3.344   1.750   4.159
 3999SOL     OW12895   6.193   2.637   4.178
 3999SOL    HW112896   6.255   2.610   4.251
 3999SOL    HW212897   6.246   2.680   4.104
 4000SOL     OW12898   3.050   6.835   3.935
 4000SOL    HW112899   3.006   6.760   3.886
 4000SOL    HW212900   3.138   6.855   3.893
 4001SOL     OW12901   2.271   1.802   4.027
 4001SOL    HW112902   2.212   1.831   3.951
 4001SOL    HW212903   2.311   1.883   4.070
 4002SOL     OW12904   2.489   3.588   1.624
 4002SOL    HW112905   2.456   3.536   1.702
 4002SOL    HW212906   2.465   3.540   1.539
 4003SOL     OW12907   3.169   0.076   4.580
 4003SOL    HW112908   3.070   0.067   4.571
 4003SOL    HW212909   3.214   0.035   4.500
 4004SOL     OW12910   6.868   2.478   4.603
 4004SOL    HW112911   6.914   2.404   4.553
 4004SOL    HW212912   6.917   2.498   4.687
 4005SOL     OW12913   4.834   6.206   6.504
 4005SOL    HW112914   4.765   6.241   6.566
 4005SOL    HW212915   4.832   6.106   6.506
 4006SOL     OW12916   3.787   5.131   2.240
 4006SOL    HW112917   3.724   5.060   2.207
 4006SOL    HW212918   3.738   5.218   2.246
 4007SOL     OW12919   0.444   2.950   0.157
 4007SOL    HW112920   0.446   3.044   0.190
 4007SOL    HW212921   0.484   2.945   0.065
 4008SOL     OW12922   2.740   2.074   4.470
 4008SOL    HW112923   2.679   2.004   4.508
 4008SOL    HW212924   2.711   2.095   4.377
 4009SOL     OW12925   4.115   3.570   2.309
 4009SOL    HW112926   4.109   3.478   2.271
 4009SOL    HW212927   4.154   3.566   2.401
 4010SOL     OW12928   2.692   3.078   1.249
 4010SOL    HW112929   2.608   3.040   1.287
 4010SOL    HW212930   2.727   3.017   1.178
 4011SOL     OW12931   0.933   2.019   1.384
 4011SOL    HW112932   1.008   2.022   1.317
 4011SOL    HW212933   0.902   2.112   1.402
 4012SOL     OW12934   6.563   4.229   2.529
 4012SOL    HW112935   6.639   4.228   2.464
 4012SOL    HW212936   6.481   4.191   2.484
 4013SOL     OW12937   4.455   2.175   4.346
 4013SOL    HW112938   4.394   2.099   4.371
 4013SOL    HW212939   4.414   2.227   4.271
 4014SOL     OW12940   5.737   6.325   3.045
 4014SOL    HW112941   5.704   6.277   2.964
 4014SOL    HW212942   5.661   6.371   3.090
 4015SOL     OW12943   4.894   4.278   5.604
 4015SOL    HW112944   4.974   4.220   5.621
 4015SOL    HW212945   4.903   4.363   5.656
 4016SOL     OW12946   3.313   5.787   5.989
 4016SOL    HW112947   3.275   5.754   6.076
 4016SOL    HW212948   3.300   5.718   5.918
 4017SOL     OW12949   6.553   5.883   0.025
 4017SOL    HW112950   6.528   5.796   0.067
 4017SOL    HW212951   6.510   5.958   0.075
 4018SOL     OW12952   3.967   5.732   1.335
 4018SOL    HW112953   4.060   5.721   1.370
 4018SOL    HW212954   3.918   5.799   1.391
 4019SOL     OW12955   5.872   4.506   2.823
 4019SOL    HW112956   5.930   4.583   2.850
 4019SOL    HW212957   5.809   4.484   2.898
 4020SOL     OW12958   5.263   2.137   5.741
 4020SOL    HW112959   5.256   2.043   5.775
 4020SOL    HW212960   5.315   2.192   5.807
 4021SOL     OW12961   3.069   4.639   5.781
 4021SOL    HW112962   2.971   4.625   5.795
 4021SOL    HW212963   3.108   4.558   5.736
 4022SOL     OW12964   5.291   0.697   0.260
 4022SOL    HW112965   5.275   0.766   0.331
 4022SOL    HW212966   5.267   0.607   0.296
 4023SOL     OW12967   6.140   1.778   5.159
 4023SOL    HW112968   6.107   1.840   5.088
 4023SOL    HW212969   6.179   1.696   5.116
 4024SOL     OW12970   4.015   4.835   4.043
 4024SOL    HW112971   4.091   4.817   3.980
 4024SOL    HW212972   3.941   4.880   3.993
 4025SOL     OW12973   0.501   4.379   3.607
 4025SOL    HW112974   0.505   4.358   3.705
 4025SOL    HW212975   0.514   4.294   3.555
 4026SOL     OW12976   5.284   6.299   4.203
 4026SOL    HW112977   5.219   6.274   4.275
 4026SOL    HW212978   5.374   6.313   4.242
 4027SOL     OW12979   4.148   4.839   1.688
 4027SOL    HW112980   4.105   4.929   1.696
 4027SOL    HW212981   4.226   4.833   1.750
 4028SOL     OW12982   2.384   1.634   4.292
 4028SOL    HW112983   2.374   1.543   4.332
 4028SOL    HW212984   2.325   1.642   4.212
 4029SOL     OW12985   1.589   4.804   5.307
 4029SOL    HW112986   1.516   4.748   5.268
 4029SOL    HW212987   1.557   4.899   5.314
 4030SOL     OW12988   0.697   2.446   5.419
 4030SOL    HW112989   0.739   2.530   5.453
 4030SOL    HW212990   0.745   2.366   5.458
 4031SOL     OW12991   3.924   5.575   3.826
 4031SOL    HW112992   3.977   5.562   3.910
 4031SOL    HW212993   3.840   5.522   3.831
 4032SOL     OW12994   5.355   0.242   4.641
 4032SOL    HW112995   5.375   0.294   4.558
 4032SOL    HW212996   5.259   0.256   4.667
 4033SOL     OW12997   2.780   3.884   5.575
 4033SOL    HW112998   2.778   3.984   5.574
 4033SOL    HW212999   2.709   3.848   5.514
 4034SOL     OW13000   6.977   2.503   3.705
 4034SOL    HW113001   0.041   2.545   3.688
 4034SOL    HW213002   6.980   2.407   3.679
 4035SOL     OW13003   6.978   4.396   0.279
 4035SOL    HW113004   6.995   4.303   0.244
 4035SOL    HW213005   6.898   4.434   0.232
 4036SOL     OW13006   6.945   0.065   2.358
 4036SOL    HW113007   6.948   0.040   2.455
 4036SOL    HW213008   6.906   7.015   2.305
 4037SOL     OW13009   0.276   3.842   6.973
 4037SOL    HW113010   0.189   3.795   6.955
 4037SOL    HW213011   0.352   3.788   6.937
 4038SOL     OW13012   6.200   4.571   3.840
 4038SOL    HW113013   6.136   4.498   3.866
 4038SOL    HW213014   6.186   4.595   3.744
 4039SOL     OW13015   4.907   6.669   0.552
 4039SOL    HW113016   4.912   6.760   0.510
 4039SOL    HW213017   4.945   6.673   0.644
 4040SOL     OW13018   3.765   6.583   1.452
 4040SOL    HW113019   3.859   6.600   1.482
 4040SOL    HW213020   3.709   6.560   1.531
 4041SOL     OW13021   1.400   6.583   3.804
 4041SOL    HW113022   1.469   6.562   3.735
 4041SOL    HW213023   1.324   6.631   3.762
 4042SOL     OW13024   5.900   5.259   1.884
 4042SOL    HW113025   5.881   5.340   1.829
 4042SOL    HW213026   5.959   5.197   1.832
 4043SOL     OW13027   6.089   2.087   1.133
 4043SOL    HW113028   6.181   2.097   1.171
 4043SOL    HW213029   6.087   2.127   1.042
 4044SOL     OW13030   6.221   6.291   3.651
 4044SOL    HW113031   6.209   6.384   3.616
 4044SOL    HW213032   6.238   6.294   3.750
 4045SOL     OW13033   2.941   5.884   5.992
 4045SOL    HW113034   2.866   5.896   5.927
 4045SOL    HW213035   3.018   5.941   5.965
 4046SOL     OW13036   0.871   3.227   1.107
 4046SOL    HW113037   0.813   3.178   1.042
 4046SOL    HW213038   0.832   3.317   1.126
 4047SOL     OW13039   2.877   4.031   1.374
 4047SOL    HW113040   2.788   3.986   1.363
 4047SOL    HW213041   2.863   4.125   1.404
 4048SOL     OW13042   5.262   1.125   1.216
 4048SOL    HW113043   5.351   1.098   1.179
 4048SOL    HW213044   5.268   1.220   1.249
 4049SOL     OW13045   5.545   0.369   5.107
 4049SOL    HW113046   5.636   0.397   5.074
 4049SOL    HW213047   5.556   0.293   5.172
 4050SOL     OW13048   2.964   6.912   1.112
 4050SOL    HW113049   3.035   6.851   1.147
 4050SOL    HW213050   2.910   6.864   1.042
 4051SOL     OW13051   3.179   3.732   1.033
 4051SOL    HW113052   3.140   3.659   0.977
 4051SOL    HW213053   3.108   3.770   1.092
 4052SOL     OW13054   1.010   6.549   1.506
 4052SOL    HW113055   0.914   6.559   1.533
 4052SOL    HW213056   1.018   6.556   1.407
 4053SOL     OW13057   3.446   4.899   3.202
 4053SOL    HW113058   3.528   4.906   3.259
 4053SOL    HW213059   3.469   4.919   3.107
 4054SOL     OW13060   4.528   1.681   0.691
 4054SOL    HW113061   4.527   1.777   0.663
 4054SOL    HW213062   4.617   1.640   0.666
 4055SOL     OW13063   3.277   1.947   6.912
 4055SOL    HW113064   3.285   1.915   7.007
 4055SOL    HW213065   3.338   2.026   6.899
 4056SOL     OW13066   4.271   3.670   0.748
 4056SOL    HW113067   4.332   3.749   0.756
 4056SOL    HW213068   4.323   3.586   0.766
 4057SOL     OW13069   4.975   2.787   6.579
 4057SOL    HW113070   4.990   2.884   6.560
 4057SOL    HW213071   5.014   2.764   6.668
 4058SOL     OW13072   1.397   0.794   4.742
 4058SOL    HW113073   1.369   0.764   4.833
 4058SOL    HW213074   1.319   0.836   4.696
 4059SOL     OW13075   0.328   2.536   4.494
 4059SOL    HW113076   0.346   2.620   4.546
 4059SOL    HW213077   0.389   2.532   4.415
 4060SOL     OW13078   4.483   4.965   3.802
 4060SOL    HW113079   4.408   5.024   3.832
 4060SOL    HW213080   4.450   4.901   3.733
 4061SOL     OW13081   2.927   3.114   1.431
 4061SOL    HW113082   2.841   3.108   1.380
 4061SOL    HW213083   2.936   3.035   1.491
 4062SOL     OW13084   2.196   0.073   3.006
 4062SOL    HW113085   2.174   0.126   2.924
 4062SOL    HW213086   2.295   0.070   3.017
 4063SOL     OW13087   2.566   5.161   6.528
 4063SOL    HW113088   2.665   5.149   6.524
 4063SOL    HW213089   2.522   5.072   6.543
 4064SOL     OW13090   6.885   6.741   3.982
 4064SOL    HW113091   6.971   6.767   3.939
 4064SOL    HW213092   6.808   6.781   3.931
 4065SOL     OW13093   5.884   5.264   6.860
 4065SOL    HW113094   5.855   5.359   6.848
 4065SOL    HW213095   5.946   5.258   6.939
 4066SOL     OW13096   5.998   4.734   1.968
 4066SOL    HW113097   5.902   4.708   1.978
 4066SOL    HW213098   6.038   4.753   2.058
 4067SOL     OW13099   5.766   0.943   2.168
 4067SOL    HW113100   5.780   0.905   2.076
 4067SOL    HW213101   5.668   0.945   2.188
 4068SOL     OW13102   6.455   0.931   3.904
 4068SOL    HW113103   6.542   0.954   3.862
 4068SOL    HW213104   6.388   1.003   3.885
 4069SOL     OW13105   6.723   5.586   0.974
 4069SOL    HW113106   6.689   5.623   0.888
 4069SOL    HW213107   6.767   5.498   0.958
 4070SOL     OW13108   1.262   3.153   2.774
 4070SOL    HW113109   1.341   3.093   2.758
 4070SOL    HW213110   1.291   3.249   2.764
 4071SOL     OW13111   1.954   6.535   4.385
 4071SOL    HW113112   1.886   6.603   4.412
 4071SOL    HW213113   1.907   6.459   4.338
 4072SOL     OW13114   0.630   0.471   4.091
 4072SOL    HW113115   0.606   0.501   3.999
 4072SOL    HW213116   0.609   0.543   4.157
 4073SOL     OW13117   1.695   5.344   6.849
 4073SOL    HW113118   1.782   5.324   6.895
 4073SOL    HW213119   1.712   5.368   6.754
 4074SOL     OW13120   1.923   2.424   0.323
 4074SOL    HW113121   1.883   2.393   0.409
 4074SOL    HW213122   1.925   2.524   0.321
 4075SOL     OW13123   5.204   1.116   3.538
 4075SOL    HW113124   5.284   1.162   3.576
 4075SOL    HW213125   5.152   1.074   3.612
 4076SOL     OW13126   1.668   2.579   3.797
 4076SOL    HW113127   1.664   2.612   3.892
 4076SOL    HW213128   1.745   2.620   3.750
 4077SOL     OW13129   2.554   1.718   0.923
 4077SOL    HW113130   2.601   1.794   0.877
 4077SOL    HW213131   2.518   1.655   0.854
 4078SOL     OW13132   5.636   3.756   2.048
 4078SOL    HW113133   5.671   3.849   2.036
 4078SOL    HW213134   5.559   3.741   1.986
 4079SOL     OW13135   0.510   1.401   3.962
 4079SOL    HW113136   0.482   1.454   3.882
 4079SOL    HW213137   0.454   1.318   3.968
 4080SOL     OW13138   3.800   2.899   2.222
 4080SOL    HW113139   3.744   2.926   2.143
 4080SOL    HW213140   3.862   2.826   2.195
 4081SOL     OW13141   2.625   2.309   6.196
 4081SOL    HW113142   2.651   2.276   6.105
 4081SOL    HW213143   2.592   2.403   6.189
 4082SOL     OW13144   1.298   2.651   5.423
 4082SOL    HW113145   1.250   2.688   5.344
 4082SOL    HW213146   1.394   2.680   5.421
 4083SOL     OW13147   5.778   4.701   3.157
 4083SOL    HW113148   5.697   4.738   3.112
 4083SOL    HW213149   5.845   4.774   3.170
 4084SOL     OW13150   4.801   0.268   3.424
 4084SOL    HW113151   4.731   0.208   3.461
 4084SOL    HW213152   4.884   0.215   3.405
 4085SOL     OW13153   4.053   5.100   2.349
 4085SOL    HW113154   3.962   5.112   2.309
 4085SOL    HW213155   4.058   5.013   2.397
 4086SOL     OW13156   6.197   4.867   6.500
 4086SOL    HW113157   6.222   4.780   6.456
 4086SOL    HW213158   6.194   4.939   6.430
 4087SOL     OW13159   2.400   0.407   2.167
 4087SOL    HW113160   2.305   0.383   2.186
 4087SOL    HW213161   2.460   0.336   2.204
 4088SOL     OW13162   0.552   2.104   5.138
 4088SOL    HW113163   0.500   2.186   5.115
 4088SOL    HW213164   0.490   2.028   5.153
 4089SOL     OW13165   1.321   0.509   3.068
 4089SOL    HW113166   1.363   0.554   2.989
 4089SOL    HW213167   1.307   0.575   3.141
 4090SOL     OW13168   2.660   1.487   6.016
 4090SOL    HW113169   2.673   1.549   5.938
 4090SOL    HW213170   2.676   1.536   6.101
 4091SOL     OW13171   3.369   5.947   0.991
 4091SOL    HW113172   3.345   6.019   1.057
 4091SOL    HW213173   3.353   5.981   0.898
 4092SOL     OW13174   5.724   2.921   3.912
 4092SOL    HW113175   5.658   2.847   3.909
 4092SOL    HW213176   5.750   2.939   4.007
 4093SOL     OW13177   5.113   4.762   4.025
 4093SOL    HW113178   5.193   4.823   4.026
 4093SOL    HW213179   5.031   4.814   4.047
 4094SOL     OW13180   6.831   5.302   0.022
 4094SOL    HW113181   6.786   5.381   0.063
 4094SOL    HW213182   6.922   5.291   0.064
 4095SOL     OW13183   0.458   5.266   0.193
 4095SOL    HW113184   0.415   5.224   0.112
 4095SOL    HW213185   0.491   5.194   0.254
 4096SOL     OW13186   0.294   1.150   6.953
 4096SOL    HW113187   0.332   1.137   0.020
 4096SOL    HW213188   0.342   1.090   6.889
 4097SOL     OW13189   6.336   4.835   4.957
 4097SOL    HW113190   6.366   4.922   4.918
 4097SOL    HW213191   6.416   4.786   4.994
 4098SOL     OW13192   2.231   4.373   3.140
 4098SOL    HW113193   2.172   4.427   3.080
 4098SOL    HW213194   2.187   4.361   3.229
 4099SOL     OW13195   4.312   4.339   6.240
 4099SOL    HW113196   4.282   4.286   6.160
 4099SOL    HW213197   4.238   4.342   6.307
 4100SOL     OW13198   1.083   0.016   3.760
 4100SOL    HW113199   1.055   0.102   3.717
 4100SOL    HW213200   1.145   6.992   3.700
 4101SOL     OW13201   6.209   5.921   0.315
 4101SOL    HW113202   6.223   5.905   0.413
 4101SOL    HW213203   6.136   5.861   0.283
 4102SOL     OW13204   1.619   0.079   0.068
 4102SOL    HW113205   1.659   0.002   0.020
 4102SOL    HW213206   1.561   0.046   0.143
 4103SOL     OW13207   1.891   6.293   3.570
 4103SOL    HW113208   1.979   6.322   3.608
 4103SOL    HW213209   1.898   6.290   3.470
 4104SOL     OW13210   2.239   5.448   4.201
 4104SOL    HW113211   2.224   5.415   4.295
 4104SOL    HW213212   2.327   5.495   4.196
 4105SOL     OW13213   4.710   0.630   1.404
 4105SOL    HW113214   4.679   0.686   1.327
 4105SOL    HW213215   4.778   0.563   1.371
 4106SOL     OW13216   1.379   1.070   3.403
 4106SOL    HW113217   1.301   1.033   3.352
 4106SOL    HW213218   1.389   1.020   3.489
 4107SOL     OW13219   1.132   6.671   0.133
 4107SOL    HW113220   1.068   6.599   0.105
 4107SOL    HW213221   1.211   6.670   0.072
 4108SOL     OW13222   6.587   5.899   5.692
 4108SOL    HW113223   6.573   5.910   5.594
 4108SOL    HW213224   6.587   5.988   5.736
 4109SOL     OW13225   5.807   6.068   3.781
 4109SOL    HW113226   5.736   6.089   3.713
 4109SOL    HW213227   5.831   5.971   3.775
 4110SOL     OW13228   4.886   2.723   0.685
 4110SOL    HW113229   4.870   2.744   0.781
 4110SOL    HW213230   4.944   2.794   0.645
 4111SOL     OW13231   6.371   3.908   4.233
 4111SOL    HW113232   6.463   3.946   4.243
 4111SOL    HW213233   6.372   3.812   4.261
 4112SOL     OW13234   4.841   6.065   4.746
 4112SOL    HW113235   4.889   6.133   4.691
 4112SOL    HW213236   4.895   6.044   4.827
 4113SOL     OW13237   4.003   5.305   4.794
 4113SOL    HW113238   3.993   5.281   4.890
 4113SOL    HW213239   4.068   5.242   4.751
 4114SOL     OW13240   0.455   1.366   1.779
 4114SOL    HW113241   0.424   1.333   1.690
 4114SOL    HW213242   0.378   1.409   1.826
 4115SOL     OW13243   4.001   5.865   4.225
 4115SOL    HW113244   4.044   5.775   4.223
 4115SOL    HW213245   3.927   5.868   4.158
 4116SOL     OW13246   4.795   4.205   2.348
 4116SOL    HW113247   4.877   4.216   2.292
 4116SOL    HW213248   4.794   4.114   2.388
 4117SOL     OW13249   1.338   1.896   4.076
 4117SOL    HW113250   1.412   1.859   4.019
 4117SOL    HW213251   1.310   1.826   4.142
 4118SOL     OW13252   0.556   6.229   0.594
 4118SOL    HW113253   0.473   6.278   0.619
 4118SOL    HW213254   0.614   6.289   0.538
 4119SOL     OW13255   0.353   0.506   4.378
 4119SOL    HW113256   0.413   0.538   4.305
 4119SOL    HW213257   0.277   0.570   4.390
 4120SOL     OW13258   2.379   0.505   6.229
 4120SOL    HW113259   2.437   0.525   6.308
 4120SOL    HW213260   2.387   0.581   6.163
 4121SOL     OW13261   6.036   6.932   2.609
 4121SOL    HW113262   5.984   6.921   2.694
 4121SOL    HW213263   6.095   6.853   2.595
 4122SOL     OW13264   0.160   4.041   2.964
 4122SOL    HW113265   0.119   4.075   2.880
 4122SOL    HW213266   0.115   4.083   3.043
 4123SOL     OW13267   4.721   4.610   1.461
 4123SOL    HW113268   4.658   4.554   1.407
 4123SOL    HW213269   4.756   4.556   1.538
 4124SOL     OW13270   5.584   5.688   0.161
 4124SOL    HW113271   5.660   5.735   0.205
 4124SOL    HW213272   5.508   5.680   0.225
 4125SOL     OW13273   6.058   1.539   1.283
 4125SOL    HW113274   6.022   1.448   1.301
 4125SOL    HW213275   6.150   1.532   1.245
 4126SOL     OW13276   2.017   2.816   1.893
 4126SOL    HW113277   1.977   2.793   1.982
 4126SOL    HW213278   2.112   2.786   1.890
 4127SOL     OW13279   4.457   1.780   4.684
 4127SOL    HW113280   4.542   1.829   4.702
 4127SOL    HW213281   4.454   1.753   4.588
 4128SOL     OW13282   1.148   3.280   0.429
 4128SOL    HW113283   1.248   3.279   0.435
 4128SOL    HW213284   1.117   3.368   0.393
 4129SOL     OW13285   2.413   2.745   0.351
 4129SOL    HW113286   2.474   2.820   0.323
 4129SOL    HW213287   2.320   2.764   0.317
 4130SOL     OW13288   6.025   3.203   0.747
 4130SOL    HW113289   6.103   3.218   0.807
 4130SOL    HW213290   6.055   3.157   0.664
 4131SOL     OW13291   4.589   6.748   3.568
 4131SOL    HW113292   4.668   6.809   3.570
 4131SOL    HW213293   4.525   6.773   3.640
 4132SOL     OW13294   0.431   5.234   4.366
 4132SOL    HW113295   0.484   5.183   4.299
 4132SOL    HW213296   0.445   5.332   4.353
 4133SOL     OW13297   5.635   0.606   2.552
 4133SOL    HW113298   5.732   0.629   2.555
 4133SOL    HW213299   5.621   0.514   2.589
 4134SOL     OW13300   1.682   3.528   1.539
 4134SOL    HW113301   1.633   3.519   1.626
 4134SOL    HW213302   1.616   3.540   1.465
 4135SOL     OW13303   6.883   1.169   1.686
 4135SOL    HW113304   6.826   1.251   1.678
 4135SOL    HW213305   6.837   1.102   1.744
 4136SOL     OW13306   1.512   4.727   1.472
 4136SOL    HW113307   1.513   4.773   1.383
 4136SOL    HW213308   1.606   4.717   1.504
 4137SOL     OW13309   1.721   2.653   0.400
 4137SOL    HW113310   1.637   2.686   0.356
 4137SOL    HW213311   1.698   2.576   0.461
 4138SOL     OW13312   5.620   0.421   0.449
 4138SOL    HW113313   5.605   0.382   0.358
 4138SOL    HW213314   5.563   0.503   0.459
 4139SOL     OW13315   2.165   3.721   2.842
 4139SOL    HW113316   2.109   3.792   2.799
 4139SOL    HW213317   2.255   3.720   2.799
 4140SOL     OW13318   2.098   0.911   6.465
 4140SOL    HW113319   2.056   0.866   6.543
 4140SOL    HW213320   2.086   1.010   6.472
 4141SOL     OW13321   5.105   0.546   6.007
 4141SOL    HW113322   5.095   0.613   5.933
 4141SOL    HW213323   5.087   0.455   5.971
 4142SOL     OW13324   1.020   4.795   2.425
 4142SOL    HW113325   1.112   4.816   2.393
 4142SOL    HW213326   1.022   4.779   2.524
 4143SOL     OW13327   5.551   3.057   6.705
 4143SOL    HW113328   5.582   3.134   6.760
 4143SOL    HW213329   5.629   3.013   6.661
 4144SOL     OW13330   6.350   0.849   0.481
 4144SOL    HW113331   6.313   0.783   0.546
 4144SOL    HW213332   6.383   0.802   0.400
 4145SOL     OW13333   0.164   6.824   1.499
 4145SOL    HW113334   0.135   6.730   1.517
 4145SOL    HW213335   0.120   6.886   1.564
 4146SOL     OW13336   4.922   5.836   2.861
 4146SOL    HW113337   4.870   5.759   2.898
 4146SOL    HW213338   4.953   5.894   2.936
 4147SOL     OW13339   4.903   4.731   6.090
 4147SOL    HW113340   4.925   4.826   6.068
 4147SOL    HW213341   4.833   4.728   6.162
 4148SOL     OW13342   2.392   1.313   5.709
 4148SOL    HW113343   2.293   1.296   5.705
 4148SOL    HW213344   2.424   1.297   5.802
 4149SOL     OW13345   2.135   3.372   6.378
 4149SOL    HW113346   2.093   3.297   6.429
 4149SOL    HW213347   2.068   3.446   6.368
 4150SOL     OW13348   5.278   2.061   6.407
 4150SOL    HW113349   5.374   2.079   6.430
 4150SOL    HW213350   5.271   1.969   6.367
 4151SOL     OW13351   3.069   6.213   3.992
 4151SOL    HW113352   3.034   6.304   4.013
 4151SOL    HW213353   3.149   6.194   4.049
 4152SOL     OW13354   2.696   4.591   1.051
 4152SOL    HW113355   2.688   4.508   0.996
 4152SOL    HW213356   2.754   4.573   1.131
 4153SOL     OW13357   6.902   5.971   1.280
 4153SOL    HW113358   6.919   5.945   1.375
 4153SOL    HW213359   6.907   5.890   1.222
 4154SOL     OW13360   1.043   6.372   3.739
 4154SOL    HW113361   0.961   6.358   3.684
 4154SOL    HW213362   1.111   6.301   3.717
 4155SOL     OW13363   0.543   0.914   1.429
 4155SOL    HW113364   0.621   0.858   1.455
 4155SOL    HW213365   0.565   1.011   1.443
 4156SOL     OW13366   0.387   5.336   6.038
 4156SOL    HW113367   0.417   5.416   6.090
 4156SOL    HW213368   0.420   5.343   5.944
 4157SOL     OW13369   6.568   6.341   1.435
 4157SOL    HW113370   6.522   6.401   1.369
 4157SOL    HW213371   6.636   6.394   1.486
 4158SOL     OW13372   1.010   2.713   1.368
 4158SOL    HW113373   0.928   2.771   1.371
 4158SOL    HW213374   1.034   2.685   1.461
 4159SOL     OW13375   3.502   0.777   4.152
 4159SOL    HW113376   3.475   0.686   4.121
 4159SOL    HW213377   3.465   0.846   4.089
 4160SOL     OW13378   6.679   6.826   6.688
 4160SOL    HW113379   6.609   6.874   6.635
 4160SOL    HW213380   6.638   6.792   6.773
 4161SOL     OW13381   3.809   3.339   1.644
 4161SOL    HW113382   3.824   3.428   1.600
 4161SOL    HW213383   3.820   3.349   1.743
 4162SOL     OW13384   5.065   5.594   2.110
 4162SOL    HW113385   5.024   5.557   2.193
 4162SOL    HW213386   5.153   5.549   2.093
 4163SOL     OW13387   3.578   6.484   1.705
 4163SOL    HW113388   3.600   6.565   1.760
 4163SOL    HW213389   3.480   6.464   1.714
 4164SOL     OW13390   6.696   0.360   5.439
 4164SOL    HW113391   6.728   0.448   5.404
 4164SOL    HW213392   6.708   0.358   5.538
 4165SOL     OW13393   4.531   0.982   4.734
 4165SOL    HW113394   4.470   1.013   4.807
 4165SOL    HW213395   4.517   1.040   4.653
 4166SOL     OW13396   5.758   1.427   1.410
 4166SOL    HW113397   5.791   1.424   1.504
 4166SOL    HW213398   5.819   1.374   1.351
 4167SOL     OW13399   3.730   5.366   4.368
 4167SOL    HW113400   3.741   5.350   4.466
 4167SOL    HW213401   3.637   5.344   4.340
 4168SOL     OW13402   5.022   3.735   6.409
 4168SOL    HW113403   5.072   3.697   6.487
 4168SOL    HW213404   5.076   3.807   6.367
 4169SOL     OW13405   5.127   3.511   5.386
 4169SOL    HW113406   5.186   3.581   5.425
 4169SOL    HW213407   5.076   3.466   5.459
 4170SOL     OW13408   0.424   3.399   4.104
 4170SOL    HW113409   0.382   3.434   4.020
 4170SOL    HW213410   0.491   3.466   4.137
 4171SOL     OW13411   0.737   2.683   0.462
 4171SOL    HW113412   0.639   2.667   0.450
 4171SOL    HW213413   0.761   2.676   0.559
 4172SOL     OW13414   2.753   4.360   0.851
 4172SOL    HW113415   2.791   4.279   0.895
 4172SOL    HW213416   2.823   4.432   0.848
 4173SOL     OW13417   4.748   2.509   5.955
 4173SOL    HW113418   4.704   2.455   6.027
 4173SOL    HW213419   4.810   2.451   5.903
 4174SOL     OW13420   3.573   0.465   4.941
 4174SOL    HW113421   3.483   0.439   4.906
 4174SOL    HW213422   3.606   0.394   5.003
 4175SOL     OW13423   0.889   4.705   6.677
 4175SOL    HW113424   0.799   4.724   6.640
 4175SOL    HW213425   0.915   4.779   6.740
 4176SOL     OW13426   4.828   0.412   6.380
 4176SOL    HW113427   4.880   0.433   6.298
 4176SOL    HW213428   4.886   0.361   6.444
 4177SOL     OW13429   4.052   4.815   2.779
 4177SOL    HW113430   4.072   4.868   2.697
 4177SOL    HW213431   4.137   4.782   2.820
 4178SOL     OW13432   4.073   5.425   1.419
 4178SOL    HW113433   4.020   5.483   1.357
 4178SOL    HW213434   4.128   5.361   1.366
 4179SOL     OW13435   5.281   2.719   5.301
 4179SOL    HW113436   5.210   2.742   5.235
 4179SOL    HW213437   5.292   2.794   5.367
 4180SOL     OW13438   4.492   4.076   0.167
 4180SOL    HW113439   4.560   4.015   0.206
 4180SOL    HW213440   4.493   4.163   0.217
 4181SOL     OW13441   4.653   6.916   4.733
 4181SOL    HW113442   4.673   6.881   4.642
 4181SOL    HW213443   4.728   6.893   4.795
 4182SOL     OW13444   0.494   6.479   4.263
 4182SOL    HW113445   0.469   6.433   4.177
 4182SOL    HW213446   0.425   6.547   4.286
 4183SOL     OW13447   3.666   2.184   1.352
 4183SOL    HW113448   3.731   2.229   1.414
 4183SOL    HW213449   3.658   2.088   1.377
 4184SOL     OW13450   3.312   5.496   3.672
 4184SOL    HW113451   3.389   5.550   3.636
 4184SOL    HW213452   3.235   5.557   3.688
 4185SOL     OW13453   5.796   3.001   3.295
 4185SOL    HW113454   5.779   2.991   3.197
 4185SOL    HW213455   5.814   3.097   3.316
 4186SOL     OW13456   1.493   6.182   0.454
 4186SOL    HW113457   1.452   6.267   0.488
 4186SOL    HW213458   1.592   6.186   0.466
 4187SOL     OW13459   1.831   3.726   6.595
 4187SOL    HW113460   1.833   3.807   6.536
 4187SOL    HW213461   1.750   3.729   6.653
 4188SOL     OW13462   4.570   0.048   0.700
 4188SOL    HW113463   4.548   0.114   0.628
 4188SOL    HW213464   4.487   0.022   0.748
 4189SOL     OW13465   4.897   4.688   3.744
 4189SOL    HW113466   4.993   4.713   3.760
 4189SOL    HW213467   4.838   4.764   3.770
 4190SOL     OW13468   6.932   6.076   0.854
 4190SOL    HW113469   6.863   6.140   0.889
 4190SOL    HW213470   7.010   6.127   0.818
 4191SOL     OW13471   4.713   4.443   6.369
 4191SOL    HW113472   4.668   4.530   6.353
 4191SOL    HW213473   4.808   4.458   6.398
 4192SOL     OW13474   0.936   3.426   1.383
 4192SOL    HW113475   0.917   3.442   1.286
 4192SOL    HW213476   0.852   3.398   1.429
 4193SOL     OW13477   0.007   0.226   0.768
 4193SOL    HW113478   0.017   0.177   0.854
 4193SOL    HW213479   0.017   0.163   0.692
 4194SOL     OW13480   4.268   1.540   5.290
 4194SOL    HW113481   4.295   1.542   5.387
 4194SOL    HW213482   4.323   1.471   5.242
 4195SOL     OW13483   3.367   6.031   1.302
 4195SOL    HW113484   3.278   6.074   1.321
 4195SOL    HW213485   3.436   6.102   1.289
 4196SOL     OW13486   6.357   2.758   1.874
 4196SOL    HW113487   6.380   2.692   1.803
 4196SOL    HW213488   6.308   2.712   1.948
 4197SOL     OW13489   3.737   0.320   6.728
 4197SOL    HW113490   3.718   0.325   6.630
 4197SOL    HW213491   3.656   0.350   6.779
 4198SOL     OW13492   5.873   2.075   2.630
 4198SOL    HW113493   5.898   2.089   2.534
 4198SOL    HW213494   5.866   2.164   2.676
 4199SOL     OW13495   0.805   4.118   6.050
 4199SOL    HW113496   0.706   4.118   6.034
 4199SOL    HW213497   0.843   4.030   6.023
 4200SOL     OW13498   4.633   1.032   3.529
 4200SOL    HW113499   4.681   1.115   3.555
 4200SOL    HW213500   4.564   1.010   3.598
 4201SOL     OW13501   5.380   6.843   3.668
 4201SOL    HW113502   5.433   6.911   3.616
 4201SOL    HW213503   5.443   6.778   3.711
 4202SOL     OW13504   5.012   4.181   1.252
 4202SOL    HW113505   5.019   4.222   1.343
 4202SOL    HW213506   5.043   4.247   1.183
 4203SOL     OW13507   6.130   5.661   6.539
 4203SOL    HW113508   6.120   5.565   6.513
 4203SOL    HW213509   6.046   5.711   6.514
 4204SOL     OW13510   2.481   3.355   6.457
 4204SOL    HW113511   2.422   3.334   6.378
 4204SOL    HW213512   2.463   3.448   6.488
 4205SOL     OW13513   3.898   6.613   5.024
 4205SOL    HW113514   3.848   6.536   5.064
 4205SOL    HW213515   3.874   6.622   4.928
 4206SOL     OW13516   1.091   2.655   4.827
 4206SOL    HW113517   1.154   2.692   4.896
 4206SOL    HW213518   1.105   2.702   4.740
 4207SOL     OW13519   1.391   2.583   2.381
 4207SOL    HW113520   1.367   2.644   2.456
 4207SOL    HW213521   1.339   2.608   2.299
 4208SOL     OW13522   2.075   3.354   4.840
 4208SOL    HW113523   2.115   3.395   4.922
 4208SOL    HW213524   2.088   3.255   4.844
 4209SOL     OW13525   0.063   6.642   2.702
 4209SOL    HW113526   7.020   6.574   2.673
 4209SOL    HW213527   0.038   6.678   2.792
 4210SOL     OW13528   3.958   3.087   5.077
 4210SOL    HW113529   3.866   3.075   5.038
 4210SOL    HW213530   4.002   3.166   5.034
 4211SOL     OW13531   4.182   2.571   5.590
 4211SOL    HW113532   4.098   2.550   5.639
 4211SOL    HW213533   4.167   2.652   5.532
 4212SOL     OW13534   0.147   2.801   3.252
 4212SOL    HW113535   0.123   2.889   3.212
 4212SOL    HW213536   0.236   2.771   3.217
 4213SOL     OW13537   3.529   0.748   3.581
 4213SOL    HW113538   3.497   0.802   3.504
 4213SOL    HW213539   3.610   0.791   3.621
 4214SOL     OW13540   0.549   5.509   4.077
 4214SOL    HW113541   0.555   5.525   3.978
 4214SOL    HW213542   0.636   5.471   4.109
 4215SOL     OW13543   4.784   6.118   5.371
 4215SOL    HW113544   4.848   6.042   5.376
 4215SOL    HW213545   4.723   6.106   5.293
 4216SOL     OW13546   2.703   5.827   2.432
 4216SOL    HW113547   2.606   5.804   2.430
 4216SOL    HW213548   2.714   5.926   2.431
 4217SOL     OW13549   0.596   0.664   2.652
 4217SOL    HW113550   0.641   0.606   2.720
 4217SOL    HW213551   0.665   0.719   2.605
 4218SOL     OW13552   2.638   1.317   1.786
 4218SOL    HW113553   2.704   1.317   1.711
 4218SOL    HW213554   2.666   1.252   1.856
 4219SOL     OW13555   4.617   6.164   3.812
 4219SOL    HW113556   4.598   6.106   3.734
 4219SOL    HW213557   4.698   6.131   3.860
 4220SOL     OW13558   4.916   2.595   1.837
 4220SOL    HW113559   4.969   2.594   1.922
 4220SOL    HW213560   4.966   2.647   1.768
 4221SOL     OW13561   0.357   5.738   6.939
 4221SOL    HW113562   0.261   5.767   6.947
 4221SOL    HW213563   0.414   5.793   7.000
 4222SOL     OW13564   5.160   2.804   3.844
 4222SOL    HW113565   5.206   2.816   3.756
 4222SOL    HW213566   5.072   2.852   3.842
 4223SOL     OW13567   4.112   3.831   2.234
 4223SOL    HW113568   4.185   3.859   2.171
 4223SOL    HW213569   4.128   3.738   2.265
 4224SOL     OW13570   4.909   3.463   4.626
 4224SOL    HW113571   4.917   3.365   4.643
 4224SOL    HW213572   4.875   3.509   4.709
 4225SOL     OW13573   0.236   2.148   5.465
 4225SOL    HW113574   0.287   2.063   5.472
 4225SOL    HW213575   0.295   2.219   5.428
 4226SOL     OW13576   1.815   5.453   4.868
 4226SOL    HW113577   1.884   5.524   4.858
 4226SOL    HW213578   1.724   5.494   4.866
 4227SOL     OW13579   5.413   5.776   2.484
 4227SOL    HW113580   5.335   5.828   2.520
 4227SOL    HW213581   5.388   5.735   2.397
 4228SOL     OW13582   0.930   5.059   3.993
 4228SOL    HW113583   0.932   4.988   3.923
 4228SOL    HW213584   0.921   5.017   4.083
 4229SOL     OW13585   6.508   4.657   5.566
 4229SOL    HW113586   6.503   4.683   5.469
 4229SOL    HW213587   6.565   4.576   5.576
 4230SOL     OW13588   0.485   0.777   2.156
 4230SOL    HW113589   0.492   0.734   2.066
 4230SOL    HW213590   0.388   0.786   2.181
 4231SOL     OW13591   5.602   1.884   5.643
 4231SOL    HW113592   5.507   1.858   5.662
 4231SOL    HW213593   5.622   1.869   5.546
 4232SOL     OW13594   1.601   5.674   3.791
 4232SOL    HW113595   1.681   5.674   3.852
 4232SOL    HW213596   1.625   5.633   3.704
 4233SOL     OW13597   5.426   5.457   3.678
 4233SOL    HW113598   5.468   5.517   3.610
 4233SOL    HW213599   5.336   5.429   3.645
 4234SOL     OW13600   2.892   5.601   5.831
 4234SOL    HW113601   2.917   5.667   5.902
 4234SOL    HW213602   2.945   5.618   5.749
 4235SOL     OW13603   0.455   5.708   5.467
 4235SOL    HW113604   0.470   5.688   5.370
 4235SOL    HW213605   0.490   5.800   5.487
 4236SOL     OW13606   0.605   5.474   2.732
 4236SOL    HW113607   0.696   5.472   2.691
 4236SOL    HW213608   0.567   5.382   2.734
 4237SOL     OW13609   6.669   4.392   3.753
 4237SOL    HW113610   6.736   4.328   3.791
 4237SOL    HW213611   6.672   4.387   3.653
 4238SOL     OW13612   2.322   0.010   3.414
 4238SOL    HW113613   2.362   0.034   3.503
 4238SOL    HW213614   2.273   6.948   3.422
 4239SOL     OW13615   4.178   1.148   3.678
 4239SOL    HW113616   4.094   1.203   3.673
 4239SOL    HW213617   4.256   1.208   3.696
 4240SOL     OW13618   0.065   6.314   1.230
 4240SOL    HW113619   6.998   6.350   1.240
 4240SOL    HW213620   0.121   6.378   1.177
 4241SOL     OW13621   6.213   2.836   0.385
 4241SOL    HW113622   6.121   2.839   0.424
 4241SOL    HW213623   6.272   2.778   0.441
 4242SOL     OW13624   1.953   1.941   3.612
 4242SOL    HW113625   1.933   2.013   3.546
 4242SOL    HW213626   1.976   1.857   3.563
 4243SOL     OW13627   5.580   0.425   3.323
 4243SOL    HW113628   5.598   0.438   3.421
 4243SOL    HW213629   5.594   0.329   3.299
 4244SOL     OW13630   3.481   3.567   2.524
 4244SOL    HW113631   3.453   3.637   2.458
 4244SOL    HW213632   3.567   3.525   2.495
 4245SOL     OW13633   6.326   2.326   6.326
 4245SOL    HW113634   6.295   2.237   6.361
 4245SOL    HW213635   6.267   2.398   6.363
 4246SOL     OW13636   0.826   3.744   1.996
 4246SOL    HW113637   0.856   3.724   1.903
 4246SOL    HW213638   0.742   3.693   2.016
 4247SOL     OW13639   0.197   5.790   4.965
 4247SOL    HW113640   0.151   5.739   4.892
 4247SOL    HW213641   0.134   5.858   5.002
 4248SOL     OW13642   1.295   3.081   5.272
 4248SOL    HW113643   1.216   3.082   5.334
 4248SOL    HW213644   1.373   3.038   5.317
 4249SOL     OW13645   5.349   3.662   5.973
 4249SOL    HW113646   5.302   3.602   6.037
 4249SOL    HW213647   5.407   3.607   5.912
 4250SOL     OW13648   6.911   5.027   3.131
 4250SOL    HW113649   6.995   5.028   3.078
 4250SOL    HW213650   6.878   4.933   3.142
 4251SOL     OW13651   5.880   4.516   0.304
 4251SOL    HW113652   5.821   4.568   0.366
 4251SOL    HW213653   5.949   4.578   0.264
 4252SOL     OW13654   0.866   5.120   5.855
 4252SOL    HW113655   0.811   5.040   5.881
 4252SOL    HW213656   0.963   5.097   5.863
 4253SOL     OW13657   4.465   0.281   2.631
 4253SOL    HW113658   4.502   0.373   2.622
 4253SOL    HW213659   4.428   0.250   2.543
 4254SOL     OW13660   2.368   4.091   1.447
 4254SOL    HW113661   2.394   4.105   1.352
 4254SOL    HW213662   2.404   4.003   1.479
 4255SOL     OW13663   6.910   3.025   4.529
 4255SOL    HW113664   6.894   3.054   4.435
 4255SOL    HW213665   6.881   2.929   4.539
 4256SOL     OW13666   2.012   0.021   1.622
 4256SOL    HW113667   2.067   7.017   1.701
 4256SOL    HW213668   2.072   0.056   1.550
 4257SOL     OW13669   3.707   1.844   4.657
 4257SOL    HW113670   3.630   1.781   4.666
 4257SOL    HW213671   3.785   1.810   4.711
 4258SOL     OW13672   5.494   6.781   2.607
 4258SOL    HW113673   5.481   6.860   2.667
 4258SOL    HW213674   5.559   6.718   2.648
 4259SOL     OW13675   2.404   2.320   6.868
 4259SOL    HW113676   2.403   2.329   6.768
 4259SOL    HW213677   2.405   2.411   6.909
 4260SOL     OW13678   4.947   5.506   3.423
 4260SOL    HW113679   4.882   5.440   3.386
 4260SOL    HW213680   4.909   5.598   3.414
 4261SOL     OW13681   1.482   6.258   1.983
 4261SOL    HW113682   1.551   6.286   1.917
 4261SOL    HW213683   1.436   6.175   1.950
 4262SOL     OW13684   0.859   5.151   6.861
 4262SOL    HW113685   0.912   5.233   6.839
 4262SOL    HW213686   0.905   5.071   6.821
 4263SOL     OW13687   2.821   4.441   5.825
 4263SOL    HW113688   2.757   4.489   5.765
 4263SOL    HW213689   2.857   4.361   5.777
 4264SOL     OW13690   0.246   0.783   0.672
 4264SOL    HW113691   0.171   0.847   0.660
 4264SOL    HW213692   0.304   0.812   0.748
 4265SOL     OW13693   6.757   1.575   0.651
 4265SOL    HW113694   6.769   1.558   0.749
 4265SOL    HW213695   6.798   1.501   0.599
 4266SOL     OW13696   2.740   5.493   6.969
 4266SOL    HW113697   2.755   5.459   0.037
 4266SOL    HW213698   2.828   5.500   6.922
 4267SOL     OW13699   1.751   3.469   5.345
 4267SOL    HW113700   1.793   3.529   5.413
 4267SOL    HW213701   1.756   3.513   5.255
 4268SOL     OW13702   2.243   1.017   0.751
 4268SOL    HW113703   2.239   1.004   0.652
 4268SOL    HW213704   2.314   0.958   0.790
 4269SOL     OW13705   3.453   3.392   0.245
 4269SOL    HW113706   3.546   3.389   0.282
 4269SOL    HW213707   3.440   3.314   0.183
 4270SOL     OW13708   3.127   3.370   4.999
 4270SOL    HW113709   3.152   3.289   4.946
 4270SOL    HW213710   3.083   3.342   5.084
 4271SOL     OW13711   0.810   0.031   5.958
 4271SOL    HW113712   0.805   7.015   5.867
 4271SOL    HW213713   0.799   6.986   6.027
 4272SOL     OW13714   6.732   4.698   4.858
 4272SOL    HW113715   6.711   4.709   4.761
 4272SOL    HW213716   6.783   4.778   4.890
 4273SOL     OW13717   5.074   6.918   5.557
 4273SOL    HW113718   5.060   6.874   5.469
 4273SOL    HW213719   5.171   6.916   5.580
 4274SOL     OW13720   1.460   6.580   3.328
 4274SOL    HW113721   1.537   6.596   3.390
 4274SOL    HW213722   1.378   6.624   3.365
 4275SOL     OW13723   1.095   0.406   6.181
 4275SOL    HW113724   1.095   0.373   6.087
 4275SOL    HW213725   1.067   0.332   6.243
 4276SOL     OW13726   2.046   4.512   2.915
 4276SOL    HW113727   2.034   4.417   2.885
 4276SOL    HW213728   2.088   4.565   2.842
 4277SOL     OW13729   6.895   5.433   3.979
 4277SOL    HW113730   6.894   5.383   3.892
 4277SOL    HW213731   6.803   5.439   4.015
 4278SOL     OW13732   6.916   6.462   4.615
 4278SOL    HW113733   6.896   6.405   4.694
 4278SOL    HW213734   6.845   6.450   4.546
 4279SOL     OW13735   3.633   6.410   5.338
 4279SOL    HW113736   3.701   6.441   5.271
 4279SOL    HW213737   3.555   6.370   5.290
 4280SOL     OW13738   5.866   2.029   4.564
 4280SOL    HW113739   5.951   2.071   4.597
 4280SOL    HW213740   5.868   2.025   4.464
 4281SOL     OW13741   2.285   4.341   4.955
 4281SOL    HW113742   2.285   4.242   4.938
 4281SOL    HW213743   2.254   4.358   5.049
 4282SOL     OW13744   1.941   2.418   0.892
 4282SOL    HW113745   2.033   2.449   0.869
 4282SOL    HW213746   1.897   2.380   0.812
 4283SOL     OW13747   2.005   0.353   4.525
 4283SOL    HW113748   1.909   0.356   4.499
 4283SOL    HW213749   2.027   0.432   4.583
 4284SOL     OW13750   5.493   1.844   2.143
 4284SOL    HW113751   5.447   1.828   2.230
 4284SOL    HW213752   5.590   1.824   2.153
 4285SOL     OW13753   1.115   0.212   5.402
 4285SOL    HW113754   1.029   0.262   5.391
 4285SOL    HW213755   1.191   0.277   5.404
 4286SOL     OW13756   4.516   5.880   0.124
 4286SOL    HW113757   4.533   5.806   0.189
 4286SOL    HW213758   4.597   5.895   0.068
 4287SOL     OW13759   5.783   0.209   4.872
 4287SOL    HW113760   5.711   0.277   4.858
 4287SOL    HW213761   5.835   0.197   4.788
 4288SOL     OW13762   1.741   6.693   2.662
 4288SOL    HW113763   1.758   6.672   2.759
 4288SOL    HW213764   1.698   6.613   2.619
 4289SOL     OW13765   5.652   2.636   1.322
 4289SOL    HW113766   5.633   2.685   1.237
 4289SOL    HW213767   5.639   2.698   1.400
 4290SOL     OW13768   2.196   0.955   1.980
 4290SOL    HW113769   2.296   0.956   1.981
 4290SOL    HW213770   2.162   1.002   1.899
 4291SOL     OW13771   5.810   3.423   0.569
 4291SOL    HW113772   5.737   3.491   0.576
 4291SOL    HW213773   5.825   3.381   0.659
 4292SOL     OW13774   5.848   4.520   6.379
 4292SOL    HW113775   5.942   4.527   6.346
 4292SOL    HW213776   5.788   4.573   6.319
 4293SOL     OW13777   0.042   3.138   6.745
 4293SOL    HW113778   0.100   3.139   6.827
 4293SOL    HW213779   0.008   3.230   6.727
 4294SOL     OW13780   4.191   2.273   6.087
 4294SOL    HW113781   4.125   2.300   6.017
 4294SOL    HW213782   4.241   2.192   6.056
 4295SOL     OW13783   3.404   6.795   4.455
 4295SOL    HW113784   3.467   6.786   4.378
 4295SOL    HW213785   3.379   6.705   4.489
 4296SOL     OW13786   2.572   1.635   1.440
 4296SOL    HW113787   2.553   1.594   1.351
 4296SOL    HW213788   2.516   1.717   1.453
 4297SOL     OW13789   5.682   0.619   5.661
 4297SOL    HW113790   5.777   0.649   5.671
 4297SOL    HW213791   5.669   0.580   5.570
 4298SOL     OW13792   2.839   5.829   1.710
 4298SOL    HW113793   2.833   5.736   1.744
 4298SOL    HW213794   2.916   5.836   1.646
 4299SOL     OW13795   1.126   3.719   6.201
 4299SOL    HW113796   1.128   3.621   6.183
 4299SOL    HW213797   1.032   3.753   6.195
 4300SOL     OW13798   3.798   1.414   6.987
 4300SOL    HW113799   3.804   1.395   6.889
 4300SOL    HW213800   3.889   1.409   0.002
 4301SOL     OW13801   2.682   1.898   0.452
 4301SOL    HW113802   2.663   1.885   0.549
 4301SOL    HW213803   2.779   1.877   0.434
 4302SOL     OW13804   1.024   6.334   6.976
 4302SOL    HW113805   1.052   6.427   6.954
 4302SOL    HW213806   1.055   6.311   0.044
 4303SOL     OW13807   6.916   3.622   2.307
 4303SOL    HW113808   6.946   3.706   2.262
 4303SOL    HW213809   6.913   3.548   2.239
 4304SOL     OW13810   3.386   3.544   3.843
 4304SOL    HW113811   3.364   3.475   3.913
 4304SOL    HW213812   3.306   3.602   3.828
 4305SOL     OW13813   6.284   1.169   3.916
 4305SOL    HW113814   6.191   1.159   3.953
 4305SOL    HW213815   6.282   1.233   3.839
 4306SOL     OW13816   6.547   4.186   5.836
 4306SOL    HW113817   6.624   4.221   5.890
 4306SOL    HW213818   6.498   4.116   5.889
 4307SOL     OW13819   4.693   3.796   5.872
 4307SOL    HW113820   4.702   3.709   5.824
 4307SOL    HW213821   4.661   3.780   5.965
 4308SOL     OW13822   5.173   5.593   4.682
 4308SOL    HW113823   5.145   5.640   4.765
 4308SOL    HW213824   5.186   5.495   4.701
 4309SOL     OW13825   1.598   1.185   0.493
 4309SOL    HW113826   1.606   1.272   0.543
 4309SOL    HW213827   1.585   1.204   0.395
 4310SOL     OW13828   1.789   2.034   2.950
 4310SOL    HW113829   1.761   2.039   2.854
 4310SOL    HW213830   1.884   2.062   2.959
 4311SOL     OW13831   1.639   6.109   3.196
 4311SOL    HW113832   1.708   6.150   3.257
 4311SOL    HW213833   1.562   6.173   3.186
 4312SOL     OW13834   2.205   5.635   2.308
 4312SOL    HW113835   2.161   5.554   2.270
 4312SOL    HW213836   2.145   5.715   2.295
 4313SOL     OW13837   4.791   1.707   1.923
 4313SOL    HW113838   4.698   1.683   1.954
 4313SOL    HW213839   4.791   1.799   1.886
 4314SOL     OW13840   4.892   3.440   2.687
 4314SOL    HW113841   4.888   3.408   2.592
 4314SOL    HW213842   4.861   3.367   2.748
 4315SOL     OW13843   2.766   0.690   2.079
 4315SOL    HW113844   2.738   0.599   2.049
 4315SOL    HW213845   2.691   0.734   2.128
 4316SOL     OW13846   5.580   0.659   1.756
 4316SOL    HW113847   5.594   0.676   1.854
 4316SOL    HW213848   5.611   0.739   1.704
 4317SOL     OW13849   3.276   1.119   4.182
 4317SOL    HW113850   3.287   1.038   4.124
 4317SOL    HW213851   3.186   1.159   4.168
 4318SOL     OW13852   0.631   3.239   3.565
 4318SOL    HW113853   0.598   3.213   3.474
 4318SOL    HW213854   0.555   3.273   3.619
 4319SOL     OW13855   3.110   3.451   6.410
 4319SOL    HW113856   3.041   3.524   6.409
 4319SOL    HW213857   3.190   3.479   6.357
 4320SOL     OW13858   0.386   6.619   3.040
 4320SOL    HW113859   0.411   6.583   2.951
 4320SOL    HW213860   0.404   6.550   3.110
 4321SOL     OW13861   6.627   0.400   5.122
 4321SOL    HW113862   6.583   0.312   5.139
 4321SOL    HW213863   6.654   0.441   5.209
 4322SOL     OW13864   6.138   1.087   0.076
 4322SOL    HW113865   6.139   1.030   0.158
 4322SOL    HW213866   6.231   1.121   0.058
 4323SOL     OW13867   6.296   2.897   2.626
 4323SOL    HW113868   6.349   2.862   2.704
 4323SOL    HW213869   6.327   2.852   2.542
 4324SOL     OW13870   6.206   4.003   6.248
 4324SOL    HW113871   6.187   3.955   6.333
 4324SOL    HW213872   6.279   4.070   6.262
 4325SOL     OW13873   2.044   1.499   6.635
 4325SOL    HW113874   2.108   1.490   6.559
 4325SOL    HW213875   2.066   1.582   6.687
 4326SOL     OW13876   6.326   3.048   5.668
 4326SOL    HW113877   6.332   3.044   5.768
 4326SOL    HW213878   6.286   3.136   5.641
 4327SOL     OW13879   6.157   6.121   1.808
 4327SOL    HW113880   6.203   6.068   1.737
 4327SOL    HW213881   6.221   6.187   1.848
 4328SOL     OW13882   4.946   5.362   6.648
 4328SOL    HW113883   4.920   5.432   6.582
 4328SOL    HW213884   4.930   5.396   6.741
 4329SOL     OW13885   3.998   2.202   5.756
 4329SOL    HW113886   4.052   2.277   5.793
 4329SOL    HW213887   4.014   2.119   5.809
 4330SOL     OW13888   1.347   0.361   6.022
 4330SOL    HW113889   1.412   0.298   6.064
 4330SOL    HW213890   1.303   0.415   6.093
 4331SOL     OW13891   5.780   2.480   6.542
 4331SOL    HW113892   5.766   2.444   6.634
 4331SOL    HW213893   5.711   2.550   6.523
 4332SOL     OW13894   4.947   3.173   2.080
 4332SOL    HW113895   5.023   3.118   2.043
 4332SOL    HW213896   4.860   3.133   2.051
 4333SOL     OW13897   5.872   1.487   5.150
 4333SOL    HW113898   5.816   1.429   5.209
 4333SOL    HW213899   5.963   1.447   5.139
 4334SOL     OW13900   3.902   2.070   2.053
 4334SOL    HW113901   3.837   2.136   2.015
 4334SOL    HW213902   3.970   2.047   1.983
 4335SOL     OW13903   3.385   4.186   4.739
 4335SOL    HW113904   3.385   4.286   4.747
 4335SOL    HW213905   3.333   4.147   4.816
 4336SOL     OW13906   1.396   6.485   4.893
 4336SOL    HW113907   1.344   6.568   4.873
 4336SOL    HW213908   1.470   6.506   4.957
 4337SOL     OW13909   6.625   5.036   0.122
 4337SOL    HW113910   6.669   5.065   0.037
 4337SOL    HW213911   6.529   5.013   0.104
 4338SOL     OW13912   6.431   6.129   4.115
 4338SOL    HW113913   6.412   6.116   4.212
 4338SOL    HW213914   6.400   6.049   4.064
 4339SOL     OW13915   5.778   2.078   5.216
 4339SOL    HW113916   5.794   1.991   5.170
 4339SOL    HW213917   5.807   2.153   5.155
 4340SOL     OW13918   5.701   4.154   1.028
 4340SOL    HW113919   5.762   4.230   1.006
 4340SOL    HW213920   5.655   4.172   1.115
 4341SOL     OW13921   1.873   4.015   1.682
 4341SOL    HW113922   1.800   4.083   1.692
 4341SOL    HW213923   1.956   4.049   1.727
 4342SOL     OW13924   0.852   2.829   2.830
 4342SOL    HW113925   0.950   2.809   2.827
 4342SOL    HW213926   0.827   2.888   2.753
 4343SOL     OW13927   3.113   1.253   0.702
 4343SOL    HW113928   3.032   1.256   0.760
 4343SOL    HW213929   3.160   1.166   0.716
 4344SOL     OW13930   1.850   5.098   3.425
 4344SOL    HW113931   1.812   5.071   3.514
 4344SOL    HW213932   1.909   5.025   3.390
 4345SOL     OW13933   1.500   2.599   5.169
 4345SOL    HW113934   1.490   2.500   5.185
 4345SOL    HW213935   1.554   2.639   5.243
 4346SOL     OW13936   1.974   3.356   1.899
 4346SOL    HW113937   2.067   3.392   1.900
 4346SOL    HW213938   1.976   3.260   1.872
 4347SOL     OW13939   5.897   6.887   2.897
 4347SOL    HW113940   5.964   6.948   2.939
 4347SOL    HW213941   5.924   6.792   2.912
 4348SOL     OW13942   1.511   3.785   0.563
 4348SOL    HW113943   1.561   3.699   0.553
 4348SOL    HW213944   1.569   3.861   0.537
 4349SOL     OW13945   0.457   1.517   3.724
 4349SOL    HW113946   0.473   1.428   3.682
 4349SOL    HW213947   0.392   1.569   3.669
 4350SOL     OW13948   5.490   2.583   4.129
 4350SOL    HW113949   5.474   2.484   4.135
 4350SOL    HW213950   5.414   2.632   4.172
 4351SOL     OW13951   3.033   5.713   2.156
 4351SOL    HW113952   2.933   5.724   2.159
 4351SOL    HW213953   3.061   5.656   2.233
 4352SOL     OW13954   6.964   1.565   2.245
 4352SOL    HW113955   7.011   1.577   2.332
 4352SOL    HW213956   6.897   1.492   2.253
 4353SOL     OW13957   3.226   5.718   6.699
 4353SOL    HW113958   3.291   5.758   6.635
 4353SOL    HW213959   3.169   5.791   6.738
 4354SOL     OW13960   2.715   0.001   7.006
 4354SOL    HW113961   2.701   6.950   6.943
 4354SOL    HW213962   2.795   0.054   6.977
 4355SOL     OW13963   4.183   1.262   0.631
 4355SOL    HW113964   4.202   1.208   0.713
 4355SOL    HW213965   4.266   1.313   0.606
 4356SOL     OW13966   4.285   4.119   0.483
 4356SOL    HW113967   4.320   4.164   0.565
 4356SOL    HW213968   4.204   4.065   0.506
 4357SOL     OW13969   6.585   0.301   0.089
 4357SOL    HW113970   6.626   0.391   0.079
 4357SOL    HW213971   6.622   0.240   0.019
 4358SOL     OW13972   0.479   0.058   1.619
 4358SOL    HW113973   0.556   0.114   1.590
 4358SOL    HW213974   0.395   0.091   1.576
 4359SOL     OW13975   0.611   2.483   4.172
 4359SOL    HW113976   0.596   2.443   4.262
 4359SOL    HW213977   0.529   2.471   4.116
 4360SOL     OW13978   1.266   3.129   1.308
 4360SOL    HW113979   1.337   3.098   1.371
 4360SOL    HW213980   1.225   3.050   1.262
 4361SOL     OW13981   5.076   2.817   2.141
 4361SOL    HW113982   5.051   2.861   2.054
 4361SOL    HW213983   5.160   2.858   2.176
 4362SOL     OW13984   6.387   4.436   4.954
 4362SOL    HW113985   6.417   4.349   4.993
 4362SOL    HW213986   6.419   4.444   4.860
 4363SOL     OW13987   5.411   3.204   5.326
 4363SOL    HW113988   5.312   3.210   5.317
 4363SOL    HW213989   5.455   3.257   5.252
 4364SOL     OW13990   3.025   3.905   4.663
 4364SOL    HW113991   3.004   3.951   4.749
 4364SOL    HW213992   2.959   3.832   4.646
 4365SOL     OW13993   4.113   2.232   2.644
 4365SOL    HW113994   4.182   2.288   2.598
 4365SOL    HW213995   4.135   2.135   2.633
 4366SOL     OW13996   5.471   6.007   1.206
 4366SOL    HW113997   5.552   6.029   1.151
 4366SOL    HW213998   5.472   5.911   1.231
 4367SOL     OW13999   1.647   5.933   6.076
 4367SOL    HW114000   1.745   5.956   6.073
 4367SOL    HW214001   1.633   5.855   6.136
 4368SOL     OW14002   5.710   4.038   1.564
 4368SOL    HW114003   5.730   3.955   1.616
 4368SOL    HW214004   5.643   4.094   1.614
 4369SOL     OW14005   4.197   5.624   2.320
 4369SOL    HW114006   4.126   5.570   2.366
 4369SOL    HW214007   4.153   5.699   2.270
 4370SOL     OW14008   5.882   4.616   3.878
 4370SOL    HW114009   5.824   4.552   3.929
 4370SOL    HW214010   5.841   4.632   3.788
 4371SOL     OW14011   5.501   0.981   2.249
 4371SOL    HW114012   5.525   1.062   2.303
 4371SOL    HW214013   5.463   0.911   2.310
 4372SOL     OW14014   4.178   1.555   3.525
 4372SOL    HW114015   4.158   1.639   3.575
 4372SOL    HW214016   4.260   1.567   3.469
 4373SOL     OW14017   6.200   1.975   6.739
 4373SOL    HW114018   6.260   1.904   6.775
 4373SOL    HW214019   6.128   1.933   6.684
 4374SOL     OW14020   1.728   2.439   1.747
 4374SOL    HW114021   1.679   2.351   1.746
 4374SOL    HW214022   1.663   2.513   1.730
 4375SOL     OW14023   2.454   6.596   4.913
 4375SOL    HW114024   2.386   6.615   4.984
 4375SOL    HW214025   2.545   6.594   4.954
 4376SOL     OW14026   5.979   0.517   3.108
 4376SOL    HW114027   6.039   0.456   3.056
 4376SOL    HW214028   6.000   0.612   3.083
 4377SOL     OW14029   5.828   4.040   6.767
 4377SOL    HW114030   5.850   4.134   6.739
 4377SOL    HW214031   5.907   3.981   6.751
 4378SOL     OW14032   1.725   0.036   4.275
 4378SOL    HW114033   1.670   7.010   4.209
 4378SOL    HW214034   1.819   0.045   4.241
 4379SOL     OW14035   2.665   2.032   4.754
 4379SOL    HW114036   2.628   2.072   4.838
 4379SOL    HW214037   2.719   2.100   4.706
 4380SOL     OW14038   0.238   1.484   1.926
 4380SOL    HW114039   0.263   1.543   2.003
 4380SOL    HW214040   0.151   1.514   1.888
 4381SOL     OW14041   2.383   6.404   5.630
 4381SOL    HW114042   2.436   6.323   5.655
 4381SOL    HW214043   2.402   6.478   5.695
 4382SOL     OW14044   6.886   3.472   5.544
 4382SOL    HW114045   6.850   3.494   5.453
 4382SOL    HW214046   6.925   3.380   5.543
 4383SOL     OW14047   5.261   3.053   6.704
 4383SOL    HW114048   5.360   3.051   6.719
 4383SOL    HW214049   5.214   3.042   6.792
 4384SOL     OW14050   6.284   6.577   3.620
 4384SOL    HW114051   6.372   6.532   3.609
 4384SOL    HW214052   6.296   6.663   3.670
 4385SOL     OW14053   5.706   1.537   4.576
 4385SOL    HW114054   5.736   1.628   4.604
 4385SOL    HW214055   5.650   1.544   4.494
 4386SOL     OW14056   0.902   3.270   5.302
 4386SOL    HW114057   0.922   3.194   5.363
 4386SOL    HW214058   0.985   3.294   5.251
 4387SOL     OW14059   6.463   2.211   0.549
 4387SOL    HW114060   6.369   2.231   0.577
 4387SOL    HW214061   6.520   2.291   0.562
 4388SOL     OW14062   4.753   1.731   6.638
 4388SOL    HW114063   4.797   1.657   6.689
 4388SOL    HW214064   4.774   1.722   6.541
 4389SOL     OW14065   0.133   3.732   1.583
 4389SOL    HW114066   0.232   3.745   1.588
 4389SOL    HW214067   0.109   3.700   1.491
 4390SOL     OW14068   5.962   0.900   1.484
 4390SOL    HW114069   5.943   0.843   1.563
 4390SOL    HW214070   5.895   0.881   1.412
 4391SOL     OW14071   2.104   5.844   6.103
 4391SOL    HW114072   2.147   5.778   6.042
 4391SOL    HW214073   2.111   5.812   6.198
 4392SOL     OW14074   1.864   2.634   4.998
 4392SOL    HW114075   1.767   2.614   4.984
 4392SOL    HW214076   1.913   2.629   4.911
 4393SOL     OW14077   4.881   6.988   1.806
 4393SOL    HW114078   4.936   6.960   1.885
 4393SOL    HW214079   4.942   7.011   1.730
 4394SOL     OW14080   1.374   0.428   1.439
 4394SOL    HW114081   1.325   0.356   1.488
 4394SOL    HW214082   1.462   0.445   1.484
 4395SOL     OW14083   2.715   5.665   1.025
 4395SOL    HW114084   2.701   5.655   1.124
 4395SOL    HW214085   2.769   5.588   0.992
 4396SOL     OW14086   2.030   0.538   3.439
 4396SOL    HW114087   2.116   0.494   3.412
 4396SOL    HW214088   2.042   0.637   3.436
 4397SOL     OW14089   3.071   1.885   4.075
 4397SOL    HW114090   2.990   1.862   4.129
 4397SOL    HW214091   3.154   1.867   4.128
 4398SOL     OW14092   2.103   2.811   5.800
 4398SOL    HW114093   2.117   2.835   5.896
 4398SOL    HW214094   2.052   2.883   5.754
 4399SOL     OW14095   3.207   6.866   2.137
 4399SOL    HW114096   3.236   6.929   2.065
 4399SOL    HW214097   3.122   6.898   2.177
 4400SOL     OW14098   2.382   5.688   5.069
 4400SOL    HW114099   2.398   5.780   5.033
 4400SOL    HW214100   2.461   5.660   5.123
 4401SOL     OW14101   3.684   6.799   6.027
 4401SOL    HW114102   3.774   6.808   6.070
 4401SOL    HW214103   3.614   6.829   6.092
 4402SOL     OW14104   1.089   0.237   3.059
 4402SOL    HW114105   1.106   0.276   3.149
 4402SOL    HW214106   1.150   0.159   3.044
 4403SOL     OW14107   1.307   4.651   1.191
 4403SOL    HW114108   1.256   4.684   1.271
 4403SOL    HW214109   1.379   4.716   1.168
 4404SOL     OW14110   0.374   6.157   6.409
 4404SOL    HW114111   0.436   6.232   6.387
 4404SOL    HW214112   0.423   6.070   6.404
 4405SOL     OW14113   1.733   4.989   3.636
 4405SOL    HW114114   1.640   4.961   3.612
 4405SOL    HW214115   1.746   4.979   3.735
 4406SOL     OW14116   6.033   3.450   2.271
 4406SOL    HW114117   6.114   3.446   2.329
 4406SOL    HW214118   6.010   3.546   2.253
 4407SOL     OW14119   6.222   6.421   2.202
 4407SOL    HW114120   6.196   6.396   2.108
 4407SOL    HW214121   6.197   6.346   2.264
 4408SOL     OW14122   4.090   0.334   1.390
 4408SOL    HW114123   4.135   0.284   1.464
 4408SOL    HW214124   3.996   0.301   1.380
 4409SOL     OW14125   3.740   0.928   2.427
 4409SOL    HW114126   3.796   1.010   2.408
 4409SOL    HW214127   3.644   0.949   2.409
 4410SOL     OW14128   0.894   5.850   1.345
 4410SOL    HW114129   0.887   5.948   1.366
 4410SOL    HW214130   0.837   5.799   1.409
 4411SOL     OW14131   3.309   4.413   5.374
 4411SOL    HW114132   3.250   4.380   5.300
 4411SOL    HW214133   3.267   4.392   5.462
 4412SOL     OW14134   4.767   6.125   2.382
 4412SOL    HW114135   4.728   6.051   2.437
 4412SOL    HW214136   4.704   6.202   2.379
 4413SOL     OW14137   4.222   6.588   3.796
 4413SOL    HW114138   4.168   6.513   3.758
 4413SOL    HW214139   4.283   6.553   3.867
 4414SOL     OW14140   4.716   4.097   1.192
 4414SOL    HW114141   4.789   4.164   1.178
 4414SOL    HW214142   4.640   4.117   1.131
 4415SOL     OW14143   3.158   3.590   1.457
 4415SOL    HW114144   3.168   3.519   1.526
 4415SOL    HW214145   3.073   3.640   1.471
 4416SOL     OW14146   4.609   2.658   3.288
 4416SOL    HW114147   4.617   2.668   3.387
 4416SOL    HW214148   4.651   2.738   3.243
 4417SOL     OW14149   0.873   3.714   3.693
 4417SOL    HW114150   0.825   3.798   3.667
 4417SOL    HW214151   0.846   3.640   3.631
 4418SOL     OW14152   6.155   6.846   0.256
 4418SOL    HW114153   6.098   6.878   0.331
 4418SOL    HW214154   6.108   6.772   0.208
 4419SOL     OW14155   6.339   5.802   6.644
 4419SOL    HW114156   6.422   5.753   6.620
 4419SOL    HW214157   6.260   5.756   6.603
 4420SOL     OW14158   3.667   2.377   0.934
 4420SOL    HW114159   3.648   2.377   0.836
 4420SOL    HW214160   3.730   2.452   0.956
 4421SOL     OW14161   1.296   2.732   4.994
 4421SOL    HW114162   1.382   2.688   5.022
 4421SOL    HW214163   1.312   2.830   4.980
 4422SOL     OW14164   0.093   4.396   7.011
 4422SOL    HW114165   0.191   4.385   6.991
 4422SOL    HW214166   0.068   4.492   6.996
 4423SOL     OW14167   5.208   3.917   4.974
 4423SOL    HW114168   5.271   3.892   4.901
 4423SOL    HW214169   5.242   3.881   5.061
 4424SOL     OW14170   4.757   5.665   3.684
 4424SOL    HW114171   4.718   5.722   3.756
 4424SOL    HW214172   4.856   5.680   3.679
 4425SOL     OW14173   1.518   5.882   1.596
 4425SOL    HW114174   1.489   5.970   1.557
 4425SOL    HW214175   1.590   5.842   1.539
 4426SOL     OW14176   0.980   0.018   4.019
 4426SOL    HW114177   0.989   6.944   4.031
 4426SOL    HW214178   1.023   0.045   3.933
 4427SOL     OW14179   3.141   6.256   2.924
 4427SOL    HW114180   3.062   6.317   2.923
 4427SOL    HW214181   3.133   6.193   3.002
 4428SOL     OW14182   6.114   0.914   4.073
 4428SOL    HW114183   6.103   0.826   4.119
 4428SOL    HW214184   6.162   0.977   4.134
 4429SOL     OW14185   2.151   6.383   3.634
 4429SOL    HW114186   2.169   6.478   3.609
 4429SOL    HW214187   2.200   6.322   3.572
 4430SOL     OW14188   4.965   4.500   4.990
 4430SOL    HW114189   4.965   4.412   4.943
 4430SOL    HW214190   5.024   4.564   4.940
 4431SOL     OW14191   3.454   0.203   4.358
 4431SOL    HW114192   3.393   0.282   4.357
 4431SOL    HW214193   3.540   0.229   4.402
 4432SOL     OW14194   1.273   3.843   6.379
 4432SOL    HW114195   1.228   3.806   6.297
 4432SOL    HW214196   1.246   3.938   6.393
 4433SOL     OW14197   1.018   0.780   4.957
 4433SOL    HW114198   0.929   0.771   4.912
 4433SOL    HW214199   1.058   0.869   4.935
 4434SOL     OW14200   6.911   0.685   1.910
 4434SOL    HW114201   6.862   0.675   1.997
 4434SOL    HW214202   6.913   0.781   1.884
 4435SOL     OW14203   2.530   3.773   0.348
 4435SOL    HW114204   2.515   3.758   0.250
 4435SOL    HW214205   2.447   3.751   0.399
 4436SOL     OW14206   4.579   1.466   1.703
 4436SOL    HW114207   4.640   1.534   1.661
 4436SOL    HW214208   4.506   1.513   1.752
 4437SOL     OW14209   0.020   3.808   1.261
 4437SOL    HW114210   0.101   3.837   1.211
 4437SOL    HW214211   7.023   3.875   1.332
 4438SOL     OW14212   4.007   0.111   6.304
 4438SOL    HW114213   4.029   0.208   6.315
 4438SOL    HW214214   3.940   0.101   6.231
 4439SOL     OW14215   2.046   6.223   1.992
 4439SOL    HW114216   1.960   6.274   1.998
 4439SOL    HW214217   2.116   6.281   1.952
 4440SOL     OW14218   1.392   4.934   0.036
 4440SOL    HW114219   1.323   5.001   0.061
 4440SOL    HW214220   1.453   4.974   6.993
 4441SOL     OW14221   0.310   1.024   0.367
 4441SOL    HW114222   0.222   1.026   0.414
 4441SOL    HW214223   0.368   0.952   0.406
 4442SOL     OW14224   2.175   4.364   6.579
 4442SOL    HW114225   2.253   4.302   6.587
 4442SOL    HW214226   2.099   4.315   6.536
 4443SOL     OW14227   0.115   5.375   6.050
 4443SOL    HW114228   0.215   5.378   6.040
 4443SOL    HW214229   0.076   5.461   6.016
 4444SOL     OW14230   5.126   3.939   6.966
 4444SOL    HW114231   5.083   3.994   6.894
 4444SOL    HW214232   5.086   3.962   0.030
 4445SOL     OW14233   0.008   5.832   0.446
 4445SOL    HW114234   0.014   5.859   0.350
 4445SOL    HW214235   6.982   5.746   0.453
 4446SOL     OW14236   5.152   0.860   1.239
 4446SOL    HW114237   5.185   0.932   1.299
 4446SOL    HW214238   5.052   0.865   1.233
 4447SOL     OW14239   5.148   5.039   5.515
 4447SOL    HW114240   5.158   4.939   5.519
 4447SOL    HW214241   5.195   5.080   5.593
 4448SOL     OW14242   3.642   6.622   2.033
 4448SOL    HW114243   3.551   6.636   2.072
 4448SOL    HW214244   3.703   6.587   2.105
 4449SOL     OW14245   3.534   1.092   5.574
 4449SOL    HW114246   3.468   1.165   5.588
 4449SOL    HW214247   3.607   1.100   5.642
 4450SOL     OW14248   3.687   6.983   0.093
 4450SOL    HW114249   3.720   0.034   0.151
 4450SOL    HW214250   3.588   6.989   0.084
 4451SOL     OW14251   4.726   4.258   3.223
 4451SOL    HW114252   4.722   4.211   3.134
 4451SOL    HW214253   4.809   4.229   3.271
 4452SOL     OW14254   4.831   5.819   4.642
 4452SOL    HW114255   4.853   5.903   4.691
 4452SOL    HW214256   4.902   5.800   4.574
 4453SOL     OW14257   0.159   3.605   1.035
 4453SOL    HW114258   0.236   3.576   0.978
 4453SOL    HW214259   0.160   3.704   1.045
 4454SOL     OW14260   1.006   2.618   0.002
 4454SOL    HW114261   1.023   2.697   0.060
 4454SOL    HW214262   0.909   2.594   0.006
 4455SOL     OW14263   0.450   6.324   5.196
 4455SOL    HW114264   0.510   6.260   5.243
 4455SOL    HW214265   0.389   6.367   5.262
 4456SOL     OW14266   2.059   6.980   4.914
 4456SOL    HW114267   2.003   0.009   4.851
 4456SOL    HW214268   2.151   7.017   4.918
 4457SOL     OW14269   0.674   2.254   4.817
 4457SOL    HW114270   0.698   2.201   4.898
 4457SOL    HW214271   0.657   2.349   4.843
 4458SOL     OW14272   1.910   3.353   0.427
 4458SOL    HW114273   1.943   3.413   0.354
 4458SOL    HW214274   1.951   3.263   0.416
 4459SOL     OW14275   1.077   2.305   3.390
 4459SOL    HW114276   1.033   2.392   3.413
 4459SOL    HW214277   1.143   2.320   3.317
 4460SOL     OW14278   6.636   3.483   4.060
 4460SOL    HW114279   6.546   3.446   4.039
 4460SOL    HW214280   6.652   3.481   4.159
 4461SOL     OW14281   2.760   0.866   1.437
 4461SOL    HW114282   2.770   0.829   1.345
 4461SOL    HW214283   2.836   0.929   1.456
 4462SOL     OW14284   6.433   4.525   2.826
 4462SOL    HW114285   6.474   4.469   2.898
 4462SOL    HW214286   6.385   4.602   2.866
 4463SOL     OW14287   5.894   1.865   0.484
 4463SOL    HW114288   5.926   1.816   0.403
 4463SOL    HW214289   5.929   1.820   0.566
 4464SOL     OW14290   0.393   5.669   0.447
 4464SOL    HW114291   0.428   5.763   0.448
 4464SOL    HW214292   0.451   5.612   0.390
 4465SOL     OW14293   2.591   5.998   1.180
 4465SOL    HW114294   2.500   6.021   1.212
 4465SOL    HW214295   2.642   5.953   1.253
 4466SOL     OW14296   1.788   1.667   3.330
 4466SOL    HW114297   1.728   1.746   3.341
 4466SOL    HW214298   1.884   1.696   3.340
 4467SOL     OW14299   3.955   5.964   2.901
 4467SOL    HW114300   4.019   6.032   2.865
 4467SOL    HW214301   3.876   6.010   2.941
 4468SOL     OW14302   1.467   3.063   1.489
 4468SOL    HW114303   1.512   3.144   1.451
 4468SOL    HW214304   1.461   3.072   1.588
 4469SOL     OW14305   3.250   6.192   0.835
 4469SOL    HW114306   3.166   6.229   0.795
 4469SOL    HW214307   3.323   6.194   0.767
 4470SOL     OW14308   1.283   0.381   2.492
 4470SOL    HW114309   1.379   0.398   2.471
 4470SOL    HW214310   1.235   0.355   2.408
 4471SOL     OW14311   1.331   1.339   6.172
 4471SOL    HW114312   1.402   1.344   6.242
 4471SOL    HW214313   1.370   1.300   6.088
 4472SOL     OW14314   1.610   2.405   0.561
 4472SOL    HW114315   1.528   2.383   0.508
 4472SOL    HW214316   1.585   2.437   0.652
 4473SOL     OW14317   0.000   3.436   4.439
 4473SOL    HW114318   0.042   3.525   4.420
 4473SOL    HW214319   0.018   3.374   4.363
 4474SOL     OW14320   2.979   6.059   0.933
 4474SOL    HW114321   2.997   6.094   0.841
 4474SOL    HW214322   2.916   6.120   0.981
 4475SOL     OW14323   1.144   3.544   1.529
 4475SOL    HW114324   1.159   3.637   1.496
 4475SOL    HW214325   1.079   3.497   1.469
 4476SOL     OW14326   4.904   1.269   3.828
 4476SOL    HW114327   4.851   1.185   3.819
 4476SOL    HW214328   4.847   1.340   3.870
 4477SOL     OW14329   1.572   0.524   5.567
 4477SOL    HW114330   1.662   0.518   5.523
 4477SOL    HW214331   1.531   0.432   5.573
 4478SOL     OW14332   1.568   0.130   0.552
 4478SOL    HW114333   1.560   0.035   0.522
 4478SOL    HW214334   1.476   0.171   0.557
 4479SOL     OW14335   1.816   2.913   0.494
 4479SOL    HW114336   1.741   2.952   0.547
 4479SOL    HW214337   1.797   2.817   0.474
 4480SOL     OW14338   0.833   5.495   4.138
 4480SOL    HW114339   0.869   5.426   4.201
 4480SOL    HW214340   0.898   5.570   4.129
 4481SOL     OW14341   2.420   3.748   6.229
 4481SOL    HW114342   2.397   3.835   6.273
 4481SOL    HW214343   2.357   3.732   6.152
 4482SOL     OW14344   2.938   5.803   6.848
 4482SOL    HW114345   2.984   5.715   6.860
 4482SOL    HW214346   3.004   5.877   6.859
 4483SOL     OW14347   0.695   3.059   1.439
 4483SOL    HW114348   0.785   3.082   1.402
 4483SOL    HW214349   0.679   3.110   1.523
 4484SOL     OW14350   2.491   2.568   6.975
 4484SOL    HW114351   2.562   2.595   6.910
 4484SOL    HW214352   2.524   2.581   0.043
 4485SOL     OW14353   5.479   2.755   5.125
 4485SOL    HW114354   5.421   2.771   5.205
 4485SOL    HW214355   5.462   2.663   5.090
 4486SOL     OW14356   4.752   5.142   5.540
 4486SOL    HW114357   4.700   5.063   5.573
 4486SOL    HW214358   4.842   5.112   5.509
 4487SOL     OW14359   1.393   2.927   0.254
 4487SOL    HW114360   1.315   2.989   0.241
 4487SOL    HW214361   1.436   2.910   0.165
 4488SOL     OW14362   6.832   3.760   4.349
 4488SOL    HW114363   6.875   3.709   4.274
 4488SOL    HW214364   6.901   3.786   4.416
 4489SOL     OW14365   4.639   5.382   5.895
 4489SOL    HW114366   4.675   5.303   5.945
 4489SOL    HW214367   4.646   5.366   5.797
 4490SOL     OW14368   5.099   1.444   1.050
 4490SOL    HW114369   5.033   1.430   1.124
 4490SOL    HW214370   5.095   1.538   1.019
 4491SOL     OW14371   1.034   2.900   3.073
 4491SOL    HW114372   0.951   2.898   3.017
 4491SOL    HW214373   1.055   2.808   3.105
 4492SOL     OW14374   5.941   0.759   1.704
 4492SOL    HW114375   5.971   0.663   1.700
 4492SOL    HW214376   5.906   0.779   1.796
 4493SOL     OW14377   4.702   1.577   4.618
 4493SOL    HW114378   4.759   1.520   4.677
 4493SOL    HW214379   4.606   1.553   4.631
 4494SOL     OW14380   1.158   0.073   1.006
 4494SOL    HW114381   1.162   0.158   1.058
 4494SOL    HW214382   1.191   0.089   0.913
 4495SOL     OW14383   4.638   5.259   1.670
 4495SOL    HW114384   4.544   5.226   1.677
 4495SOL    HW214385   4.654   5.298   1.580
 4496SOL     OW14386   3.523   6.093   6.366
 4496SOL    HW114387   3.557   5.999   6.366
 4496SOL    HW214388   3.488   6.117   6.275
 4497SOL     OW14389   3.992   1.706   6.478
 4497SOL    HW114390   3.953   1.798   6.486
 4497SOL    HW214391   4.089   1.713   6.451
 4498SOL     OW14392   1.662   5.630   5.651
 4498SOL    HW114393   1.642   5.695   5.724
 4498SOL    HW214394   1.581   5.616   5.595
 4499SOL     OW14395   5.980   2.228   2.010
 4499SOL    HW114396   5.889   2.192   2.032
 4499SOL    HW214397   6.047   2.187   2.072
 4500SOL     OW14398   3.660   5.928   6.879
 4500SOL    HW114399   3.630   5.833   6.875
 4500SOL    HW214400   3.587   5.988   6.846
 4501SOL     OW14401   5.234   0.783   2.769
 4501SOL    HW114402   5.254   0.686   2.786
 4501SOL    HW214403   5.217   0.829   2.856
 4502SOL     OW14404   0.622   4.023   6.641
 4502SOL    HW114405   0.553   4.047   6.709
 4502SOL    HW214406   0.612   3.926   6.616
 4503SOL     OW14407   2.498   0.422   2.575
 4503SOL    HW114408   2.503   0.493   2.505
 4503SOL    HW214409   2.583   0.368   2.574
 4504SOL     OW14410   0.668   2.361   2.848
 4504SOL    HW114411   0.675   2.269   2.808
 4504SOL    HW214412   0.610   2.358   2.929
 4505SOL     OW14413   6.117   4.375   4.072
 4505SOL    HW114414   6.126   4.336   4.164
 4505SOL    HW214415   6.175   4.457   4.066
 4506SOL     OW14416   4.747   2.859   4.781
 4506SOL    HW114417   4.648   2.846   4.775
 4506SOL    HW214418   4.791   2.769   4.789
 4507SOL     OW14419   6.273   2.476   3.169
 4507SOL    HW114420   6.316   2.398   3.124
 4507SOL    HW214421   6.184   2.448   3.206
 4508SOL     OW14422   0.451   5.101   0.790
 4508SOL    HW114423   0.477   5.071   0.882
 4508SOL    HW214424   0.478   5.197   0.778
 4509SOL     OW14425   4.807   2.886   2.245
 4509SOL    HW114426   4.889   2.848   2.202
 4509SOL    HW214427   4.760   2.946   2.181
 4510SOL     OW14428   4.074   1.816   4.434
 4510SOL    HW114429   4.150   1.776   4.381
 4510SOL    HW214430   4.110   1.854   4.519
 4511SOL     OW14431   0.638   4.138   0.840
 4511SOL    HW114432   0.734   4.140   0.811
 4511SOL    HW214433   0.586   4.204   0.786
 4512SOL     OW14434   3.130   2.913   5.707
 4512SOL    HW114435   3.209   2.868   5.664
 4512SOL    HW214436   3.162   2.986   5.767
 4513SOL     OW14437   1.122   6.293   0.205
 4513SOL    HW114438   1.197   6.357   0.186
 4513SOL    HW214439   1.154   6.223   0.269
 4514SOL     OW14440   3.096   4.459   6.849
 4514SOL    HW114441   3.083   4.400   6.769
 4514SOL    HW214442   3.163   4.417   6.911
 4515SOL     OW14443   4.704   0.799   6.105
 4515SOL    HW114444   4.667   0.861   6.035
 4515SOL    HW214445   4.720   0.849   6.190
 4516SOL     OW14446   3.561   2.081   4.780
 4516SOL    HW114447   3.583   1.997   4.830
 4516SOL    HW214448   3.484   2.126   4.824
 4517SOL     OW14449   3.875   0.601   5.425
 4517SOL    HW114450   3.828   0.556   5.349
 4517SOL    HW214451   3.813   0.666   5.469
 4518SOL     OW14452   1.656   0.098   1.099
 4518SOL    HW114453   1.712   0.158   1.157
 4518SOL    HW214454   1.705   0.012   1.083
 4519SOL     OW14455   5.011   6.622   6.863
 4519SOL    HW114456   5.078   6.553   6.890
 4519SOL    HW214457   4.950   6.641   6.941
 4520SOL     OW14458   4.569   6.018   4.892
 4520SOL    HW114459   4.632   6.026   4.815
 4520SOL    HW214460   4.487   5.969   4.863
 4521SOL     OW14461   4.247   2.324   4.526
 4521SOL    HW114462   4.222   2.421   4.519
 4521SOL    HW214463   4.333   2.309   4.477
 4522SOL     OW14464   5.205   4.213   3.331
 4522SOL    HW114465   5.224   4.246   3.424
 4522SOL    HW214466   5.245   4.122   3.319
 4523SOL     OW14467   0.288   3.407   5.590
 4523SOL    HW114468   0.358   3.368   5.649
 4523SOL    HW214469   0.257   3.494   5.628
 4524SOL     OW14470   0.853   3.278   2.805
 4524SOL    HW114471   0.873   3.375   2.790
 4524SOL    HW214472   0.936   3.232   2.838
 4525SOL     OW14473   2.933   1.851   4.870
 4525SOL    HW114474   2.911   1.946   4.893
 4525SOL    HW214475   2.860   1.813   4.813
 4526SOL     OW14476   0.591   0.203   5.634
 4526SOL    HW114477   0.625   0.124   5.582
 4526SOL    HW214478   0.642   0.211   5.719
 4527SOL     OW14479   6.669   0.846   2.851
 4527SOL    HW114480   6.628   0.806   2.769
 4527SOL    HW214481   6.769   0.846   2.841
 4528SOL     OW14482   4.146   1.116   4.998
 4528SOL    HW114483   4.104   1.150   4.914
 4528SOL    HW214484   4.090   1.042   5.036
 4529SOL     OW14485   2.105   0.996   4.442
 4529SOL    HW114486   2.070   1.076   4.393
 4529SOL    HW214487   2.199   0.978   4.413
 4530SOL     OW14488   3.347   5.256   5.945
 4530SOL    HW114489   3.355   5.295   6.037
 4530SOL    HW214490   3.270   5.298   5.897
 4531SOL     OW14491   1.162   5.348   6.089
 4531SOL    HW114492   1.243   5.404   6.111
 4531SOL    HW214493   1.106   5.395   6.021
 4532SOL     OW14494   6.108   0.720   2.466
 4532SOL    HW114495   6.157   0.733   2.552
 4532SOL    HW214496   6.016   0.756   2.474
 4533SOL     OW14497   2.837   0.367   2.217
 4533SOL    HW114498   2.911   0.346   2.153
 4533SOL    HW214499   2.755   0.393   2.166
 4534SOL     OW14500   4.484   1.615   3.755
 4534SOL    HW114501   4.465   1.696   3.810
 4534SOL    HW214502   4.561   1.633   3.694
 4535SOL     OW14503   2.768   1.059   1.166
 4535SOL    HW114504   2.859   1.072   1.128
 4535SOL    HW214505   2.720   1.147   1.169
 4536SOL     OW14506   2.922   0.844   5.706
 4536SOL    HW114507   2.926   0.838   5.806
 4536SOL    HW214508   2.872   0.926   5.679
 4537SOL     OW14509   3.286   2.975   3.656
 4537SOL    HW114510   3.193   3.011   3.642
 4537SOL    HW214511   3.324   2.946   3.568
 4538SOL     OW14512   0.151   1.920   0.835
 4538SOL    HW114513   0.248   1.944   0.840
 4538SOL    HW214514   0.096   2.003   0.828
 4539SOL     OW14515   1.933   6.346   5.358
 4539SOL    HW114516   1.912   6.355   5.261
 4539SOL    HW214517   1.851   6.365   5.412
 4540SOL     OW14518   0.364   0.811   0.106
 4540SOL    HW114519   0.365   0.757   0.190
 4540SOL    HW214520   0.423   0.769   0.038
 4541SOL     OW14521   4.421   2.893   5.973
 4541SOL    HW114522   4.418   2.862   6.068
 4541SOL    HW214523   4.464   2.823   5.916
 4542SOL     OW14524   6.509   2.327   0.849
 4542SOL    HW114525   6.503   2.241   0.899
 4542SOL    HW214526   6.421   2.346   0.804
 4543SOL     OW14527   3.350   2.262   0.234
 4543SOL    HW114528   3.363   2.192   0.304
 4543SOL    HW214529   3.410   2.340   0.253
 4544SOL     OW14530   5.556   6.446   0.516
 4544SOL    HW114531   5.489   6.436   0.443
 4544SOL    HW214532   5.551   6.367   0.577
 4545SOL     OW14533   2.229   3.034   4.788
 4545SOL    HW114534   2.256   3.082   4.871
 4545SOL    HW214535   2.288   2.954   4.776
 4546SOL     OW14536   3.094   1.655   6.397
 4546SOL    HW114537   3.118   1.565   6.359
 4546SOL    HW214538   3.048   1.643   6.484
 4547SOL     OW14539   6.636   0.494   6.780
 4547SOL    HW114540   6.688   0.503   6.865
 4547SOL    HW214541   6.544   0.530   6.793
 4548SOL     OW14542   2.407   2.466   2.299
 4548SOL    HW114543   2.314   2.447   2.266
 4548SOL    HW214544   2.473   2.449   2.226
 4549SOL     OW14545   6.144   3.848   4.420
 4549SOL    HW114546   6.133   3.763   4.470
 4549SOL    HW214547   6.226   3.843   4.363
 4550SOL     OW14548   1.492   4.736   3.233
 4550SOL    HW114549   1.580   4.763   3.194
 4550SOL    HW214550   1.423   4.736   3.161
 4551SOL     OW14551   1.244   3.007   4.627
 4551SOL    HW114552   1.171   3.008   4.696
 4551SOL    HW214553   1.329   3.038   4.668
 4552SOL     OW14554   5.725   1.254   1.073
 4552SOL    HW114555   5.779   1.171   1.084
 4552SOL    HW214556   5.629   1.234   1.091
 4553SOL     OW14557   6.701   5.439   6.458
 4553SOL    HW114558   6.665   5.393   6.377
 4553SOL    HW214559   6.799   5.418   6.466
 4554SOL     OW14560   6.676   6.196   3.024
 4554SOL    HW114561   6.655   6.129   2.952
 4554SOL    HW214562   6.775   6.209   3.029
 4555SOL     OW14563   1.627   0.924   6.879
 4555SOL    HW114564   1.611   0.870   6.961
 4555SOL    HW214565   1.539   0.949   6.838
 4556SOL     OW14566   6.005   4.743   5.430
 4556SOL    HW114567   5.940   4.815   5.406
 4556SOL    HW214568   6.061   4.773   5.507
 4557SOL     OW14569   6.861   4.533   2.939
 4557SOL    HW114570   6.807   4.609   2.902
 4557SOL    HW214571   6.812   4.447   2.923
 4558SOL     OW14572   0.698   3.110   5.551
 4558SOL    HW114573   0.656   3.129   5.462
 4558SOL    HW214574   0.773   3.044   5.539
 4559SOL     OW14575   7.015   2.594   2.428
 4559SOL    HW114576   0.063   2.662   2.424
 4559SOL    HW214577   6.962   2.606   2.512
 4560SOL     OW14578   6.183   4.377   2.784
 4560SOL    HW114579   6.165   4.345   2.877
 4560SOL    HW214580   6.280   4.398   2.774
 4561SOL     OW14581   3.906   1.985   4.085
 4561SOL    HW114582   3.847   1.924   4.138
 4561SOL    HW214583   3.885   1.975   3.987
 4562SOL     OW14584   3.107   1.095   1.250
 4562SOL    HW114585   3.053   1.073   1.332
 4562SOL    HW214586   3.061   1.057   1.169
 4563SOL     OW14587   1.167   3.840   1.859
 4563SOL    HW114588   1.111   3.778   1.915
 4563SOL    HW214589   1.162   3.932   1.896
 4564SOL     OW14590   1.167   3.689   2.464
 4564SOL    HW114591   1.167   3.752   2.387
 4564SOL    HW214592   1.085   3.633   2.462
 4565SOL     OW14593   2.392   5.809   6.413
 4565SOL    HW114594   2.384   5.908   6.425
 4565SOL    HW214595   2.308   5.765   6.443
 4566SOL     OW14596   6.074   4.770   2.241
 4566SOL    HW114597   6.016   4.760   2.321
 4566SOL    HW214598   6.121   4.858   2.245
 4567SOL     OW14599   0.525   0.637   6.705
 4567SOL    HW114600   0.560   0.704   6.639
 4567SOL    HW214601   0.539   0.671   6.798
 4568SOL     OW14602   1.357   5.734   3.542
 4568SOL    HW114603   1.384   5.738   3.638
 4568SOL    HW214604   1.360   5.639   3.510
 4569SOL     OW14605   2.205   0.809   3.466
 4569SOL    HW114606   2.119   0.858   3.451
 4569SOL    HW214607   2.281   0.864   3.432
 4570SOL     OW14608   5.372   5.701   2.225
 4570SOL    HW114609   5.383   5.756   2.142
 4570SOL    HW214610   5.370   5.604   2.201
 4571SOL     OW14611   2.988   3.276   6.585
 4571SOL    HW114612   3.032   3.343   6.525
 4571SOL    HW214613   3.015   3.184   6.557
 4572SOL     OW14614   2.904   3.238   1.828
 4572SOL    HW114615   2.815   3.236   1.781
 4572SOL    HW214616   2.973   3.195   1.769
 4573SOL     OW14617   2.088   5.466   1.526
 4573SOL    HW114618   2.160   5.511   1.473
 4573SOL    HW214619   2.040   5.399   1.468
 4574SOL     OW14620   5.235   1.418   1.286
 4574SOL    HW114621   5.219   1.436   1.189
 4574SOL    HW214622   5.328   1.445   1.311
 4575SOL     OW14623   0.091   6.592   4.759
 4575SOL    HW114624   0.015   6.539   4.723
 4575SOL    HW214625   0.161   6.602   4.688
 4576SOL     OW14626   2.709   4.917   4.957
 4576SOL    HW114627   2.737   4.897   4.862
 4576SOL    HW214628   2.656   4.840   4.992
 4577SOL     OW14629   1.573   1.752   2.245
 4577SOL    HW114630   1.567   1.657   2.275
 4577SOL    HW214631   1.507   1.768   2.172
 4578SOL     OW14632   1.501   1.184   2.166
 4578SOL    HW114633   1.415   1.133   2.162
 4578SOL    HW214634   1.509   1.243   2.086
 4579SOL     OW14635   3.958   1.542   2.418
 4579SOL    HW114636   3.864   1.565   2.391
 4579SOL    HW214637   4.017   1.621   2.404
 4580SOL     OW14638   0.032   2.622   0.237
 4580SOL    HW114639   6.972   2.673   0.221
 4580SOL    HW214640   0.102   2.685   0.272
 4581SOL     OW14641   3.402   0.446   1.278
 4581SOL    HW114642   3.484   0.491   1.314
 4581SOL    HW214643   3.407   0.348   1.298
 4582SOL     OW14644   6.026   1.315   3.843
 4582SOL    HW114645   6.100   1.382   3.850
 4582SOL    HW214646   5.999   1.304   3.747
 4583SOL     OW14647   1.246   0.096   6.757
 4583SOL    HW114648   1.245   0.196   6.765
 4583SOL    HW214649   1.311   0.069   6.686
 4584SOL     OW14650   1.482   0.468   4.964
 4584SOL    HW114651   1.466   0.390   5.025
 4584SOL    HW214652   1.403   0.480   4.904
 4585SOL     OW14653   1.693   3.527   3.386
 4585SOL    HW114654   1.708   3.623   3.363
 4585SOL    HW214655   1.642   3.483   3.313
 4586SOL     OW14656   5.322   4.619   6.539
 4586SOL    HW114657   5.280   4.658   6.458
 4586SOL    HW214658   5.386   4.685   6.579
 4587SOL     OW14659   2.886   3.553   4.697
 4587SOL    HW114660   2.816   3.484   4.717
 4587SOL    HW214661   2.869   3.634   4.753
 4588SOL     OW14662   3.188   3.788   5.967
 4588SOL    HW114663   3.105   3.744   5.931
 4588SOL    HW214664   3.263   3.723   5.962
 4589SOL     OW14665   5.868   0.333   2.505
 4589SOL    HW114666   5.927   0.414   2.500
 4589SOL    HW214667   5.919   0.253   2.472
 4590SOL     OW14668   3.642   5.847   1.192
 4590SOL    HW114669   3.715   5.884   1.133
 4590SOL    HW214670   3.553   5.873   1.155
 4591SOL     OW14671   1.820   0.556   5.481
 4591SOL    HW114672   1.830   0.647   5.521
 4591SOL    HW214673   1.906   0.505   5.494
 4592SOL     OW14674   1.952   1.603   3.625
 4592SOL    HW114675   1.925   1.507   3.635
 4592SOL    HW214676   1.970   1.641   3.716
 4593SOL     OW14677   1.865   5.943   4.463
 4593SOL    HW114678   1.853   5.896   4.375
 4593SOL    HW214679   1.816   6.030   4.461
 4594SOL     OW14680   1.887   0.428   2.866
 4594SOL    HW114681   1.857   0.337   2.897
 4594SOL    HW214682   1.843   0.498   2.923
 4595SOL     OW14683   5.103   2.236   6.323
 4595SOL    HW114684   5.153   2.312   6.280
 4595SOL    HW214685   5.169   2.171   6.361
 4596SOL     OW14686   0.413   0.870   2.425
 4596SOL    HW114687   0.337   0.805   2.421
 4596SOL    HW214688   0.474   0.855   2.348
 4597SOL     OW14689   2.706   6.490   6.964
 4597SOL    HW114690   2.665   6.490   6.873
 4597SOL    HW214691   2.795   6.536   6.960
 4598SOL     OW14692   1.829   5.038   0.291
 4598SOL    HW114693   1.852   5.067   0.384
 4598SOL    HW214694   1.886   4.961   0.264
 4599SOL     OW14695   2.467   5.496   2.683
 4599SOL    HW114696   2.539   5.517   2.617
 4599SOL    HW214697   2.390   5.453   2.637
 4600SOL     OW14698   0.137   6.927   5.902
 4600SOL    HW114699   0.053   6.980   5.913
 4600SOL    HW214700   0.122   6.834   5.936
 4601SOL     OW14701   1.765   1.371   4.758
 4601SOL    HW114702   1.843   1.322   4.720
 4601SOL    HW214703   1.738   1.329   4.844
 4602SOL     OW14704   2.864   2.255   6.554
 4602SOL    HW114705   2.861   2.284   6.649
 4602SOL    HW214706   2.916   2.170   6.546
 4603SOL     OW14707   5.104   6.981   0.904
 4603SOL    HW114708   5.121   0.051   0.880
 4603SOL    HW214709   5.006   6.961   0.897
 4604SOL     OW14710   5.726   0.076   5.746
 4604SOL    HW114711   5.744   0.173   5.736
 4604SOL    HW214712   5.702   0.036   5.658
 4605SOL     OW14713   3.672   0.330   2.113
 4605SOL    HW114714   3.769   0.314   2.132
 4605SOL    HW214715   3.660   0.347   2.015
 4606SOL     OW14716   0.015   6.609   4.401
 4606SOL    HW114717   0.053   6.535   4.345
 4606SOL    HW214718   6.992   6.570   4.480
 4607SOL     OW14719   2.168   2.518   1.181
 4607SOL    HW114720   2.141   2.428   1.147
 4607SOL    HW214721   2.087   2.565   1.216
 4608SOL     OW14722   6.493   3.234   4.227
 4608SOL    HW114723   6.441   3.271   4.303
 4608SOL    HW214724   6.473   3.286   4.144
 4609SOL     OW14725   4.263   6.251   0.008
 4609SOL    HW114726   4.170   6.284   0.021
 4609SOL    HW214727   4.321   6.283   0.083
 4610SOL     OW14728   5.107   3.316   0.121
 4610SOL    HW114729   5.085   3.334   0.217
 4610SOL    HW214730   5.204   3.294   0.112
 4611SOL     OW14731   1.199   0.885   6.240
 4611SOL    HW114732   1.180   0.788   6.227
 4611SOL    HW214733   1.160   0.916   6.327
 4612SOL     OW14734   2.299   0.409   1.401
 4612SOL    HW114735   2.217   0.399   1.344
 4612SOL    HW214736   2.356   0.482   1.364
 4613SOL     OW14737   1.797   4.678   1.447
 4613SOL    HW114738   1.788   4.698   1.544
 4613SOL    HW214739   1.767   4.584   1.429
 4614SOL     OW14740   6.329   4.069   4.566
 4614SOL    HW114741   6.252   4.099   4.510
 4614SOL    HW214742   6.296   4.030   4.651
 4615SOL     OW14743   1.103   2.262   0.207
 4615SOL    HW114744   1.160   2.344   0.203
 4615SOL    HW214745   1.154   2.189   0.253
 4616SOL     OW14746   6.591   2.899   5.759
 4616SOL    HW114747   6.682   2.930   5.732
 4616SOL    HW214748   6.523   2.965   5.729
 4617SOL     OW14749   0.171   3.003   3.056
 4617SOL    HW114750   0.199   2.939   2.983
 4617SOL    HW214751   0.250   3.059   3.082
 4618SOL     OW14752   1.915   4.869   5.607
 4618SOL    HW114753   1.860   4.840   5.529
 4618SOL    HW214754   1.971   4.792   5.639
 4619SOL     OW14755   4.041   6.348   5.456
 4619SOL    HW114756   4.101   6.273   5.484
 4619SOL    HW214757   4.095   6.418   5.409
 4620SOL     OW14758   0.192   4.999   2.341
 4620SOL    HW114759   0.094   5.021   2.350
 4620SOL    HW214760   0.220   5.011   2.246
 4621SOL     OW14761   4.326   0.698   2.976
 4621SOL    HW114762   4.283   0.713   3.065
 4621SOL    HW214763   4.394   0.625   2.983
 4622SOL     OW14764   5.085   5.794   1.941
 4622SOL    HW114765   5.077   5.717   2.005
 4622SOL    HW214766   5.038   5.873   1.979
 4623SOL     OW14767   2.903   4.910   1.263
 4623SOL    HW114768   2.887   4.877   1.356
 4623SOL    HW214769   2.841   4.986   1.243
 4624SOL     OW14770   4.515   0.941   2.131
 4624SOL    HW114771   4.457   0.862   2.108
 4624SOL    HW214772   4.461   1.007   2.184
 4625SOL     OW14773   1.233   6.044   1.201
 4625SOL    HW114774   1.261   6.093   1.119
 4625SOL    HW214775   1.199   5.954   1.176
 4626SOL     OW14776   4.051   3.883   1.925
 4626SOL    HW114777   4.141   3.878   1.883
 4626SOL    HW214778   4.053   3.948   2.001
 4627SOL     OW14779   5.987   6.697   5.004
 4627SOL    HW114780   5.897   6.686   4.963
 4627SOL    HW214781   6.057   6.676   4.936
 4628SOL     OW14782   5.312   5.109   4.281
 4628SOL    HW114783   5.275   5.109   4.374
 4628SOL    HW214784   5.278   5.028   4.232
 4629SOL     OW14785   2.073   6.020   6.352
 4629SOL    HW114786   2.092   5.922   6.367
 4629SOL    HW214787   1.990   6.046   6.402
 4630SOL     OW14788   1.701   3.418   2.233
 4630SOL    HW114789   1.697   3.440   2.136
 4630SOL    HW214790   1.773   3.350   2.249
 4631SOL     OW14791   7.012   0.985   3.508
 4631SOL    HW114792   6.917   0.991   3.537
 4631SOL    HW214793   0.046   0.981   3.589
 4632SOL     OW14794   3.230   4.907   2.407
 4632SOL    HW114795   3.144   4.903   2.458
 4632SOL    HW214796   3.305   4.883   2.468
 4633SOL     OW14797   5.297   1.051   4.513
 4633SOL    HW114798   5.339   1.137   4.486
 4633SOL    HW214799   5.198   1.058   4.504
 4634SOL     OW14800   2.878   3.751   4.884
 4634SOL    HW114801   2.900   3.845   4.910
 4634SOL    HW214802   2.852   3.699   4.966
 4635SOL     OW14803   4.998   6.540   1.155
 4635SOL    HW114804   5.069   6.602   1.188
 4635SOL    HW214805   4.911   6.563   1.200
 4636SOL     OW14806   2.348   5.322   0.519
 4636SOL    HW114807   2.323   5.232   0.483
 4636SOL    HW214808   2.446   5.325   0.536
 4637SOL     OW14809   2.646   1.242   2.689
 4637SOL    HW114810   2.581   1.240   2.613
 4637SOL    HW214811   2.597   1.242   2.776
 4638SOL     OW14812   3.299   4.827   0.182
 4638SOL    HW114813   3.397   4.811   0.173
 4638SOL    HW214814   3.271   4.897   0.115
 4639SOL     OW14815   2.675   2.176   0.990
 4639SOL    HW114816   2.643   2.247   1.054
 4639SOL    HW214817   2.739   2.116   1.037
 4640SOL     OW14818   6.680   2.759   6.694
 4640SOL    HW114819   6.741   2.821   6.744
 4640SOL    HW214820   6.611   2.723   6.756
 4641SOL     OW14821   1.056   5.639   4.097
 4641SOL    HW114822   1.129   5.707   4.090
 4641SOL    HW214823   1.079   5.560   4.042
 4642SOL     OW14824   0.164   1.314   3.803
 4642SOL    HW114825   0.105   1.391   3.824
 4642SOL    HW214826   0.224   1.295   3.881
 4643SOL     OW14827   0.232   1.928   0.518
 4643SOL    HW114828   0.190   1.844   0.485
 4643SOL    HW214829   0.231   1.929   0.618
 4644SOL     OW14830   1.451   0.963   0.481
 4644SOL    HW114831   1.506   1.043   0.503
 4644SOL    HW214832   1.354   0.988   0.480
 4645SOL     OW14833   0.907   1.739   3.947
 4645SOL    HW114834   0.984   1.797   3.972
 4645SOL    HW214835   0.821   1.791   3.957
 4646SOL     OW14836   2.085   4.937   3.765
 4646SOL    HW114837   1.996   4.917   3.807
 4646SOL    HW214838   2.095   5.036   3.756
 4647SOL     OW14839   1.386   6.339   2.236
 4647SOL    HW114840   1.414   6.315   2.143
 4647SOL    HW214841   1.449   6.408   2.273
 4648SOL     OW14842   2.909   1.602   4.556
 4648SOL    HW114843   2.873   1.691   4.584
 4648SOL    HW214844   2.890   1.587   4.459
 4649SOL     OW14845   6.052   0.660   0.112
 4649SOL    HW114846   5.953   0.648   0.114
 4649SOL    HW214847   6.091   0.640   0.202
 4650SOL     OW14848   5.409   6.183   1.416
 4650SOL    HW114849   5.420   6.113   1.345
 4650SOL    HW214850   5.493   6.189   1.471
 4651SOL     OW14851   6.442   3.396   6.453
 4651SOL    HW114852   6.401   3.475   6.498
 4651SOL    HW214853   6.537   3.416   6.429
 4652SOL     OW14854   0.296   6.607   4.604
 4652SOL    HW114855   0.373   6.568   4.656
 4652SOL    HW214856   0.321   6.614   4.508
 4653SOL     OW14857   5.601   5.669   0.591
 4653SOL    HW114858   5.559   5.598   0.533
 4653SOL    HW214859   5.563   5.662   0.683
 4654SOL     OW14860   0.249   6.754   5.088
 4654SOL    HW114861   0.199   6.669   5.106
 4654SOL    HW214862   0.326   6.735   5.028
 4655SOL     OW14863   4.429   2.300   1.364
 4655SOL    HW114864   4.343   2.347   1.350
 4655SOL    HW214865   4.432   2.217   1.308
 4656SOL     OW14866   0.833   1.103   2.192
 4656SOL    HW114867   0.858   1.196   2.167
 4656SOL    HW214868   0.739   1.084   2.162
 4657SOL     OW14869   5.051   0.113   2.058
 4657SOL    HW114870   5.024   0.017   2.063
 4657SOL    HW214871   5.126   0.124   1.994
 4658SOL     OW14872   1.732   2.617   5.756
 4658SOL    HW114873   1.764   2.597   5.663
 4658SOL    HW214874   1.654   2.679   5.752
 4659SOL     OW14875   2.983   4.719   0.614
 4659SOL    HW114876   2.906   4.670   0.572
 4659SOL    HW214877   2.987   4.698   0.711
 4660SOL     OW14878   1.498   6.129   4.522
 4660SOL    HW114879   1.417   6.145   4.466
 4660SOL    HW214880   1.494   6.037   4.561
 4661SOL     OW14881   1.064   2.735   5.562
 4661SOL    HW114882   1.150   2.727   5.511
 4661SOL    HW214883   1.049   2.830   5.588
 4662SOL     OW14884   2.980   6.384   5.257
 4662SOL    HW114885   2.940   6.463   5.304
 4662SOL    HW214886   2.916   6.350   5.189
 4663SOL     OW14887   1.363   6.771   6.982
 4663SOL    HW114888   1.453   6.775   6.937
 4663SOL    HW214889   1.326   6.863   6.988
 4664SOL     OW14890   6.794   6.477   0.147
 4664SOL    HW114891   6.719   6.539   0.170
 4664SOL    HW214892   6.767   6.383   0.168
 4665SOL     OW14893   2.101   0.125   4.658
 4665SOL    HW114894   2.168   0.099   4.588
 4665SOL    HW214895   2.062   0.214   4.635
 4666SOL     OW14896   2.278   2.099   5.035
 4666SOL    HW114897   2.236   2.181   5.074
 4666SOL    HW214898   2.225   2.068   4.957
 4667SOL     OW14899   6.473   3.983   1.305
 4667SOL    HW114900   6.520   3.908   1.258
 4667SOL    HW214901   6.475   3.966   1.404
 4668SOL     OW14902   4.267   2.205   3.935
 4668SOL    HW114903   4.355   2.214   3.982
 4668SOL    HW214904   4.275   2.239   3.841
 4669SOL     OW14905   5.528   6.991   6.421
 4669SOL    HW114906   5.536   6.896   6.393
 4669SOL    HW214907   5.517   0.024   6.340
 4670SOL     OW14908   0.705   2.735   0.773
 4670SOL    HW114909   0.689   2.820   0.824
 4670SOL    HW214910   0.630   2.671   0.791
 4671SOL     OW14911   0.796   3.880   0.966
 4671SOL    HW114912   0.747   3.821   0.902
 4671SOL    HW214913   0.735   3.909   1.039
 4672SOL     OW14914   2.672   3.646   6.303
 4672SOL    HW114915   2.578   3.661   6.275
 4672SOL    HW214916   2.714   3.576   6.244
 4673SOL     OW14917   5.939   0.708   6.862
 4673SOL    HW114918   5.972   0.788   6.812
 4673SOL    HW214919   5.967   0.714   6.957
 4674SOL     OW14920   1.479   2.149   0.960
 4674SOL    HW114921   1.570   2.129   0.997
 4674SOL    HW214922   1.433   2.063   0.936
 4675SOL     OW14923   2.052   6.090   6.693
 4675SOL    HW114924   2.118   6.018   6.675
 4675SOL    HW214925   1.969   6.074   6.639
 4676SOL     OW14926   0.391   5.959   4.125
 4676SOL    HW114927   0.484   5.942   4.159
 4676SOL    HW214928   0.327   5.955   4.201
 4677SOL     OW14929   4.469   0.346   6.580
 4677SOL    HW114930   4.537   0.310   6.517
 4677SOL    HW214931   4.455   0.280   6.655
 4678SOL     OW14932   1.881   4.472   6.957
 4678SOL    HW114933   1.954   4.407   6.938
 4678SOL    HW214934   1.809   4.427   7.010
 4679SOL     OW14935   3.259   1.057   6.139
 4679SOL    HW114936   3.168   1.057   6.098
 4679SOL    HW214937   3.314   0.984   6.098
 4680SOL     OW14938   1.745   4.766   0.655
 4680SOL    HW114939   1.683   4.706   0.704
 4680SOL    HW214940   1.805   4.711   0.597
 4681SOL     OW14941   0.450   5.567   5.216
 4681SOL    HW114942   0.542   5.530   5.217
 4681SOL    HW214943   0.396   5.521   5.145
 4682SOL     OW14944   4.125   6.640   0.793
 4682SOL    HW114945   4.201   6.575   0.796
 4682SOL    HW214946   4.117   6.685   0.882
 4683SOL     OW14947   6.340   4.492   3.442
 4683SOL    HW114948   6.271   4.544   3.491
 4683SOL    HW214949   6.351   4.402   3.484
 4684SOL     OW14950   1.475   1.109   4.522
 4684SOL    HW114951   1.434   1.018   4.518
 4684SOL    HW214952   1.460   1.156   4.434
 4685SOL     OW14953   5.307   5.024   4.822
 4685SOL    HW114954   5.332   4.983   4.735
 4685SOL    HW214955   5.386   5.024   4.883
 4686SOL     OW14956   4.060   6.134   0.245
 4686SOL    HW114957   4.070   6.193   0.165
 4686SOL    HW214958   3.967   6.142   0.282
 4687SOL     OW14959   6.121   6.221   4.761
 4687SOL    HW114960   6.090   6.184   4.848
 4687SOL    HW214961   6.079   6.170   4.686
 4688SOL     OW14962   0.680   2.321   6.501
 4688SOL    HW114963   0.705   2.277   6.415
 4688SOL    HW214964   0.622   2.260   6.554
 4689SOL     OW14965   1.385   6.060   4.976
 4689SOL    HW114966   1.394   6.140   4.916
 4689SOL    HW214967   1.429   5.981   4.931
 4690SOL     OW14968   1.284   2.066   6.740
 4690SOL    HW114969   1.246   1.992   6.684
 4690SOL    HW214970   1.227   2.148   6.729
 4691SOL     OW14971   2.472   5.696   0.816
 4691SOL    HW114972   2.517   5.737   0.737
 4691SOL    HW214973   2.489   5.752   0.897
 4692SOL     OW14974   0.049   5.281   3.268
 4692SOL    HW114975   0.110   5.282   3.189
 4692SOL    HW214976   0.063   5.198   3.321
 4693SOL     OW14977   0.403   1.095   3.396
 4693SOL    HW114978   0.353   1.176   3.428
 4693SOL    HW214979   0.460   1.061   3.471
 4694SOL     OW14980   1.537   2.199   6.165
 4694SOL    HW114981   1.583   2.232   6.247
 4694SOL    HW214982   1.518   2.101   6.175
 4695SOL     OW14983   3.707   3.222   1.972
 4695SOL    HW114984   3.619   3.202   2.015
 4695SOL    HW214985   3.750   3.298   2.019
 4696SOL     OW14986   0.327   3.167   6.624
 4696SOL    HW114987   0.260   3.191   6.694
 4696SOL    HW214988   0.280   3.155   6.537
 4697SOL     OW14989   0.842   5.099   0.100
 4697SOL    HW114990   0.803   5.185   0.134
 4697SOL    HW214991   0.824   5.091   0.002
 4698SOL     OW14992   5.806   3.319   0.869
 4698SOL    HW114993   5.877   3.384   0.897
 4698SOL    HW214994   5.848   3.240   0.824
 4699SOL     OW14995   0.021   0.157   2.888
 4699SOL    HW114996   0.078   0.079   2.861
 4699SOL    HW214997   6.973   0.126   2.948
 4700SOL     OW14998   4.872   1.140   1.163
 4700SOL    HW114999   4.794   1.196   1.134
 4700SOL    HW215000   4.938   1.132   1.089
 4701SOL     OW15001   0.635   1.090   0.911
 4701SOL    HW115002   0.649   0.994   0.933
 4701SOL    HW215003   0.557   1.125   0.962
 4702SOL     OW15004   3.415   3.972   0.485
 4702SOL    HW115005   3.497   4.007   0.530
 4702SOL    HW215006   3.365   4.047   0.442
 4703SOL     OW15007   2.099   0.542   1.813
 4703SOL    HW115008   2.120   0.457   1.764
 4703SOL    HW215009   2.001   0.559   1.809
 4704SOL     OW15010   5.357   6.413   0.889
 4704SOL    HW115011   5.300   6.487   0.855
 4704SOL    HW215012   5.453   6.439   0.882
 4705SOL     OW15013   2.987   3.889   4.197
 4705SOL    HW115014   3.071   3.868   4.247
 4705SOL    HW215015   3.008   3.953   4.123
 4706SOL     OW15016   3.954   5.624   0.297
 4706SOL    HW115017   3.990   5.707   0.254
 4706SOL    HW215018   3.881   5.586   0.241
 4707SOL     OW15019   2.303   5.553   1.325
 4707SOL    HW115020   2.274   5.463   1.292
 4707SOL    HW215021   2.255   5.625   1.274
 4708SOL     OW15022   2.167   2.566   1.846
 4708SOL    HW115023   2.133   2.483   1.890
 4708SOL    HW215024   2.237   2.608   1.903
 4709SOL     OW15025   3.988   4.626   5.946
 4709SOL    HW115026   3.903   4.583   5.917
 4709SOL    HW215027   3.968   4.717   5.984
 4710SOL     OW15028   4.793   1.454   0.472
 4710SOL    HW115029   4.794   1.403   0.558
 4710SOL    HW215030   4.708   1.435   0.423
 4711SOL     OW15031   3.283   0.602   2.681
 4711SOL    HW115032   3.329   0.653   2.608
 4711SOL    HW215033   3.187   0.630   2.684
 4712SOL     OW15034   1.951   5.084   0.536
 4712SOL    HW115035   1.993   5.023   0.604
 4712SOL    HW215036   1.916   5.165   0.582
 4713SOL     OW15037   1.760   5.830   0.882
 4713SOL    HW115038   1.703   5.888   0.824
 4713SOL    HW215039   1.811   5.766   0.825
 4714SOL     OW15040   3.075   2.067   1.196
 4714SOL    HW115041   3.075   2.164   1.171
 4714SOL    HW215042   3.169   2.036   1.210
 4715SOL     OW15043   0.033   3.161   3.706
 4715SOL    HW115044   0.101   3.145   3.635
 4715SOL    HW215045   0.074   3.210   3.783
 4716SOL     OW15046   3.503   6.072   0.621
 4716SOL    HW115047   3.478   6.062   0.525
 4716SOL    HW215048   3.509   5.982   0.664
 4717SOL     OW15049   1.711   6.096   3.711
 4717SOL    HW115050   1.667   6.057   3.631
 4717SOL    HW215051   1.771   6.171   3.684
 4718SOL     OW15052   6.163   1.252   5.751
 4718SOL    HW115053   6.176   1.325   5.684
 4718SOL    HW215054   6.079   1.201   5.729
 4719SOL     OW15055   4.257   2.853   0.955
 4719SOL    HW115056   4.331   2.893   0.901
 4719SOL    HW215057   4.172   2.853   0.902
 4720SOL     OW15058   2.683   0.514   4.785
 4720SOL    HW115059   2.704   0.609   4.810
 4720SOL    HW215060   2.649   0.466   4.866
 4721SOL     OW15061   1.742   2.110   1.068
 4721SOL    HW115062   1.795   2.189   1.098
 4721SOL    HW215063   1.803   2.043   1.025
 4722SOL     OW15064   2.568   0.165   0.763
 4722SOL    HW115065   2.565   0.177   0.862
 4722SOL    HW215066   2.530   0.246   0.718
 4723SOL     OW15067   2.156   6.757   6.670
 4723SOL    HW115068   2.130   6.670   6.629
 4723SOL    HW215069   2.253   6.773   6.655
 4724SOL     OW15070   4.057   6.050   1.798
 4724SOL    HW115071   3.973   5.997   1.793
 4724SOL    HW215072   4.045   6.127   1.860
 4725SOL     OW15073   5.111   6.393   3.392
 4725SOL    HW115074   5.054   6.429   3.466
 4725SOL    HW215075   5.118   6.293   3.401
 4726SOL     OW15076   0.252   5.310   6.415
 4726SOL    HW115077   0.276   5.404   6.439
 4726SOL    HW215078   0.328   5.267   6.367
 4727SOL     OW15079   0.571   5.888   0.035
 4727SOL    HW115080   0.662   5.878   0.075
 4727SOL    HW215081   0.530   5.974   0.065
 4728SOL     OW15082   0.036   1.153   6.995
 4728SOL    HW115083   0.132   1.145   6.969
 4728SOL    HW215084   7.003   1.140   6.914
 4729SOL     OW15085   3.501   0.897   1.726
 4729SOL    HW115086   3.515   0.813   1.780
 4729SOL    HW215087   3.565   0.898   1.650
 4730SOL     OW15088   2.020   0.395   5.587
 4730SOL    HW115089   2.109   0.400   5.540
 4730SOL    HW215090   2.028   0.438   5.677
 4731SOL     OW15091   5.328   1.391   5.239
 4731SOL    HW115092   5.356   1.302   5.204
 4731SOL    HW215093   5.395   1.460   5.211
 4732SOL     OW15094   0.091   2.096   0.334
 4732SOL    HW115095   0.143   2.176   0.303
 4732SOL    HW215096   0.150   2.037   0.389
 4733SOL     OW15097   0.041   3.195   3.238
 4733SOL    HW115098   0.074   3.186   3.332
 4733SOL    HW215099   0.091   3.131   3.179
 4734SOL     OW15100   4.324   4.107   6.877
 4734SOL    HW115101   4.257   4.181   6.873
 4734SOL    HW215102   4.416   4.145   6.887
 4735SOL     OW15103   1.192   5.241   3.459
 4735SOL    HW115104   1.201   5.330   3.414
 4735SOL    HW215105   1.208   5.169   3.392
 4736SOL     OW15106   1.084   0.529   0.496
 4736SOL    HW115107   0.995   0.566   0.523
 4736SOL    HW215108   1.157   0.589   0.527
 4737SOL     OW15109   2.387   5.268   1.772
 4737SOL    HW115110   2.292   5.288   1.748
 4737SOL    HW215111   2.443   5.350   1.760
 4738SOL     OW15112   6.459   6.135   2.330
 4738SOL    HW115113   6.535   6.193   2.359
 4738SOL    HW215114   6.493   6.062   2.272
 4739SOL     OW15115   4.549   0.758   1.201
 4739SOL    HW115116   4.485   0.755   1.277
 4739SOL    HW215117   4.544   0.673   1.149
 4740SOL     OW15118   0.673   2.050   3.211
 4740SOL    HW115119   0.623   1.988   3.272
 4740SOL    HW215120   0.770   2.046   3.232
 4741SOL     OW15121   4.222   3.570   1.587
 4741SOL    HW115122   4.276   3.653   1.570
 4741SOL    HW215123   4.132   3.596   1.623
 4742SOL     OW15124   3.669   6.749   0.626
 4742SOL    HW115125   3.627   6.711   0.708
 4742SOL    HW215126   3.768   6.737   0.630
 4743SOL     OW15127   2.573   5.240   1.260
 4743SOL    HW115128   2.514   5.320   1.266
 4743SOL    HW215129   2.521   5.163   1.223
 4744SOL     OW15130   2.042   6.106   0.814
 4744SOL    HW115131   2.081   6.017   0.839
 4744SOL    HW215132   1.990   6.142   0.892
 4745SOL     OW15133   1.201   4.547   0.199
 4745SOL    HW115134   1.193   4.642   0.169
 4745SOL    HW215135   1.202   4.487   0.119
 4746SOL     OW15136   4.369   5.415   4.338
 4746SOL    HW115137   4.383   5.369   4.251
 4746SOL    HW215138   4.285   5.382   4.381
 4747SOL     OW15139   1.537   2.091   0.316
 4747SOL    HW115140   1.454   2.133   0.353
 4747SOL    HW215141   1.597   2.163   0.281
 4748SOL     OW15142   1.456   6.769   3.039
 4748SOL    HW115143   1.555   6.779   3.051
 4748SOL    HW215144   1.425   6.832   2.967
 4749SOL     OW15145   1.936   0.808   6.655
 4749SOL    HW115146   1.934   0.787   6.753
 4749SOL    HW215147   1.862   0.871   6.633
 4750SOL     OW15148   4.676   3.116   5.336
 4750SOL    HW115149   4.721   3.185   5.280
 4750SOL    HW215150   4.728   3.031   5.332
 4751SOL     OW15151   4.271   0.796   3.239
 4751SOL    HW115152   4.362   0.760   3.257
 4751SOL    HW215153   4.238   0.844   3.320
 4752SOL     OW15154   4.371   1.673   0.314
 4752SOL    HW115155   4.346   1.622   0.396
 4752SOL    HW215156   4.471   1.674   0.305
 4753SOL     OW15157   3.311   5.847   5.087
 4753SOL    HW115158   3.362   5.771   5.127
 4753SOL    HW215159   3.305   5.835   4.987
 4754SOL     OW15160   4.940   4.917   6.394
 4754SOL    HW115161   4.985   5.000   6.428
 4754SOL    HW215162   4.883   4.940   6.316
 4755SOL     OW15163   1.250   0.996   1.488
 4755SOL    HW115164   1.233   0.970   1.583
 4755SOL    HW215165   1.164   0.993   1.437
 4756SOL     OW15166   6.108   3.900   6.687
 4756SOL    HW115167   6.092   3.871   6.592
 4756SOL    HW215168   6.165   3.981   6.688
 4757SOL     OW15169   2.022   3.834   1.523
 4757SOL    HW115170   2.061   3.914   1.477
 4757SOL    HW215171   1.973   3.864   1.605
 4758SOL     OW15172   3.145   6.399   3.217
 4758SOL    HW115173   3.083   6.330   3.253
 4758SOL    HW215174   3.096   6.485   3.204
 4759SOL     OW15175   0.893   4.974   1.399
 4759SOL    HW115176   0.817   4.923   1.358
 4759SOL    HW215177   0.974   4.967   1.340
 4760SOL     OW15178   1.675   6.015   1.233
 4760SOL    HW115179   1.646   5.928   1.193
 4760SOL    HW215180   1.604   6.049   1.294
 4761SOL     OW15181   6.559   6.704   1.123
 4761SOL    HW115182   6.507   6.661   1.197
 4761SOL    HW215183   6.634   6.643   1.095
 4762SOL     OW15184   1.571   0.011   1.803
 4762SOL    HW115185   1.568   0.101   1.761
 4762SOL    HW215186   1.550   6.966   1.734
 4763SOL     OW15187   5.850   4.363   1.790
 4763SOL    HW115188   5.900   4.436   1.744
 4763SOL    HW215189   5.762   4.349   1.745
 4764SOL     OW15190   4.272   3.506   6.750
 4764SOL    HW115191   4.304   3.513   6.844
 4764SOL    HW215192   4.173   3.492   6.749
 4765SOL     OW15193   3.441   1.823   4.479
 4765SOL    HW115194   3.514   1.756   4.497
 4765SOL    HW215195   3.471   1.913   4.510
 4766SOL     OW15196   0.669   0.281   4.261
 4766SOL    HW115197   0.725   0.327   4.329
 4766SOL    HW215198   0.647   0.344   4.186
 4767SOL     OW15199   1.427   4.426   3.705
 4767SOL    HW115200   1.456   4.429   3.610
 4767SOL    HW215201   1.371   4.507   3.726
 4768SOL     OW15202   3.589   2.427   7.004
 4768SOL    HW115203   3.553   2.512   6.966
 4768SOL    HW215204   3.553   2.349   6.952
 4769SOL     OW15205   2.282   5.128   0.877
 4769SOL    HW115206   2.219   5.090   0.945
 4769SOL    HW215207   2.234   5.195   0.821
 4770SOL     OW15208   0.658   1.619   5.549
 4770SOL    HW115209   0.725   1.557   5.508
 4770SOL    HW215210   0.687   1.714   5.535
 4771SOL     OW15211   2.066   6.681   4.971
 4771SOL    HW115212   2.154   6.659   5.014
 4771SOL    HW215213   2.078   6.761   4.911
 4772SOL     OW15214   3.011   5.395   1.825
 4772SOL    HW115215   3.075   5.437   1.760
 4772SOL    HW215216   3.057   5.379   1.912
 4773SOL     OW15217   2.207   4.901   4.781
 4773SOL    HW115218   2.189   4.893   4.880
 4773SOL    HW215219   2.300   4.871   4.762
 4774SOL     OW15220   1.581   4.062   0.028
 4774SOL    HW115221   1.492   4.071   7.008
 4774SOL    HW215222   1.591   3.970   0.064
 4775SOL     OW15223   6.521   6.097   5.172
 4775SOL    HW115224   6.514   6.181   5.118
 4775SOL    HW215225   6.585   6.035   5.127
 4776SOL     OW15226   0.422   1.369   6.788
 4776SOL    HW115227   0.383   1.443   6.844
 4776SOL    HW215228   0.464   1.301   6.848
 4777SOL     OW15229   0.821   6.805   2.277
 4777SOL    HW115230   0.745   6.740   2.274
 4777SOL    HW215231   0.786   6.898   2.269
 4778SOL     OW15232   0.753   1.724   6.204
 4778SOL    HW115233   0.754   1.742   6.302
 4778SOL    HW215234   0.812   1.790   6.158
 4779SOL     OW15235   5.786   0.297   4.047
 4779SOL    HW115236   5.711   0.339   3.996
 4779SOL    HW215237   5.832   0.366   4.103
 4780SOL     OW15238   6.325   3.014   4.961
 4780SOL    HW115239   6.277   3.030   5.047
 4780SOL    HW215240   6.419   2.986   4.980
 4781SOL     OW15241   2.290   5.881   2.583
 4781SOL    HW115242   2.303   5.896   2.681
 4781SOL    HW215243   2.214   5.936   2.550
 4782SOL     OW15244   0.157   6.596   4.052
 4782SOL    HW115245   0.157   6.676   3.992
 4782SOL    HW215246   0.180   6.625   4.145
 4783SOL     OW15247   6.609   3.488   0.458
 4783SOL    HW115248   6.561   3.573   0.478
 4783SOL    HW215249   6.544   3.411   0.461
 4784SOL     OW15250   5.018   3.069   6.578
 4784SOL    HW115251   4.952   3.133   6.618
 4784SOL    HW215252   5.108   3.085   6.618
 4785SOL     OW15253   0.427   6.430   4.008
 4785SOL    HW115254   0.441   6.387   3.919
 4785SOL    HW215255   0.415   6.529   3.996
 4786SOL     OW15256   1.785   6.091   0.349
 4786SOL    HW115257   1.717   6.115   0.280
 4786SOL    HW215258   1.815   5.997   0.335
 4787SOL     OW15259   3.440   1.292   4.031
 4787SOL    HW115260   3.497   1.362   4.074
 4787SOL    HW215261   3.385   1.247   4.101
 4788SOL     OW15262   5.830   6.466   0.140
 4788SOL    HW115263   5.794   6.526   0.069
 4788SOL    HW215264   5.756   6.408   0.175
 4789SOL     OW15265   5.568   1.222   3.227
 4789SOL    HW115266   5.524   1.147   3.176
 4789SOL    HW215267   5.501   1.292   3.248
 4790SOL     OW15268   6.909   2.092   5.011
 4790SOL    HW115269   6.833   2.050   4.961
 4790SOL    HW215270   6.968   2.142   4.947
 4791SOL     OW15271   6.926   0.636   0.572
 4791SOL    HW115272   6.868   0.711   0.601
 4791SOL    HW215273   6.894   0.551   0.615
 4792SOL     OW15274   2.213   2.963   2.719
 4792SOL    HW115275   2.191   3.034   2.653
 4792SOL    HW215276   2.250   2.883   2.671
 4793SOL     OW15277   0.881   3.871   5.951
 4793SOL    HW115278   0.938   3.922   5.887
 4793SOL    HW215279   0.875   3.775   5.920
 4794SOL     OW15280   4.322   1.415   4.389
 4794SOL    HW115281   4.226   1.389   4.392
 4794SOL    HW215282   4.369   1.362   4.318
 4795SOL     OW15283   0.254   0.490   5.895
 4795SOL    HW115284   0.243   0.391   5.898
 4795SOL    HW215285   0.332   0.514   5.837
 4796SOL     OW15286   3.942   1.495   4.715
 4796SOL    HW115287   4.027   1.462   4.757
 4796SOL    HW215288   3.865   1.441   4.748
 4797SOL     OW15289   1.742   5.187   4.936
 4797SOL    HW115290   1.813   5.118   4.922
 4797SOL    HW215291   1.780   5.278   4.918
 4798SOL     OW15292   3.895   4.859   6.408
 4798SOL    HW115293   3.991   4.840   6.388
 4798SOL    HW215294   3.881   4.958   6.410
 4799SOL     OW15295   3.646   3.388   6.687
 4799SOL    HW115296   3.650   3.309   6.748
 4799SOL    HW215297   3.615   3.358   6.596
 4800SOL     OW15298   0.776   4.708   0.642
 4800SOL    HW115299   0.750   4.633   0.703
 4800SOL    HW215300   0.867   4.741   0.666
 4801SOL     OW15301   5.087   2.667   1.634
 4801SOL    HW115302   5.041   2.755   1.622
 4801SOL    HW215303   5.179   2.672   1.595
 4802SOL     OW15304   6.658   6.809   3.852
 4802SOL    HW115305   6.562   6.834   3.863
 4802SOL    HW215306   6.704   6.877   3.795
 4803SOL     OW15307   4.785   4.289   6.133
 4803SOL    HW115308   4.751   4.332   6.217
 4803SOL    HW215309   4.880   4.317   6.117
 4804SOL     OW15310   4.783   1.389   0.945
 4804SOL    HW115311   4.689   1.422   0.943
 4804SOL    HW215312   4.836   1.444   1.009
 4805SOL     OW15313   6.783   1.106   0.206
 4805SOL    HW115314   6.793   1.205   0.218
 4805SOL    HW215315   6.753   1.086   0.113
 4806SOL     OW15316   1.279   0.729   2.695
 4806SOL    HW115317   1.338   0.729   2.614
 4806SOL    HW215318   1.287   0.818   2.741
 4807SOL     OW15319   0.610   3.916   5.652
 4807SOL    HW115320   0.681   3.978   5.620
 4807SOL    HW215321   0.525   3.935   5.604
 4808SOL     OW15322   4.191   5.505   1.069
 4808SOL    HW115323   4.193   5.577   1.000
 4808SOL    HW215324   4.262   5.521   1.138
 4809SOL     OW15325   3.407   4.669   1.396
 4809SOL    HW115326   3.440   4.760   1.421
 4809SOL    HW215327   3.398   4.613   1.478
 4810SOL     OW15328   0.507   4.557   3.981
 4810SOL    HW115329   0.553   4.543   4.069
 4810SOL    HW215330   0.418   4.601   3.997
 4811SOL     OW15331   3.196   4.067   4.100
 4811SOL    HW115332   3.251   4.137   4.145
 4811SOL    HW215333   3.240   4.041   4.013
 4812SOL     OW15334   0.694   7.006   2.140
 4812SOL    HW115335   0.626   6.948   2.095
 4812SOL    HW215336   0.659   0.073   2.149
 4813SOL     OW15337   6.083   1.879   5.775
 4813SOL    HW115338   6.038   1.805   5.825
 4813SOL    HW215339   6.179   1.855   5.761
 4814SOL     OW15340   6.423   3.925   1.608
 4814SOL    HW115341   6.451   3.924   1.704
 4814SOL    HW215342   6.374   4.010   1.588
 4815SOL     OW15343   5.602   5.428   2.261
 4815SOL    HW115344   5.595   5.473   2.172
 4815SOL    HW215345   5.525   5.366   2.273
 4816SOL     OW15346   1.884   1.153   2.431
 4816SOL    HW115347   1.887   1.056   2.406
 4816SOL    HW215348   1.866   1.208   2.349
 4817SOL     OW15349   3.815   1.844   0.649
 4817SOL    HW115350   3.805   1.940   0.673
 4817SOL    HW215351   3.773   1.787   0.720
 4818SOL     OW15352   3.560   0.022   5.887
 4818SOL    HW115353   3.545   0.118   5.861
 4818SOL    HW215354   3.537   6.988   5.810
 4819SOL     OW15355   3.055   0.734   1.097
 4819SOL    HW115356   2.969   0.754   1.144
 4819SOL    HW215357   3.098   0.655   1.139
 4820SOL     OW15358   6.090   4.310   2.115
 4820SOL    HW115359   6.132   4.318   2.025
 4820SOL    HW215360   6.114   4.389   2.171
 4821SOL     OW15361   0.128   4.347   1.685
 4821SOL    HW115362   0.060   4.412   1.651
 4821SOL    HW215363   0.091   4.254   1.677
 4822SOL     OW15364   2.020   4.224   2.820
 4822SOL    HW115365   1.993   4.144   2.873
 4822SOL    HW215366   1.941   4.257   2.767
 4823SOL     OW15367   1.077   1.151   4.373
 4823SOL    HW115368   1.031   1.156   4.285
 4823SOL    HW215369   1.098   1.243   4.406
 4824SOL     OW15370   5.375   3.135   2.236
 4824SOL    HW115371   5.356   3.140   2.138
 4824SOL    HW215372   5.329   3.211   2.283
 4825SOL     OW15373   0.591   3.231   2.844
 4825SOL    HW115374   0.572   3.156   2.908
 4825SOL    HW215375   0.689   3.250   2.843
 4826SOL     OW15376   6.475   6.401   0.526
 4826SOL    HW115377   6.394   6.454   0.551
 4826SOL    HW215378   6.552   6.463   0.509
 4827SOL     OW15379   5.405   0.834   1.096
 4827SOL    HW115380   5.373   0.781   1.017
 4827SOL    HW215381   5.341   0.822   1.172
 4828SOL     OW15382   5.917   3.663   0.407
 4828SOL    HW115383   5.862   3.591   0.451
 4828SOL    HW215384   5.860   3.743   0.392
 4829SOL     OW15385   2.943   0.624   6.119
 4829SOL    HW115386   2.997   0.586   6.045
 4829SOL    HW215387   2.934   0.556   6.193
 4830SOL     OW15388   4.336   7.000   4.327
 4830SOL    HW115389   4.377   7.017   4.416
 4830SOL    HW215390   4.239   6.977   4.337
 4831SOL     OW15391   6.202   3.851   5.859
 4831SOL    HW115392   6.273   3.816   5.798
 4831SOL    HW215393   6.236   3.932   5.906
 4832SOL     OW15394   2.487   3.614   6.524
 4832SOL    HW115395   2.550   3.651   6.456
 4832SOL    HW215396   2.426   3.687   6.556
 4833SOL     OW15397   5.123   1.657   2.720
 4833SOL    HW115398   5.151   1.592   2.649
 4833SOL    HW215399   5.172   1.636   2.805
 4834SOL     OW15400   5.303   1.144   2.627
 4834SOL    HW115401   5.213   1.189   2.626
 4834SOL    HW215402   5.292   1.047   2.605
 4835SOL     OW15403   2.379   0.550   6.701
 4835SOL    HW115404   2.396   0.573   6.797
 4835SOL    HW215405   2.283   0.522   6.690
 4836SOL     OW15406   5.416   2.207   3.858
 4836SOL    HW115407   5.360   2.276   3.813
 4836SOL    HW215408   5.511   2.215   3.827
 4837SOL     OW15409   1.679   3.587   0.509
 4837SOL    HW115410   1.723   3.503   0.477
 4837SOL    HW215411   1.743   3.637   0.568
 4838SOL     OW15412   3.243   6.012   2.629
 4838SOL    HW115413   3.286   6.082   2.686
 4838SOL    HW215414   3.207   5.940   2.688
 4839SOL     OW15415   0.335   6.038   6.692
 4839SOL    HW115416   0.429   6.046   6.726
 4839SOL    HW215417   0.331   6.071   6.598
 4840SOL     OW15418   0.232   6.960   0.242
 4840SOL    HW115419   0.210   6.960   0.145
 4840SOL    HW215420   0.211   0.025   0.282
 4841SOL     OW15421   3.111   5.664   2.448
 4841SOL    HW115422   3.172   5.652   2.527
 4841SOL    HW215423   3.019   5.687   2.481
 4842SOL     OW15424   4.393   5.872   1.338
 4842SOL    HW115425   4.343   5.924   1.269
 4842SOL    HW215426   4.329   5.837   1.406
 4843SOL     OW15427   0.260   3.521   6.901
 4843SOL    HW115428   0.232   3.603   6.851
 4843SOL    HW215429   0.287   3.546   6.994
 4844SOL     OW15430   5.684   2.060   6.260
 4844SOL    HW115431   5.714   2.153   6.284
 4844SOL    HW215432   5.619   2.028   6.329
 4845SOL     OW15433   6.237   5.757   3.955
 4845SOL    HW115434   6.238   5.726   4.050
 4845SOL    HW215435   6.300   5.833   3.944
 4846SOL     OW15436   1.305   3.911   0.416
 4846SOL    HW115437   1.230   3.884   0.476
 4846SOL    HW215438   1.389   3.864   0.445
 4847SOL     OW15439   3.815   2.170   4.362
 4847SOL    HW115440   3.893   2.221   4.325
 4847SOL    HW215441   3.832   2.072   4.351
 4848SOL     OW15442   2.504   2.272   2.494
 4848SOL    HW115443   2.522   2.191   2.438
 4848SOL    HW215444   2.467   2.344   2.435
 4849SOL     OW15445   1.467   6.536   0.514
 4849SOL    HW115446   1.453   6.602   0.588
 4849SOL    HW215447   1.565   6.522   0.500
 4850SOL     OW15448   4.382   0.715   2.351
 4850SOL    HW115449   4.386   0.714   2.251
 4850SOL    HW215450   4.467   0.755   2.387
 4851SOL     OW15451   5.474   6.142   4.749
 4851SOL    HW115452   5.468   6.061   4.807
 4851SOL    HW215453   5.399   6.140   4.682
 4852SOL     OW15454   1.935   0.945   0.307
 4852SOL    HW115455   1.905   0.874   0.372
 4852SOL    HW215456   1.928   0.909   0.214
 4853SOL     OW15457   3.048   1.856   2.293
 4853SOL    HW115458   3.034   1.953   2.312
 4853SOL    HW215459   3.119   1.846   2.224
 4854SOL     OW15460   5.403   6.980   1.510
 4854SOL    HW115461   5.341   6.964   1.587
 4854SOL    HW215462   5.368   0.029   1.454
 4855SOL     OW15463   7.002   2.027   2.483
 4855SOL    HW115464   0.072   1.996   2.477
 4855SOL    HW215465   6.993   2.094   2.557
 4856SOL     OW15466   2.837   4.759   3.433
 4856SOL    HW115467   2.746   4.717   3.428
 4856SOL    HW215468   2.841   4.820   3.512
 4857SOL     OW15469   6.733   1.778   5.797
 4857SOL    HW115470   6.820   1.825   5.808
 4857SOL    HW215471   6.674   1.832   5.737
 4858SOL     OW15472   1.290   1.770   4.330
 4858SOL    HW115473   1.309   1.679   4.291
 4858SOL    HW215474   1.377   1.818   4.345
 4859SOL     OW15475   2.644   5.855   4.694
 4859SOL    HW115476   2.544   5.854   4.689
 4859SOL    HW215477   2.675   5.948   4.711
 4860SOL     OW15478   4.598   5.285   0.855
 4860SOL    HW115479   4.530   5.262   0.785
 4860SOL    HW215480   4.613   5.206   0.914
 4861SOL     OW15481   4.940   3.902   4.973
 4861SOL    HW115482   4.908   3.826   4.916
 4861SOL    HW215483   5.037   3.918   4.956
 4862SOL     OW15484   1.423   6.817   2.211
 4862SOL    HW115485   1.436   6.789   2.306
 4862SOL    HW215486   1.484   6.765   2.152
 4863SOL     OW15487   5.956   3.973   0.079
 4863SOL    HW115488   5.913   3.939   7.021
 4863SOL    HW215489   5.973   4.071   0.070
 4864SOL     OW15490   3.025   1.267   3.256
 4864SOL    HW115491   3.023   1.264   3.156
 4864SOL    HW215492   3.002   1.359   3.287
 4865SOL     OW15493   2.607   6.350   4.686
 4865SOL    HW115494   2.639   6.440   4.656
 4865SOL    HW215495   2.572   6.356   4.780
 4866SOL     OW15496   7.009   3.867   0.991
 4866SOL    HW115497   6.972   3.843   1.081
 4866SOL    HW215498   6.954   3.823   0.920
 4867SOL     OW15499   4.720   0.065   3.140
 4867SOL    HW115500   4.719   0.153   3.187
 4867SOL    HW215501   4.627   0.041   3.113
 4868SOL     OW15502   6.566   5.046   1.246
 4868SOL    HW115503   6.479   5.026   1.289
 4868SOL    HW215504   6.640   5.003   1.297
 4869SOL     OW15505   0.303   1.597   0.103
 4869SOL    HW115506   0.248   1.545   0.038
 4869SOL    HW215507   0.353   1.668   0.054
 4870SOL     OW15508   0.594   6.209   2.223
 4870SOL    HW115509   0.591   6.286   2.159
 4870SOL    HW215510   0.672   6.222   2.285
 4871SOL     OW15511   0.965   1.577   4.542
 4871SOL    HW115512   0.989   1.656   4.485
 4871SOL    HW215513   0.873   1.546   4.518
 4872SOL     OW15514   5.791   0.016   4.002
 4872SOL    HW115515   5.872   6.997   4.042
 4872SOL    HW215516   5.783   0.109   4.035
 4873SOL     OW15517   6.497   6.276   5.550
 4873SOL    HW115518   6.512   6.203   5.617
 4873SOL    HW215519   6.553   6.355   5.574
 4874SOL     OW15520   4.736   2.886   3.176
 4874SOL    HW115521   4.712   2.924   3.265
 4874SOL    HW215522   4.789   2.954   3.124
 4875SOL     OW15523   5.481   6.288   5.645
 4875SOL    HW115524   5.390   6.324   5.623
 4875SOL    HW215525   5.502   6.308   5.741
 4876SOL     OW15526   1.849   0.951   2.638
 4876SOL    HW115527   1.910   0.971   2.714
 4876SOL    HW215528   1.858   1.023   2.568
 4877SOL     OW15529   0.398   2.208   4.786
 4877SOL    HW115530   0.486   2.252   4.802
 4877SOL    HW215531   0.409   2.138   4.714
 4878SOL     OW15532   0.612   2.588   2.653
 4878SOL    HW115533   0.693   2.559   2.600
 4878SOL    HW215534   0.610   2.539   2.740
 4879SOL     OW15535   5.128   1.426   3.135
 4879SOL    HW115536   5.109   1.512   3.181
 4879SOL    HW215537   5.066   1.415   3.057
 4880SOL     OW15538   6.011   2.568   6.215
 4880SOL    HW115539   6.000   2.497   6.145
 4880SOL    HW215540   6.019   2.525   6.305
 4881SOL     OW15541   1.344   3.222   2.027
 4881SOL    HW115542   1.423   3.163   2.011
 4881SOL    HW215543   1.272   3.170   2.073
 4882SOL     OW15544   4.445   2.479   4.951
 4882SOL    HW115545   4.353   2.452   4.979
 4882SOL    HW215546   4.449   2.485   4.851
 4883SOL     OW15547   6.645   4.210   1.867
 4883SOL    HW115548   6.685   4.212   1.959
 4883SOL    HW215549   6.642   4.115   1.835
 4884SOL     OW15550   2.090   6.354   1.634
 4884SOL    HW115551   2.065   6.426   1.699
 4884SOL    HW215552   2.065   6.382   1.541
 4885SOL     OW15553   1.220   4.644   0.914
 4885SOL    HW115554   1.183   4.551   0.925
 4885SOL    HW215555   1.280   4.665   0.991
 4886SOL     OW15556   3.064   1.342   2.382
 4886SOL    HW115557   3.051   1.439   2.362
 4886SOL    HW215558   3.055   1.289   2.298
 4887SOL     OW15559   0.309   0.093   1.162
 4887SOL    HW115560   0.387   0.126   1.214
 4887SOL    HW215561   0.225   0.129   1.201
 4888SOL     OW15562   3.530   6.573   2.979
 4888SOL    HW115563   3.568   6.505   2.916
 4888SOL    HW215564   3.468   6.634   2.930
 4889SOL     OW15565   7.008   2.832   3.511
 4889SOL    HW115566   0.049   2.848   3.584
 4889SOL    HW215567   0.031   2.825   3.423
 4890SOL     OW15568   0.292   1.186   4.785
 4890SOL    HW115569   0.358   1.231   4.724
 4890SOL    HW215570   0.263   1.250   4.856
 4891SOL     OW15571   2.466   5.659   6.211
 4891SOL    HW115572   2.552   5.615   6.236
 4891SOL    HW215573   2.432   5.714   6.287
 4892SOL     OW15574   5.389   6.047   2.808
 4892SOL    HW115575   5.362   5.980   2.739
 4892SOL    HW215576   5.486   6.069   2.797
 4893SOL     OW15577   0.599   3.671   1.799
 4893SOL    HW115578   0.601   3.644   1.896
 4893SOL    HW215579   0.544   3.605   1.748
 4894SOL     OW15580   4.470   6.625   2.170
 4894SOL    HW115581   4.569   6.637   2.167
 4894SOL    HW215582   4.448   6.530   2.191
 4895SOL     OW15583   6.849   4.606   3.851
 4895SOL    HW115584   6.796   4.522   3.841
 4895SOL    HW215585   6.914   4.613   3.775
 4896SOL     OW15586   2.110   5.016   4.033
 4896SOL    HW115587   2.119   5.017   4.132
 4896SOL    HW215588   2.125   4.923   3.999
 4897SOL     OW15589   1.980   6.663   5.496
 4897SOL    HW115590   2.043   6.585   5.499
 4897SOL    HW215591   2.007   6.724   5.422
 4898SOL     OW15592   3.880   1.990   3.820
 4898SOL    HW115593   3.805   2.046   3.785
 4898SOL    HW215594   3.925   1.942   3.745
 4899SOL     OW15595   0.082   4.949   1.530
 4899SOL    HW115596   0.032   5.019   1.479
 4899SOL    HW215597   0.046   4.943   1.623
 4900SOL     OW15598   3.940   6.021   5.483
 4900SOL    HW115599   4.022   6.078   5.482
 4900SOL    HW215600   3.964   5.927   5.458
 4901SOL     OW15601   0.369   1.543   6.192
 4901SOL    HW115602   0.317   1.466   6.155
 4901SOL    HW215603   0.467   1.528   6.176
 4902SOL     OW15604   2.068   0.299   6.097
 4902SOL    HW115605   2.079   0.331   6.191
 4902SOL    HW215606   1.991   0.236   6.092
 4903SOL     OW15607   5.736   4.856   1.714
 4903SOL    HW115608   5.739   4.828   1.809
 4903SOL    HW215609   5.761   4.779   1.655
 4904SOL     OW15610   1.660   0.363   0.458
 4904SOL    HW115611   1.643   0.268   0.488
 4904SOL    HW215612   1.709   0.412   0.530
 4905SOL     OW15613   3.182   6.742   2.484
 4905SOL    HW115614   3.260   6.796   2.516
 4905SOL    HW215615   3.208   6.646   2.475
 4906SOL     OW15616   5.558   2.934   4.765
 4906SOL    HW115617   5.635   2.996   4.779
 4906SOL    HW215618   5.543   2.922   4.666
 4907SOL     OW15619   4.447   1.486   6.254
 4907SOL    HW115620   4.479   1.568   6.207
 4907SOL    HW215621   4.518   1.415   6.250
 4908SOL     OW15622   4.535   6.785   7.018
 4908SOL    HW115623   4.552   6.792   6.920
 4908SOL    HW215624   4.548   6.874   0.036
 4909SOL     OW15625   5.804   4.547   4.165
 4909SOL    HW115626   5.720   4.499   4.140
 4909SOL    HW215627   5.833   4.519   4.256
 4910SOL     OW15628   4.641   1.310   5.727
 4910SOL    HW115629   4.599   1.274   5.643
 4910SOL    HW215630   4.711   1.246   5.759
 4911SOL     OW15631   0.441   2.223   1.778
 4911SOL    HW115632   0.463   2.126   1.790
 4911SOL    HW215633   0.517   2.280   1.810
 4912SOL     OW15634   5.924   2.025   4.135
 4912SOL    HW115635   5.844   1.968   4.119
 4912SOL    HW215636   5.895   2.120   4.151
 4913SOL     OW15637   6.609   2.660   5.494
 4913SOL    HW115638   6.550   2.626   5.567
 4913SOL    HW215639   6.572   2.634   5.405
 4914SOL     OW15640   4.527   0.886   4.015
 4914SOL    HW115641   4.557   0.801   3.971
 4914SOL    HW215642   4.605   0.927   4.064
 4915SOL     OW15643   3.928   5.436   5.800
 4915SOL    HW115644   3.879   5.465   5.882
 4915SOL    HW215645   3.965   5.517   5.754
 4916SOL     OW15646   6.012   1.702   3.991
 4916SOL    HW115647   5.958   1.692   4.074
 4916SOL    HW215648   6.065   1.787   3.996
 4917SOL     OW15649   4.639   0.214   1.067
 4917SOL    HW115650   4.629   0.127   1.019
 4917SOL    HW215651   4.690   0.278   1.010
 4918SOL     OW15652   6.229   5.529   2.036
 4918SOL    HW115653   6.152   5.587   2.064
 4918SOL    HW215654   6.291   5.582   1.979
 4919SOL     OW15655   3.675   4.001   2.173
 4919SOL    HW115656   3.590   4.011   2.224
 4919SOL    HW215657   3.704   4.090   2.137
 4920SOL     OW15658   5.889   0.748   5.196
 4920SOL    HW115659   5.920   0.793   5.280
 4920SOL    HW215660   5.812   0.799   5.158
 4921SOL     OW15661   0.074   6.866   2.082
 4921SOL    HW115662   7.009   6.879   2.125
 4921SOL    HW215663   0.099   6.950   2.034
 4922SOL     OW15664   3.710   2.348   6.096
 4922SOL    HW115665   3.719   2.393   6.007
 4922SOL    HW215666   3.644   2.274   6.090
 4923SOL     OW15667   3.385   1.676   2.740
 4923SOL    HW115668   3.462   1.703   2.798
 4923SOL    HW215669   3.300   1.687   2.790
 4924SOL     OW15670   2.589   0.622   5.599
 4924SOL    HW115671   2.608   0.595   5.693
 4924SOL    HW215672   2.510   0.683   5.596
 4925SOL     OW15673   5.493   6.049   3.334
 4925SOL    HW115674   5.581   6.094   3.349
 4925SOL    HW215675   5.477   5.982   3.406
 4926SOL     OW15676   5.447   2.209   0.600
 4926SOL    HW115677   5.408   2.161   0.679
 4926SOL    HW215678   5.381   2.274   0.564
 4927SOL     OW15679   3.623   1.502   6.392
 4927SOL    HW115680   3.526   1.485   6.371
 4927SOL    HW215681   3.630   1.583   6.450
 4928SOL     OW15682   0.521   2.360   0.695
 4928SOL    HW115683   0.529   2.333   0.599
 4928SOL    HW215684   0.523   2.459   0.702
 4929SOL     OW15685   0.392   6.161   4.914
 4929SOL    HW115686   0.474   6.147   4.970
 4929SOL    HW215687   0.316   6.110   4.952
 4930SOL     OW15688   5.298   6.698   2.383
 4930SOL    HW115689   5.287   6.668   2.477
 4930SOL    HW215690   5.381   6.657   2.344
 4931SOL     OW15691   6.118   6.278   0.671
 4931SOL    HW115692   6.134   6.180   0.683
 4931SOL    HW215693   6.030   6.292   0.627
 4932SOL     OW15694   3.076   3.172   2.052
 4932SOL    HW115695   3.084   3.086   2.002
 4932SOL    HW215696   3.033   3.240   1.994
 4933SOL     OW15697   3.236   5.813   5.390
 4933SOL    HW115698   3.275   5.728   5.355
 4933SOL    HW215699   3.169   5.849   5.324
 4934SOL     OW15700   3.949   4.902   3.146
 4934SOL    HW115701   3.904   4.927   3.061
 4934SOL    HW215702   3.959   4.983   3.204
 4935SOL     OW15703   1.345   1.239   5.861
 4935SOL    HW115704   1.403   1.218   5.782
 4935SOL    HW215705   1.304   1.155   5.896
 4936SOL     OW15706   2.825   3.388   1.045
 4936SOL    HW115707   2.738   3.430   1.018
 4936SOL    HW215708   2.833   3.391   1.145
 4937SOL     OW15709   4.710   2.830   5.189
 4937SOL    HW115710   4.624   2.843   5.238
 4937SOL    HW215711   4.706   2.745   5.137
 4938SOL     OW15712   4.091   5.661   5.758
 4938SOL    HW115713   4.144   5.707   5.829
 4938SOL    HW215714   4.153   5.622   5.690
 4939SOL     OW15715   4.445   3.016   5.713
 4939SOL    HW115716   4.437   2.952   5.637
 4939SOL    HW215717   4.422   2.969   5.799
 4940SOL     OW15718   2.672   6.612   4.631
 4940SOL    HW115719   2.617   6.696   4.622
 4940SOL    HW215720   2.769   6.635   4.623
 4941SOL     OW15721   5.499   0.669   0.635
 4941SOL    HW115722   5.584   0.695   0.681
 4941SOL    HW215723   5.430   0.644   0.704
 4942SOL     OW15724   4.951   3.704   5.237
 4942SOL    HW115725   4.978   3.632   5.301
 4942SOL    HW215726   4.886   3.666   5.170
 4943SOL     OW15727   4.447   2.283   1.074
 4943SOL    HW115728   4.517   2.213   1.058
 4943SOL    HW215729   4.461   2.359   1.011
 4944SOL     OW15730   2.333   4.554   2.404
 4944SOL    HW115731   2.313   4.579   2.309
 4944SOL    HW215732   2.251   4.514   2.446
 4945SOL     OW15733   0.442   6.892   4.489
 4945SOL    HW115734   0.497   6.974   4.473
 4945SOL    HW215735   0.503   6.817   4.516
 4946SOL     OW15736   1.263   3.749   2.718
 4946SOL    HW115737   1.234   3.731   2.623
 4946SOL    HW215738   1.199   3.814   2.760
 4947SOL     OW15739   0.310   6.724   0.654
 4947SOL    HW115740   0.377   6.711   0.727
 4947SOL    HW215741   0.307   6.642   0.596
 4948SOL     OW15742   2.314   1.444   2.023
 4948SOL    HW115743   2.410   1.461   1.999
 4948SOL    HW215744   2.298   1.474   2.117
 4949SOL     OW15745   5.591   1.470   4.309
 4949SOL    HW115746   5.574   1.546   4.246
 4949SOL    HW215747   5.676   1.423   4.283
 4950SOL     OW15748   3.257   5.585   4.753
 4950SOL    HW115749   3.310   5.581   4.669
 4950SOL    HW215750   3.159   5.577   4.731
 4951SOL     OW15751   4.300   2.375   3.746
 4951SOL    HW115752   4.390   2.409   3.719
 4951SOL    HW215753   4.238   2.377   3.667
 4952SOL     OW15754   0.594   5.911   5.204
 4952SOL    HW115755   0.622   5.995   5.157
 4952SOL    HW215756   0.497   5.894   5.187
 4953SOL     OW15757   1.800   5.226   1.706
 4953SOL    HW115758   1.713   5.190   1.674
 4953SOL    HW215759   1.784   5.298   1.773
 4954SOL     OW15760   5.463   5.847   6.961
 4954SOL    HW115761   5.498   5.790   0.009
 4954SOL    HW215762   5.448   5.940   6.995
 4955SOL     OW15763   1.189   6.412   1.125
 4955SOL    HW115764   1.130   6.482   1.164
 4955SOL    HW215765   1.273   6.405   1.179
 4956SOL     OW15766   4.482   6.383   4.237
 4956SOL    HW115767   4.403   6.322   4.239
 4956SOL    HW215768   4.565   6.331   4.216
 4957SOL     OW15769   0.909   0.627   4.052
 4957SOL    HW115770   0.924   0.699   4.120
 4957SOL    HW215771   0.823   0.581   4.072
 4958SOL     OW15772   0.008   5.914   0.200
 4958SOL    HW115773   0.048   5.873   0.118
 4958SOL    HW215774   6.972   5.988   0.173
 4959SOL     OW15775   0.780   0.872   0.983
 4959SOL    HW115776   0.867   0.871   1.031
 4959SOL    HW215777   0.757   0.779   0.953
 4960SOL     OW15778   4.209   6.896   4.903
 4960SOL    HW115779   4.272   6.868   4.975
 4960SOL    HW215780   4.178   6.816   4.852
 4961SOL     OW15781   4.751   0.881   5.231
 4961SOL    HW115782   4.779   0.785   5.221
 4961SOL    HW215783   4.667   0.885   5.286
 4962SOL     OW15784   7.007   1.277   0.733
 4962SOL    HW115785   0.020   1.193   0.773
 4962SOL    HW215786   0.039   1.355   0.760
 4963SOL     OW15787   0.319   4.626   1.551
 4963SOL    HW115788   0.298   4.668   1.639
 4963SOL    HW215789   0.239   4.629   1.492
 4964SOL     OW15790   3.763   6.697   3.108
 4964SOL    HW115791   3.832   6.719   3.040
 4964SOL    HW215792   3.677   6.672   3.062
 4965SOL     OW15793   6.943   0.268   4.273
 4965SOL    HW115794   7.004   0.292   4.349
 4965SOL    HW215795   6.979   0.187   4.226
 4966SOL     OW15796   3.686   4.882   3.596
 4966SOL    HW115797   3.611   4.940   3.628
 4966SOL    HW215798   3.667   4.787   3.621
 4967SOL     OW15799   4.071   2.431   5.863
 4967SOL    HW115800   3.990   2.459   5.810
 4967SOL    HW215801   4.122   2.511   5.891
 4968SOL     OW15802   5.962   2.720   5.451
 4968SOL    HW115803   6.052   2.693   5.417
 4968SOL    HW215804   5.964   2.816   5.478
 4969SOL     OW15805   1.321   1.710   1.793
 4969SOL    HW115806   1.303   1.681   1.699
 4969SOL    HW215807   1.367   1.799   1.792
 4970SOL     OW15808   0.749   2.553   5.856
 4970SOL    HW115809   0.798   2.554   5.769
 4970SOL    HW215810   0.731   2.459   5.883
 4971SOL     OW15811   5.636   5.748   3.719
 4971SOL    HW115812   5.733   5.728   3.737
 4971SOL    HW215813   5.611   5.835   3.763
 4972SOL     OW15814   1.465   2.737   6.215
 4972SOL    HW115815   1.485   2.695   6.127
 4972SOL    HW215816   1.425   2.669   6.276
 4973SOL     OW15817   5.170   6.632   2.635
 4973SOL    HW115818   5.213   6.549   2.671
 4973SOL    HW215819   5.100   6.664   2.698
 4974SOL     OW15820   5.362   7.014   2.412
 4974SOL    HW115821   5.451   0.021   2.442
 4974SOL    HW215822   5.335   6.934   2.465
 4975SOL     OW15823   5.567   5.971   0.636
 4975SOL    HW115824   5.484   5.949   0.686
 4975SOL    HW215825   5.632   5.895   0.644
 4976SOL     OW15826   4.050   0.798   4.912
 4976SOL    HW115827   3.954   0.785   4.885
 4976SOL    HW215828   4.103   0.829   4.833
 4977SOL     OW15829   3.833   3.988   0.451
 4977SOL    HW115830   3.858   4.077   0.413
 4977SOL    HW215831   3.755   3.997   0.511
 4978SOL     OW15832   5.625   2.978   6.417
 4978SOL    HW115833   5.532   2.952   6.442
 4978SOL    HW215834   5.672   3.017   6.497
 4979SOL     OW15835   1.452   0.920   5.743
 4979SOL    HW115836   1.406   0.840   5.706
 4979SOL    HW215837   1.427   0.931   5.839
 4980SOL     OW15838   2.418   5.506   2.089
 4980SOL    HW115839   2.453   5.414   2.108
 4980SOL    HW215840   2.326   5.500   2.052
 4981SOL     OW15841   4.596   6.564   5.452
 4981SOL    HW115842   4.695   6.552   5.453
 4981SOL    HW215843   4.563   6.580   5.545
 4982SOL     OW15844   2.401   3.046   0.464
 4982SOL    HW115845   2.336   2.971   0.450
 4982SOL    HW215846   2.478   3.035   0.401
 4983SOL     OW15847   5.370   3.248   4.294
 4983SOL    HW115848   5.366   3.198   4.208
 4983SOL    HW215849   5.305   3.324   4.292
 4984SOL     OW15850   4.679   4.222   2.606
 4984SOL    HW115851   4.694   4.124   2.619
 4984SOL    HW215852   4.708   4.248   2.514
 4985SOL     OW15853   5.853   4.948   2.750
 4985SOL    HW115854   5.951   4.937   2.736
 4985SOL    HW215855   5.810   4.979   2.665
 4986SOL     OW15856   4.453   4.797   1.838
 4986SOL    HW115857   4.391   4.833   1.907
 4986SOL    HW215858   4.437   4.699   1.827
 4987SOL     OW15859   6.875   3.366   1.735
 4987SOL    HW115860   6.945   3.348   1.667
 4987SOL    HW215861   6.792   3.315   1.711
 4988SOL     OW15862   0.443   2.123   4.510
 4988SOL    HW115863   0.509   2.078   4.571
 4988SOL    HW215864   0.439   2.074   4.423
 4989SOL     OW15865   0.729   0.909   0.397
 4989SOL    HW115866   0.816   0.920   0.445
 4989SOL    HW215867   0.739   0.838   0.327
 4990SOL     OW15868   1.034   2.426   5.384
 4990SOL    HW115869   1.133   2.412   5.388
 4990SOL    HW215870   0.999   2.446   5.476
 4991SOL     OW15871   1.138   2.906   4.242
 4991SOL    HW115872   1.093   2.992   4.266
 4991SOL    HW215873   1.232   2.907   4.277
 4992SOL     OW15874   3.267   0.524   6.305
 4992SOL    HW115875   3.207   0.604   6.303
 4992SOL    HW215876   3.356   0.550   6.342
 4993SOL     OW15877   2.805   6.090   3.945
 4993SOL    HW115878   2.902   6.116   3.936
 4993SOL    HW215879   2.793   5.997   3.910
 4994SOL     OW15880   0.152   6.810   2.526
 4994SOL    HW115881   0.123   6.746   2.596
 4994SOL    HW215882   0.131   6.903   2.556
 4995SOL     OW15883   5.739   2.937   6.160
 4995SOL    HW115884   5.768   2.841   6.154
 4995SOL    HW215885   5.686   2.951   6.243
 4996SOL     OW15886   1.312   1.337   3.866
 4996SOL    HW115887   1.218   1.368   3.857
 4996SOL    HW215888   1.372   1.397   3.813
 4997SOL     OW15889   0.517   2.544   3.688
 4997SOL    HW115890   0.586   2.612   3.663
 4997SOL    HW215891   0.434   2.589   3.721
 4998SOL     OW15892   2.039   5.629   4.849
 4998SOL    HW115893   2.126   5.593   4.814
 4998SOL    HW215894   2.055   5.673   4.937
 4999SOL     OW15895   6.068   4.909   1.293
 4999SOL    HW115896   5.981   4.916   1.342
 4999SOL    HW215897   6.056   4.850   1.213
 5000SOL     OW15898   0.235   6.277   4.673
 5000SOL    HW115899   0.299   6.272   4.749
 5000SOL    HW215900   0.242   6.366   4.628
 5001SOL     OW15901   4.387   4.406   5.869
 5001SOL    HW115902   4.415   4.460   5.789
 5001SOL    HW215903   4.448   4.327   5.878
 5002SOL     OW15904   2.089   1.354   1.924
 5002SOL    HW115905   2.177   1.384   1.961
 5002SOL    HW215906   2.068   1.262   1.957
 5003SOL     OW15907   6.383   5.859   2.956
 5003SOL    HW115908   6.461   5.895   3.007
 5003SOL    HW215909   6.346   5.779   3.003
 5004SOL     OW15910   3.346   5.786   0.008
 5004SOL    HW115911   3.260   5.796   0.059
 5004SOL    HW215912   3.380   5.877   7.009
 5005SOL     OW15913   4.595   2.164   6.784
 5005SOL    HW115914   4.582   2.242   6.844
 5005SOL    HW215915   4.509   2.115   6.773
 5006SOL     OW15916   5.302   5.933   4.353
 5006SOL    HW115917   5.245   5.974   4.281
 5006SOL    HW215918   5.378   5.995   4.374
 5007SOL     OW15919   3.805   1.583   5.312
 5007SOL    HW115920   3.820   1.647   5.237
 5007SOL    HW215921   3.795   1.634   5.398
 5008SOL     OW15922   6.220   1.598   3.815
 5008SOL    HW115923   6.260   1.656   3.744
 5008SOL    HW215924   6.133   1.636   3.845
 5009SOL     OW15925   1.417   6.297   3.227
 5009SOL    HW115926   1.372   6.242   3.298
 5009SOL    HW215927   1.432   6.389   3.262
 5010SOL     OW15928   3.832   3.336   4.542
 5010SOL    HW115929   3.792   3.255   4.500
 5010SOL    HW215930   3.777   3.365   4.619
 5011SOL     OW15931   1.355   2.782   2.605
 5011SOL    HW115932   1.419   2.751   2.676
 5011SOL    HW215933   1.404   2.836   2.537
 5012SOL     OW15934   6.147   2.688   6.757
 5012SOL    HW115935   6.169   2.783   6.779
 5012SOL    HW215936   6.193   2.628   6.822
 5013SOL     OW15937   3.967   1.055   6.641
 5013SOL    HW115938   3.945   1.149   6.668
 5013SOL    HW215939   3.964   0.996   6.722
 5014SOL     OW15940   6.069   6.608   0.151
 5014SOL    HW115941   5.980   6.562   0.151
 5014SOL    HW215942   6.110   6.603   0.059
 5015SOL     OW15943   4.996   2.645   3.599
 5015SOL    HW115944   4.897   2.646   3.585
 5015SOL    HW215945   5.017   2.657   3.695
 5016SOL     OW15946   1.830   6.941   2.743
 5016SOL    HW115947   1.789   6.855   2.714
 5016SOL    HW215948   1.815   6.953   2.841
 5017SOL     OW15949   2.436   2.936   1.464
 5017SOL    HW115950   2.410   2.851   1.418
 5017SOL    HW215951   2.523   2.921   1.513
 5018SOL     OW15952   6.760   5.954   4.055
 5018SOL    HW115953   6.779   5.861   4.086
 5018SOL    HW215954   6.670   5.982   4.088
 5019SOL     OW15955   2.541   4.865   6.575
 5019SOL    HW115956   2.612   4.876   6.506
 5019SOL    HW215957   2.571   4.800   6.645
 5020SOL     OW15958   5.080   5.745   6.582
 5020SOL    HW115959   5.035   5.833   6.563
 5020SOL    HW215960   5.160   5.735   6.523
 5021SOL     OW15961   1.625   4.577   6.203
 5021SOL    HW115962   1.682   4.658   6.219
 5021SOL    HW215963   1.675   4.511   6.148
 5022SOL     OW15964   1.197   5.580   0.436
 5022SOL    HW115965   1.119   5.526   0.406
 5022SOL    HW215966   1.234   5.542   0.521
 5023SOL     OW15967   6.059   3.028   2.678
 5023SOL    HW115968   6.138   2.979   2.642
 5023SOL    HW215969   6.060   3.122   2.644
 5024SOL     OW15970   6.116   3.514   4.719
 5024SOL    HW115971   6.048   3.532   4.790
 5024SOL    HW215972   6.198   3.476   4.762
 5025SOL     OW15973   5.970   1.136   3.335
 5025SOL    HW115974   5.958   1.106   3.430
 5025SOL    HW215975   6.025   1.220   3.333
 5026SOL     OW15976   0.699   6.417   3.965
 5026SOL    HW115977   0.760   6.344   3.995
 5026SOL    HW215978   0.616   6.417   4.022
 5027SOL     OW15979   0.775   6.719   3.519
 5027SOL    HW115980   0.795   6.799   3.462
 5027SOL    HW215981   0.732   6.749   3.604
 5028SOL     OW15982   0.418   0.390   2.623
 5028SOL    HW115983   0.457   0.310   2.669
 5028SOL    HW215984   0.418   0.467   2.687
 5029SOL     OW15985   0.148   1.129   1.681
 5029SOL    HW115986   0.187   1.061   1.743
 5029SOL    HW215987   0.050   1.140   1.701
 5030SOL     OW15988   1.285   5.987   6.895
 5030SOL    HW115989   1.290   6.082   6.864
 5030SOL    HW215990   1.303   5.984   6.994
 5031SOL     OW15991   5.328   0.162   4.915
 5031SOL    HW115992   5.369   0.079   4.954
 5031SOL    HW215993   5.336   0.158   4.815
 5032SOL     OW15994   1.612   5.790   1.106
 5032SOL    HW115995   1.620   5.698   1.145
 5032SOL    HW215996   1.666   5.796   1.022
 5033SOL     OW15997   2.060   4.391   5.788
 5033SOL    HW115998   2.074   4.426   5.881
 5033SOL    HW215999   2.019   4.463   5.731
 5034SOL     OW16000   6.852   3.539   1.055
 5034SOL    HW116001   6.900   3.548   1.142
 5034SOL    HW216002   6.831   3.443   1.038
 5035SOL     OW16003   5.818   4.177   0.674
 5035SOL    HW116004   5.915   4.172   0.700
 5035SOL    HW216005   5.769   4.100   0.714
 5036SOL     OW16006   1.688   0.297   2.160
 5036SOL    HW116007   1.673   0.200   2.141
 5036SOL    HW216008   1.601   0.346   2.156
 5037SOL     OW16009   4.573   2.353   3.655
 5037SOL    HW116010   4.579   2.355   3.555
 5037SOL    HW216011   4.651   2.401   3.694
 5038SOL     OW16012   2.938   6.305   5.841
 5038SOL    HW116013   2.998   6.340   5.913
 5038SOL    HW216014   2.849   6.282   5.879
 5039SOL     OW16015   1.742   1.668   4.462
 5039SOL    HW116016   1.696   1.590   4.505
 5039SOL    HW216017   1.783   1.725   4.533
 5040SOL     OW16018   2.630   3.492   6.036
 5040SOL    HW116019   2.595   3.569   5.983
 5040SOL    HW216020   2.557   3.426   6.051
 5041SOL     OW16021   1.345   4.762   0.679
 5041SOL    HW116022   1.291   4.697   0.733
 5041SOL    HW216023   1.314   4.759   0.584
 5042SOL     OW16024   5.733   2.659   6.148
 5042SOL    HW116025   5.699   2.643   6.055
 5042SOL    HW216026   5.829   2.631   6.154
 5043SOL     OW16027   4.310   0.450   3.384
 5043SOL    HW116028   4.257   0.420   3.304
 5043SOL    HW216029   4.361   0.372   3.421
 5044SOL     OW16030   6.699   4.503   3.298
 5044SOL    HW116031   6.723   4.428   3.360
 5044SOL    HW216032   6.649   4.574   3.349
 5045SOL     OW16033   6.250   2.830   6.358
 5045SOL    HW116034   6.193   2.905   6.392
 5045SOL    HW216035   6.194   2.747   6.350
 5046SOL     OW16036   3.371   2.888   4.824
 5046SOL    HW116037   3.297   2.840   4.776
 5046SOL    HW216038   3.457   2.871   4.777
 5047SOL     OW16039   1.036   1.036   2.810
 5047SOL    HW116040   1.132   1.023   2.836
 5047SOL    HW216041   1.020   1.132   2.790
 5048SOL     OW16042   5.657   2.786   1.544
 5048SOL    HW116043   5.680   2.744   1.632
 5048SOL    HW216044   5.731   2.846   1.515
 5049SOL     OW16045   1.315   2.429   2.753
 5049SOL    HW116046   1.335   2.385   2.841
 5049SOL    HW216047   1.378   2.506   2.739
 5050SOL     OW16048   0.784   3.503   1.119
 5050SOL    HW116049   0.728   3.524   1.198
 5050SOL    HW216050   0.842   3.581   1.096
 5051SOL     OW16051   2.994   5.194   0.178
 5051SOL    HW116052   3.082   5.220   0.140
 5051SOL    HW216053   2.955   5.118   0.125
 5052SOL     OW16054   5.632   4.428   0.943
 5052SOL    HW116055   5.570   4.359   0.981
 5052SOL    HW216056   5.583   4.483   0.874
 5053SOL     OW16057   2.402   4.513   0.352
 5053SOL    HW116058   2.403   4.434   0.414
 5053SOL    HW216059   2.316   4.514   0.302
 5054SOL     OW16060   3.785   5.706   4.750
 5054SOL    HW116061   3.774   5.721   4.848
 5054SOL    HW216062   3.766   5.792   4.701
 5055SOL     OW16063   1.489   2.107   4.514
 5055SOL    HW116064   1.393   2.093   4.494
 5055SOL    HW216065   1.543   2.094   4.431
 5056SOL     OW16066   1.961   2.778   5.372
 5056SOL    HW116067   2.026   2.734   5.434
 5056SOL    HW216068   1.992   2.871   5.351
 5057SOL     OW16069   0.577   4.666   2.777
 5057SOL    HW116070   0.631   4.596   2.730
 5057SOL    HW216071   0.563   4.640   2.872
 5058SOL     OW16072   3.495   4.078   6.712
 5058SOL    HW116073   3.566   4.038   6.654
 5058SOL    HW216074   3.538   4.133   6.783
 5059SOL     OW16075   3.322   1.798   3.386
 5059SOL    HW116076   3.242   1.794   3.446
 5059SOL    HW216077   3.308   1.737   3.308
 5060SOL     OW16078   0.453   3.231   5.984
 5060SOL    HW116079   0.444   3.327   5.956
 5060SOL    HW216080   0.531   3.221   6.045
 5061SOL     OW16081   3.872   2.780   5.746
 5061SOL    HW116082   3.878   2.807   5.842
 5061SOL    HW216083   3.921   2.846   5.689
 5062SOL     OW16084   5.375   1.393   3.274
 5062SOL    HW116085   5.385   1.435   3.365
 5062SOL    HW216086   5.280   1.400   3.244
 5063SOL     OW16087   0.748   0.857   2.506
 5063SOL    HW116088   0.763   0.794   2.429
 5063SOL    HW216089   0.828   0.855   2.566
 5064SOL     OW16090   5.009   5.690   1.106
 5064SOL    HW116091   4.921   5.666   1.147
 5064SOL    HW216092   4.995   5.723   1.013
 5065SOL     OW16093   2.234   0.444   2.459
 5065SOL    HW116094   2.190   0.530   2.485
 5065SOL    HW216095   2.314   0.429   2.517
 5066SOL     OW16096   2.482   4.846   1.896
 5066SOL    HW116097   2.527   4.907   1.830
 5066SOL    HW216098   2.465   4.895   1.981
 5067SOL     OW16099   4.728   2.970   0.405
 5067SOL    HW116100   4.780   2.920   0.475
 5067SOL    HW216101   4.784   2.980   0.323
 5068SOL     OW16102   2.787   6.377   0.665
 5068SOL    HW116103   2.760   6.290   0.706
 5068SOL    HW216104   2.738   6.452   0.709
 5069SOL     OW16105   3.246   4.842   5.621
 5069SOL    HW116106   3.340   4.820   5.647
 5069SOL    HW216107   3.184   4.774   5.662
 5070SOL     OW16108   5.968   3.489   4.014
 5070SOL    HW116109   5.898   3.468   3.945
 5070SOL    HW216110   6.040   3.545   3.972
 5071SOL     OW16111   2.701   0.765   4.388
 5071SOL    HW116112   2.673   0.711   4.309
 5071SOL    HW216113   2.623   0.778   4.449
 5072SOL     OW16114   0.530   1.523   0.241
 5072SOL    HW116115   0.525   1.438   0.294
 5072SOL    HW216116   0.446   1.533   0.187
 5073SOL     OW16117   2.378   0.934   2.593
 5073SOL    HW116118   2.307   0.879   2.638
 5073SOL    HW216119   2.390   0.903   2.499
 5074SOL     OW16120   3.416   2.273   1.741
 5074SOL    HW116121   3.368   2.234   1.819
 5074SOL    HW216122   3.510   2.295   1.767
 5075SOL     OW16123   1.035   3.517   0.335
 5075SOL    HW116124   0.968   3.544   0.404
 5075SOL    HW216125   1.036   3.585   0.261
 5076SOL     OW16126   5.698   0.253   6.231
 5076SOL    HW116127   5.693   0.352   6.226
 5076SOL    HW216128   5.605   0.215   6.225
 5077SOL     OW16129   0.854   4.449   3.978
 5077SOL    HW116130   0.837   4.369   4.035
 5077SOL    HW216131   0.848   4.532   4.035
 5078SOL     OW16132   0.640   1.570   4.171
 5078SOL    HW116133   0.549   1.547   4.138
 5078SOL    HW216134   0.698   1.596   4.094
 5079SOL     OW16135   1.162   3.030   5.608
 5079SOL    HW116136   1.210   3.117   5.616
 5079SOL    HW216137   1.215   2.958   5.653
 5080SOL     OW16138   5.960   5.898   6.529
 5080SOL    HW116139   5.890   5.878   6.598
 5080SOL    HW216140   6.023   5.966   6.566
 5081SOL     OW16141   3.264   5.121   5.639
 5081SOL    HW116142   3.253   5.025   5.611
 5081SOL    HW216143   3.360   5.148   5.627
 5082SOL     OW16144   5.185   6.070   2.227
 5082SOL    HW116145   5.132   6.074   2.142
 5082SOL    HW216146   5.282   6.059   2.206
 5083SOL     OW16147   1.521   0.082   3.183
 5083SOL    HW116148   1.481   0.151   3.242
 5083SOL    HW216149   1.554   0.126   3.099
 5084SOL     OW16150   2.046   5.098   5.665
 5084SOL    HW116151   2.138   5.102   5.626
 5084SOL    HW216152   1.998   5.017   5.631
 5085SOL     OW16153   0.511   4.087   5.997
 5085SOL    HW116154   0.493   4.170   6.049
 5085SOL    HW216155   0.525   4.110   5.901
 5086SOL     OW16156   2.032   5.429   2.256
 5086SOL    HW116157   2.008   5.396   2.164
 5086SOL    HW216158   1.950   5.434   2.313
 5087SOL     OW16159   6.560   4.955   1.853
 5087SOL    HW116160   6.650   4.919   1.878
 5087SOL    HW216161   6.532   4.915   1.766
 5088SOL     OW16162   4.931   6.471   1.942
 5088SOL    HW116163   4.986   6.459   2.024
 5088SOL    HW216164   4.940   6.390   1.884
 5089SOL     OW16165   6.047   5.093   5.554
 5089SOL    HW116166   6.053   5.164   5.623
 5089SOL    HW216167   5.992   5.126   5.477
 5090SOL     OW16168   3.091   6.987   4.988
 5090SOL    HW116169   3.084   6.943   4.899
 5090SOL    HW216170   3.088   0.061   4.976
 5091SOL     OW16171   6.416   0.056   6.781
 5091SOL    HW116172   6.496   0.076   6.837
 5091SOL    HW216173   6.337   0.042   6.841
 5092SOL     OW16174   2.939   3.554   3.926
 5092SOL    HW116175   2.938   3.478   3.991
 5092SOL    HW216176   2.845   3.582   3.906
 5093SOL     OW16177   2.066   2.151   3.000
 5093SOL    HW116178   2.125   2.139   2.920
 5093SOL    HW216179   2.106   2.220   3.060
 5094SOL     OW16180   2.397   5.525   5.773
 5094SOL    HW116181   2.332   5.541   5.699
 5094SOL    HW216182   2.476   5.585   5.762
 5095SOL     OW16183   6.514   1.504   3.322
 5095SOL    HW116184   6.572   1.560   3.264
 5095SOL    HW216185   6.533   1.407   3.305
 5096SOL     OW16186   5.819   3.421   5.631
 5096SOL    HW116187   5.815   3.331   5.674
 5096SOL    HW216188   5.779   3.489   5.692
 5097SOL     OW16189   1.366   0.394   6.323
 5097SOL    HW116190   1.267   0.400   6.307
 5097SOL    HW216191   1.403   0.486   6.337
 5098SOL     OW16192   3.624   2.714   1.525
 5098SOL    HW116193   3.706   2.749   1.480
 5098SOL    HW216194   3.641   2.704   1.623
 5099SOL     OW16195   1.142   0.242   1.775
 5099SOL    HW116196   1.085   0.256   1.856
 5099SOL    HW216197   1.185   0.152   1.781
 5100SOL     OW16198   5.660   4.582   2.569
 5100SOL    HW116199   5.715   4.645   2.623
 5100SOL    HW216200   5.711   4.497   2.555
 5101SOL     OW16201   3.803   6.989   6.481
 5101SOL    HW116202   3.851   6.926   6.543
 5101SOL    HW216203   3.800   0.055   6.522
 5102SOL     OW16204   4.964   4.411   4.550
 5102SOL    HW116205   5.003   4.345   4.614
 5102SOL    HW216206   4.873   4.378   4.521
 5103SOL     OW16207   1.177   0.903   6.536
 5103SOL    HW116208   1.265   0.928   6.577
 5103SOL    HW216209   1.120   0.858   6.605
 5104SOL     OW16210   3.597   3.610   1.614
 5104SOL    HW116211   3.564   3.695   1.572
 5104SOL    HW216212   3.578   3.533   1.553
 5105SOL     OW16213   4.115   4.089   6.372
 5105SOL    HW116214   4.150   4.035   6.295
 5105SOL    HW216215   4.112   4.032   6.454
 5106SOL     OW16216   4.428   2.399   0.764
 5106SOL    HW116217   4.424   2.462   0.841
 5106SOL    HW216218   4.512   2.344   0.770
 5107SOL     OW16219   4.634   3.370   0.310
 5107SOL    HW116220   4.647   3.384   0.212
 5107SOL    HW216221   4.537   3.377   0.333
 5108SOL     OW16222   4.146   4.866   6.941
 5108SOL    HW116223   4.205   4.899   7.014
 5108SOL    HW216224   4.071   4.812   6.980
 5109SOL     OW16225   1.342   2.818   1.427
 5109SOL    HW116226   1.314   2.822   1.331
 5109SOL    HW216227   1.416   2.883   1.443
 5110SOL     OW16228   5.017   0.757   5.845
 5110SOL    HW116229   5.022   0.831   5.911
 5110SOL    HW216230   4.937   0.771   5.785
 5111SOL     OW16231   0.846   6.368   5.042
 5111SOL    HW116232   0.916   6.305   5.010
 5111SOL    HW216233   0.879   6.462   5.035
 5112SOL     OW16234   0.204   7.009   2.750
 5112SOL    HW116235   0.284   0.031   2.714
 5112SOL    HW216236   0.232   6.947   2.824
 5113SOL     OW16237   1.864   3.799   0.034
 5113SOL    HW116238   1.854   3.872   6.992
 5113SOL    HW216239   1.961   3.783   0.052
 5114SOL     OW16240   4.805   5.472   0.969
 5114SOL    HW116241   4.766   5.491   1.059
 5114SOL    HW216242   4.749   5.404   0.922
 5115SOL     OW16243   2.304   3.498   1.174
 5115SOL    HW116244   2.345   3.417   1.130
 5115SOL    HW216245   2.208   3.505   1.147
 5116SOL     OW16246   1.959   6.923   6.546
 5116SOL    HW116247   1.981   7.018   6.563
 5116SOL    HW216248   2.030   6.864   6.585
 5117SOL     OW16249   1.014   2.488   4.090
 5117SOL    HW116250   0.946   2.488   4.017
 5117SOL    HW216251   1.043   2.395   4.109
 5118SOL     OW16252   5.205   6.180   6.406
 5118SOL    HW116253   5.293   6.172   6.359
 5118SOL    HW216254   5.213   6.142   6.498
 5119SOL     OW16255   5.343   1.500   0.402
 5119SOL    HW116256   5.428   1.515   0.352
 5119SOL    HW216257   5.310   1.586   0.440
 5120SOL     OW16258   5.327   6.858   5.617
 5120SOL    HW116259   5.418   6.887   5.588
 5120SOL    HW216260   5.310   6.888   5.711
 5121SOL     OW16261   1.586   3.992   6.569
 5121SOL    HW116262   1.568   3.937   6.488
 5121SOL    HW216263   1.684   3.995   6.586
 5122SOL     OW16264   4.881   5.148   4.137
 5122SOL    HW116265   4.944   5.217   4.174
 5122SOL    HW216266   4.789   5.186   4.133
 5123SOL     OW16267   5.247   3.128   1.725
 5123SOL    HW116268   5.266   3.060   1.655
 5123SOL    HW216269   5.170   3.185   1.697
 5124SOL     OW16270   2.347   6.020   4.007
 5124SOL    HW116271   2.277   5.959   3.970
 5124SOL    HW216272   2.327   6.114   3.983
 5125SOL     OW16273   0.074   1.700   3.634
 5125SOL    HW116274   0.141   1.676   3.563
 5125SOL    HW216275   0.103   1.783   3.680
 5126SOL     OW16276   2.357   0.048   0.383
 5126SOL    HW116277   2.329   0.018   0.292
 5126SOL    HW216278   2.442   0.002   0.409
 5127SOL     OW16279   1.563   5.098   6.908
 5127SOL    HW116280   1.610   5.186   6.902
 5127SOL    HW216281   1.584   5.042   6.828
 5128SOL     OW16282   6.204   6.656   1.731
 5128SOL    HW116283   6.240   6.723   1.796
 5128SOL    HW216284   6.251   6.569   1.743
 5129SOL     OW16285   5.725   6.642   1.192
 5129SOL    HW116286   5.817   6.678   1.211
 5129SOL    HW216287   5.661   6.674   1.262
 5130SOL     OW16288   6.670   5.103   2.980
 5130SOL    HW116289   6.750   5.066   3.028
 5130SOL    HW216290   6.696   5.134   2.889
 5131SOL     OW16291   2.441   2.547   3.162
 5131SOL    HW116292   2.432   2.631   3.109
 5131SOL    HW216293   2.536   2.516   3.158
 5132SOL     OW16294   2.832   5.471   5.217
 5132SOL    HW116295   2.786   5.482   5.305
 5132SOL    HW216296   2.900   5.398   5.222
 5133SOL     OW16297   3.859   6.489   6.307
 5133SOL    HW116298   3.959   6.491   6.304
 5133SOL    HW216299   3.828   6.394   6.310
 5134SOL     OW16300   0.171   3.732   0.473
 5134SOL    HW116301   0.204   3.771   0.559
 5134SOL    HW216302   0.250   3.708   0.416
 5135SOL     OW16303   6.591   1.791   4.625
 5135SOL    HW116304   6.679   1.743   4.625
 5135SOL    HW216305   6.606   1.889   4.642
 5136SOL     OW16306   4.149   1.522   4.075
 5136SOL    HW116307   4.151   1.573   3.989
 5136SOL    HW216308   4.185   1.430   4.060
 5137SOL     OW16309   3.515   4.448   6.153
 5137SOL    HW116310   3.599   4.456   6.206
 5137SOL    HW216311   3.510   4.357   6.112
 5138SOL     OW16312   2.404   3.678   5.726
 5138SOL    HW116313   2.499   3.703   5.744
 5138SOL    HW216314   2.349   3.692   5.808
 5139SOL     OW16315   0.513   0.399   3.519
 5139SOL    HW116316   0.525   0.418   3.616
 5139SOL    HW216317   0.603   0.392   3.475
 5140SOL     OW16318   3.091   2.740   1.222
 5140SOL    HW116319   3.132   2.688   1.147
 5140SOL    HW216320   3.160   2.800   1.263
 5141SOL     OW16321   6.257   3.302   6.732
 5141SOL    HW116322   6.222   3.237   6.800
 5141SOL    HW216323   6.182   3.334   6.675
 5142SOL     OW16324   5.584   3.412   4.253
 5142SOL    HW116325   5.667   3.376   4.297
 5142SOL    HW216326   5.510   3.346   4.263
 5143SOL     OW16327   6.663   5.437   4.279
 5143SOL    HW116328   6.634   5.376   4.205
 5143SOL    HW216329   6.728   5.389   4.338
 5144SOL     OW16330   1.473   1.218   5.271
 5144SOL    HW116331   1.563   1.181   5.290
 5144SOL    HW216332   1.446   1.194   5.177
 5145SOL     OW16333   2.907   5.349   5.954
 5145SOL    HW116334   2.845   5.328   6.030
 5145SOL    HW216335   2.879   5.435   5.912
 5146SOL     OW16336   2.882   4.981   0.023
 5146SOL    HW116337   2.842   4.924   0.094
 5146SOL    HW216338   2.820   4.986   6.970
 5147SOL     OW16339   6.196   4.491   6.894
 5147SOL    HW116340   6.198   4.551   6.815
 5147SOL    HW216341   6.107   4.498   6.940
 5148SOL     OW16342   0.797   5.780   1.609
 5148SOL    HW116343   0.767   5.694   1.568
 5148SOL    HW216344   0.787   5.776   1.708
 5149SOL     OW16345   0.013   1.399   4.893
 5149SOL    HW116346   6.977   1.468   4.856
 5149SOL    HW216347   0.080   1.372   4.823
 5150SOL     OW16348   1.764   5.047   4.523
 5150SOL    HW116349   1.789   5.098   4.605
 5150SOL    HW216350   1.667   5.023   4.528
 5151SOL     OW16351   4.305   0.971   6.719
 5151SOL    HW116352   4.247   0.962   6.800
 5151SOL    HW216353   4.250   1.001   6.641
 5152SOL     OW16354   0.621   4.886   7.020
 5152SOL    HW116355   0.623   4.819   6.946
 5152SOL    HW216356   0.615   4.838   0.083
 5153SOL     OW16357   1.647   1.886   0.710
 5153SOL    HW116358   1.732   1.854   0.751
 5153SOL    HW216359   1.667   1.936   0.625
 5154SOL     OW16360   1.985   2.915   4.699
 5154SOL    HW116361   1.936   2.993   4.660
 5154SOL    HW216362   2.077   2.943   4.724
 5155SOL     OW16363   3.158   0.655   2.410
 5155SOL    HW116364   3.107   0.666   2.325
 5155SOL    HW216365   3.256   0.658   2.390
 5156SOL     OW16366   5.968   2.630   5.008
 5156SOL    HW116367   5.882   2.677   5.028
 5156SOL    HW216368   6.000   2.582   5.089
 5157SOL     OW16369   5.352   3.155   3.645
 5157SOL    HW116370   5.386   3.142   3.738
 5157SOL    HW216371   5.417   3.116   3.579
 5158SOL     OW16372   4.343   1.666   1.741
 5158SOL    HW116373   4.292   1.603   1.800
 5158SOL    HW216374   4.357   1.753   1.788
 5159SOL     OW16375   1.613   3.150   4.016
 5159SOL    HW116376   1.702   3.115   4.046
 5159SOL    HW216377   1.547   3.143   4.091
 5160SOL     OW16378   1.830   3.034   4.097
 5160SOL    HW116379   1.783   3.011   4.183
 5160SOL    HW216380   1.924   3.060   4.117
 5161SOL     OW16381   1.293   3.049   5.949
 5161SOL    HW116382   1.267   3.030   6.044
 5161SOL    HW216383   1.387   3.083   5.946
 5162SOL     OW16384   6.811   6.363   4.261
 5162SOL    HW116385   6.777   6.369   4.167
 5162SOL    HW216386   6.911   6.352   4.260
 5163SOL     OW16387   5.774   3.757   0.827
 5163SOL    HW116388   5.855   3.709   0.795
 5163SOL    HW216389   5.705   3.691   0.859
 5164SOL     OW16390   5.883   4.254   6.076
 5164SOL    HW116391   5.872   4.246   6.175
 5164SOL    HW216392   5.844   4.173   6.032
 5165SOL     OW16393   6.498   4.276   4.483
 5165SOL    HW116394   6.439   4.198   4.506
 5165SOL    HW216395   6.447   4.340   4.426
 5166SOL     OW16396   1.303   6.650   1.874
 5166SOL    HW116397   1.280   6.740   1.911
 5166SOL    HW216398   1.221   6.609   1.834
 5167SOL     OW16399   0.395   6.634   5.908
 5167SOL    HW116400   0.317   6.619   5.848
 5167SOL    HW216401   0.472   6.580   5.876
 5168SOL     OW16402   4.155   2.159   2.904
 5168SOL    HW116403   4.130   2.205   2.818
 5168SOL    HW216404   4.155   2.225   2.979
 5169SOL     OW16405   3.562   4.280   5.845
 5169SOL    HW116406   3.497   4.205   5.830
 5169SOL    HW216407   3.615   4.262   5.928
 5170SOL     OW16408   5.430   3.833   4.836
 5170SOL    HW116409   5.503   3.804   4.775
 5170SOL    HW216410   5.441   3.788   4.925
 5171SOL     OW16411   2.590   4.637   4.423
 5171SOL    HW116412   2.602   4.661   4.519
 5171SOL    HW216413   2.671   4.665   4.371
 5172SOL     OW16414   1.083   5.288   1.582
 5172SOL    HW116415   1.091   5.265   1.485
 5172SOL    HW216416   1.153   5.238   1.634
 5173SOL     OW16417   5.559   3.459   5.908
 5173SOL    HW116418   5.653   3.474   5.937
 5173SOL    HW216419   5.558   3.407   5.822
 5174SOL     OW16420   1.223   4.665   5.984
 5174SOL    HW116421   1.218   4.707   5.893
 5174SOL    HW216422   1.167   4.582   5.986
 5175SOL     OW16423   0.241   4.893   6.371
 5175SOL    HW116424   0.193   4.938   6.296
 5175SOL    HW216425   0.315   4.836   6.334
 5176SOL     OW16426   5.581   3.564   0.552
 5176SOL    HW116427   5.582   3.649   0.499
 5176SOL    HW216428   5.490   3.524   0.549
 5177SOL     OW16429   5.178   0.016   6.407
 5177SOL    HW116430   5.110   7.017   6.338
 5177SOL    HW216431   5.165   6.982   6.487
 5178SOL     OW16432   2.485   2.568   1.887
 5178SOL    HW116433   2.440   2.504   1.824
 5178SOL    HW216434   2.483   2.660   1.848
 5179SOL     OW16435   3.163   6.020   5.906
 5179SOL    HW116436   3.205   6.055   5.822
 5179SOL    HW216437   3.214   5.940   5.938
 5180SOL     OW16438   2.937   1.892   1.368
 5180SOL    HW116439   2.968   1.952   1.294
 5180SOL    HW216440   2.976   1.923   1.455
 5181SOL     OW16441   4.287   6.439   2.768
 5181SOL    HW116442   4.223   6.391   2.708
 5181SOL    HW216443   4.311   6.381   2.846
 5182SOL     OW16444   5.066   4.540   1.872
 5182SOL    HW116445   5.037   4.519   1.966
 5182SOL    HW216446   5.117   4.463   1.835
 5183SOL     OW16447   4.317   0.314   2.377
 5183SOL    HW116448   4.286   0.237   2.434
 5183SOL    HW216449   4.261   0.395   2.397
 5184SOL     OW16450   0.894   1.016   3.066
 5184SOL    HW116451   0.923   1.060   2.981
 5184SOL    HW216452   0.881   1.085   3.137
 5185SOL     OW16453   3.982   0.730   2.495
 5185SOL    HW116454   3.965   0.737   2.593
 5185SOL    HW216455   3.898   0.747   2.444
 5186SOL     OW16456   6.390   4.734   0.412
 5186SOL    HW116457   6.473   4.679   0.420
 5186SOL    HW216458   6.311   4.682   0.444
 5187SOL     OW16459   5.101   1.905   3.771
 5187SOL    HW116460   5.074   1.818   3.731
 5187SOL    HW216461   5.075   1.979   3.710
 5188SOL     OW16462   1.079   3.918   5.724
 5188SOL    HW116463   1.136   3.979   5.668
 5188SOL    HW216464   1.121   3.907   5.814
 5189SOL     OW16465   4.609   5.709   6.434
 5189SOL    HW116466   4.570   5.789   6.389
 5189SOL    HW216467   4.545   5.674   6.502
 5190SOL     OW16468   1.533   2.449   3.598
 5190SOL    HW116469   1.582   2.501   3.668
 5190SOL    HW216470   1.597   2.392   3.547
 5191SOL     OW16471   3.786   0.038   1.924
 5191SOL    HW116472   3.786   0.012   2.021
 5191SOL    HW216473   3.879   0.033   1.888
 5192SOL     OW16474   6.311   5.264   2.421
 5192SOL    HW116475   6.228   5.210   2.406
 5192SOL    HW216476   6.295   5.330   2.495
 5193SOL     OW16477   4.846   3.921   2.850
 5193SOL    HW116478   4.816   3.841   2.797
 5193SOL    HW216479   4.907   3.977   2.794
 5194SOL     OW16480   6.110   0.701   5.516
 5194SOL    HW116481   6.044   0.768   5.483
 5194SOL    HW216482   6.202   0.742   5.518
 5195SOL     OW16483   6.752   5.970   6.107
 5195SOL    HW116484   6.730   5.897   6.043
 5195SOL    HW216485   6.701   6.053   6.083
 5196SOL     OW16486   0.332   3.695   1.961
 5196SOL    HW116487   0.241   3.680   1.922
 5196SOL    HW216488   0.355   3.618   2.022
 5197SOL     OW16489   3.147   6.102   4.761
 5197SOL    HW116490   3.069   6.046   4.736
 5197SOL    HW216491   3.232   6.051   4.744
 5198SOL     OW16492   4.464   6.771   5.344
 5198SOL    HW116493   4.540   6.721   5.386
 5198SOL    HW216494   4.397   6.705   5.309
 5199SOL     OW16495   1.230   4.673   1.880
 5199SOL    HW116496   1.290   4.738   1.834
 5199SOL    HW216497   1.194   4.714   1.964
 5200SOL     OW16498   6.806   0.573   5.316
 5200SOL    HW116499   6.805   0.671   5.338
 5200SOL    HW216500   6.872   0.556   5.243
 5201SOL     OW16501   6.540   5.199   4.142
 5201SOL    HW116502   6.501   5.107   4.137
 5201SOL    HW216503   6.484   5.262   4.089
 5202SOL     OW16504   3.923   3.035   6.268
 5202SOL    HW116505   3.980   3.111   6.239
 5202SOL    HW216506   3.975   2.973   6.326
 5203SOL     OW16507   1.910   0.124   0.109
 5203SOL    HW116508   1.922   0.142   0.207
 5203SOL    HW216509   1.837   0.057   0.096
 5204SOL     OW16510   3.137   0.622   0.562
 5204SOL    HW116511   3.199   0.671   0.500
 5204SOL    HW216512   3.055   0.595   0.511
 5205SOL     OW16513   0.544   5.660   0.921
 5205SOL    HW116514   0.622   5.605   0.890
 5205SOL    HW216515   0.502   5.706   0.842
 5206SOL     OW16516   1.165   4.587   4.296
 5206SOL    HW116517   1.081   4.633   4.323
 5206SOL    HW216518   1.221   4.568   4.377
 5207SOL     OW16519   0.087   0.227   3.495
 5207SOL    HW116520   0.069   0.176   3.579
 5207SOL    HW216521   0.186   0.240   3.485
 5208SOL     OW16522   4.870   1.947   0.423
 5208SOL    HW116523   4.908   2.034   0.455
 5208SOL    HW216524   4.786   1.965   0.370
 5209SOL     OW16525   5.930   6.238   2.646
 5209SOL    HW116526   5.917   6.165   2.579
 5209SOL    HW216527   5.900   6.325   2.607
 5210SOL     OW16528   5.469   4.274   6.916
 5210SOL    HW116529   5.408   4.338   6.869
 5210SOL    HW216530   5.557   4.319   6.933
 5211SOL     OW16531   4.810   3.030   4.572
 5211SOL    HW116532   4.839   3.105   4.631
 5211SOL    HW216533   4.755   2.965   4.626
 5212SOL     OW16534   0.925   3.576   0.728
 5212SOL    HW116535   1.021   3.573   0.702
 5212SOL    HW216536   0.907   3.659   0.781
 5213SOL     OW16537   4.130   3.516   2.740
 5213SOL    HW116538   4.105   3.468   2.656
 5213SOL    HW216539   4.151   3.449   2.811
 5214SOL     OW16540   5.347   3.688   5.451
 5214SOL    HW116541   5.436   3.646   5.434
 5214SOL    HW216542   5.334   3.701   5.549
 5215SOL     OW16543   0.379   3.674   4.998
 5215SOL    HW116544   0.452   3.635   4.942
 5215SOL    HW216545   0.407   3.672   5.094
 5216SOL     OW16546   5.166   5.170   1.251
 5216SOL    HW116547   5.115   5.217   1.179
 5216SOL    HW216548   5.103   5.141   1.323
 5217SOL     OW16549   4.426   5.997   3.381
 5217SOL    HW116550   4.477   6.003   3.467
 5217SOL    HW216551   4.328   6.011   3.400
 5218SOL     OW16552   0.829   6.803   1.229
 5218SOL    HW116553   0.781   6.803   1.317
 5218SOL    HW216554   0.881   6.888   1.219
 5219SOL     OW16555   3.405   1.400   4.888
 5219SOL    HW116556   3.380   1.491   4.922
 5219SOL    HW216557   3.504   1.391   4.887
 5220SOL     OW16558   2.296   4.802   4.254
 5220SOL    HW116559   2.260   4.717   4.215
 5220SOL    HW216560   2.319   4.787   4.350
 5221SOL     OW16561   6.308   5.853   1.022
 5221SOL    HW116562   6.354   5.859   1.110
 5221SOL    HW216563   6.372   5.876   0.949
 5222SOL     OW16564   6.143   3.810   0.898
 5222SOL    HW116565   6.094   3.761   0.826
 5222SOL    HW216566   6.084   3.819   0.978
 5223SOL     OW16567   0.068   3.207   0.888
 5223SOL    HW116568   0.068   3.278   0.818
 5223SOL    HW216569   0.062   3.117   0.845
 5224SOL     OW16570   0.531   2.478   4.857
 5224SOL    HW116571   0.467   2.539   4.903
 5224SOL    HW216572   0.563   2.521   4.773
 5225SOL     OW16573   0.072   1.897   4.717
 5225SOL    HW116574   0.011   1.854   4.783
 5225SOL    HW216575   0.054   1.996   4.715
 5226SOL     OW16576   0.771   6.561   3.769
 5226SOL    HW116577   0.720   6.522   3.846
 5226SOL    HW216578   0.775   6.493   3.695
 5227SOL     OW16579   0.059   2.939   5.243
 5227SOL    HW116580   0.083   2.974   5.334
 5227SOL    HW216581   6.986   2.924   5.238
 5228SOL     OW16582   0.984   1.577   6.057
 5228SOL    HW116583   0.898   1.538   6.090
 5228SOL    HW216584   0.981   1.582   5.957
 5229SOL     OW16585   3.195   1.308   5.920
 5229SOL    HW116586   3.102   1.280   5.941
 5229SOL    HW216587   3.199   1.347   5.828
 5230SOL     OW16588   6.788   6.649   2.044
 5230SOL    HW116589   6.810   6.558   2.080
 5230SOL    HW216590   6.869   6.688   2.000
 5231SOL     OW16591   6.814   2.017   1.576
 5231SOL    HW116592   6.806   2.072   1.493
 5231SOL    HW216593   6.723   2.008   1.619
 5232SOL     OW16594   1.474   2.721   5.634
 5232SOL    HW116595   1.450   2.798   5.575
 5232SOL    HW216596   1.423   2.728   5.720
 5233SOL     OW16597   2.744   0.244   2.953
 5233SOL    HW116598   2.788   0.316   2.900
 5233SOL    HW216599   2.785   0.155   2.931
 5234SOL     OW16600   1.746   2.149   7.001
 5234SOL    HW116601   1.659   2.103   6.980
 5234SOL    HW216602   1.816   2.117   6.937
 5235SOL     OW16603   2.301   2.718   1.315
 5235SOL    HW116604   2.227   2.742   1.377
 5235SOL    HW216605   2.278   2.633   1.267
 5236SOL     OW16606   3.388   5.491   1.888
 5236SOL    HW116607   3.416   5.585   1.906
 5236SOL    HW216608   3.317   5.490   1.817
 5237SOL     OW16609   1.732   2.020   2.653
 5237SOL    HW116610   1.730   2.120   2.645
 5237SOL    HW216611   1.713   1.979   2.565
 5238SOL     OW16612   0.719   6.285   2.957
 5238SOL    HW116613   0.743   6.316   2.865
 5238SOL    HW216614   0.620   6.293   2.969
 5239SOL     OW16615   2.384   3.728   1.049
 5239SOL    HW116616   2.348   3.711   0.957
 5239SOL    HW216617   2.389   3.641   1.098
 5240SOL     OW16618   1.866   3.603   5.560
 5240SOL    HW116619   1.963   3.582   5.552
 5240SOL    HW216620   1.852   3.702   5.557
 5241SOL     OW16621   0.472   5.467   2.152
 5241SOL    HW116622   0.550   5.416   2.114
 5241SOL    HW216623   0.414   5.404   2.203
 5242SOL     OW16624   4.505   0.365   6.995
 5242SOL    HW116625   4.571   0.420   6.944
 5242SOL    HW216626   4.427   0.422   7.020
 5243SOL     OW16627   2.492   6.581   2.285
 5243SOL    HW116628   2.488   6.539   2.195
 5243SOL    HW216629   2.561   6.536   2.341
 5244SOL     OW16630   4.556   2.305   0.008
 5244SOL    HW116631   4.638   2.265   0.050
 5244SOL    HW216632   4.475   2.255   0.040
 5245SOL     OW16633   3.875   3.643   1.591
 5245SOL    HW116634   3.908   3.738   1.588
 5245SOL    HW216635   3.775   3.643   1.600
 5246SOL     OW16636   6.329   3.579   0.455
 5246SOL    HW116637   6.317   3.629   0.540
 5246SOL    HW216638   6.344   3.482   0.475
 5247SOL     OW16639   4.156   2.051   6.378
 5247SOL    HW116640   4.145   2.030   6.475
 5247SOL    HW216641   4.068   2.074   6.338
 5248SOL     OW16642   6.740   1.053   3.525
 5248SOL    HW116643   6.714   1.070   3.621
 5248SOL    HW216644   6.699   0.968   3.494
 5249SOL     OW16645   0.294   4.808   6.877
 5249SOL    HW116646   0.278   4.768   6.787
 5249SOL    HW216647   0.250   4.898   6.882
 5250SOL     OW16648   1.778   5.511   1.169
 5250SOL    HW116649   1.742   5.431   1.121
 5250SOL    HW216650   1.707   5.550   1.227
 5251SOL     OW16651   0.664   4.607   0.419
 5251SOL    HW116652   0.693   4.520   0.380
 5251SOL    HW216653   0.720   4.629   0.498
 5252SOL     OW16654   4.278   6.642   2.426
 5252SOL    HW116655   4.180   6.644   2.442
 5252SOL    HW216656   4.304   6.555   2.384
 5253SOL     OW16657   6.792   5.987   4.644
 5253SOL    HW116658   6.862   6.012   4.711
 5253SOL    HW216659   6.706   6.034   4.666
 5254SOL     OW16660   5.690   6.847   3.849
 5254SOL    HW116661   5.732   6.919   3.905
 5254SOL    HW216662   5.646   6.888   3.769
 5255SOL     OW16663   6.165   1.703   5.434
 5255SOL    HW116664   6.120   1.779   5.481
 5255SOL    HW216665   6.160   1.717   5.335
 5256SOL     OW16666   0.056   1.658   2.548
 5256SOL    HW116667   0.108   1.573   2.537
 5256SOL    HW216668   0.115   1.736   2.527
 5257SOL     OW16669   3.927   0.826   6.410
 5257SOL    HW116670   3.991   0.809   6.334
 5257SOL    HW216671   3.942   0.918   6.446
 5258SOL     OW16672   4.063   1.411   2.973
 5258SOL    HW116673   4.020   1.491   3.014
 5258SOL    HW216674   4.112   1.360   3.043
 5259SOL     OW16675   6.482   5.465   3.458
 5259SOL    HW116676   6.538   5.395   3.415
 5259SOL    HW216677   6.392   5.428   3.479
 5260SOL     OW16678   2.757   1.171   0.787
 5260SOL    HW116679   2.728   1.263   0.760
 5260SOL    HW216680   2.700   1.139   0.863
 5261SOL     OW16681   5.576   4.026   6.854
 5261SOL    HW116682   5.538   4.112   6.889
 5261SOL    HW216683   5.658   4.045   6.801
 5262SOL     OW16684   2.095   0.696   2.516
 5262SOL    HW116685   2.011   0.652   2.547
 5262SOL    HW216686   2.126   0.760   2.586
 5263SOL     OW16687   1.114   6.341   2.195
 5263SOL    HW116688   1.077   6.418   2.247
 5263SOL    HW216689   1.213   6.339   2.204
 5264SOL     OW16690   6.149   1.640   2.052
 5264SOL    HW116691   6.213   1.599   1.987
 5264SOL    HW216692   6.073   1.576   2.070
 5265SOL     OW16693   6.248   5.107   4.570
 5265SOL    HW116694   6.202   5.108   4.658
 5265SOL    HW216695   6.180   5.106   4.496
 5266SOL     OW16696   2.157   0.368   0.038
 5266SOL    HW116697   2.214   0.288   0.059
 5266SOL    HW216698   2.141   0.372   6.964
 5267SOL     OW16699   5.532   2.945   4.456
 5267SOL    HW116700   5.618   2.975   4.414
 5267SOL    HW216701   5.485   3.025   4.494
 5268SOL     OW16702   5.318   0.519   6.192
 5268SOL    HW116703   5.377   0.592   6.160
 5268SOL    HW216704   5.229   0.525   6.146
 5269SOL     OW16705   0.519   0.118   4.076
 5269SOL    HW116706   0.584   0.169   4.133
 5269SOL    HW216707   0.569   0.059   4.012
 5270SOL     OW16708   6.983   1.969   5.821
 5270SOL    HW116709   7.019   2.056   5.787
 5270SOL    HW216710   7.011   1.896   5.759
 5271SOL     OW16711   0.383   4.788   3.094
 5271SOL    HW116712   0.467   4.785   3.149
 5271SOL    HW216713   0.323   4.714   3.121
 5272SOL     OW16714   4.768   0.438   0.198
 5272SOL    HW116715   4.805   0.506   0.136
 5272SOL    HW216716   4.669   0.430   0.184
 5273SOL     OW16717   1.475   2.033   2.832
 5273SOL    HW116718   1.534   2.066   2.759
 5273SOL    HW216719   1.532   1.999   2.908
 5274SOL     OW16720   4.764   5.171   1.883
 5274SOL    HW116721   4.693   5.210   1.823
 5274SOL    HW216722   4.851   5.171   1.835
 5275SOL     OW16723   4.393   2.016   6.684
 5275SOL    HW116724   4.295   2.010   6.666
 5275SOL    HW216725   4.441   2.038   6.599
 5276SOL     OW16726   4.488   6.149   2.033
 5276SOL    HW116727   4.465   6.173   1.939
 5276SOL    HW216728   4.524   6.055   2.035
 5277SOL     OW16729   2.483   2.813   1.781
 5277SOL    HW116730   2.527   2.899   1.758
 5277SOL    HW216731   2.481   2.753   1.701
 5278SOL     OW16732   4.573   4.008   1.484
 5278SOL    HW116733   4.640   4.026   1.412
 5278SOL    HW216734   4.582   4.077   1.555
 5279SOL     OW16735   2.763   5.622   2.741
 5279SOL    HW116736   2.795   5.684   2.812
 5279SOL    HW216737   2.765   5.528   2.776
 5280SOL     OW16738   5.241   6.166   4.574
 5280SOL    HW116739   5.196   6.217   4.647
 5280SOL    HW216740   5.194   6.184   4.488
 5281SOL     OW16741   6.967   2.345   1.593
 5281SOL    HW116742   6.953   2.395   1.507
 5281SOL    HW216743   7.004   2.254   1.574
 5282SOL     OW16744   5.136   1.877   2.398
 5282SOL    HW116745   5.047   1.839   2.371
 5282SOL    HW216746   5.123   1.940   2.474
 5283SOL     OW16747   5.045   5.103   6.567
 5283SOL    HW116748   5.033   5.200   6.587
 5283SOL    HW216749   5.140   5.077   6.583
 5284SOL     OW16750   5.887   2.915   3.671
 5284SOL    HW116751   5.822   2.935   3.744
 5284SOL    HW216752   5.964   2.978   3.677
 5285SOL     OW16753   3.291   5.890   3.170
 5285SOL    HW116754   3.223   5.952   3.130
 5285SOL    HW216755   3.374   5.892   3.114
 5286SOL     OW16756   2.205   4.876   2.022
 5286SOL    HW116757   2.108   4.856   2.007
 5286SOL    HW216758   2.221   4.974   2.013
 5287SOL     OW16759   0.888   1.288   1.244
 5287SOL    HW116760   0.854   1.379   1.268
 5287SOL    HW216761   0.810   1.228   1.224
 5288SOL     OW16762   4.224   0.776   0.614
 5288SOL    HW116763   4.169   0.812   0.689
 5288SOL    HW216764   4.201   0.823   0.529
 5289SOL     OW16765   2.273   5.294   1.194
 5289SOL    HW116766   2.288   5.298   1.095
 5289SOL    HW216767   2.175   5.282   1.213
 5290SOL     OW16768   5.218   5.857   0.543
 5290SOL    HW116769   5.234   5.949   0.508
 5290SOL    HW216770   5.257   5.849   0.635
 5291SOL     OW16771   1.575   5.077   5.952
 5291SOL    HW116772   1.596   5.040   5.862
 5291SOL    HW216773   1.492   5.033   5.988
 5292SOL     OW16774   5.369   3.075   5.998
 5292SOL    HW116775   5.402   3.151   6.054
 5292SOL    HW216776   5.272   3.060   6.017
 5293SOL     OW16777   0.850   0.830   4.700
 5293SOL    HW116778   0.769   0.782   4.733
 5293SOL    HW216779   0.903   0.769   4.641
 5294SOL     OW16780   5.327   2.200   5.298
 5294SOL    HW116781   5.275   2.176   5.216
 5294SOL    HW216782   5.288   2.154   5.377
 5295SOL     OW16783   5.892   0.948   2.424
 5295SOL    HW116784   5.838   0.973   2.504
 5295SOL    HW216785   5.831   0.921   2.349
 5296SOL     OW16786   0.837   4.037   0.529
 5296SOL    HW116787   0.848   4.097   0.608
 5296SOL    HW216788   0.740   4.030   0.506
 5297SOL     OW16789   1.820   3.018   1.403
 5297SOL    HW116790   1.856   3.111   1.414
 5297SOL    HW216791   1.828   2.970   1.490
 5298SOL     OW16792   0.975   5.057   1.733
 5298SOL    HW116793   0.918   5.122   1.682
 5298SOL    HW216794   1.066   5.097   1.747
 5299SOL     OW16795   3.060   0.501   1.623
 5299SOL    HW116796   3.088   0.581   1.676
 5299SOL    HW216797   2.961   0.499   1.615
 5300SOL     OW16798   6.860   5.419   3.126
 5300SOL    HW116799   6.933   5.371   3.175
 5300SOL    HW216800   6.774   5.407   3.175
 5301SOL     OW16801   5.063   0.753   0.143
 5301SOL    HW116802   5.155   0.729   0.173
 5301SOL    HW216803   5.026   0.825   0.202
 5302SOL     OW16804   6.528   4.717   3.425
 5302SOL    HW116805   6.463   4.642   3.439
 5302SOL    HW216806   6.568   4.743   3.513
 5303SOL     OW16807   0.491   4.814   3.574
 5303SOL    HW116808   0.552   4.782   3.646
 5303SOL    HW216809   0.508   4.911   3.557
 5304SOL     OW16810   5.268   1.949   5.444
 5304SOL    HW116811   5.280   1.952   5.544
 5304SOL    HW216812   5.341   1.894   5.403
 5305SOL     OW16813   2.772   0.932   3.167
 5305SOL    HW116814   2.672   0.922   3.162
 5305SOL    HW216815   2.795   1.004   3.233
 5306SOL     OW16816   2.605   0.351   4.963
 5306SOL    HW116817   2.558   0.346   5.052
 5306SOL    HW216818   2.616   0.258   4.926
 5307SOL     OW16819   4.529   6.720   6.498
 5307SOL    HW116820   4.437   6.758   6.509
 5307SOL    HW216821   4.586   6.785   6.448
 5308SOL     OW16822   6.493   0.938   3.256
 5308SOL    HW116823   6.473   1.014   3.193
 5308SOL    HW216824   6.580   0.896   3.230
 5309SOL     OW16825   3.664   3.683   3.823
 5309SOL    HW116826   3.732   3.626   3.869
 5309SOL    HW216827   3.581   3.629   3.805
 5310SOL     OW16828   5.612   1.853   0.526
 5310SOL    HW116829   5.588   1.759   0.549
 5310SOL    HW216830   5.707   1.856   0.494
 5311SOL     OW16831   1.850   5.853   6.958
 5311SOL    HW116832   1.847   5.849   0.032
 5311SOL    HW216833   1.944   5.862   6.927
 5312SOL     OW16834   0.582   2.608   2.088
 5312SOL    HW116835   0.593   2.655   2.176
 5312SOL    HW216836   0.561   2.674   2.017
 5313SOL     OW16837   1.539   5.776   6.897
 5313SOL    HW116838   1.508   5.691   6.939
 5313SOL    HW216839   1.536   5.849   6.966
 5314SOL     OW16840   3.283   5.269   0.759
 5314SOL    HW116841   3.308   5.178   0.726
 5314SOL    HW216842   3.183   5.280   0.755
 5315SOL     OW16843   5.243   3.202   2.491
 5315SOL    HW116844   5.241   3.170   2.585
 5315SOL    HW216845   5.170   3.157   2.439
 5316SOL     OW16846   6.403   5.131   4.928
 5316SOL    HW116847   6.304   5.118   4.930
 5316SOL    HW216848   6.426   5.200   4.859
 5317SOL     OW16849   5.657   5.853   2.794
 5317SOL    HW116850   5.575   5.797   2.779
 5317SOL    HW216851   5.728   5.797   2.837
 5318SOL     OW16852   0.369   2.610   5.056
 5318SOL    HW116853   0.279   2.630   5.094
 5318SOL    HW216854   0.409   2.532   5.103
 5319SOL     OW16855   3.970   6.908   1.544
 5319SOL    HW116856   4.002   6.936   1.635
 5319SOL    HW216857   4.009   6.819   1.521
 5320SOL     OW16858   5.749   3.750   6.062
 5320SOL    HW116859   5.653   3.767   6.086
 5320SOL    HW216860   5.798   3.715   6.141
 5321SOL     OW16861   1.663   5.220   6.455
 5321SOL    HW116862   1.714   5.273   6.523
 5321SOL    HW216863   1.724   5.153   6.412
 5322SOL     OW16864   3.479   6.251   0.303
 5322SOL    HW116865   3.501   6.252   0.206
 5322SOL    HW216866   3.552   6.295   0.355
 5323SOL     OW16867   6.276   3.259   0.284
 5323SOL    HW116868   6.200   3.307   0.327
 5323SOL    HW216869   6.297   3.300   0.196
 5324SOL     OW16870   3.888   2.886   1.765
 5324SOL    HW116871   3.872   2.903   1.862
 5324SOL    HW216872   3.942   2.803   1.754
 5325SOL     OW16873   4.800   5.838   4.191
 5325SOL    HW116874   4.817   5.769   4.261
 5325SOL    HW216875   4.853   5.818   4.109
 5326SOL     OW16876   6.910   0.291   2.217
 5326SOL    HW116877   6.924   0.206   2.267
 5326SOL    HW216878   6.872   0.271   2.126
 5327SOL     OW16879   6.880   0.730   4.972
 5327SOL    HW116880   6.918   0.641   4.997
 5327SOL    HW216881   6.948   0.784   4.923
 5328SOL     OW16882   3.666   5.022   0.829
 5328SOL    HW116883   3.592   5.074   0.873
 5328SOL    HW216884   3.747   5.024   0.887
 5329SOL     OW16885   6.597   5.269   0.320
 5329SOL    HW116886   6.674   5.214   0.289
 5329SOL    HW216887   6.521   5.209   0.344
 5330SOL     OW16888   3.783   4.924   0.409
 5330SOL    HW116889   3.785   5.004   0.468
 5330SOL    HW216890   3.748   4.950   0.319
 5331SOL     OW16891   4.011   2.534   6.499
 5331SOL    HW116892   4.080   2.490   6.442
 5331SOL    HW216893   4.054   2.602   6.558
 5332SOL     OW16894   6.360   3.042   0.407
 5332SOL    HW116895   6.353   3.127   0.355
 5332SOL    HW216896   6.293   2.976   0.372
 5333SOL     OW16897   1.348   2.159   4.129
 5333SOL    HW116898   1.344   2.064   4.098
 5333SOL    HW216899   1.373   2.218   4.052
 5334SOL     OW16900   3.193   5.832   1.916
 5334SOL    HW116901   3.128   5.793   1.981
 5334SOL    HW216902   3.193   5.932   1.925
 5335SOL     OW16903   0.330   4.189   1.420
 5335SOL    HW116904   0.364   4.273   1.461
 5335SOL    HW216905   0.290   4.209   1.330
 5336SOL     OW16906   1.487   3.066   4.776
 5336SOL    HW116907   1.523   3.157   4.759
 5336SOL    HW216908   1.467   3.055   4.874
 5337SOL     OW16909   6.164   5.157   0.720
 5337SOL    HW116910   6.163   5.064   0.757
 5337SOL    HW216911   6.259   5.191   0.720
 5338SOL     OW16912   6.001   3.529   0.953
 5338SOL    HW116913   5.959   3.569   1.034
 5338SOL    HW216914   6.100   3.532   0.961
 5339SOL     OW16915   5.507   3.663   2.689
 5339SOL    HW116916   5.551   3.727   2.752
 5339SOL    HW216917   5.409   3.683   2.685
 5340SOL     OW16918   4.837   3.979   2.476
 5340SOL    HW116919   4.793   3.911   2.417
 5340SOL    HW216920   4.915   3.937   2.522
 5341SOL     OW16921   4.234   4.761   3.910
 5341SOL    HW116922   4.250   4.781   3.814
 5341SOL    HW216923   4.314   4.786   3.964
 5342SOL     OW16924   6.625   5.887   5.008
 5342SOL    HW116925   6.703   5.825   5.002
 5342SOL    HW216926   6.540   5.834   5.014
 5343SOL     OW16927   3.421   2.830   6.418
 5343SOL    HW116928   3.389   2.760   6.482
 5343SOL    HW216929   3.382   2.919   6.444
 5344SOL     OW16930   0.827   1.342   6.077
 5344SOL    HW116931   0.924   1.328   6.095
 5344SOL    HW216932   0.773   1.283   6.137
 5345SOL     OW16933   4.565   1.352   6.899
 5345SOL    HW116934   4.596   1.313   6.813
 5345SOL    HW216935   4.524   1.441   6.883
 5346SOL     OW16936   3.105   6.331   3.543
 5346SOL    HW116937   3.184   6.277   3.572
 5346SOL    HW216938   3.130   6.428   3.544
 5347SOL     OW16939   5.628   1.739   4.161
 5347SOL    HW116940   5.723   1.719   4.186
 5347SOL    HW216941   5.619   1.739   4.061
 5348SOL     OW16942   5.114   2.710   4.438
 5348SOL    HW116943   5.166   2.641   4.488
 5348SOL    HW216944   5.175   2.759   4.376
 5349SOL     OW16945   0.731   3.499   1.586
 5349SOL    HW116946   0.696   3.494   1.492
 5349SOL    HW216947   0.758   3.593   1.606
 5350SOL     OW16948   0.913   6.020   6.593
 5350SOL    HW116949   0.893   6.095   6.657
 5350SOL    HW216950   1.010   5.997   6.599
 5351SOL     OW16951   6.369   6.313   3.365
 5351SOL    HW116952   6.271   6.296   3.362
 5351SOL    HW216953   6.391   6.362   3.450
 5352SOL     OW16954   1.099   3.229   5.935
 5352SOL    HW116955   1.190   3.190   5.951
 5352SOL    HW216956   1.041   3.161   5.890
 5353SOL     OW16957   3.900   5.035   3.562
 5353SOL    HW116958   3.937   5.109   3.619
 5353SOL    HW216959   3.811   5.007   3.597
 5354SOL     OW16960   3.977   5.968   1.147
 5354SOL    HW116961   3.957   5.888   1.204
 5354SOL    HW216962   4.076   5.979   1.138
 5355SOL     OW16963   5.307   4.374   5.172
 5355SOL    HW116964   5.261   4.317   5.104
 5355SOL    HW216965   5.252   4.377   5.256
 5356SOL     OW16966   0.134   5.516   0.897
 5356SOL    HW116967   0.154   5.614   0.888
 5356SOL    HW216968   0.211   5.470   0.941
 5357SOL     OW16969   6.365   3.548   2.946
 5357SOL    HW116970   6.278   3.597   2.954
 5357SOL    HW216971   6.358   3.461   2.996
 5358SOL     OW16972   4.076   1.333   6.989
 5358SOL    HW116973   4.153   1.314   0.025
 5358SOL    HW216974   4.102   1.404   6.924
 5359SOL     OW16975   3.290   2.170   6.606
 5359SOL    HW116976   3.230   2.165   6.526
 5359SOL    HW216977   3.339   2.083   6.616
 5360SOL     OW16978   5.706   4.843   4.033
 5360SOL    HW116979   5.787   4.793   4.003
 5360SOL    HW216980   5.646   4.781   4.083
 5361SOL     OW16981   1.509   5.421   2.319
 5361SOL    HW116982   1.467   5.330   2.319
 5361SOL    HW216983   1.477   5.472   2.398
 5362SOL     OW16984   6.030   1.549   2.429
 5362SOL    HW116985   6.113   1.511   2.388
 5362SOL    HW216986   6.054   1.597   2.513
 5363SOL     OW16987   5.928   5.112   3.820
 5363SOL    HW116988   5.916   5.202   3.862
 5363SOL    HW216989   5.840   5.065   3.815
 5364SOL     OW16990   4.427   1.445   2.882
 5364SOL    HW116991   4.447   1.507   2.806
 5364SOL    HW216992   4.439   1.350   2.852
 5365SOL     OW16993   2.944   3.326   4.183
 5365SOL    HW116994   2.977   3.258   4.248
 5365SOL    HW216995   2.939   3.415   4.227
 5366SOL     OW16996   6.256   6.490   3.145
 5366SOL    HW116997   6.190   6.522   3.077
 5366SOL    HW216998   6.232   6.397   3.173
 5367SOL     OW16999   6.023   5.953   1.434
 5367SOL    HW117000   6.089   5.877   1.438
 5367SOL    HW217001   5.966   5.944   1.352
 5368SOL     OW17002   0.037   6.005   4.039
 5368SOL    HW117003   6.988   6.067   4.015
 5368SOL    HW217004   0.058   5.946   3.961
 5369SOL     OW17005   3.486   5.771   2.736
 5369SOL    HW117006   3.584   5.792   2.727
 5369SOL    HW217007   3.450   5.816   2.818
 5370SOL     OW17008   1.555   3.297   0.716
 5370SOL    HW117009   1.516   3.358   0.648
 5370SOL    HW217010   1.509   3.310   0.804
 5371SOL     OW17011   5.889   5.256   4.795
 5371SOL    HW117012   5.808   5.311   4.816
 5371SOL    HW217013   5.862   5.161   4.780
 5372SOL     OW17014   1.406   6.946   2.836
 5372SOL    HW117015   1.316   6.989   2.835
 5372SOL    HW217016   1.477   7.016   2.834
 5373SOL     OW17017   2.960   1.302   6.834
 5373SOL    HW117018   2.906   1.250   6.900
 5373SOL    HW217019   2.918   1.294   6.743
 5374SOL     OW17020   2.097   4.445   2.027
 5374SOL    HW117021   2.009   4.488   2.047
 5374SOL    HW217022   2.114   4.448   1.929
 5375SOL     OW17023   2.464   4.752   4.784
 5375SOL    HW117024   2.561   4.774   4.771
 5375SOL    HW217025   2.456   4.667   4.837
 5376SOL     OW17026   0.767   6.854   5.757
 5376SOL    HW117027   0.845   6.792   5.766
 5376SOL    HW217028   0.697   6.811   5.701
 5377SOL     OW17029   1.545   0.969   2.677
 5377SOL    HW117030   1.617   0.902   2.694
 5377SOL    HW217031   1.564   1.016   2.590
 5378SOL     OW17032   4.575   0.540   2.654
 5378SOL    HW117033   4.524   0.584   2.580
 5378SOL    HW217034   4.673   0.546   2.636
 5379SOL     OW17035   1.990   2.249   5.103
 5379SOL    HW117036   2.072   2.287   5.146
 5379SOL    HW217037   1.941   2.192   5.168
 5380SOL     OW17038   3.987   6.301   1.881
 5380SOL    HW117039   3.897   6.302   1.837
 5380SOL    HW217040   4.054   6.346   1.822
 5381SOL     OW17041   3.256   0.189   3.918
 5381SOL    HW117042   3.233   0.092   3.925
 5381SOL    HW217043   3.344   0.199   3.871
 5382SOL     OW17044   4.782   0.917   2.184
 5382SOL    HW117045   4.818   1.005   2.153
 5382SOL    HW217046   4.682   0.919   2.181
 5383SOL     OW17047   2.391   2.546   4.435
 5383SOL    HW117048   2.418   2.596   4.352
 5383SOL    HW217049   2.293   2.553   4.448
 5384SOL     OW17050   5.922   5.381   5.086
 5384SOL    HW117051   5.994   5.329   5.040
 5384SOL    HW217052   5.855   5.412   5.019
 5385SOL     OW17053   3.811   3.305   6.093
 5385SOL    HW117054   3.800   3.298   6.192
 5385SOL    HW217055   3.775   3.393   6.062
 5386SOL     OW17056   5.115   4.565   4.380
 5386SOL    HW117057   5.104   4.530   4.287
 5386SOL    HW217058   5.066   4.505   4.444
 5387SOL     OW17059   0.908   1.955   4.185
 5387SOL    HW117060   0.838   1.910   4.129
 5387SOL    HW217061   0.947   2.032   4.134
 5388SOL     OW17062   0.492   6.500   2.834
 5388SOL    HW117063   0.516   6.405   2.853
 5388SOL    HW217064   0.453   6.506   2.742
 5389SOL     OW17065   5.076   1.386   3.684
 5389SOL    HW117066   5.049   1.354   3.593
 5389SOL    HW217067   5.011   1.353   3.752
 5390SOL     OW17068   0.367   3.342   3.401
 5390SOL    HW117069   0.368   3.368   3.497
 5390SOL    HW217070   0.392   3.421   3.345
 5391SOL     OW17071   2.971   2.656   0.608
 5391SOL    HW117072   3.055   2.623   0.565
 5391SOL    HW217073   2.898   2.588   0.597
 5392SOL     OW17074   6.214   0.840   3.754
 5392SOL    HW117075   6.302   0.846   3.802
 5392SOL    HW217076   6.148   0.791   3.812
 5393SOL     OW17077   4.456   2.439   4.660
 5393SOL    HW117078   4.537   2.401   4.615
 5393SOL    HW217079   4.384   2.369   4.662
 5394SOL     OW17080   0.761   1.812   1.312
 5394SOL    HW117081   0.827   1.874   1.354
 5394SOL    HW217082   0.737   1.845   1.221
 5395SOL     OW17083   6.378   1.639   0.824
 5395SOL    HW117084   6.415   1.718   0.874
 5395SOL    HW217085   6.396   1.650   0.727
 5396SOL     OW17086   4.594   4.095   0.563
 5396SOL    HW117087   4.574   4.186   0.527
 5396SOL    HW217088   4.677   4.060   0.520
 5397SOL     OW17089   0.201   0.899   2.933
 5397SOL    HW117090   0.246   0.971   2.880
 5397SOL    HW217091   0.268   0.829   2.959
 5398SOL     OW17092   6.134   2.645   2.517
 5398SOL    HW117093   6.222   2.671   2.557
 5398SOL    HW217094   6.080   2.728   2.500
 5399SOL     OW17095   1.544   1.974   6.892
 5399SOL    HW117096   1.463   1.972   6.834
 5399SOL    HW217097   1.568   1.881   6.919
 5400SOL     OW17098   4.661   3.161   1.519
 5400SOL    HW117099   4.638   3.070   1.554
 5400SOL    HW217100   4.672   3.157   1.419
 5401SOL     OW17101   5.309   2.675   1.122
 5401SOL    HW117102   5.334   2.729   1.202
 5401SOL    HW217103   5.342   2.581   1.133
 5402SOL     OW17104   1.577   6.522   2.293
 5402SOL    HW117105   1.559   6.550   2.199
 5402SOL    HW217106   1.665   6.559   2.323
 5403SOL     OW17107   4.496   2.618   6.961
 5403SOL    HW117108   4.461   2.626   0.030
 5403SOL    HW217109   4.579   2.563   6.962
 5404SOL     OW17110   4.940   0.301   6.876
 5404SOL    HW117111   4.878   0.379   6.874
 5404SOL    HW217112   5.032   0.333   6.899
 5405SOL     OW17113   0.423   4.618   0.022
 5405SOL    HW117114   0.451   4.676   0.099
 5405SOL    HW217115   0.347   4.663   6.998
 5406SOL     OW17116   2.312   0.983   6.292
 5406SOL    HW117117   2.288   1.044   6.216
 5406SOL    HW217118   2.229   0.951   6.337
 5407SOL     OW17119   1.663   6.949   3.389
 5407SOL    HW117120   1.748   6.999   3.403
 5407SOL    HW217121   1.607   6.996   3.320
 5408SOL     OW17122   2.318   1.646   4.657
 5408SOL    HW117123   2.356   1.681   4.571
 5408SOL    HW217124   2.387   1.650   4.729
 5409SOL     OW17125   0.914   2.648   2.160
 5409SOL    HW117126   0.977   2.658   2.237
 5409SOL    HW217127   0.822   2.673   2.190
 5410SOL     OW17128   6.705   2.393   0.449
 5410SOL    HW117129   6.772   2.337   0.400
 5410SOL    HW217130   6.697   2.482   0.404
 5411SOL     OW17131   3.240   5.551   0.148
 5411SOL    HW117132   3.199   5.545   0.239
 5411SOL    HW217133   3.302   5.630   0.145
 5412SOL     OW17134   6.953   2.078   6.272
 5412SOL    HW117135   0.025   2.067   6.249
 5412SOL    HW217136   6.918   1.991   6.308
 5413SOL     OW17137   1.016   5.335   4.623
 5413SOL    HW117138   0.954   5.414   4.625
 5413SOL    HW217139   1.025   5.303   4.529
 5414SOL     OW17140   5.226   4.479   5.667
 5414SOL    HW117141   5.305   4.432   5.706
 5414SOL    HW217142   5.256   4.559   5.617
 5415SOL     OW17143   3.942   0.535   0.443
 5415SOL    HW117144   3.880   0.495   0.376
 5415SOL    HW217145   3.909   0.515   0.535
 5416SOL     OW17146   3.509   5.710   6.803
 5416SOL    HW117147   3.505   5.659   6.717
 5416SOL    HW217148   3.416   5.729   6.833
 5417SOL     OW17149   4.364   6.883   4.062
 5417SOL    HW117150   4.380   6.921   4.153
 5417SOL    HW217151   4.266   6.865   4.050
 5418SOL     OW17152   6.914   3.093   5.607
 5418SOL    HW117153   6.995   3.097   5.549
 5418SOL    HW217154   6.856   3.016   5.578
 5419SOL     OW17155   4.266   1.372   6.089
 5419SOL    HW117156   4.337   1.407   6.150
 5419SOL    HW217157   4.213   1.448   6.052
 5420SOL     OW17158   1.551   2.323   1.975
 5420SOL    HW117159   1.631   2.263   1.972
 5420SOL    HW217160   1.494   2.299   2.054
 5421SOL     OW17161   3.595   4.917   2.154
 5421SOL    HW117162   3.633   4.853   2.086
 5421SOL    HW217163   3.529   4.977   2.109
 5422SOL     OW17164   2.566   5.171   3.758
 5422SOL    HW117165   2.525   5.257   3.787
 5422SOL    HW217166   2.498   5.114   3.712
 5423SOL     OW17167   4.595   6.719   1.646
 5423SOL    HW117168   4.554   6.807   1.666
 5423SOL    HW217169   4.669   6.700   1.710
 5424SOL     OW17170   4.200   3.530   5.584
 5424SOL    HW117171   4.237   3.585   5.509
 5424SOL    HW217172   4.251   3.444   5.589
 5425SOL     OW17173   1.428   4.326   5.376
 5425SOL    HW117174   1.497   4.266   5.415
 5425SOL    HW217175   1.338   4.282   5.382
 5426SOL     OW17176   6.405   5.443   1.156
 5426SOL    HW117177   6.455   5.519   1.197
 5426SOL    HW217178   6.465   5.394   1.092
 5427SOL     OW17179   3.887   3.011   0.110
 5427SOL    HW117180   3.889   2.999   0.011
 5427SOL    HW217181   3.980   3.021   0.145
 5428SOL     OW17182   5.819   5.271   2.764
 5428SOL    HW117183   5.755   5.259   2.840
 5428SOL    HW217184   5.792   5.211   2.689
 5429SOL     OW17185   3.410   0.770   4.418
 5429SOL    HW117186   3.485   0.737   4.475
 5429SOL    HW217187   3.442   0.778   4.323
 5430SOL     OW17188   2.820   3.944   5.158
 5430SOL    HW117189   2.768   4.013   5.209
 5430SOL    HW217190   2.807   3.959   5.059
 5431SOL     OW17191   4.732   4.704   0.580
 5431SOL    HW117192   4.787   4.699   0.664
 5431SOL    HW217193   4.727   4.800   0.550
 5432SOL     OW17194   0.284   5.677   6.373
 5432SOL    HW117195   0.194   5.646   6.342
 5432SOL    HW217196   0.283   5.686   6.473
 5433SOL     OW17197   3.190   0.605   1.334
 5433SOL    HW117198   3.271   0.549   1.323
 5433SOL    HW217199   3.120   0.554   1.384
 5434SOL     OW17200   4.781   0.734   4.253
 5434SOL    HW117201   4.720   0.663   4.218
 5434SOL    HW217202   4.728   0.800   4.305
 5435SOL     OW17203   6.217   4.812   0.696
 5435SOL    HW117204   6.287   4.873   0.658
 5435SOL    HW217205   6.241   4.717   0.676
 5436SOL     OW17206   1.813   4.568   3.041
 5436SOL    HW117207   1.768   4.479   3.054
 5436SOL    HW217208   1.905   4.553   3.005
 5437SOL     OW17209   3.357   6.333   1.330
 5437SOL    HW117210   3.443   6.300   1.291
 5437SOL    HW217211   3.376   6.411   1.390
 5438SOL     OW17212   4.841   5.948   2.193
 5438SOL    HW117213   4.814   6.014   2.262
 5438SOL    HW217214   4.761   5.895   2.165
 5439SOL     OW17215   1.048   4.557   1.720
 5439SOL    HW117216   1.119   4.595   1.778
 5439SOL    HW217217   0.992   4.631   1.682
 5440SOL     OW17218   5.966   6.925   3.749
 5440SOL    HW117219   6.037   6.967   3.693
 5440SOL    HW217220   5.967   6.826   3.735
 5441SOL     OW17221   5.851   2.731   4.621
 5441SOL    HW117222   5.949   2.753   4.628
 5441SOL    HW217223   5.832   2.652   4.680
 5442SOL     OW17224   3.103   0.177   6.720
 5442SOL    HW117225   3.137   0.271   6.726
 5442SOL    HW217226   3.177   0.113   6.743
 5443SOL     OW17227   5.162   0.818   3.092
 5443SOL    HW117228   5.098   0.745   3.069
 5443SOL    HW217229   5.177   0.820   3.191
 5444SOL     OW17230   6.347   0.813   5.654
 5444SOL    HW117231   6.351   0.879   5.728
 5444SOL    HW217232   6.440   0.789   5.626
 5445SOL     OW17233   5.679   5.606   5.790
 5445SOL    HW117234   5.611   5.533   5.788
 5445SOL    HW217235   5.662   5.666   5.868
 5446SOL     OW17236   6.694   4.083   6.143
 5446SOL    HW117237   6.596   4.087   6.159
 5446SOL    HW217238   6.718   4.143   6.066
 5447SOL     OW17239   0.101   1.632   1.578
 5447SOL    HW117240   0.134   1.547   1.536
 5447SOL    HW217241   0.031   1.673   1.519
 5448SOL     OW17242   5.136   4.773   3.041
 5448SOL    HW117243   5.066   4.704   3.023
 5448SOL    HW217244   5.131   4.844   2.970
 5449SOL     OW17245   2.991   0.999   1.881
 5449SOL    HW117246   3.083   1.006   1.841
 5449SOL    HW217247   2.958   0.906   1.870
 5450SOL     OW17248   4.188   5.749   1.503
 5450SOL    HW117249   4.165   5.770   1.598
 5450SOL    HW217250   4.230   5.659   1.498
 5451SOL     OW17251   6.550   0.005   3.155
 5451SOL    HW117252   6.537   6.933   3.176
 5451SOL    HW217253   6.578   0.015   3.060
 5452SOL     OW17254   2.135   3.759   2.370
 5452SOL    HW117255   2.131   3.853   2.334
 5452SOL    HW217256   2.228   3.739   2.399
 5453SOL     OW17257   6.230   4.297   3.654
 5453SOL    HW117258   6.208   4.266   3.746
 5453SOL    HW217259   6.158   4.357   3.621
 5454SOL     OW17260   6.693   4.141   3.325
 5454SOL    HW117261   6.681   4.050   3.364
 5454SOL    HW217262   6.672   4.139   3.227
 5455SOL     OW17263   2.375   1.924   3.636
 5455SOL    HW117264   2.360   1.921   3.734
 5455SOL    HW217265   2.386   2.020   3.607
 5456SOL     OW17266   4.928   2.281   0.717
 5456SOL    HW117267   4.969   2.205   0.665
 5456SOL    HW217268   4.998   2.322   0.776
 5457SOL     OW17269   5.113   1.490   6.603
 5457SOL    HW117270   5.114   1.414   6.668
 5457SOL    HW217271   5.129   1.576   6.653
 5458SOL     OW17272   6.046   3.349   0.442
 5458SOL    HW117273   6.004   3.296   0.368
 5458SOL    HW217274   5.975   3.386   0.501
 5459SOL     OW17275   1.828   3.630   5.048
 5459SOL    HW117276   1.915   3.601   5.087
 5459SOL    HW217277   1.804   3.570   4.971
 5460SOL     OW17278   0.790   0.833   1.506
 5460SOL    HW117279   0.786   0.895   1.585
 5460SOL    HW217280   0.865   0.862   1.446
 5461SOL     OW17281   6.522   0.891   5.371
 5461SOL    HW117282   6.486   0.966   5.427
 5461SOL    HW217283   6.556   0.818   5.431
 5462SOL     OW17284   4.672   4.224   6.630
 5462SOL    HW117285   4.625   4.189   6.711
 5462SOL    HW217286   4.621   4.200   6.548
 5463SOL     OW17287   1.054   2.816   6.101
 5463SOL    HW117288   0.996   2.792   6.180
 5463SOL    HW217289   1.141   2.853   6.134
 5464SOL     OW17290   2.287   5.845   5.805
 5464SOL    HW117291   2.284   5.767   5.868
 5464SOL    HW217292   2.211   5.839   5.741
 5465SOL     OW17293   0.566   0.075   4.425
 5465SOL    HW117294   0.595   0.120   4.509
 5465SOL    HW217295   0.586   0.135   4.347
 5466SOL     OW17296   6.082   2.107   4.739
 5466SOL    HW117297   6.164   2.109   4.681
 5466SOL    HW217298   6.077   2.192   4.792
 5467SOL     OW17299   4.805   3.016   4.301
 5467SOL    HW117300   4.802   2.916   4.299
 5467SOL    HW217301   4.785   3.048   4.393
 5468SOL     OW17302   6.975   1.059   1.047
 5468SOL    HW117303   6.931   1.001   0.980
 5468SOL    HW217304   7.002   1.004   1.127
 5469SOL     OW17305   3.778   0.278   4.143
 5469SOL    HW117306   3.869   0.252   4.175
 5469SOL    HW217307   3.760   0.373   4.170
 5470SOL     OW17308   3.638   5.496   3.845
 5470SOL    HW117309   3.620   5.398   3.833
 5470SOL    HW217310   3.573   5.534   3.911
 5471SOL     OW17311   5.045   0.954   3.732
 5471SOL    HW117312   5.042   0.862   3.694
 5471SOL    HW217313   4.958   0.976   3.775
 5472SOL     OW17314   3.089   3.280   6.846
 5472SOL    HW117315   3.080   3.375   6.877
 5472SOL    HW217316   3.047   3.270   6.756
 5473SOL     OW17317   2.389   4.631   1.771
 5473SOL    HW117318   2.405   4.707   1.835
 5473SOL    HW217319   2.471   4.573   1.767
 5474SOL     OW17320   1.037   4.888   2.682
 5474SOL    HW117321   1.107   4.957   2.664
 5474SOL    HW217322   1.077   4.813   2.735
 5475SOL     OW17323   0.797   1.090   4.857
 5475SOL    HW117324   0.845   1.013   4.815
 5475SOL    HW217325   0.758   1.061   4.944
 5476SOL     OW17326   2.501   0.042   5.305
 5476SOL    HW117327   2.590   0.047   5.259
 5476SOL    HW217328   2.438   0.106   5.262
 5477SOL     OW17329   1.576   3.873   3.870
 5477SOL    HW117330   1.488   3.900   3.831
 5477SOL    HW217331   1.573   3.883   3.970
 5478SOL     OW17332   5.261   4.676   5.926
 5478SOL    HW117333   5.206   4.662   5.844
 5478SOL    HW217334   5.318   4.758   5.915
 5479SOL     OW17335   4.694   1.908   4.813
 5479SOL    HW117336   4.757   1.868   4.746
 5479SOL    HW217337   4.714   1.871   4.903
 5480SOL     OW17338   0.628   3.848   4.183
 5480SOL    HW117339   0.577   3.906   4.247
 5480SOL    HW217340   0.586   3.757   4.179
 5481SOL     OW17341   4.901   1.411   5.961
 5481SOL    HW117342   4.929   1.439   6.053
 5481SOL    HW217343   4.903   1.491   5.900
 5482SOL     OW17344   5.074   2.917   1.310
 5482SOL    HW117345   5.027   3.001   1.282
 5482SOL    HW217346   5.013   2.839   1.295
 5483SOL     OW17347   6.716   2.459   6.580
 5483SOL    HW117348   6.676   2.541   6.621
 5483SOL    HW217349   6.661   2.433   6.500
 5484SOL     OW17350   0.076   6.846   4.796
 5484SOL    HW117351   7.004   6.851   4.819
 5484SOL    HW217352   0.099   6.752   4.770
 5485SOL     OW17353   3.483   7.019   5.260
 5485SOL    HW117354   3.532   6.955   5.202
 5485SOL    HW217355   3.388   6.989   5.271
 5486SOL     OW17356   1.005   0.797   4.237
 5486SOL    HW117357   1.099   0.769   4.258
 5486SOL    HW217358   0.966   0.844   4.316
 5487SOL     OW17359   4.667   5.088   1.053
 5487SOL    HW117360   4.636   5.082   1.148
 5487SOL    HW217361   4.767   5.089   1.050
 5488SOL     OW17362   4.875   1.184   5.809
 5488SOL    HW117363   4.898   1.104   5.864
 5488SOL    HW217364   4.891   1.267   5.864
 5489SOL     OW17365   0.954   4.006   3.191
 5489SOL    HW117366   0.969   3.971   3.284
 5489SOL    HW217367   0.946   3.930   3.127
 5490SOL     OW17368   1.912   1.959   6.661
 5490SOL    HW117369   1.975   1.919   6.727
 5490SOL    HW217370   1.824   1.912   6.666
 5491SOL     OW17371   0.756   4.884   1.012
 5491SOL    HW117372   0.850   4.915   1.002
 5491SOL    HW217373   0.755   4.785   1.028
 5492SOL     OW17374   1.317   0.783   5.241
 5492SOL    HW117375   1.267   0.861   5.281
 5492SOL    HW217376   1.404   0.772   5.289
 5493SOL     OW17377   3.397   3.177   0.037
 5493SOL    HW117378   3.302   3.205   0.045
 5493SOL    HW217379   3.429   3.194   6.968
 5494SOL     OW17380   5.824   3.010   2.042
 5494SOL    HW117381   5.725   2.994   2.039
 5494SOL    HW217382   5.854   3.052   1.957
 5495SOL     OW17383   3.475   2.825   2.315
 5495SOL    HW117384   3.562   2.867   2.339
 5495SOL    HW217385   3.483   2.725   2.325
 5496SOL     OW17386   3.499   5.867   1.526
 5496SOL    HW117387   3.493   5.851   1.427
 5496SOL    HW217388   3.407   5.867   1.565
 5497SOL     OW17389   6.509   6.760   2.097
 5497SOL    HW117390   6.498   6.763   2.196
 5497SOL    HW217391   6.594   6.713   2.074
 5498SOL     OW17392   4.361   1.317   5.106
 5498SOL    HW117393   4.379   1.286   5.200
 5498SOL    HW217394   4.361   1.238   5.044
 5499SOL     OW17395   0.195   1.946   3.704
 5499SOL    HW117396   0.259   1.921   3.776
 5499SOL    HW217397   0.245   1.987   3.628
 5500SOL     OW17398   1.720   5.733   1.893
 5500SOL    HW117399   1.711   5.636   1.914
 5500SOL    HW217400   1.632   5.778   1.902
 5501SOL     OW17401   2.218   6.802   2.511
 5501SOL    HW117402   2.271   6.886   2.521
 5501SOL    HW217403   2.126   6.825   2.481
 5502SOL     OW17404   4.751   3.836   6.465
 5502SOL    HW117405   4.844   3.801   6.467
 5502SOL    HW217406   4.727   3.872   6.556
 5503SOL     OW17407   1.841   5.693   3.943
 5503SOL    HW117408   1.881   5.652   4.025
 5503SOL    HW217409   1.854   5.792   3.947
 5504SOL     OW17410   3.304   2.151   4.951
 5504SOL    HW117411   3.378   2.124   5.012
 5504SOL    HW217412   3.232   2.197   5.004
 5505SOL     OW17413   2.312   5.052   5.885
 5505SOL    HW117414   2.348   5.101   5.964
 5505SOL    HW217415   2.232   5.099   5.849
 5506SOL     OW17416   6.318   6.937   5.542
 5506SOL    HW117417   6.273   6.904   5.625
 5506SOL    HW217418   6.268   7.016   5.507
 5507SOL     OW17419   2.668   6.263   4.098
 5507SOL    HW117420   2.724   6.197   4.048
 5507SOL    HW217421   2.728   6.328   4.145
 5508SOL     OW17422   2.554   0.923   6.105
 5508SOL    HW117423   2.533   1.019   6.123
 5508SOL    HW217424   2.566   0.874   6.192
 5509SOL     OW17425   5.826   6.214   6.697
 5509SOL    HW117426   5.839   6.193   6.794
 5509SOL    HW217427   5.766   6.146   6.656
 5510SOL     OW17428   5.315   0.973   5.373
 5510SOL    HW117429   5.335   1.041   5.302
 5510SOL    HW217430   5.376   0.987   5.451
 5511SOL     OW17431   0.156   1.204   2.403
 5511SOL    HW117432   0.249   1.238   2.387
 5511SOL    HW217433   0.134   1.212   2.500
 5512SOL     OW17434   1.418   0.186   0.979
 5512SOL    HW117435   1.516   0.204   0.969
 5512SOL    HW217436   1.386   0.225   1.065
 5513SOL     OW17437   3.844   4.996   4.670
 5513SOL    HW117438   3.928   5.018   4.719
 5513SOL    HW217439   3.768   4.988   4.735
 5514SOL     OW17440   6.062   5.330   2.813
 5514SOL    HW117441   5.968   5.304   2.793
 5514SOL    HW217442   6.123   5.254   2.793
 5515SOL     OW17443   6.521   2.553   1.117
 5515SOL    HW117444   6.544   2.457   1.131
 5515SOL    HW217445   6.572   2.588   1.039
 5516SOL     OW17446   1.661   3.253   6.202
 5516SOL    HW117447   1.681   3.329   6.264
 5516SOL    HW217448   1.682   3.166   6.248
 5517SOL     OW17449   2.554   1.713   2.405
 5517SOL    HW117450   2.539   1.706   2.307
 5517SOL    HW217451   2.627   1.778   2.423
 5518SOL     OW17452   6.053   4.858   4.936
 5518SOL    HW117453   6.139   4.807   4.937
 5518SOL    HW217454   5.978   4.797   4.962
 5519SOL     OW17455   5.194   3.480   4.285
 5519SOL    HW117456   5.118   3.427   4.323
 5519SOL    HW217457   5.168   3.516   4.196
 5520SOL     OW17458   1.928   3.512   1.646
 5520SOL    HW117459   1.929   3.491   1.743
 5520SOL    HW217460   1.834   3.514   1.612
 5521SOL     OW17461   5.468   4.893   1.646
 5521SOL    HW117462   5.562   4.859   1.648
 5521SOL    HW217463   5.468   4.993   1.642
 5522SOL     OW17464   2.178   3.636   1.750
 5522SOL    HW117465   2.180   3.566   1.822
 5522SOL    HW217466   2.270   3.673   1.736
 5523SOL     OW17467   2.475   0.776   2.105
 5523SOL    HW117468   2.423   0.705   2.057
 5523SOL    HW217469   2.448   0.777   2.202
 5524SOL     OW17470   0.237   6.143   6.179
 5524SOL    HW117471   0.253   6.055   6.133
 5524SOL    HW217472   0.270   6.137   6.273
 5525SOL     OW17473   6.884   5.741   5.063
 5525SOL    HW117474   6.846   5.674   5.126
 5525SOL    HW217475   6.895   5.699   4.973
 5526SOL     OW17476   6.372   3.116   4.721
 5526SOL    HW117477   6.360   3.074   4.811
 5526SOL    HW217478   6.361   3.047   4.650
 5527SOL     OW17479   1.896   3.610   1.353
 5527SOL    HW117480   1.856   3.619   1.262
 5527SOL    HW217481   1.823   3.611   1.421
 5528SOL     OW17482   0.326   3.632   3.013
 5528SOL    HW117483   0.309   3.535   2.999
 5528SOL    HW217484   0.239   3.680   3.026
 5529SOL     OW17485   1.692   1.257   5.003
 5529SOL    HW117486   1.624   1.319   5.042
 5529SOL    HW217487   1.770   1.249   5.065
 5530SOL     OW17488   0.937   2.628   0.703
 5530SOL    HW117489   0.845   2.658   0.729
 5530SOL    HW217490   0.951   2.535   0.734
 5531SOL     OW17491   3.379   2.677   5.917
 5531SOL    HW117492   3.375   2.577   5.912
 5531SOL    HW217493   3.415   2.713   5.832
 5532SOL     OW17494   2.615   1.134   1.528
 5532SOL    HW117495   2.563   1.140   1.614
 5532SOL    HW217496   2.567   1.072   1.466
 5533SOL     OW17497   4.468   0.726   1.768
 5533SOL    HW117498   4.524   0.799   1.807
 5533SOL    HW217499   4.514   0.687   1.688
 5534SOL     OW17500   0.004   3.889   5.969
 5534SOL    HW117501   6.955   3.918   6.031
 5534SOL    HW217502   6.992   3.875   5.877
 5535SOL     OW17503   6.269   2.743   3.308
 5535SOL    HW117504   6.190   2.781   3.260
 5535SOL    HW217505   6.281   2.647   3.281
 5536SOL     OW17506   1.977   0.639   3.855
 5536SOL    HW117507   1.885   0.670   3.877
 5536SOL    HW217508   1.973   0.574   3.779
 5537SOL     OW17509   4.365   0.943   4.351
 5537SOL    HW117510   4.308   0.884   4.408
 5537SOL    HW217511   4.319   0.961   4.264
 5538SOL     OW17512   4.853   1.372   0.203
 5538SOL    HW117513   4.849   1.408   0.296
 5538SOL    HW217514   4.799   1.431   0.143
 5539SOL     OW17515   3.501   0.050   0.462
 5539SOL    HW117516   3.587   0.086   0.428
 5539SOL    HW217517   3.518   7.017   0.542
 5540SOL     OW17518   5.085   0.905   6.412
 5540SOL    HW117519   5.133   0.963   6.478
 5540SOL    HW217520   5.092   0.809   6.440
 5541SOL     OW17521   4.542   3.761   6.209
 5541SOL    HW117522   4.505   3.819   6.282
 5541SOL    HW217523   4.640   3.745   6.227
 5542SOL     OW17524   4.323   4.453   0.335
 5542SOL    HW117525   4.349   4.359   0.312
 5542SOL    HW217526   4.372   4.483   0.416
 5543SOL     OW17527   1.141   0.422   1.068
 5543SOL    HW117528   1.046   0.395   1.084
 5543SOL    HW217529   1.201   0.361   1.119
 5544SOL     OW17530   4.434   5.619   6.124
 5544SOL    HW117531   4.466   5.564   6.047
 5544SOL    HW217532   4.336   5.637   6.114
 5545SOL     OW17533   3.762   0.718   3.204
 5545SOL    HW117534   3.710   0.657   3.264
 5545SOL    HW217535   3.702   0.791   3.171
 5546SOL     OW17536   0.953   5.519   5.085
 5546SOL    HW117537   0.996   5.527   4.995
 5546SOL    HW217538   0.887   5.594   5.097
 5547SOL     OW17539   5.522   1.582   5.177
 5547SOL    HW117540   5.597   1.525   5.142
 5547SOL    HW217541   5.486   1.638   5.102
 5548SOL     OW17542   6.764   4.320   5.415
 5548SOL    HW117543   6.785   4.282   5.325
 5548SOL    HW217544   6.754   4.419   5.409
 5549SOL     OW17545   4.336   3.007   1.151
 5549SOL    HW117546   4.313   2.980   1.244
 5549SOL    HW217547   4.298   2.941   1.086
 5550SOL     OW17548   1.371   3.469   2.455
 5550SOL    HW117549   1.426   3.499   2.376
 5550SOL    HW217550   1.304   3.540   2.476
 5551SOL     OW17551   2.134   5.187   3.703
 5551SOL    HW117552   2.178   5.228   3.783
 5551SOL    HW217553   2.045   5.230   3.687
 5552SOL     OW17554   0.345   6.875   6.638
 5552SOL    HW117555   0.423   6.892   6.577
 5552SOL    HW217556   0.368   6.904   6.731
 5553SOL     OW17557   4.747   0.110   6.933
 5553SOL    HW117558   4.812   0.186   6.925
 5553SOL    HW217559   4.683   0.112   6.856
 5554SOL     OW17560   5.337   2.682   1.542
 5554SOL    HW117561   5.405   2.733   1.596
 5554SOL    HW217562   5.368   2.587   1.531
 5555SOL     OW17563   1.798   4.093   2.471
 5555SOL    HW117564   1.805   4.023   2.400
 5555SOL    HW217565   1.708   4.088   2.514
 5556SOL     OW17566   6.637   0.584   4.917
 5556SOL    HW117567   6.730   0.621   4.926
 5556SOL    HW217568   6.621   0.518   4.990
 5557SOL     OW17569   3.213   6.172   2.004
 5557SOL    HW117570   3.167   6.260   1.996
 5557SOL    HW217571   3.232   6.152   2.100
 5558SOL     OW17572   3.551   4.785   0.129
 5558SOL    HW117573   3.585   4.694   0.150
 5558SOL    HW217574   3.626   4.851   0.132
 5559SOL     OW17575   1.619   0.084   2.742
 5559SOL    HW117576   1.697   0.024   2.724
 5559SOL    HW217577   1.594   0.131   2.658
 5560SOL     OW17578   0.328   5.876   2.811
 5560SOL    HW117579   0.240   5.836   2.833
 5560SOL    HW217580   0.383   5.810   2.759
 5561SOL     OW17581   3.171   0.397   3.744
 5561SOL    HW117582   3.111   0.465   3.785
 5561SOL    HW217583   3.176   0.317   3.804
 5562SOL     OW17584   4.199   3.866   0.997
 5562SOL    HW117585   4.137   3.912   0.933
 5562SOL    HW217586   4.184   3.767   0.992
 5563SOL     OW17587   2.618   4.699   2.813
 5563SOL    HW117588   2.606   4.637   2.735
 5563SOL    HW217589   2.529   4.722   2.851
 5564SOL     OW17590   5.580   0.857   5.763
 5564SOL    HW117591   5.664   0.888   5.807
 5564SOL    HW217592   5.592   0.762   5.734
 5565SOL     OW17593   3.033   2.451   6.686
 5565SOL    HW117594   3.048   2.352   6.679
 5565SOL    HW217595   3.100   2.498   6.629
 5566SOL     OW17596   1.444   3.327   6.548
 5566SOL    HW117597   1.420   3.422   6.527
 5566SOL    HW217598   1.361   3.275   6.568
 5567SOL     OW17599   6.581   4.272   1.604
 5567SOL    HW117600   6.498   4.315   1.640
 5567SOL    HW217601   6.629   4.224   1.678
 5568SOL     OW17602   4.427   6.362   2.187
 5568SOL    HW117603   4.327   6.360   2.194
 5568SOL    HW217604   4.459   6.280   2.140
 5569SOL     OW17605   2.407   2.608   4.163
 5569SOL    HW117606   2.370   2.686   4.113
 5569SOL    HW217607   2.486   2.572   4.114
 5570SOL     OW17608   6.874   3.474   2.792
 5570SOL    HW117609   6.917   3.503   2.706
 5570SOL    HW217610   6.900   3.538   2.864
 5571SOL     OW17611   6.881   5.237   1.672
 5571SOL    HW117612   6.960   5.279   1.627
 5571SOL    HW217613   6.912   5.181   1.748
 5572SOL     OW17614   1.042   3.361   4.502
 5572SOL    HW117615   1.008   3.428   4.436
 5572SOL    HW217616   0.977   3.352   4.577
 5573SOL     OW17617   2.609   5.306   4.506
 5573SOL    HW117618   2.555   5.238   4.456
 5573SOL    HW217619   2.563   5.329   4.592
 5574SOL     OW17620   0.338   2.610   6.715
 5574SOL    HW117621   0.294   2.546   6.652
 5574SOL    HW217622   0.271   2.645   6.780
 5575SOL     OW17623   0.471   0.768   1.153
 5575SOL    HW117624   0.510   0.810   1.234
 5575SOL    HW217625   0.386   0.721   1.177
 5576SOL     OW17626   1.833   3.748   3.747
 5576SOL    HW117627   1.805   3.658   3.713
 5576SOL    HW217628   1.757   3.790   3.796
 5577SOL     OW17629   1.662   3.458   6.378
 5577SOL    HW117630   1.694   3.452   6.472
 5577SOL    HW217631   1.566   3.486   6.377
 5578SOL     OW17632   3.503   3.105   2.440
 5578SOL    HW117633   3.450   3.042   2.383
 5578SOL    HW217634   3.516   3.191   2.391
 5579SOL     OW17635   7.013   2.663   1.414
 5579SOL    HW117636   6.947   2.730   1.379
 5579SOL    HW217637   0.005   2.681   1.511
 5580SOL     OW17638   4.649   2.165   5.365
 5580SOL    HW117639   4.584   2.160   5.441
 5580SOL    HW217640   4.715   2.091   5.372
 5581SOL     OW17641   0.610   1.797   0.343
 5581SOL    HW117642   0.588   1.703   0.321
 5581SOL    HW217643   0.680   1.831   0.281
 5582SOL     OW17644   2.216   3.410   6.104
 5582SOL    HW117645   2.174   3.409   6.195
 5582SOL    HW217646   2.300   3.355   6.105
 5583SOL     OW17647   5.032   1.702   2.005
 5583SOL    HW117648   4.940   1.692   1.967
 5583SOL    HW217649   5.071   1.612   2.022
 5584SOL     OW17650   0.105   4.429   5.094
 5584SOL    HW117651   0.046   4.471   5.025
 5584SOL    HW217652   0.199   4.459   5.081
 5585SOL     OW17653   4.504   5.343   2.278
 5585SOL    HW117654   4.478   5.421   2.221
 5585SOL    HW217655   4.456   5.348   2.366
 5586SOL     OW17656   6.892   2.881   5.997
 5586SOL    HW117657   6.912   2.792   5.957
 5586SOL    HW217658   6.794   2.890   6.013
 5587SOL     OW17659   4.483   0.785   6.456
 5587SOL    HW117660   4.527   0.845   6.389
 5587SOL    HW217661   4.426   0.840   6.517
 5588SOL     OW17662   3.121   6.871   1.735
 5588SOL    HW117663   3.092   6.946   1.795
 5588SOL    HW217664   3.119   6.785   1.786
 5589SOL     OW17665   5.744   4.538   6.627
 5589SOL    HW117666   5.771   4.554   6.533
 5589SOL    HW217667   5.697   4.450   6.634
 5590SOL     OW17668   5.897   5.822   4.138
 5590SOL    HW117669   5.946   5.909   4.140
 5590SOL    HW217670   5.858   5.803   4.228
 5591SOL     OW17671   6.262   1.325   1.415
 5591SOL    HW117672   6.230   1.361   1.503
 5591SOL    HW217673   6.319   1.394   1.370
 5592SOL     OW17674   0.690   4.558   3.477
 5592SOL    HW117675   0.633   4.487   3.519
 5592SOL    HW217676   0.784   4.551   3.513
 5593SOL     OW17677   6.255   2.156   6.953
 5593SOL    HW117678   6.353   2.159   6.970
 5593SOL    HW217679   6.239   2.123   6.860
 5594SOL     OW17680   5.649   2.297   5.535
 5594SOL    HW117681   5.549   2.287   5.529
 5594SOL    HW217682   5.671   2.388   5.567
 5595SOL     OW17683   0.777   2.891   5.095
 5595SOL    HW117684   0.689   2.895   5.049
 5595SOL    HW217685   0.775   2.819   5.165
 5596SOL     OW17686   4.469   0.010   2.999
 5596SOL    HW117687   4.483   0.095   2.948
 5596SOL    HW217688   4.397   0.024   3.066
 5597SOL     OW17689   5.311   2.833   3.597
 5597SOL    HW117690   5.367   2.751   3.589
 5597SOL    HW217691   5.348   2.904   3.538
 5598SOL     OW17692   5.621   2.629   4.515
 5598SOL    HW117693   5.688   2.677   4.572
 5598SOL    HW217694   5.562   2.696   4.470
 5599SOL     OW17695   0.425   1.519   4.666
 5599SOL    HW117696   0.458   1.516   4.760
 5599SOL    HW217697   0.457   1.603   4.621
 5600SOL     OW17698   1.532   2.634   4.261
 5600SOL    HW117699   1.533   2.599   4.355
 5600SOL    HW217700   1.591   2.578   4.204
 5601SOL     OW17701   2.824   0.839   6.008
 5601SOL    HW117702   2.875   0.780   6.070
 5601SOL    HW217703   2.735   0.862   6.048
 5602SOL     OW17704   0.873   1.120   0.755
 5602SOL    HW117705   0.943   1.149   0.820
 5602SOL    HW217706   0.789   1.098   0.804
 5603SOL     OW17707   5.349   2.056   0.113
 5603SOL    HW117708   5.446   2.072   0.131
 5603SOL    HW217709   5.338   2.020   0.020
 5604SOL     OW17710   6.097   2.135   5.782
 5604SOL    HW117711   6.092   2.041   5.748
 5604SOL    HW217712   6.101   2.133   5.882
 5605SOL     OW17713   0.705   1.746   4.498
 5605SOL    HW117714   0.715   1.649   4.476
 5605SOL    HW217715   0.672   1.795   4.417
 5606SOL     OW17716   5.157   6.715   1.277
 5606SOL    HW117717   5.102   6.784   1.229
 5606SOL    HW217718   5.146   6.727   1.376
 5607SOL     OW17719   5.267   1.847   1.966
 5607SOL    HW117720   5.191   1.785   1.988
 5607SOL    HW217721   5.346   1.824   2.021
 5608SOL     OW17722   4.348   0.224   4.902
 5608SOL    HW117723   4.386   0.139   4.936
 5608SOL    HW217724   4.412   0.267   4.838
 5609SOL     OW17725   2.664   6.158   6.682
 5609SOL    HW117726   2.681   6.060   6.667
 5609SOL    HW217727   2.566   6.177   6.672
 5610SOL     OW17728   5.122   0.510   0.061
 5610SOL    HW117729   5.189   0.532   7.015
 5610SOL    HW217730   5.086   0.594   0.101
 5611SOL     OW17731   1.634   5.069   3.198
 5611SOL    HW117732   1.706   5.109   3.254
 5611SOL    HW217733   1.667   4.984   3.156
 5612SOL     OW17734   3.717   0.645   6.042
 5612SOL    HW117735   3.668   0.627   5.956
 5612SOL    HW217736   3.813   0.622   6.031
 5613SOL     OW17737   4.456   4.568   2.401
 5613SOL    HW117738   4.394   4.618   2.341
 5613SOL    HW217739   4.503   4.497   2.348
 5614SOL     OW17740   4.691   2.711   3.525
 5614SOL    HW117741   4.686   2.686   3.621
 5614SOL    HW217742   4.741   2.797   3.515
 5615SOL     OW17743   1.317   0.455   0.067
 5615SOL    HW117744   1.410   0.442   0.099
 5615SOL    HW217745   1.253   0.428   0.139
 5616SOL     OW17746   2.036   1.255   4.354
 5616SOL    HW117747   1.960   1.298   4.402
 5616SOL    HW217748   2.016   1.251   4.256
 5617SOL     OW17749   2.186   0.452   4.956
 5617SOL    HW117750   2.149   0.541   4.981
 5617SOL    HW217751   2.245   0.461   4.876
 5618SOL     OW17752   5.818   4.344   3.701
 5618SOL    HW117753   5.884   4.387   3.639
 5618SOL    HW217754   5.862   4.327   3.790
 5619SOL     OW17755   2.192   3.827   5.528
 5619SOL    HW117756   2.167   3.910   5.479
 5619SOL    HW217757   2.290   3.810   5.518
 5620SOL     OW17758   3.566   2.086   6.823
 5620SOL    HW117759   3.548   2.176   6.783
 5620SOL    HW217760   3.545   2.088   6.921
 5621SOL     OW17761   1.562   1.444   5.386
 5621SOL    HW117762   1.472   1.479   5.411
 5621SOL    HW217763   1.551   1.375   5.314
 5622SOL     OW17764   4.678   0.805   5.741
 5622SOL    HW117765   4.662   0.730   5.677
 5622SOL    HW217766   4.736   0.874   5.697
 5623SOL     OW17767   1.829   6.336   6.325
 5623SOL    HW117768   1.756   6.320   6.259
 5623SOL    HW217769   1.832   6.433   6.348
 5624SOL     OW17770   1.182   4.634   3.307
 5624SOL    HW117771   1.180   4.534   3.313
 5624SOL    HW217772   1.091   4.667   3.283
 5625SOL     OW17773   6.799   2.785   4.558
 5625SOL    HW117774   6.715   2.767   4.506
 5625SOL    HW217775   6.848   2.699   4.572
 5626SOL     OW17776   3.590   6.786   5.149
 5626SOL    HW117777   3.684   6.799   5.119
 5626SOL    HW217778   3.549   6.709   5.099
 5627SOL     OW17779   1.709   6.216   1.566
 5627SOL    HW117780   1.611   6.221   1.586
 5627SOL    HW217781   1.722   6.191   1.470
 5628SOL     OW17782   1.986   1.836   5.318
 5628SOL    HW117783   1.946   1.757   5.272
 5628SOL    HW217784   2.084   1.840   5.299
 5629SOL     OW17785   3.306   3.793   2.640
 5629SOL    HW117786   3.335   3.884   2.670
 5629SOL    HW217787   3.244   3.801   2.562
 5630SOL     OW17788   0.607   4.632   1.165
 5630SOL    HW117789   0.551   4.558   1.202
 5630SOL    HW217790   0.670   4.594   1.097
 5631SOL     OW17791   4.546   1.338   0.377
 5631SOL    HW117792   4.557   1.248   0.420
 5631SOL    HW217793   4.548   1.327   0.277
 5632SOL     OW17794   4.444   3.978   6.375
 5632SOL    HW117795   4.461   4.076   6.386
 5632SOL    HW217796   4.413   3.940   6.462
 5633SOL     OW17797   6.642   2.846   4.117
 5633SOL    HW117798   6.705   2.794   4.059
 5633SOL    HW217799   6.682   2.935   4.139
 5634SOL     OW17800   3.806   5.293   4.621
 5634SOL    HW117801   3.793   5.194   4.618
 5634SOL    HW217802   3.871   5.316   4.693
 5635SOL     OW17803   2.434   2.424   4.972
 5635SOL    HW117804   2.364   2.472   4.919
 5635SOL    HW217805   2.437   2.462   5.064
 5636SOL     OW17806   4.105   5.522   2.789
 5636SOL    HW117807   4.170   5.456   2.827
 5636SOL    HW217808   4.110   5.608   2.841
 5637SOL     OW17809   6.132   0.035   4.343
 5637SOL    HW117810   6.041   0.068   4.319
 5637SOL    HW217811   6.189   0.111   4.374
 5638SOL     OW17812   5.076   3.118   6.929
 5638SOL    HW117813   4.999   3.148   6.873
 5638SOL    HW217814   5.093   3.185   7.001
 5639SOL     OW17815   0.650   1.516   6.350
 5639SOL    HW117816   0.711   1.468   6.413
 5639SOL    HW217817   0.703   1.571   6.286
 5640SOL     OW17818   2.293   6.942   3.885
 5640SOL    HW117819   2.359   6.950   3.960
 5640SOL    HW217820   2.303   6.853   3.841
 5641SOL     OW17821   6.446   5.018   5.504
 5641SOL    HW117822   6.390   4.994   5.583
 5641SOL    HW217823   6.414   5.104   5.465
 5642SOL     OW17824   1.842   1.882   6.365
 5642SOL    HW117825   1.857   1.884   6.463
 5642SOL    HW217826   1.874   1.968   6.324
 5643SOL     OW17827   6.354   2.599   4.402
 5643SOL    HW117828   6.358   2.583   4.500
 5643SOL    HW217829   6.437   2.647   4.372
 5644SOL     OW17830   3.091   6.832   6.430
 5644SOL    HW117831   3.050   6.923   6.438
 5644SOL    HW217832   3.036   6.766   6.482
 5645SOL     OW17833   5.849   3.455   3.595
 5645SOL    HW117834   5.821   3.420   3.684
 5645SOL    HW217835   5.948   3.446   3.584
 5646SOL     OW17836   1.686   4.350   3.114
 5646SOL    HW117837   1.697   4.251   3.124
 5646SOL    HW217838   1.593   4.370   3.083
 5647SOL     OW17839   6.055   6.030   3.214
 5647SOL    HW117840   5.962   6.015   3.180
 5647SOL    HW217841   6.099   6.102   3.161
 5648SOL     OW17842   3.945   6.319   2.934
 5648SOL    HW117843   3.876   6.251   2.910
 5648SOL    HW217844   3.943   6.393   2.867
 5649SOL     OW17845   0.410   5.705   3.720
 5649SOL    HW117846   0.371   5.618   3.691
 5649SOL    HW217847   0.388   5.722   3.816
 5650SOL     OW17848   0.030   4.513   0.722
 5650SOL    HW117849   0.087   4.442   0.763
 5650SOL    HW217850   0.047   4.600   0.768
 5651SOL     OW17851   1.442   0.642   1.202
 5651SOL    HW117852   1.414   0.571   1.267
 5651SOL    HW217853   1.424   0.732   1.241
 5652SOL     OW17854   0.764   4.958   1.852
 5652SOL    HW117855   0.858   4.974   1.820
 5652SOL    HW217856   0.700   5.001   1.788
 5653SOL     OW17857   0.028   6.156   1.612
 5653SOL    HW117858   0.015   6.230   1.678
 5653SOL    HW217859   0.106   6.177   1.553
 5654SOL     OW17860   2.373   5.907   4.649
 5654SOL    HW117861   2.381   6.004   4.628
 5654SOL    HW217862   2.284   5.874   4.618
 5655SOL     OW17863   6.389   2.737   4.035
 5655SOL    HW117864   6.414   2.814   4.093
 5655SOL    HW217865   6.413   2.757   3.940
 5656SOL     OW17866   0.603   3.043   6.624
 5656SOL    HW117867   0.512   3.076   6.651
 5656SOL    HW217868   0.622   2.957   6.670
 5657SOL     OW17869   4.243   5.139   4.972
 5657SOL    HW117870   4.169   5.124   5.037
 5657SOL    HW217871   4.210   5.121   4.879
 5658SOL     OW17872   1.973   2.108   5.660
 5658SOL    HW117873   1.977   2.171   5.738
 5658SOL    HW217874   1.983   2.014   5.694
 5659SOL     OW17875   3.378   4.317   6.384
 5659SOL    HW117876   3.464   4.294   6.429
 5659SOL    HW217877   3.393   4.393   6.320
 5660SOL     OW17878   4.317   0.041   6.959
 5660SOL    HW117879   4.326   0.086   0.023
 5660SOL    HW217880   4.230   7.018   6.954
 5661SOL     OW17881   1.011   5.464   5.884
 5661SOL    HW117882   0.960   5.528   5.941
 5661SOL    HW217883   1.027   5.504   5.794
 5662SOL     OW17884   2.773   6.113   2.427
 5662SOL    HW117885   2.799   6.114   2.330
 5662SOL    HW217886   2.674   6.111   2.435
 5663SOL     OW17887   1.534   2.902   0.507
 5663SOL    HW117888   1.499   2.948   0.425
 5663SOL    HW217889   1.540   2.803   0.490
 5664SOL     OW17890   5.250   4.070   4.330
 5664SOL    HW117891   5.290   3.982   4.308
 5664SOL    HW217892   5.203   4.107   4.249
 5665SOL     OW17893   2.316   0.761   1.185
 5665SOL    HW117894   2.269   0.678   1.153
 5665SOL    HW217895   2.253   0.838   1.181
 5666SOL     OW17896   6.308   1.008   4.998
 5666SOL    HW117897   6.366   0.952   4.939
 5666SOL    HW217898   6.290   0.959   5.083
 5667SOL     OW17899   2.724   5.599   4.682
 5667SOL    HW117900   2.709   5.697   4.672
 5667SOL    HW217901   2.727   5.555   4.592
 5668SOL     OW17902   5.490   2.653   3.564
 5668SOL    HW117903   5.532   2.612   3.483
 5668SOL    HW217904   5.561   2.691   3.623
 5669SOL     OW17905   6.362   4.125   6.660
 5669SOL    HW117906   6.427   4.198   6.680
 5669SOL    HW217907   6.342   4.075   6.744
 5670SOL     OW17908   1.338   2.321   2.483
 5670SOL    HW117909   1.343   2.404   2.428
 5670SOL    HW217910   1.342   2.345   2.580
 5671SOL     OW17911   0.313   0.002   3.647
 5671SOL    HW117912   0.298   0.025   3.743
 5671SOL    HW217913   0.286   6.932   3.631
 5672SOL     OW17914   5.237   3.804   5.239
 5672SOL    HW117915   5.143   3.774   5.251
 5672SOL    HW217916   5.291   3.778   5.320
 5673SOL     OW17917   0.884   0.377   1.140
 5673SOL    HW117918   0.854   0.296   1.090
 5673SOL    HW217919   0.808   0.440   1.150
 5674SOL     OW17920   1.911   5.693   5.368
 5674SOL    HW117921   1.877   5.659   5.456
 5674SOL    HW217922   1.842   5.678   5.298
 5675SOL     OW17923   2.071   1.860   0.224
 5675SOL    HW117924   2.084   1.950   0.265
 5675SOL    HW217925   2.160   1.820   0.201
 5676SOL     OW17926   2.741   2.133   1.732
 5676SOL    HW117927   2.747   2.088   1.821
 5676SOL    HW217928   2.821   2.191   1.719
 5677SOL     OW17929   6.688   0.097   1.196
 5677SOL    HW117930   6.589   0.085   1.189
 5677SOL    HW217931   6.723   0.050   1.277
 5678SOL     OW17932   3.316   1.968   1.590
 5678SOL    HW117933   3.355   2.058   1.609
 5678SOL    HW217934   3.325   1.910   1.671
 5679SOL     OW17935   6.046   3.549   5.557
 5679SOL    HW117936   6.022   3.644   5.538
 5679SOL    HW217937   5.964   3.492   5.554
 5680SOL     OW17938   1.560   5.850   5.828
 5680SOL    HW117939   1.598   5.890   5.745
 5680SOL    HW217940   1.575   5.912   5.905
 5681SOL     OW17941   0.541   4.231   3.121
 5681SOL    HW117942   0.524   4.261   3.027
 5681SOL    HW217943   0.623   4.276   3.156
 5682SOL     OW17944   2.316   4.226   2.140
 5682SOL    HW117945   2.387   4.274   2.192
 5682SOL    HW217946   2.231   4.279   2.144
 5683SOL     OW17947   4.836   1.480   6.738
 5683SOL    HW117948   4.928   1.448   6.715
 5683SOL    HW217949   4.801   1.428   6.815
 5684SOL     OW17950   2.435   2.520   5.233
 5684SOL    HW117951   2.437   2.618   5.250
 5684SOL    HW217952   2.494   2.473   5.299
 5685SOL     OW17953   2.647   2.009   3.818
 5685SOL    HW117954   2.741   2.038   3.839
 5685SOL    HW217955   2.616   1.946   3.889
 5686SOL     OW17956   3.493   6.214   6.135
 5686SOL    HW117957   3.430   6.292   6.123
 5686SOL    HW217958   3.501   6.165   6.048
 5687SOL     OW17959   2.485   6.503   5.953
 5687SOL    HW117960   2.555   6.490   5.883
 5687SOL    HW217961   2.460   6.413   5.991
 5688SOL     OW17962   2.223   3.017   3.420
 5688SOL    HW117963   2.214   3.116   3.429
 5688SOL    HW217964   2.265   2.980   3.503
 5689SOL     OW17965   1.025   1.709   1.786
 5689SOL    HW117966   1.019   1.751   1.696
 5689SOL    HW217967   1.120   1.690   1.809
 5690SOL     OW17968   1.414   5.557   0.025
 5690SOL    HW117969   1.335   5.515   0.070
 5690SOL    HW217970   1.496   5.504   0.046
 5691SOL     OW17971   3.978   1.132   2.746
 5691SOL    HW117972   4.042   1.072   2.794
 5691SOL    HW217973   4.028   1.188   2.680
 5692SOL     OW17974   4.214   5.006   1.150
 5692SOL    HW117975   4.222   5.093   1.101
 5692SOL    HW217976   4.162   4.942   1.093
 5693SOL     OW17977   3.636   0.989   1.488
 5693SOL    HW117978   3.571   0.976   1.413
 5693SOL    HW217979   3.704   1.057   1.462
 5694SOL     OW17980   0.448   7.009   2.354
 5694SOL    HW117981   0.497   0.071   2.342
 5694SOL    HW217982   0.454   6.980   2.450
 5695SOL     OW17983   0.985   0.537   0.827
 5695SOL    HW117984   1.052   0.606   0.798
 5695SOL    HW217985   1.019   0.489   0.907
 5696SOL     OW17986   1.570   6.886   3.731
 5696SOL    HW117987   1.598   6.958   3.794
 5696SOL    HW217988   1.626   6.805   3.745
 5697SOL     OW17989   6.023   2.623   0.196
 5697SOL    HW117990   6.040   2.636   0.294
 5697SOL    HW217991   5.935   2.665   0.172
 5698SOL     OW17992   2.307   2.717   3.800
 5698SOL    HW117993   2.229   2.724   3.862
 5698SOL    HW217994   2.277   2.678   3.713
 5699SOL     OW17995   2.332   2.540   2.790
 5699SOL    HW117996   2.416   2.486   2.781
 5699SOL    HW217997   2.341   2.601   2.869
 5700SOL     OW17998   6.214   0.816   3.487
 5700SOL    HW117999   6.204   0.829   3.586
 5700SOL    HW218000   6.211   0.718   3.466
 5701SOL     OW18001   6.695   0.592   0.899
 5701SOL    HW118002   6.599   0.617   0.913
 5701SOL    HW218003   6.704   0.543   0.812
 5702SOL     OW18004   2.501   7.002   4.780
 5702SOL    HW118005   2.511   0.034   4.699
 5702SOL    HW218006   2.469   6.911   4.753
 5703SOL     OW18007   0.070   2.857   6.690
 5703SOL    HW118008   0.078   2.954   6.667
 5703SOL    HW218009   0.005   2.813   6.629
 5704SOL     OW18010   5.456   4.734   4.073
 5704SOL    HW118011   5.414   4.657   4.024
 5704SOL    HW218012   5.424   4.820   4.033
 5705SOL     OW18013   5.895   6.788   5.947
 5705SOL    HW118014   5.833   6.863   5.970
 5705SOL    HW218015   5.974   6.792   6.008
 5706SOL     OW18016   5.429   2.273   6.718
 5706SOL    HW118017   5.479   2.188   6.738
 5706SOL    HW218018   5.403   2.317   6.803
 5707SOL     OW18019   5.548   6.320   2.695
 5707SOL    HW118020   5.622   6.259   2.723
 5707SOL    HW218021   5.528   6.307   2.598
 5708SOL     OW18022   4.520   5.804   3.188
 5708SOL    HW118023   4.599   5.757   3.148
 5708SOL    HW218024   4.517   5.898   3.153
 5709SOL     OW18025   0.553   1.475   2.246
 5709SOL    HW118026   0.569   1.495   2.150
 5709SOL    HW218027   0.637   1.493   2.298
 5710SOL     OW18028   2.412   2.335   0.646
 5710SOL    HW118029   2.361   2.389   0.578
 5710SOL    HW218030   2.505   2.369   0.653
 5711SOL     OW18031   5.472   2.118   2.042
 5711SOL    HW118032   5.495   2.028   2.079
 5711SOL    HW218033   5.500   2.123   1.946
 5712SOL     OW18034   6.387   6.149   1.538
 5712SOL    HW118035   6.297   6.191   1.520
 5712SOL    HW218036   6.459   6.217   1.521
 5713SOL     OW18037   2.395   6.438   0.693
 5713SOL    HW118038   2.349   6.353   0.670
 5713SOL    HW218039   2.343   6.486   0.764
 5714SOL     OW18040   6.119   6.301   1.523
 5714SOL    HW118041   6.090   6.397   1.521
 5714SOL    HW218042   6.041   6.244   1.547
 5715SOL     OW18043   0.696   0.237   1.471
 5715SOL    HW118044   0.683   0.208   1.377
 5715SOL    HW218045   0.645   0.322   1.487
 5716SOL     OW18046   6.718   4.403   6.212
 5716SOL    HW118047   6.625   4.415   6.178
 5716SOL    HW218048   6.716   4.354   6.299
 5717SOL     OW18049   1.260   5.210   3.011
 5717SOL    HW118050   1.284   5.128   2.959
 5717SOL    HW218051   1.290   5.200   3.106
 5718SOL     OW18052   0.764   3.200   0.148
 5718SOL    HW118053   0.811   3.288   0.159
 5718SOL    HW218054   0.772   3.170   0.053
 5719SOL     OW18055   2.612   3.917   0.792
 5719SOL    HW118056   2.560   3.995   0.757
 5719SOL    HW218057   2.710   3.938   0.785
 5720SOL     OW18058   1.987   4.966   5.899
 5720SOL    HW118059   2.016   5.015   5.817
 5720SOL    HW218060   2.043   4.884   5.911
 5721SOL     OW18061   4.232   4.063   0.213
 5721SOL    HW118062   4.288   4.084   0.133
 5721SOL    HW218063   4.275   4.100   0.295
 5722SOL     OW18064   0.725   1.155   5.425
 5722SOL    HW118065   0.810   1.146   5.373
 5722SOL    HW218066   0.710   1.073   5.479
 5723SOL     OW18067   4.187   3.033   0.147
 5723SOL    HW118068   4.235   2.962   0.096
 5723SOL    HW218069   4.219   3.123   0.118
 5724SOL     OW18070   5.084   2.275   3.741
 5724SOL    HW118071   5.096   2.323   3.654
 5724SOL    HW218072   5.008   2.210   3.733
 5725SOL     OW18073   6.801   4.119   3.811
 5725SOL    HW118074   6.705   4.106   3.786
 5725SOL    HW218075   6.835   4.035   3.854
 5726SOL     OW18076   5.450   4.696   2.676
 5726SOL    HW118077   5.382   4.630   2.708
 5726SOL    HW218078   5.522   4.648   2.627
 5727SOL     OW18079   0.293   2.777   4.650
 5727SOL    HW118080   0.385   2.782   4.689
 5727SOL    HW218081   0.276   2.857   4.592
 5728SOL     OW18082   5.217   6.058   4.860
 5728SOL    HW118083   5.247   6.153   4.856
 5728SOL    HW218084   5.118   6.055   4.875
 5729SOL     OW18085   1.743   1.441   5.638
 5729SOL    HW118086   1.816   1.508   5.651
 5729SOL    HW218087   1.705   1.451   5.546
 5730SOL     OW18088   6.250   4.174   5.757
 5730SOL    HW118089   6.339   4.130   5.765
 5730SOL    HW218090   6.206   4.178   5.847
 5731SOL     OW18091   0.207   6.358   1.977
 5731SOL    HW118092   0.230   6.361   2.075
 5731SOL    HW218093   0.261   6.285   1.933
 5732SOL     OW18094   1.290   6.894   3.625
 5732SOL    HW118095   1.379   6.884   3.671
 5732SOL    HW218096   1.260   6.804   3.592
 5733SOL     OW18097   3.788   0.380   5.611
 5733SOL    HW118098   3.840   0.419   5.536
 5733SOL    HW218099   3.850   0.352   5.684
 5734SOL     OW18100   2.172   6.409   3.004
 5734SOL    HW118101   2.076   6.383   3.015
 5734SOL    HW218102   2.215   6.350   2.935
 5735SOL     OW18103   3.017   1.198   2.157
 5735SOL    HW118104   3.036   1.233   2.066
 5735SOL    HW218105   2.919   1.204   2.176
 5736SOL     OW18106   1.195   5.459   0.179
 5736SOL    HW118107   1.250   5.508   0.247
 5736SOL    HW218108   1.100   5.455   0.210
 5737SOL     OW18109   5.501   4.836   0.431
 5737SOL    HW118110   5.427   4.785   0.389
 5737SOL    HW218111   5.477   4.860   0.526
 5738SOL     OW18112   1.669   3.977   6.039
 5738SOL    HW118113   1.573   3.983   6.067
 5738SOL    HW218114   1.711   3.897   6.080
 5739SOL     OW18115   1.149   1.054   1.117
 5739SOL    HW118116   1.077   1.075   1.184
 5739SOL    HW218117   1.227   1.114   1.133
 5740SOL     OW18118   4.208   5.896   5.974
 5740SOL    HW118119   4.268   5.851   5.907
 5740SOL    HW218120   4.241   5.876   6.066
 5741SOL     OW18121   0.640   4.932   3.946
 5741SOL    HW118122   0.706   4.921   4.019
 5741SOL    HW218123   0.611   4.842   3.913
 5742SOL     OW18124   6.618   6.946   4.130
 5742SOL    HW118125   6.597   0.014   4.098
 5742SOL    HW218126   6.717   6.938   4.144
 5743SOL     OW18127   1.772   6.549   5.636
 5743SOL    HW118128   1.802   6.455   5.652
 5743SOL    HW218129   1.844   6.599   5.588
 5744SOL     OW18130   6.206   0.215   2.382
 5744SOL    HW118131   6.270   0.156   2.432
 5744SOL    HW218132   6.208   0.307   2.421
 5745SOL     OW18133   1.426   1.807   3.517
 5745SOL    HW118134   1.333   1.841   3.533
 5745SOL    HW218135   1.471   1.791   3.605
 5746SOL     OW18136   5.616   3.443   0.038
 5746SOL    HW118137   5.599   3.420   0.134
 5746SOL    HW218138   5.535   3.490   0.000
 5747SOL     OW18139   1.025   5.740   3.072
 5747SOL    HW118140   0.941   5.776   3.033
 5747SOL    HW218141   1.088   5.815   3.092
 5748SOL     OW18142   2.434   6.286   2.591
 5748SOL    HW118143   2.471   6.239   2.671
 5748SOL    HW218144   2.436   6.224   2.512
 5749SOL     OW18145   2.584   1.637   3.713
 5749SOL    HW118146   2.535   1.710   3.665
 5749SOL    HW218147   2.571   1.647   3.811
 5750SOL     OW18148   6.595   6.048   2.793
 5750SOL    HW118149   6.502   6.076   2.816
 5750SOL    HW218150   6.597   5.950   2.774
 5751SOL     OW18151   2.270   4.120   5.722
 5751SOL    HW118152   2.193   4.069   5.761
 5751SOL    HW218153   2.286   4.202   5.776
 5752SOL     OW18154   6.674   0.312   6.600
 5752SOL    HW118155   6.659   0.397   6.649
 5752SOL    HW218156   6.639   0.320   6.506
 5753SOL     OW18157   3.408   2.380   0.573
 5753SOL    HW118158   3.495   2.425   0.553
 5753SOL    HW218159   3.365   2.426   0.651
 5754SOL     OW18160   6.021   4.526   1.230
 5754SOL    HW118161   5.944   4.510   1.168
 5754SOL    HW218162   6.062   4.615   1.210
 5755SOL     OW18163   3.548   3.962   1.189
 5755SOL    HW118164   3.524   3.869   1.165
 5755SOL    HW218165   3.609   3.961   1.269
 5756SOL     OW18166   0.073   5.829   4.648
 5756SOL    HW118167   0.147   5.765   4.672
 5756SOL    HW218168   0.047   5.816   4.553
 5757SOL     OW18169   0.409   4.580   0.757
 5757SOL    HW118170   0.390   4.483   0.773
 5757SOL    HW218171   0.377   4.634   0.835
 5758SOL     OW18172   1.078   1.883   5.735
 5758SOL    HW118173   1.046   1.952   5.670
 5758SOL    HW218174   1.162   1.842   5.701
 5759SOL     OW18175   5.493   1.829   5.020
 5759SOL    HW118176   5.474   1.892   5.095
 5759SOL    HW218177   5.414   1.826   4.958
 5760SOL     OW18178   1.775   5.339   2.411
 5760SOL    HW118179   1.798   5.373   2.503
 5760SOL    HW218180   1.707   5.400   2.370
 5761SOL     OW18181   4.762   0.148   4.934
 5761SOL    HW118182   4.836   0.211   4.912
 5761SOL    HW218183   4.795   0.054   4.925
 5762SOL     OW18184   5.454   5.953   1.678
 5762SOL    HW118185   5.495   5.863   1.682
 5762SOL    HW218186   5.361   5.946   1.642
 5763SOL     OW18187   1.023   1.279   1.810
 5763SOL    HW118188   1.097   1.294   1.745
 5763SOL    HW218189   0.942   1.329   1.781
 5764SOL     OW18190   4.341   3.830   5.255
 5764SOL    HW118191   4.334   3.914   5.308
 5764SOL    HW218192   4.256   3.816   5.203
 5765SOL     OW18193   5.624   5.038   0.313
 5765SOL    HW118194   5.719   5.048   0.340
 5765SOL    HW218195   5.587   4.953   0.351
 5766SOL     OW18196   3.486   1.350   3.403
 5766SOL    HW118197   3.402   1.358   3.457
 5766SOL    HW218198   3.545   1.280   3.445
 5767SOL     OW18199   0.154   6.555   1.621
 5767SOL    HW118200   0.165   6.478   1.558
 5767SOL    HW218201   0.072   6.541   1.676
 5768SOL     OW18202   6.731   1.369   3.002
 5768SOL    HW118203   6.723   1.270   3.014
 5768SOL    HW218204   6.820   1.391   2.961
 5769SOL     OW18205   2.238   5.577   3.535
 5769SOL    HW118206   2.305   5.504   3.524
 5769SOL    HW218207   2.147   5.537   3.543
 5770SOL     OW18208   6.274   0.412   1.572
 5770SOL    HW118209   6.246   0.346   1.502
 5770SOL    HW218210   6.370   0.435   1.560
 5771SOL     OW18211   0.622   1.620   2.026
 5771SOL    HW118212   0.606   1.706   1.977
 5771SOL    HW218213   0.702   1.574   1.987
 5772SOL     OW18214   6.608   3.949   0.250
 5772SOL    HW118215   6.537   4.009   0.287
 5772SOL    HW218216   6.568   3.860   0.227
 5773SOL     OW18217   5.348   5.682   4.222
 5773SOL    HW118218   5.358   5.770   4.269
 5773SOL    HW218219   5.297   5.695   4.137
 5774SOL     OW18220   2.178   5.115   3.432
 5774SOL    HW118221   2.143   5.120   3.526
 5774SOL    HW218222   2.262   5.061   3.430
 5775SOL     OW18223   0.125   0.426   0.164
 5775SOL    HW118224   0.080   0.510   0.193
 5775SOL    HW218225   0.106   0.409   0.067
 5776SOL     OW18226   5.562   1.002   5.533
 5776SOL    HW118227   5.519   1.088   5.559
 5776SOL    HW218228   5.569   0.942   5.613
 5777SOL     OW18229   6.757   0.857   5.261
 5777SOL    HW118230   6.733   0.850   5.164
 5777SOL    HW218231   6.675   0.874   5.315
 5778SOL     OW18232   2.595   6.959   4.010
 5778SOL    HW118233   2.694   6.970   3.995
 5778SOL    HW218234   2.578   6.869   4.050
 5779SOL     OW18235   4.736   1.265   2.675
 5779SOL    HW118236   4.739   1.296   2.580
 5779SOL    HW218237   4.791   1.182   2.684
 5780SOL     OW18238   6.174   3.849   1.464
 5780SOL    HW118239   6.112   3.928   1.462
 5780SOL    HW218240   6.268   3.880   1.454
 5781SOL     OW18241   2.225   5.348   4.504
 5781SOL    HW118242   2.259   5.285   4.573
 5781SOL    HW218243   2.133   5.378   4.528
 5782SOL     OW18244   2.682   1.468   2.880
 5782SOL    HW118245   2.597   1.416   2.867
 5782SOL    HW218246   2.671   1.560   2.844
 5783SOL     OW18247   2.105   6.506   0.778
 5783SOL    HW118248   2.068   6.521   0.870
 5783SOL    HW218249   2.033   6.524   0.711
 5784SOL     OW18250   1.641   5.424   0.093
 5784SOL    HW118251   1.725   5.459   0.136
 5784SOL    HW218252   1.660   5.398   7.024
 5785SOL     OW18253   1.945   1.858   6.975
 5785SOL    HW118254   1.954   1.954   6.948
 5785SOL    HW218255   1.967   1.849   0.047
 5786SOL     OW18256   1.145   3.293   1.118
 5786SOL    HW118257   1.197   3.260   1.197
 5786SOL    HW218258   1.049   3.267   1.129
 5787SOL     OW18259   0.126   3.105   5.482
 5787SOL    HW118260   0.187   3.087   5.559
 5787SOL    HW218261   0.154   3.188   5.435
 5788SOL     OW18262   1.937   2.617   1.699
 5788SOL    HW118263   2.013   2.604   1.762
 5788SOL    HW218264   1.871   2.542   1.710
 5789SOL     OW18265   3.277   5.132   6.854
 5789SOL    HW118266   3.251   5.160   6.761
 5789SOL    HW218267   3.225   5.050   6.880
 5790SOL     OW18268   6.377   6.081   3.650
 5790SOL    HW118269   6.460   6.132   3.674
 5790SOL    HW218270   6.301   6.145   3.637
 5791SOL     OW18271   3.671   1.440   2.425
 5791SOL    HW118272   3.665   1.491   2.339
 5791SOL    HW218273   3.671   1.504   2.502
 5792SOL     OW18274   4.905   3.188   2.798
 5792SOL    HW118275   5.001   3.188   2.770
 5792SOL    HW218276   4.864   3.100   2.774
 5793SOL     OW18277   4.180   2.389   6.349
 5793SOL    HW118278   4.184   2.320   6.277
 5793SOL    HW218279   4.253   2.371   6.416
 5794SOL     OW18280   4.206   6.616   6.784
 5794SOL    HW118281   4.255   6.570   6.859
 5794SOL    HW218282   4.137   6.554   6.747
 5795SOL     OW18283   2.353   5.627   1.758
 5795SOL    HW118284   2.303   5.704   1.719
 5795SOL    HW218285   2.294   5.578   1.823
 5796SOL     OW18286   5.077   1.271   6.768
 5796SOL    HW118287   5.052   1.174   6.762
 5796SOL    HW218288   5.103   1.293   6.862
 5797SOL     OW18289   5.992   2.342   1.212
 5797SOL    HW118290   6.018   2.246   1.220
 5797SOL    HW218291   6.073   2.399   1.223
 5798SOL     OW18292   1.788   3.400   4.903
 5798SOL    HW118293   1.704   3.424   4.854
 5798SOL    HW218294   1.862   3.386   4.837
 5799SOL     OW18295   2.292   6.726   3.745
 5799SOL    HW118296   2.349   6.669   3.804
 5799SOL    HW218297   2.280   6.680   3.657
 5800SOL     OW18298   1.778   0.159   1.537
 5800SOL    HW118299   1.680   0.137   1.539
 5800SOL    HW218300   1.826   0.101   1.603
 5801SOL     OW18301   2.098   1.694   1.957
 5801SOL    HW118302   1.999   1.705   1.952
 5801SOL    HW218303   2.121   1.620   2.020
 5802SOL     OW18304   0.596   0.642   1.660
 5802SOL    HW118305   0.528   0.605   1.597
 5802SOL    HW218306   0.570   0.735   1.686
 5803SOL     OW18307   0.351   5.467   4.253
 5803SOL    HW118308   0.315   5.549   4.296
 5803SOL    HW218309   0.418   5.492   4.183
 5804SOL     OW18310   5.852   2.011   3.074
 5804SOL    HW118311   5.914   1.946   3.030
 5804SOL    HW218312   5.835   1.983   3.168
 5805SOL     OW18313   1.612   2.831   2.228
 5805SOL    HW118314   1.601   2.876   2.139
 5805SOL    HW218315   1.649   2.739   2.214
 5806SOL     OW18316   6.793   4.215   2.116
 5806SOL    HW118317   6.748   4.199   2.204
 5806SOL    HW218318   6.807   4.313   2.102
 5807SOL     OW18319   1.909   0.409   1.173
 5807SOL    HW118320   1.897   0.392   1.271
 5807SOL    HW218321   1.847   0.482   1.145
 5808SOL     OW18322   6.738   0.404   5.697
 5808SOL    HW118323   6.829   0.442   5.714
 5808SOL    HW218324   6.676   0.432   5.771
 5809SOL     OW18325   0.441   2.373   5.482
 5809SOL    HW118326   0.536   2.405   5.476
 5809SOL    HW218327   0.379   2.451   5.476
 5810SOL     OW18328   3.164   6.663   5.135
 5810SOL    HW118329   3.234   6.682   5.066
 5810SOL    HW218330   3.186   6.577   5.182
 5811SOL     OW18331   3.695   4.714   6.480
 5811SOL    HW118332   3.759   4.775   6.433
 5811SOL    HW218333   3.653   4.764   6.557
 5812SOL     OW18334   5.369   2.740   6.795
 5812SOL    HW118335   5.367   2.743   6.695
 5812SOL    HW218336   5.284   2.700   6.829
 5813SOL     OW18337   4.891   5.609   0.199
 5813SOL    HW118338   4.856   5.528   0.246
 5813SOL    HW218339   4.894   5.686   0.263
 5814SOL     OW18340   5.241   1.492   1.733
 5814SOL    HW118341   5.247   1.588   1.707
 5814SOL    HW218342   5.241   1.484   1.833
 5815SOL     OW18343   6.640   2.586   3.986
 5815SOL    HW118344   6.555   2.626   4.021
 5815SOL    HW218345   6.620   2.526   3.909
 5816SOL     OW18346   6.972   3.426   2.498
 5816SOL    HW118347   6.923   3.344   2.468
 5816SOL    HW218348   6.954   3.501   2.435
 5817SOL     OW18349   6.134   3.820   3.478
 5817SOL    HW118350   6.122   3.898   3.417
 5817SOL    HW218351   6.077   3.833   3.560
 5818SOL     OW18352   2.165   0.535   4.695
 5818SOL    HW118353   2.262   0.519   4.676
 5818SOL    HW218354   2.150   0.633   4.708
 5819SOL     OW18355   4.486   5.051   0.248
 5819SOL    HW118356   4.394   5.021   0.272
 5819SOL    HW218357   4.534   4.978   0.199
 5820SOL     OW18358   5.680   6.209   2.307
 5820SOL    HW118359   5.750   6.155   2.355
 5820SOL    HW218360   5.593   6.201   2.355
 5821SOL     OW18361   0.132   0.460   0.809
 5821SOL    HW118362   0.079   0.376   0.799
 5821SOL    HW218363   0.157   0.494   0.719
 5822SOL     OW18364   1.570   3.472   3.139
 5822SOL    HW118365   1.664   3.489   3.108
 5822SOL    HW218366   1.528   3.403   3.081
 5823SOL     OW18367   1.852   5.633   3.029
 5823SOL    HW118368   1.797   5.629   2.946
 5823SOL    HW218369   1.868   5.541   3.064
 5824SOL     OW18370   0.974   0.424   2.478
 5824SOL    HW118371   0.992   0.412   2.576
 5824SOL    HW218372   1.014   0.511   2.448
 5825SOL     OW18373   5.479   1.270   4.429
 5825SOL    HW118374   5.560   1.254   4.486
 5825SOL    HW218375   5.498   1.344   4.365
 5826SOL     OW18376   0.780   6.525   5.489
 5826SOL    HW118377   0.860   6.485   5.535
 5826SOL    HW218378   0.803   6.545   5.394
 5827SOL     OW18379   1.982   3.968   3.591
 5827SOL    HW118380   1.956   3.897   3.656
 5827SOL    HW218381   2.030   3.926   3.513
 5828SOL     OW18382   3.699   0.525   5.211
 5828SOL    HW118383   3.714   0.623   5.219
 5828SOL    HW218384   3.623   0.507   5.150
 5829SOL     OW18385   2.275   0.672   3.736
 5829SOL    HW118386   2.277   0.675   3.636
 5829SOL    HW218387   2.368   0.658   3.771
 5830SOL     OW18388   4.008   4.814   4.495
 5830SOL    HW118389   3.969   4.905   4.512
 5830SOL    HW218390   4.076   4.793   4.565
 5831SOL     OW18391   1.546   2.120   5.687
 5831SOL    HW118392   1.468   2.063   5.661
 5831SOL    HW218393   1.595   2.079   5.763
 5832SOL     OW18394   2.901   5.002   1.742
 5832SOL    HW118395   2.810   4.961   1.753
 5832SOL    HW218396   2.971   4.939   1.775
 5833SOL     OW18397   3.710   5.014   0.177
 5833SOL    HW118398   3.777   5.085   0.156
 5833SOL    HW218399   3.619   5.043   0.146
 5834SOL     OW18400   5.873   2.732   6.674
 5834SOL    HW118401   5.955   2.679   6.696
 5834SOL    HW218402   5.833   2.698   6.589
 5835SOL     OW18403   4.990   2.423   2.762
 5835SOL    HW118404   4.945   2.355   2.821
 5835SOL    HW218405   5.089   2.417   2.774
 5836SOL     OW18406   4.759   6.059   3.041
 5836SOL    HW118407   4.784   6.121   2.967
 5836SOL    HW218408   4.839   6.043   3.100
 5837SOL     OW18409   2.481   5.536   6.912
 5837SOL    HW118410   2.473   5.445   6.871
 5837SOL    HW218411   2.568   5.543   6.962
 5838SOL     OW18412   3.977   2.229   0.513
 5838SOL    HW118413   3.972   2.328   0.526
 5838SOL    HW218414   3.996   2.185   0.601
 5839SOL     OW18415   2.059   2.363   0.095
 5839SOL    HW118416   2.154   2.388   0.111
 5839SOL    HW218417   2.007   2.372   0.180
 5840SOL     OW18418   6.991   3.410   3.093
 5840SOL    HW118419   6.928   3.485   3.115
 5840SOL    HW218420   7.010   3.357   3.175
 5841SOL     OW18421   4.800   1.040   0.591
 5841SOL    HW118422   4.807   0.965   0.657
 5841SOL    HW218423   4.836   1.124   0.633
 5842SOL     OW18424   2.087   2.187   0.970
 5842SOL    HW118425   2.035   2.267   0.940
 5842SOL    HW218426   2.106   2.194   1.068
 5843SOL     OW18427   2.687   3.722   1.094
 5843SOL    HW118428   2.658   3.627   1.104
 5843SOL    HW218429   2.627   3.768   1.028
 5844SOL     OW18430   0.647   6.237   4.660
 5844SOL    HW118431   0.677   6.141   4.662
 5844SOL    HW218432   0.727   6.297   4.654
 5845SOL     OW18433   1.143   0.270   2.231
 5845SOL    HW118434   1.088   0.195   2.194
 5845SOL    HW218435   1.084   0.349   2.246
 5846SOL     OW18436   6.971   3.892   5.174
 5846SOL    HW118437   0.010   3.830   5.129
 5846SOL    HW218438   6.993   3.986   5.148
 5847SOL     OW18439   1.877   4.036   6.584
 5847SOL    HW118440   1.963   3.985   6.592
 5847SOL    HW218441   1.892   4.117   6.527
 5848SOL     OW18442   1.914   5.143   2.293
 5848SOL    HW118443   1.855   5.202   2.348
 5848SOL    HW218444   2.010   5.164   2.312
 5849SOL     OW18445   3.600   6.010   5.474
 5849SOL    HW118446   3.505   6.040   5.482
 5849SOL    HW218447   3.661   6.079   5.514
 5850SOL     OW18448   0.973   1.124   2.444
 5850SOL    HW118449   0.992   1.037   2.490
 5850SOL    HW218450   0.940   1.106   2.351
 5851SOL     OW18451   6.382   3.649   4.260
 5851SOL    HW118452   6.350   3.570   4.314
 5851SOL    HW218453   6.470   3.627   4.218
 5852SOL     OW18454   5.010   4.360   2.160
 5852SOL    HW118455   5.038   4.382   2.254
 5852SOL    HW218456   5.090   4.335   2.107
 5853SOL     OW18457   4.843   5.072   6.189
 5853SOL    HW118458   4.904   5.046   6.115
 5853SOL    HW218459   4.851   5.171   6.207
 5854SOL     OW18460   2.980   4.711   5.354
 5854SOL    HW118461   2.970   4.631   5.294
 5854SOL    HW218462   2.918   4.783   5.323
 5855SOL     OW18463   2.284   2.868   3.177
 5855SOL    HW118464   2.210   2.862   3.110
 5855SOL    HW218465   2.253   2.919   3.257
 5856SOL     OW18466   1.028   6.036   2.872
 5856SOL    HW118467   1.027   6.136   2.879
 5856SOL    HW218468   0.967   5.996   2.940
 5857SOL     OW18469   5.266   5.012   6.773
 5857SOL    HW118470   5.354   4.973   6.799
 5857SOL    HW218471   5.201   4.939   6.755
 5858SOL     OW18472   1.779   0.710   2.537
 5858SOL    HW118473   1.734   0.663   2.613
 5858SOL    HW218474   1.809   0.800   2.566
 5859SOL     OW18475   5.522   5.791   1.363
 5859SOL    HW118476   5.561   5.784   1.454
 5859SOL    HW218477   5.458   5.715   1.348
 5860SOL     OW18478   0.357   4.412   3.305
 5860SOL    HW118479   0.404   4.481   3.360
 5860SOL    HW218480   0.415   4.332   3.295
 5861SOL     OW18481   5.005   0.949   4.894
 5861SOL    HW118482   4.913   0.950   4.932
 5861SOL    HW218483   5.001   0.949   4.794
 5862SOL     OW18484   6.267   5.723   2.606
 5862SOL    HW118485   6.281   5.681   2.696
 5862SOL    HW218486   6.184   5.778   2.608
 5863SOL     OW18487   4.035   6.444   6.637
 5863SOL    HW118488   4.073   6.477   6.551
 5863SOL    HW218489   4.043   6.344   6.640
 5864SOL     OW18490   3.412   4.057   2.250
 5864SOL    HW118491   3.378   4.071   2.343
 5864SOL    HW218492   3.344   4.090   2.185
 5865SOL     OW18493   6.933   0.504   6.159
 5865SOL    HW118494   6.951   0.422   6.214
 5865SOL    HW218495   6.907   0.477   6.066
 5866SOL     OW18496   3.428   3.234   3.015
 5866SOL    HW118497   3.507   3.283   2.980
 5866SOL    HW218498   3.386   3.285   3.091
 5867SOL     OW18499   2.833   1.490   2.023
 5867SOL    HW118500   2.892   1.429   1.970
 5867SOL    HW218501   2.888   1.537   2.093
 5868SOL     OW18502   0.828   1.331   5.738
 5868SOL    HW118503   0.815   1.301   5.643
 5868SOL    HW218504   0.762   1.283   5.797
 5869SOL     OW18505   1.195   5.963   3.118
 5869SOL    HW118506   1.176   5.935   3.212
 5869SOL    HW218507   1.150   6.050   3.099
 5870SOL     OW18508   3.312   5.835   4.806
 5870SOL    HW118509   3.298   5.738   4.785
 5870SOL    HW218510   3.324   5.886   4.721
 5871SOL     OW18511   3.059   3.183   3.965
 5871SOL    HW118512   3.106   3.108   4.010
 5871SOL    HW218513   3.014   3.240   4.034
 5872SOL     OW18514   4.914   5.613   1.516
 5872SOL    HW118515   4.946   5.529   1.471
 5872SOL    HW218516   4.979   5.638   1.588
 5873SOL     OW18517   4.292   6.157   2.443
 5873SOL    HW118518   4.376   6.144   2.495
 5873SOL    HW218519   4.282   6.084   2.376
 5874SOL     OW18520   1.585   4.155   5.119
 5874SOL    HW118521   1.615   4.193   5.206
 5874SOL    HW218522   1.637   4.072   5.099
 5875SOL     OW18523   3.191   1.480   0.939
 5875SOL    HW118524   3.203   1.414   0.865
 5875SOL    HW218525   3.200   1.434   1.027
 5876SOL     OW18526   3.316   3.007   1.677
 5876SOL    HW118527   3.410   3.037   1.693
 5876SOL    HW218528   3.317   2.919   1.629
 5877SOL     OW18529   5.897   4.346   0.979
 5877SOL    HW118530   5.975   4.404   0.954
 5877SOL    HW218531   5.814   4.383   0.936
 5878SOL     OW18532   2.105   4.705   2.703
 5878SOL    HW118533   2.176   4.775   2.695
 5878SOL    HW218534   2.046   4.708   2.623
 5879SOL     OW18535   0.520   4.708   4.599
 5879SOL    HW118536   0.445   4.731   4.538
 5879SOL    HW218537   0.487   4.648   4.671
 5880SOL     OW18538   3.122   5.765   0.599
 5880SOL    HW118539   3.081   5.712   0.673
 5880SOL    HW218540   3.208   5.723   0.571
 5881SOL     OW18541   1.819   5.731   4.614
 5881SOL    HW118542   1.849   5.750   4.707
 5881SOL    HW218543   1.837   5.810   4.556
 5882SOL     OW18544   4.919   0.713   2.315
 5882SOL    HW118545   4.955   0.757   2.397
 5882SOL    HW218546   4.869   0.780   2.260
 5883SOL     OW18547   0.057   3.395   5.236
 5883SOL    HW118548   7.002   3.338   5.258
 5883SOL    HW218549   0.067   3.400   5.137
 5884SOL     OW18550   1.006   1.498   3.523
 5884SOL    HW118551   0.944   1.533   3.453
 5884SOL    HW218552   1.100   1.498   3.487
 5885SOL     OW18553   5.893   6.782   0.991
 5885SOL    HW118554   5.820   6.807   0.927
 5885SOL    HW218555   5.962   6.854   0.992
 5886SOL     OW18556   0.815   0.913   6.021
 5886SOL    HW118557   0.810   0.896   6.120
 5886SOL    HW218558   0.897   0.868   5.984
 5887SOL     OW18559   4.468   6.593   3.363
 5887SOL    HW118560   4.465   6.503   3.405
 5887SOL    HW218561   4.498   6.661   3.430
 5888SOL     OW18562   1.778   0.547   3.315
 5888SOL    HW118563   1.729   0.494   3.384
 5888SOL    HW218564   1.874   0.556   3.342
 5889SOL     OW18565   2.733   0.819   0.824
 5889SOL    HW118566   2.703   0.818   0.729
 5889SOL    HW218567   2.829   0.790   0.830
 5890SOL     OW18568   3.433   4.712   6.115
 5890SOL    HW118569   3.356   4.705   6.051
 5890SOL    HW218570   3.450   4.623   6.157
 5891SOL     OW18571   2.301   3.507   0.269
 5891SOL    HW118572   2.215   3.537   0.310
 5891SOL    HW218573   2.288   3.421   0.221
 5892SOL     OW18574   0.780   6.998   1.590
 5892SOL    HW118575   0.873   6.997   1.627
 5892SOL    HW218576   0.763   0.061   1.545
 5893SOL     OW18577   1.806   0.820   3.188
 5893SOL    HW118578   1.739   0.850   3.119
 5893SOL    HW218579   1.805   0.720   3.193
 5894SOL     OW18580   0.575   3.086   3.116
 5894SOL    HW118581   0.611   3.051   3.203
 5894SOL    HW218582   0.637   3.157   3.081
 5895SOL     OW18583   5.298   3.701   3.867
 5895SOL    HW118584   5.319   3.623   3.807
 5895SOL    HW218585   5.289   3.669   3.961
 5896SOL     OW18586   3.588   2.076   5.638
 5896SOL    HW118587   3.614   2.025   5.720
 5896SOL    HW218588   3.647   2.049   5.562
 5897SOL     OW18589   4.026   0.649   1.781
 5897SOL    HW118590   4.003   0.565   1.829
 5897SOL    HW218591   4.008   0.638   1.684
 5898SOL     OW18592   1.775   0.032   2.311
 5898SOL    HW118593   1.718   0.005   2.234
 5898SOL    HW218594   1.851   0.087   2.279
 5899SOL     OW18595   5.002   0.087   4.211
 5899SOL    HW118596   4.941   0.149   4.161
 5899SOL    HW218597   5.094   0.128   4.216
 5900SOL     OW18598   4.697   5.122   2.737
 5900SOL    HW118599   4.772   5.067   2.773
 5900SOL    HW218600   4.644   5.068   2.672
 5901SOL     OW18601   3.945   6.935   5.338
 5901SOL    HW118602   3.950   6.844   5.379
 5901SOL    HW218603   3.969   6.930   5.241
 5902SOL     OW18604   6.159   1.365   6.553
 5902SOL    HW118605   6.245   1.380   6.601
 5902SOL    HW218606   6.177   1.325   6.463
 5903SOL     OW18607   6.727   3.144   6.471
 5903SOL    HW118608   6.809   3.089   6.464
 5903SOL    HW218609   6.646   3.086   6.463
 5904SOL     OW18610   0.350   4.372   2.300
 5904SOL    HW118611   0.408   4.397   2.377
 5904SOL    HW218612   0.405   4.324   2.231
 5905SOL     OW18613   6.736   5.312   2.398
 5905SOL    HW118614   6.832   5.309   2.426
 5905SOL    HW218615   6.722   5.386   2.333
 5906SOL     OW18616   6.733   1.384   3.997
 5906SOL    HW118617   6.637   1.375   4.024
 5906SOL    HW218618   6.790   1.328   4.057
 5907SOL     OW18619   1.756   6.828   1.921
 5907SOL    HW118620   1.854   6.848   1.930
 5907SOL    HW218621   1.706   6.913   1.903
 5908SOL     OW18622   0.390   2.789   6.339
 5908SOL    HW118623   0.385   2.807   6.438
 5908SOL    HW218624   0.302   2.811   6.297
 5909SOL     OW18625   6.933   4.416   1.028
 5909SOL    HW118626   6.907   4.509   1.000
 5909SOL    HW218627   6.889   4.394   1.115
 5910SOL     OW18628   2.021   1.742   3.422
 5910SOL    HW118629   2.118   1.761   3.436
 5910SOL    HW218630   1.988   1.679   3.493
 5911SOL     OW18631   6.797   5.657   6.188
 5911SOL    HW118632   6.740   5.695   6.261
 5911SOL    HW218633   6.770   5.695   6.100
 5912SOL     OW18634   0.716   0.908   3.840
 5912SOL    HW118635   0.812   0.883   3.839
 5912SOL    HW218636   0.706   1.002   3.874
 5913SOL     OW18637   5.328   1.933   6.902
 5913SOL    HW118638   5.251   1.954   6.842
 5913SOL    HW218639   5.309   1.847   6.951
 5914SOL     OW18640   0.412   5.781   0.706
 5914SOL    HW118641   0.391   5.720   0.630
 5914SOL    HW218642   0.457   5.864   0.671
 5915SOL     OW18643   3.963   1.336   6.122
 5915SOL    HW118644   3.935   1.428   6.150
 5915SOL    HW218645   3.930   1.270   6.189
 5916SOL     OW18646   0.911   6.203   2.523
 5916SOL    HW118647   0.843   6.137   2.490
 5916SOL    HW218648   1.000   6.180   2.486
 5917SOL     OW18649   3.829   4.250   0.321
 5917SOL    HW118650   3.894   4.323   0.340
 5917SOL    HW218651   3.860   4.197   0.242
 5918SOL     OW18652   2.954   6.128   5.409
 5918SOL    HW118653   2.877   6.185   5.381
 5918SOL    HW218654   2.998   6.089   5.328
 5919SOL     OW18655   3.612   2.870   3.921
 5919SOL    HW118656   3.520   2.844   3.952
 5919SOL    HW218657   3.619   2.856   3.823
 5920SOL     OW18658   6.304   0.121   5.030
 5920SOL    HW118659   6.323   0.214   5.060
 5920SOL    HW218660   6.255   0.123   4.943
 5921SOL     OW18661   2.533   4.557   6.325
 5921SOL    HW118662   2.615   4.589   6.371
 5921SOL    HW218663   2.522   4.459   6.341
 5922SOL     OW18664   5.058   3.849   3.046
 5922SOL    HW118665   4.988   3.888   2.986
 5922SOL    HW218666   5.108   3.777   2.997
 5923SOL     OW18667   6.926   0.602   2.926
 5923SOL    HW118668   6.956   0.616   2.832
 5923SOL    HW218669   6.938   0.687   2.978
 5924SOL     OW18670   5.956   0.238   3.818
 5924SOL    HW118671   5.953   0.226   3.719
 5924SOL    HW218672   5.895   0.172   3.862
 5925SOL     OW18673   4.299   0.158   1.568
 5925SOL    HW118674   4.368   0.225   1.542
 5925SOL    HW218675   4.279   0.098   1.490
 5926SOL     OW18676   4.748   4.920   3.841
 5926SOL    HW118677   4.650   4.943   3.845
 5926SOL    HW218678   4.802   5.003   3.831
 5927SOL     OW18679   1.018   4.450   2.189
 5927SOL    HW118680   1.065   4.497   2.264
 5927SOL    HW218681   0.921   4.442   2.210
 5928SOL     OW18682   3.544   0.597   0.536
 5928SOL    HW118683   3.563   0.537   0.614
 5928SOL    HW218684   3.456   0.574   0.497
 5929SOL     OW18685   1.966   0.551   6.522
 5929SOL    HW118686   1.968   0.645   6.554
 5929SOL    HW218687   1.913   0.495   6.586
 5930SOL     OW18688   1.068   3.362   2.269
 5930SOL    HW118689   1.003   3.363   2.193
 5930SOL    HW218690   1.161   3.374   2.233
 5931SOL     OW18691   4.887   5.999   3.418
 5931SOL    HW118692   4.820   5.931   3.448
 5931SOL    HW218693   4.839   6.085   3.397
 5932SOL     OW18694   2.731   0.872   7.013
 5932SOL    HW118695   2.690   0.781   7.010
 5932SOL    HW218696   2.753   0.902   6.920
 5933SOL     OW18697   6.255   6.263   3.918
 5933SOL    HW118698   6.336   6.224   3.962
 5933SOL    HW218699   6.191   6.295   3.988
 5934SOL     OW18700   3.349   3.569   5.982
 5934SOL    HW118701   3.286   3.513   6.035
 5934SOL    HW218702   3.443   3.541   6.002
 5935SOL     OW18703   0.686   5.958   5.456
 5935SOL    HW118704   0.667   5.890   5.385
 5935SOL    HW218705   0.717   6.043   5.413
 5936SOL     OW18706   3.566   3.129   1.710
 5936SOL    HW118707   3.554   3.228   1.704
 5936SOL    HW218708   3.633   3.107   1.781
 5937SOL     OW18709   6.885   2.975   1.829
 5937SOL    HW118710   6.870   3.062   1.876
 5937SOL    HW218711   6.810   2.913   1.850
 5938SOL     OW18712   0.090   4.877   4.830
 5938SOL    HW118713   0.139   4.938   4.892
 5938SOL    HW218714   0.120   4.783   4.845
 5939SOL     OW18715   3.507   0.840   5.061
 5939SOL    HW118716   3.475   0.901   4.988
 5939SOL    HW218717   3.532   0.894   5.141
 5940SOL     OW18718   5.166   5.877   2.705
 5940SOL    HW118719   5.111   5.917   2.778
 5940SOL    HW218720   5.135   5.784   2.687
 5941SOL     OW18721   0.156   2.317   2.471
 5941SOL    HW118722   0.181   2.408   2.504
 5941SOL    HW218723   0.154   2.316   2.371
 5942SOL     OW18724   5.142   3.344   5.970
 5942SOL    HW118725   5.229   3.345   6.021
 5942SOL    HW218726   5.066   3.355   6.034
 5943SOL     OW18727   2.930   4.253   1.702
 5943SOL    HW118728   2.832   4.257   1.720
 5943SOL    HW218729   2.973   4.339   1.731
 5944SOL     OW18730   0.376   3.495   6.317
 5944SOL    HW118731   0.314   3.417   6.314
 5944SOL    HW218732   0.470   3.463   6.321
 5945SOL     OW18733   0.323   5.829   5.204
 5945SOL    HW118734   0.336   5.730   5.201
 5945SOL    HW218735   0.284   5.860   5.117
 5946SOL     OW18736   3.423   4.287   0.746
 5946SOL    HW118737   3.366   4.360   0.782
 5946SOL    HW218738   3.446   4.223   0.819
 5947SOL     OW18739   3.476   3.297   4.695
 5947SOL    HW118740   3.484   3.365   4.622
 5947SOL    HW218741   3.538   3.221   4.675
 5948SOL     OW18742   5.198   3.812   1.628
 5948SOL    HW118743   5.187   3.819   1.727
 5948SOL    HW218744   5.115   3.842   1.582
 5949SOL     OW18745   6.514   4.094   2.190
 5949SOL    HW118746   6.506   4.191   2.214
 5949SOL    HW218747   6.533   4.041   2.273
 5950SOL     OW18748   4.492   0.669   5.031
 5950SOL    HW118749   4.416   0.733   5.023
 5950SOL    HW218750   4.472   0.602   5.103
 5951SOL     OW18751   1.068   3.768   6.577
 5951SOL    HW118752   1.021   3.822   6.647
 5951SOL    HW218753   1.121   3.829   6.517
 5952SOL     OW18754   3.877   5.033   1.018
 5952SOL    HW118755   3.930   5.115   1.040
 5952SOL    HW218756   3.937   4.964   0.979
 5953SOL     OW18757   6.626   2.897   4.990
 5953SOL    HW118758   6.711   2.884   4.940
 5953SOL    HW218759   6.582   2.809   5.006
 5954SOL     OW18760   1.970   6.175   4.051
 5954SOL    HW118761   2.010   6.203   4.139
 5954SOL    HW218762   2.033   6.196   3.977
 5955SOL     OW18763   6.325   3.770   0.667
 5955SOL    HW118764   6.319   3.816   0.755
 5955SOL    HW218765   6.277   3.824   0.598
 5956SOL     OW18766   5.043   2.840   5.154
 5956SOL    HW118767   5.010   2.881   5.238
 5956SOL    HW218768   5.060   2.911   5.086
 5957SOL     OW18769   0.674   1.535   2.872
 5957SOL    HW118770   0.707   1.498   2.785
 5957SOL    HW218771   0.665   1.634   2.865
 5958SOL     OW18772   3.759   6.739   2.717
 5958SOL    HW118773   3.750   6.765   2.621
 5958SOL    HW218774   3.738   6.817   2.775
 5959SOL     OW18775   5.313   2.579   4.643
 5959SOL    HW118776   5.367   2.541   4.568
 5959SOL    HW218777   5.368   2.581   4.726
 5960SOL     OW18778   4.410   0.250   6.266
 5960SOL    HW118779   4.394   0.345   6.293
 5960SOL    HW218780   4.356   0.229   6.185
 5961SOL     OW18781   2.522   2.174   2.975
 5961SOL    HW118782   2.533   2.251   3.038
 5961SOL    HW218783   2.611   2.149   2.938
 5962SOL     OW18784   4.978   6.913   0.428
 5962SOL    HW118785   4.970   6.884   0.332
 5962SOL    HW218786   5.041   6.990   0.434
 5963SOL     OW18787   3.273   4.314   6.988
 5963SOL    HW118788   3.339   4.327   6.914
 5963SOL    HW218789   3.314   4.261   0.037
 5964SOL     OW18790   2.195   6.813   2.793
 5964SOL    HW118791   2.207   6.809   2.694
 5964SOL    HW218792   2.143   6.895   2.817
 5965SOL     OW18793   2.291   0.305   0.447
 5965SOL    HW118794   2.287   0.338   0.352
 5965SOL    HW218795   2.332   0.214   0.449
 5966SOL     OW18796   3.017   1.198   4.945
 5966SOL    HW118797   3.113   1.207   4.971
 5966SOL    HW218798   3.010   1.153   4.856
 5967SOL     OW18799   3.038   1.661   3.909
 5967SOL    HW118800   2.989   1.680   3.824
 5967SOL    HW218801   3.045   1.744   3.963
 5968SOL     OW18802   5.313   2.316   1.260
 5968SOL    HW118803   5.217   2.325   1.289
 5968SOL    HW218804   5.317   2.297   1.162
 5969SOL     OW18805   4.925   0.991   6.827
 5969SOL    HW118806   4.875   1.049   6.893
 5969SOL    HW218807   4.871   0.981   6.744
 5970SOL     OW18808   0.562   3.472   0.563
 5970SOL    HW118809   0.543   3.570   0.560
 5970SOL    HW218810   0.612   3.446   0.481
 5971SOL     OW18811   0.733   6.729   4.064
 5971SOL    HW118812   0.735   6.710   4.162
 5971SOL    HW218813   0.823   6.707   4.025
 5972SOL     OW18814   4.934   5.068   1.083
 5972SOL    HW118815   4.980   5.090   0.998
 5972SOL    HW218816   4.950   4.972   1.107
 5973SOL     OW18817   1.894   2.437   2.415
 5973SOL    HW118818   1.958   2.403   2.346
 5973SOL    HW218819   1.809   2.465   2.370
 5974SOL     OW18820   5.352   1.891   5.819
 5974SOL    HW118821   5.362   1.806   5.768
 5974SOL    HW218822   5.418   1.893   5.894
 5975SOL     OW18823   4.448   4.907   0.667
 5975SOL    HW118824   4.400   4.830   0.623
 5975SOL    HW218825   4.507   4.872   0.739
 5976SOL     OW18826   2.420   3.465   5.566
 5976SOL    HW118827   2.458   3.384   5.611
 5976SOL    HW218828   2.393   3.532   5.635
 5977SOL     OW18829   6.868   4.368   0.547
 5977SOL    HW118830   6.929   4.429   0.597
 5977SOL    HW218831   6.905   4.353   0.455
 5978SOL     OW18832   3.085   4.943   0.725
 5978SOL    HW118833   3.051   4.876   0.658
 5978SOL    HW218834   3.167   4.988   0.688
 5979SOL     OW18835   5.346   0.415   1.552
 5979SOL    HW118836   5.443   0.420   1.575
 5979SOL    HW218837   5.301   0.349   1.612
 5980SOL     OW18838   3.294   2.930   1.280
 5980SOL    HW118839   3.250   3.019   1.273
 5980SOL    HW218840   3.377   2.938   1.336
 5981SOL     OW18841   2.819   2.343   0.584
 5981SOL    HW118842   2.768   2.425   0.559
 5981SOL    HW218843   2.853   2.351   0.677
 5982SOL     OW18844   5.978   2.724   1.067
 5982SOL    HW118845   5.977   2.709   1.166
 5982SOL    HW218846   6.003   2.639   1.021
 5983SOL     OW18847   6.920   0.507   3.580
 5983SOL    HW118848   6.985   0.518   3.505
 5983SOL    HW218849   6.944   0.568   3.655
 5984SOL     OW18850   6.751   6.606   3.697
 5984SOL    HW118851   6.733   6.690   3.749
 5984SOL    HW218852   6.848   6.604   3.670
 5985SOL     OW18853   5.577   2.822   2.808
 5985SOL    HW118854   5.552   2.863   2.896
 5985SOL    HW218855   5.586   2.893   2.739
 5986SOL     OW18856   4.206   3.344   5.177
 5986SOL    HW118857   4.282   3.397   5.213
 5986SOL    HW218858   4.178   3.381   5.088
 5987SOL     OW18859   0.317   0.048   5.361
 5987SOL    HW118860   0.246   0.033   5.429
 5987SOL    HW218861   0.377   0.122   5.391
 5988SOL     OW18862   1.284   2.365   6.100
 5988SOL    HW118863   1.228   2.291   6.062
 5988SOL    HW218864   1.357   2.326   6.155
 5989SOL     OW18865   0.442   5.904   6.434
 5989SOL    HW118866   0.374   5.866   6.371
 5989SOL    HW218867   0.486   5.829   6.485
 5990SOL     OW18868   3.618   5.016   1.821
 5990SOL    HW118869   3.603   4.931   1.871
 5990SOL    HW218870   3.530   5.060   1.803
 5991SOL     OW18871   5.304   6.900   0.710
 5991SOL    HW118872   5.348   6.811   0.702
 5991SOL    HW218873   5.215   6.891   0.754
 5992SOL     OW18874   3.860   6.649   1.778
 5992SOL    HW118875   3.857   6.612   1.870
 5992SOL    HW218876   3.945   6.700   1.765
 5993SOL     OW18877   6.243   1.884   0.311
 5993SOL    HW118878   6.195   1.965   0.276
 5993SOL    HW218879   6.295   1.842   0.237
 5994SOL     OW18880   0.828   3.647   0.467
 5994SOL    HW118881   0.854   3.652   0.564
 5994SOL    HW218882   0.796   3.737   0.437
 5995SOL     OW18883   4.355   3.916   1.333
 5995SOL    HW118884   4.300   3.832   1.333
 5995SOL    HW218885   4.431   3.906   1.397
 5996SOL     OW18886   2.995   5.395   0.977
 5996SOL    HW118887   2.910   5.431   0.939
 5996SOL    HW218888   3.000   5.297   0.960
 5997SOL     OW18889   6.989   0.099   3.702
 5997SOL    HW118890   6.912   0.143   3.658
 5997SOL    HW218891   6.956   0.031   3.768
 5998SOL     OW18892   6.555   6.727   1.555
 5998SOL    HW118893   6.487   6.722   1.483
 5998SOL    HW218894   6.534   6.804   1.616
 5999SOL     OW18895   5.017   2.954   0.892
 5999SOL    HW118896   4.919   2.958   0.877
 5999SOL    HW218897   5.050   3.042   0.927
 6000SOL     OW18898   7.006   4.113   1.318
 6000SOL    HW118899   6.926   4.160   1.280
 6000SOL    HW218900   7.001   4.116   1.418
 6001SOL     OW18901   6.618   5.376   5.453
 6001SOL    HW118902   6.539   5.368   5.392
 6001SOL    HW218903   6.608   5.313   5.529
 6002SOL     OW18904   6.255   5.666   4.235
 6002SOL    HW118905   6.335   5.726   4.238
 6002SOL    HW218906   6.261   5.599   4.308
 6003SOL     OW18907   0.440   3.088   4.837
 6003SOL    HW118908   0.347   3.124   4.834
 6003SOL    HW218909   0.482   3.097   4.746
 6004SOL     OW18910   5.314   2.822   4.310
 6004SOL    HW118911   5.306   2.848   4.214
 6004SOL    HW218912   5.395   2.865   4.349
 6005SOL     OW18913   3.484   5.149   6.336
 6005SOL    HW118914   3.436   5.140   6.423
 6005SOL    HW218915   3.463   5.237   6.295
 6006SOL     OW18916   3.711   6.227   5.640
 6006SOL    HW118917   3.802   6.249   5.675
 6006SOL    HW218918   3.653   6.197   5.715
 6007SOL     OW18919   2.231   5.648   6.613
 6007SOL    HW118920   2.272   5.560   6.588
 6007SOL    HW218921   2.180   5.638   6.698
 6008SOL     OW18922   3.372   4.151   6.125
 6008SOL    HW118923   3.334   4.191   6.209
 6008SOL    HW218924   3.298   4.108   6.073
 6009SOL     OW18925   3.506   4.964   2.946
 6009SOL    HW118926   3.429   4.967   2.882
 6009SOL    HW218927   3.591   4.950   2.895
 6010SOL     OW18928   0.647   5.561   4.824
 6010SOL    HW118929   0.627   5.576   4.921
 6010SOL    HW218930   0.580   5.610   4.769
 6011SOL     OW18931   6.033   1.964   1.796
 6011SOL    HW118932   6.076   1.969   1.706
 6011SOL    HW218933   6.002   1.871   1.813
 6012SOL     OW18934   6.872   0.243   6.302
 6012SOL    HW118935   6.901   0.249   6.398
 6012SOL    HW218936   6.775   0.266   6.295
 6013SOL     OW18937   6.006   1.489   2.767
 6013SOL    HW118938   5.960   1.417   2.819
 6013SOL    HW218939   5.997   1.470   2.669
 6014SOL     OW18940   3.855   3.223   4.099
 6014SOL    HW118941   3.839   3.300   4.160
 6014SOL    HW218942   3.812   3.241   4.011
 6015SOL     OW18943   5.962   1.409   4.564
 6015SOL    HW118944   5.954   1.339   4.494
 6015SOL    HW218945   5.871   1.440   4.591
 6016SOL     OW18946   5.192   1.136   4.966
 6016SOL    HW118947   5.129   1.059   4.953
 6016SOL    HW218948   5.185   1.198   4.887
 6017SOL     OW18949   6.600   2.326   5.197
 6017SOL    HW118950   6.670   2.292   5.261
 6017SOL    HW218951   6.510   2.323   5.241
 6018SOL     OW18952   3.154   1.130   5.394
 6018SOL    HW118953   3.055   1.137   5.403
 6018SOL    HW218954   3.179   1.034   5.379
 6019SOL     OW18955   0.001   3.431   6.793
 6019SOL    HW118956   6.966   3.504   6.763
 6019SOL    HW218957   0.096   3.462   6.791
 6020SOL     OW18958   0.617   4.745   6.621
 6020SOL    HW118959   0.629   4.731   6.719
 6020SOL    HW218960   0.531   4.794   6.605
 6021SOL     OW18961   5.007   0.117   3.364
 6021SOL    HW118962   5.090   0.150   3.408
 6021SOL    HW218963   5.007   0.145   3.268
 6022SOL     OW18964   5.918   1.688   1.860
 6022SOL    HW118965   5.906   1.610   1.922
 6022SOL    HW218966   5.909   1.656   1.766
 6023SOL     OW18967   4.363   0.733   2.080
 6023SOL    HW118968   4.399   0.644   2.052
 6023SOL    HW218969   4.263   0.730   2.082
 6024SOL     OW18970   0.448   5.568   0.191
 6024SOL    HW118971   0.422   5.472   0.184
 6024SOL    HW218972   0.506   5.593   0.113
 6025SOL     OW18973   2.861   0.964   4.291
 6025SOL    HW118974   2.810   0.890   4.335
 6025SOL    HW218975   2.929   1.000   4.354
 6026SOL     OW18976   6.523   4.432   4.713
 6026SOL    HW118977   6.605   4.397   4.759
 6026SOL    HW218978   6.506   4.378   4.631
 6027SOL     OW18979   5.550   4.014   6.555
 6027SOL    HW118980   5.548   4.112   6.536
 6027SOL    HW218981   5.521   3.998   6.650
 6028SOL     OW18982   5.715   4.944   6.547
 6028SOL    HW118983   5.775   4.965   6.469
 6028SOL    HW218984   5.748   4.991   6.628
 6029SOL     OW18985   2.176   0.569   3.121
 6029SOL    HW118986   2.174   0.553   3.022
 6029SOL    HW218987   2.140   0.661   3.140
 6030SOL     OW18988   5.436   3.594   4.385
 6030SOL    HW118989   5.347   3.558   4.356
 6030SOL    HW218990   5.509   3.535   4.351
 6031SOL     OW18991   1.068   5.873   5.193
 6031SOL    HW118992   1.153   5.887   5.142
 6031SOL    HW218993   1.074   5.920   5.281
 6032SOL     OW18994   3.287   6.111   3.758
 6032SOL    HW118995   3.352   6.081   3.688
 6032SOL    HW218996   3.194   6.107   3.722
 6033SOL     OW18997   2.180   1.786   2.443
 6033SOL    HW118998   2.233   1.733   2.510
 6033SOL    HW218999   2.230   1.870   2.420
 6034SOL     OW19000   0.471   0.833   0.471
 6034SOL    HW119001   0.566   0.864   0.457
 6034SOL    HW219002   0.467   0.772   0.550
 6035SOL     OW19003   1.549   0.457   2.450
 6035SOL    HW119004   1.578   0.526   2.383
 6035SOL    HW219005   1.607   0.462   2.531
 6036SOL     OW19006   6.275   2.424   0.710
 6036SOL    HW119007   6.229   2.338   0.687
 6036SOL    HW219008   6.268   2.488   0.634
 6037SOL     OW19009   5.198   2.433   0.338
 6037SOL    HW119010   5.120   2.395   0.288
 6037SOL    HW219011   5.215   2.527   0.309
 6038SOL     OW19012   0.135   1.841   6.099
 6038SOL    HW119013   0.216   1.847   6.157
 6038SOL    HW219014   0.162   1.815   6.007
 6039SOL     OW19015   3.697   3.550   3.509
 6039SOL    HW119016   3.642   3.558   3.426
 6039SOL    HW219017   3.730   3.640   3.537
 6040SOL     OW19018   0.464   2.010   0.362
 6040SOL    HW119019   0.531   1.937   0.376
 6040SOL    HW219020   0.381   1.990   0.415
 6041SOL     OW19021   2.455   3.230   5.703
 6041SOL    HW119022   2.371   3.195   5.745
 6041SOL    HW219023   2.534   3.193   5.752
 6042SOL     OW19024   3.611   6.188   3.171
 6042SOL    HW119025   3.680   6.259   3.157
 6042SOL    HW219026   3.520   6.228   3.158
 6043SOL     OW19027   2.396   0.410   3.806
 6043SOL    HW119028   2.461   0.479   3.839
 6043SOL    HW219029   2.387   0.418   3.707
 6044SOL     OW19030   0.422   2.934   1.407
 6044SOL    HW119031   0.378   2.970   1.325
 6044SOL    HW219032   0.512   2.977   1.417
 6045SOL     OW19033   4.969   1.675   3.393
 6045SOL    HW119034   4.889   1.736   3.389
 6045SOL    HW219035   5.038   1.706   3.328
 6046SOL     OW19036   3.124   3.072   2.563
 6046SOL    HW119037   3.108   3.141   2.492
 6046SOL    HW219038   3.142   2.984   2.519
 6047SOL     OW19039   5.977   1.470   0.649
 6047SOL    HW119040   5.897   1.419   0.680
 6047SOL    HW219041   6.017   1.425   0.569
 6048SOL     OW19042   6.082   5.762   4.418
 6048SOL    HW119043   6.100   5.738   4.323
 6048SOL    HW219044   6.160   5.813   4.454
 6049SOL     OW19045   4.393   4.869   5.269
 6049SOL    HW119046   4.412   4.845   5.364
 6049SOL    HW219047   4.466   4.929   5.235
 6050SOL     OW19048   4.060   6.639   1.548
 6050SOL    HW119049   4.111   6.619   1.465
 6050SOL    HW219050   4.103   6.593   1.626
 6051SOL     OW19051   1.049   1.253   3.234
 6051SOL    HW119052   0.994   1.335   3.215
 6051SOL    HW219053   1.084   1.259   3.328
 6052SOL     OW19054   5.551   6.737   0.413
 6052SOL    HW119055   5.540   6.642   0.442
 6052SOL    HW219056   5.643   6.769   0.436
 6053SOL     OW19057   4.117   2.615   6.152
 6053SOL    HW119058   4.167   2.621   6.066
 6053SOL    HW219059   4.153   2.539   6.207
 6054SOL     OW19060   3.974   4.369   0.984
 6054SOL    HW119061   3.920   4.390   0.902
 6054SOL    HW219062   4.069   4.397   0.970
 6055SOL     OW19063   3.305   4.498   0.875
 6055SOL    HW119064   3.287   4.566   0.804
 6055SOL    HW219065   3.223   4.485   0.931
 6056SOL     OW19066   5.627   5.307   5.400
 6056SOL    HW119067   5.596   5.216   5.373
 6056SOL    HW219068   5.593   5.375   5.335
 6057SOL     OW19069   5.128   0.337   4.375
 6057SOL    HW119070   5.165   0.423   4.340
 6057SOL    HW219071   5.031   0.348   4.394
 6058SOL     OW19072   5.389   2.201   5.978
 6058SOL    HW119073   5.294   2.217   6.002
 6058SOL    HW219074   5.440   2.172   6.059
 6059SOL     OW19075   3.822   4.218   6.671
 6059SOL    HW119076   3.823   4.123   6.639
 6059SOL    HW219077   3.787   4.220   6.765
 6060SOL     OW19078   2.486   3.206   6.698
 6060SOL    HW119079   2.390   3.176   6.696
 6060SOL    HW219080   2.508   3.252   6.613
 6061SOL     OW19081   3.511   5.166   0.012
 6061SOL    HW119082   3.451   5.215   0.075
 6061SOL    HW219083   3.461   5.143   6.954
 6062SOL     OW19084   1.752   2.420   6.918
 6062SOL    HW119085   1.734   2.324   6.939
 6062SOL    HW219086   1.718   2.441   6.827
 6063SOL     OW19087   3.889   4.897   6.000
 6063SOL    HW119088   3.801   4.853   5.981
 6063SOL    HW219089   3.891   4.929   6.094
 6064SOL     OW19090   6.654   5.701   0.728
 6064SOL    HW119091   6.739   5.743   0.696
 6064SOL    HW219092   6.596   5.770   0.771
 6065SOL     OW19093   0.785   6.011   2.371
 6065SOL    HW119094   0.747   5.922   2.395
 6065SOL    HW219095   0.793   6.019   2.272
 6066SOL     OW19096   5.538   6.510   3.129
 6066SOL    HW119097   5.570   6.598   3.094
 6066SOL    HW219098   5.501   6.522   3.221
 6067SOL     OW19099   5.683   0.521   6.230
 6067SOL    HW119100   5.682   0.589   6.303
 6067SOL    HW219101   5.633   0.557   6.151
 6068SOL     OW19102   4.605   1.876   5.445
 6068SOL    HW119103   4.613   1.777   5.454
 6068SOL    HW219104   4.585   1.899   5.349
 6069SOL     OW19105   0.387   3.630   6.570
 6069SOL    HW119106   0.411   3.542   6.530
 6069SOL    HW219107   0.301   3.622   6.620
 6070SOL     OW19108   2.818   1.670   0.640
 6070SOL    HW119109   2.781   1.744   0.698
 6070SOL    HW219110   2.776   1.584   0.667
 6071SOL     OW19111   6.122   6.950   5.151
 6071SOL    HW119112   6.049   6.913   5.093
 6071SOL    HW219113   6.184   7.005   5.096
 6072SOL     OW19114   0.257   2.731   0.823
 6072SOL    HW119115   0.183   2.794   0.849
 6072SOL    HW219116   0.304   2.768   0.743
 6073SOL     OW19117   4.478   2.667   0.189
 6073SOL    HW119118   4.480   2.765   0.209
 6073SOL    HW219119   4.387   2.631   0.206
 6074SOL     OW19120   0.437   6.222   2.892
 6074SOL    HW119121   0.423   6.218   2.793
 6074SOL    HW219122   0.351   6.246   2.937
 6075SOL     OW19123   4.890   6.892   6.707
 6075SOL    HW119124   4.939   6.922   6.789
 6075SOL    HW219125   4.862   6.971   6.653
 6076SOL     OW19126   1.352   5.172   3.686
 6076SOL    HW119127   1.388   5.090   3.640
 6076SOL    HW219128   1.295   5.223   3.621
 6077SOL     OW19129   5.362   6.621   1.853
 6077SOL    HW119130   5.386   6.614   1.756
 6077SOL    HW219131   5.439   6.592   1.909
 6078SOL     OW19132   4.115   3.207   0.540
 6078SOL    HW119133   4.053   3.256   0.602
 6078SOL    HW219134   4.106   3.245   0.448
 6079SOL     OW19135   3.313   3.877   6.666
 6079SOL    HW119136   3.376   3.953   6.679
 6079SOL    HW219137   3.363   3.795   6.641
 6080SOL     OW19138   0.076   4.177   6.819
 6080SOL    HW119139   0.026   4.228   6.748
 6080SOL    HW219140   0.095   4.237   6.896
 6081SOL     OW19141   1.850   3.392   4.606
 6081SOL    HW119142   1.871   3.480   4.563
 6081SOL    HW219143   1.752   3.387   4.625
 6082SOL     OW19144   4.614   0.991   1.066
 6082SOL    HW119145   4.515   0.988   1.057
 6082SOL    HW219146   4.646   0.909   1.114
 6083SOL     OW19147   4.816   0.062   6.508
 6083SOL    HW119148   4.767   0.071   6.421
 6083SOL    HW219149   4.865   0.148   6.526
 6084SOL     OW19150   0.204   6.298   3.035
 6084SOL    HW119151   0.118   6.268   2.993
 6084SOL    HW219152   0.185   6.340   3.124
 6085SOL     OW19153   0.389   6.041   0.983
 6085SOL    HW119154   0.289   6.049   0.976
 6085SOL    HW219155   0.415   6.026   1.078
 6086SOL     OW19156   3.452   3.672   6.272
 6086SOL    HW119157   3.442   3.656   6.370
 6086SOL    HW219158   3.453   3.770   6.254
 6087SOL     OW19159   5.287   6.722   0.963
 6087SOL    HW119160   5.195   6.754   0.941
 6087SOL    HW219161   5.341   6.798   0.999
 6088SOL     OW19162   5.323   6.853   3.305
 6088SOL    HW119163   5.315   6.837   3.207
 6088SOL    HW219164   5.346   6.767   3.351
 6089SOL     OW19165   6.304   3.631   3.440
 6089SOL    HW119166   6.237   3.705   3.436
 6089SOL    HW219167   6.382   3.654   3.381
 6090SOL     OW19168   4.209   6.529   4.156
 6090SOL    HW119169   4.174   6.470   4.083
 6090SOL    HW219170   4.307   6.514   4.167
 6091SOL     OW19171   2.087   1.083   1.746
 6091SOL    HW119172   2.011   1.018   1.740
 6091SOL    HW219173   2.053   1.176   1.733
 6092SOL     OW19174   4.224   6.055   1.187
 6092SOL    HW119175   4.197   6.113   1.110
 6092SOL    HW219176   4.206   6.104   1.273
 6093SOL     OW19177   2.224   1.612   2.232
 6093SOL    HW119178   2.293   1.674   2.195
 6093SOL    HW219179   2.181   1.653   2.312
 6094SOL     OW19180   0.727   5.897   4.865
 6094SOL    HW119181   0.642   5.852   4.838
 6094SOL    HW219182   0.755   5.864   4.955
 6095SOL     OW19183   4.841   5.778   0.401
 6095SOL    HW119184   4.859   5.874   0.422
 6095SOL    HW219185   4.751   5.752   0.436
 6096SOL     OW19186   5.945   6.490   3.019
 6096SOL    HW119187   5.867   6.429   3.034
 6096SOL    HW219188   5.937   6.533   2.930
 6097SOL     OW19189   2.115   6.115   2.543
 6097SOL    HW119190   2.080   6.195   2.592
 6097SOL    HW219191   2.139   6.141   2.450
 6098SOL     OW19192   6.473   0.889   4.811
 6098SOL    HW119193   6.534   0.810   4.805
 6098SOL    HW219194   6.498   0.955   4.740
 6099SOL     OW19195   4.444   0.381   5.853
 6099SOL    HW119196   4.544   0.381   5.847
 6099SOL    HW219197   4.415   0.455   5.914
 6100SOL     OW19198   0.061   6.057   4.792
 6100SOL    HW119199   0.068   5.975   4.735
 6100SOL    HW219200   0.099   6.136   4.742
 6101SOL     OW19201   5.948   2.690   1.332
 6101SOL    HW119202   5.992   2.659   1.416
 6101SOL    HW219203   5.854   2.656   1.329
 6102SOL     OW19204   4.762   6.987   2.847
 6102SOL    HW119205   4.701   7.010   2.923
 6102SOL    HW219206   4.787   0.045   2.798
 6103SOL     OW19207   0.213   1.857   1.620
 6103SOL    HW119208   0.202   1.763   1.587
 6103SOL    HW219209   0.137   1.880   1.680
 6104SOL     OW19210   6.699   0.996   4.499
 6104SOL    HW119211   6.685   1.030   4.592
 6104SOL    HW219212   6.756   1.060   4.448
 6105SOL     OW19213   2.810   4.622   5.537
 6105SOL    HW119214   2.902   4.651   5.513
 6105SOL    HW219215   2.789   4.535   5.493
 6106SOL     OW19216   6.246   5.102   6.838
 6106SOL    HW119217   6.300   5.027   6.797
 6106SOL    HW219218   6.185   5.140   6.769
 6107SOL     OW19219   5.258   4.772   5.640
 6107SOL    HW119220   5.328   4.773   5.712
 6107SOL    HW219221   5.303   4.770   5.551
 6108SOL     OW19222   2.164   1.296   1.152
 6108SOL    HW119223   2.245   1.251   1.192
 6108SOL    HW219224   2.129   1.240   1.077
 6109SOL     OW19225   6.317   0.272   3.489
 6109SOL    HW119226   6.396   0.324   3.520
 6109SOL    HW219227   6.334   0.237   3.397
 6110SOL     OW19228   1.663   1.806   4.825
 6110SOL    HW119229   1.655   1.894   4.780
 6110SOL    HW219230   1.740   1.807   4.888
 6111SOL     OW19231   1.844   4.275   1.183
 6111SOL    HW119232   1.832   4.177   1.198
 6111SOL    HW219233   1.938   4.301   1.207
 6112SOL     OW19234   4.796   0.194   2.620
 6112SOL    HW119235   4.714   0.229   2.574
 6112SOL    HW219236   4.840   0.125   2.562
 6113SOL     OW19237   2.567   5.699   0.146
 6113SOL    HW119238   2.642   5.747   0.101
 6113SOL    HW219239   2.491   5.762   0.160
 6114SOL     OW19240   4.852   1.294   0.690
 6114SOL    HW119241   4.946   1.326   0.675
 6114SOL    HW219242   4.822   1.323   0.781
 6115SOL     OW19243   0.829   0.296   5.332
 6115SOL    HW119244   0.843   0.213   5.279
 6115SOL    HW219245   0.834   0.376   5.272
 6116SOL     OW19246   4.874   2.007   5.391
 6116SOL    HW119247   4.855   1.909   5.382
 6116SOL    HW219248   4.888   2.029   5.488
 6117SOL     OW19249   1.705   1.996   1.561
 6117SOL    HW119250   1.790   1.958   1.523
 6117SOL    HW219251   1.694   2.090   1.530
 6118SOL     OW19252   6.148   0.367   0.037
 6118SOL    HW119253   6.105   0.458   0.041
 6118SOL    HW219254   6.158   0.339   6.967
 6119SOL     OW19255   6.391   1.929   0.825
 6119SOL    HW119256   6.483   1.918   0.787
 6119SOL    HW219257   6.324   1.920   0.751
 6120SOL     OW19258   2.075   0.862   5.321
 6120SOL    HW119259   2.142   0.920   5.367
 6120SOL    HW219260   1.997   0.919   5.292
 6121SOL     OW19261   0.504   2.888   5.332
 6121SOL    HW119262   0.520   2.834   5.249
 6121SOL    HW219263   0.503   2.985   5.310
 6122SOL     OW19264   5.357   5.539   5.571
 6122SOL    HW119265   5.306   5.547   5.657
 6122SOL    HW219266   5.436   5.479   5.584
 6123SOL     OW19267   5.818   1.850   5.082
 6123SOL    HW119268   5.732   1.831   5.034
 6123SOL    HW219269   5.885   1.781   5.056
 6124SOL     OW19270   2.015   0.019   4.272
 6124SOL    HW119271   2.102   0.050   4.312
 6124SOL    HW219272   2.033   7.001   4.184
 6125SOL     OW19273   1.907   2.190   6.521
 6125SOL    HW119274   1.918   2.102   6.566
 6125SOL    HW219275   1.956   2.260   6.572
 6126SOL     OW19276   6.355   2.863   5.456
 6126SOL    HW119277   6.443   2.817   5.465
 6126SOL    HW219278   6.348   2.935   5.525
 6127SOL     OW19279   4.123   1.931   1.847
 6127SOL    HW119280   4.070   1.849   1.865
 6127SOL    HW219281   4.198   1.910   1.784
 6128SOL     OW19282   5.730   6.094   0.218
 6128SOL    HW119283   5.705   6.116   0.123
 6128SOL    HW219284   5.828   6.107   0.230
 6129SOL     OW19285   1.810   5.355   2.688
 6129SOL    HW119286   1.853   5.445   2.696
 6129SOL    HW219287   1.880   5.285   2.679
 6130SOL     OW19288   4.966   2.458   0.998
 6130SOL    HW119289   5.040   2.395   0.977
 6130SOL    HW219290   4.997   2.552   0.982
 6131SOL     OW19291   7.024   1.713   2.808
 6131SOL    HW119292   0.004   1.676   2.715
 6131SOL    HW219293   0.064   1.789   2.817
 6132SOL     OW19294   3.360   1.213   6.626
 6132SOL    HW119295   3.355   1.177   6.720
 6132SOL    HW219296   3.373   1.312   6.629
 6133SOL     OW19297   1.886   1.665   3.901
 6133SOL    HW119298   1.978   1.648   3.939
 6133SOL    HW219299   1.861   1.760   3.917
 6134SOL     OW19300   4.988   6.926   6.265
 6134SOL    HW119301   4.937   6.884   6.340
 6134SOL    HW219302   4.924   6.959   6.196
 6135SOL     OW19303   6.379   0.067   6.493
 6135SOL    HW119304   6.374   0.079   6.592
 6135SOL    HW219305   6.378   6.994   6.472
 6136SOL     OW19306   1.635   3.097   2.017
 6136SOL    HW119307   1.705   3.149   2.066
 6136SOL    HW219308   1.647   3.109   1.919
 6137SOL     OW19309   6.811   4.131   2.669
 6137SOL    HW119310   6.799   4.196   2.593
 6137SOL    HW219311   6.809   4.038   2.632
 6138SOL     OW19312   3.069   0.248   2.067
 6138SOL    HW119313   3.143   0.298   2.112
 6138SOL    HW219314   3.035   0.177   2.128
 6139SOL     OW19315   2.074   0.485   5.872
 6139SOL    HW119316   2.088   0.441   5.960
 6139SOL    HW219317   1.984   0.460   5.835
 6140SOL     OW19318   1.623   6.688   3.501
 6140SOL    HW119319   1.680   6.663   3.579
 6140SOL    HW219320   1.629   6.786   3.485
 6141SOL     OW19321   0.750   0.277   5.847
 6141SOL    HW119322   0.713   0.347   5.908
 6141SOL    HW219323   0.771   0.195   5.901
 6142SOL     OW19324   0.611   6.954   0.824
 6142SOL    HW119325   0.565   6.998   0.748
 6142SOL    HW219326   0.546   6.938   0.898
 6143SOL     OW19327   6.441   4.059   6.052
 6143SOL    HW119328   6.441   3.968   6.092
 6143SOL    HW219329   6.387   4.120   6.110
 6144SOL     OW19330   3.819   5.052   2.564
 6144SOL    HW119331   3.759   5.059   2.485
 6144SOL    HW219332   3.784   4.982   2.627
 6145SOL     OW19333   4.957   3.225   4.730
 6145SOL    HW119334   5.049   3.190   4.747
 6145SOL    HW219335   4.906   3.226   4.816
 6146SOL     OW19336   5.282   0.331   5.250
 6146SOL    HW119337   5.255   0.237   5.273
 6146SOL    HW219338   5.349   0.328   5.175
 6147SOL     OW19339   1.720   2.311   3.878
 6147SOL    HW119340   1.720   2.403   3.839
 6147SOL    HW219341   1.686   2.315   3.972
 6148SOL     OW19342   3.128   6.027   0.491
 6148SOL    HW119343   3.107   5.970   0.570
 6148SOL    HW219344   3.219   6.005   0.457
 6149SOL     OW19345   2.959   0.035   2.203
 6149SOL    HW119346   3.007   0.036   2.291
 6149SOL    HW219347   2.929   6.967   2.182
 6150SOL     OW19348   6.189   4.245   6.471
 6150SOL    HW119349   6.247   4.211   6.545
 6150SOL    HW219350   6.242   4.251   6.387
 6151SOL     OW19351   4.557   4.459   4.607
 6151SOL    HW119352   4.500   4.518   4.551
 6151SOL    HW219353   4.555   4.366   4.571
 6152SOL     OW19354   0.870   4.717   4.073
 6152SOL    HW119355   0.911   4.748   3.987
 6152SOL    HW219356   0.921   4.755   4.150
 6153SOL     OW19357   5.018   5.143   0.829
 6153SOL    HW119358   4.932   5.145   0.778
 6153SOL    HW219359   5.083   5.206   0.786
 6154SOL     OW19360   6.011   3.172   2.308
 6154SOL    HW119361   6.044   3.250   2.254
 6154SOL    HW219362   6.012   3.196   2.405
 6155SOL     OW19363   2.348   1.226   3.103
 6155SOL    HW119364   2.279   1.248   3.171
 6155SOL    HW219365   2.439   1.227   3.146
 6156SOL     OW19366   5.014   4.979   1.545
 6156SOL    HW119367   4.999   4.908   1.614
 6156SOL    HW219368   4.948   4.967   1.470
 6157SOL     OW19369   1.633   1.980   2.401
 6157SOL    HW119370   1.612   1.900   2.345
 6157SOL    HW219371   1.652   2.058   2.341
 6158SOL     OW19372   2.880   2.801   5.630
 6158SOL    HW119373   2.889   2.772   5.534
 6158SOL    HW219374   2.969   2.827   5.665
 6159SOL     OW19375   5.412   2.909   7.003
 6159SOL    HW119376   5.420   2.847   6.925
 6159SOL    HW219377   5.500   2.955   7.017
 6160SOL     OW19378   0.775   0.149   6.867
 6160SOL    HW119379   0.859   0.178   6.912
 6160SOL    HW219380   0.711   0.226   6.864
 6161SOL     OW19381   4.491   2.537   6.489
 6161SOL    HW119382   4.571   2.594   6.470
 6161SOL    HW219383   4.456   2.559   6.580
 6162SOL     OW19384   6.287   5.641   2.353
 6162SOL    HW119385   6.309   5.644   2.450
 6162SOL    HW219386   6.190   5.616   2.341
 6163SOL     OW19387   5.817   5.950   3.090
 6163SOL    HW119388   5.722   5.982   3.093
 6163SOL    HW219389   5.821   5.865   3.037
 6164SOL     OW19390   3.882   3.921   4.629
 6164SOL    HW119391   3.900   3.831   4.668
 6164SOL    HW219392   3.849   3.982   4.701
 6165SOL     OW19393   3.828   2.086   0.312
 6165SOL    HW119394   3.772   2.004   0.321
 6165SOL    HW219395   3.864   2.112   0.401
 6166SOL     OW19396   0.587   2.238   0.445
 6166SOL    HW119397   0.631   2.276   0.363
 6166SOL    HW219398   0.528   2.162   0.420
 6167SOL     OW19399   1.093   3.684   3.306
 6167SOL    HW119400   1.173   3.630   3.331
 6167SOL    HW219401   1.094   3.702   3.207
 6168SOL     OW19402   0.964   3.559   4.352
 6168SOL    HW119403   0.926   3.586   4.264
 6168SOL    HW219404   0.941   3.627   4.421
 6169SOL     OW19405   2.529   6.805   0.437
 6169SOL    HW119406   2.429   6.809   0.432
 6169SOL    HW219407   2.560   6.844   0.524
 6170SOL     OW19408   4.024   4.390   6.653
 6170SOL    HW119409   3.949   4.325   6.670
 6170SOL    HW219410   3.986   4.476   6.620
 6171SOL     OW19411   1.923   4.658   2.498
 6171SOL    HW119412   1.832   4.625   2.521
 6171SOL    HW219413   1.917   4.725   2.424
 6172SOL     OW19414   1.135   6.449   2.987
 6172SOL    HW119415   1.087   6.370   3.027
 6172SOL    HW219416   1.081   6.485   2.911
 6173SOL     OW19417   1.271   5.037   2.649
 6173SOL    HW119418   1.238   5.132   2.640
 6173SOL    HW219419   1.307   5.023   2.741
 6174SOL     OW19420   5.407   5.393   2.852
 6174SOL    HW119421   5.442   5.430   2.938
 6174SOL    HW219422   5.355   5.309   2.870
 6175SOL     OW19423   4.533   0.635   3.488
 6175SOL    HW119424   4.443   0.598   3.466
 6175SOL    HW219425   4.526   0.695   3.568
 6176SOL     OW19426   6.213   3.406   6.079
 6176SOL    HW119427   6.171   3.377   5.993
 6176SOL    HW219428   6.264   3.490   6.064
 6177SOL     OW19429   5.080   2.116   0.558
 6177SOL    HW119430   5.114   2.104   0.465
 6177SOL    HW219431   5.157   2.116   0.622
 6178SOL     OW19432   5.510   3.663   0.819
 6178SOL    HW119433   5.499   3.565   0.834
 6178SOL    HW219434   5.549   3.679   0.728
 6179SOL     OW19435   0.272   2.586   5.449
 6179SOL    HW119436   0.256   2.580   5.351
 6179SOL    HW219437   0.197   2.634   5.493
 6180SOL     OW19438   4.016   7.008   1.286
 6180SOL    HW119439   3.984   6.964   1.370
 6180SOL    HW219440   3.941   0.035   1.245
 6181SOL     OW19441   5.040   6.462   6.595
 6181SOL    HW119442   4.981   6.382   6.587
 6181SOL    HW219443   5.100   6.451   6.674
 6182SOL     OW19444   4.834   5.918   6.477
 6182SOL    HW119445   4.746   5.885   6.442
 6182SOL    HW219446   4.900   5.924   6.402
 6183SOL     OW19447   2.791   6.801   3.385
 6183SOL    HW119448   2.812   6.885   3.334
 6183SOL    HW219449   2.778   6.726   3.321
 6184SOL     OW19450   0.863   0.540   6.461
 6184SOL    HW119451   0.814   0.547   6.374
 6184SOL    HW219452   0.843   0.453   6.505
 6185SOL     OW19453   0.112   3.310   6.075
 6185SOL    HW119454   0.147   3.216   6.076
 6185SOL    HW219455   0.173   3.368   6.021
 6186SOL     OW19456   5.444   0.426   4.463
 6186SOL    HW119457   5.373   0.470   4.408
 6186SOL    HW219458   5.488   0.494   4.521
 6187SOL     OW19459   4.601   4.680   4.043
 6187SOL    HW119460   4.670   4.616   4.076
 6187SOL    HW219461   4.547   4.636   3.972
 6188SOL     OW19462   2.906   6.539   1.367
 6188SOL    HW119463   2.926   6.452   1.321
 6188SOL    HW219464   2.878   6.521   1.461
 6189SOL     OW19465   5.813   5.091   3.421
 6189SOL    HW119466   5.829   5.181   3.462
 6189SOL    HW219467   5.716   5.081   3.400
 6190SOL     OW19468   5.345   2.661   6.504
 6190SOL    HW119469   5.338   2.562   6.514
 6190SOL    HW219470   5.261   2.696   6.462
 6191SOL     OW19471   5.627   1.993   0.036
 6191SOL    HW119472   5.722   1.963   0.028
 6191SOL    HW219473   5.582   1.942   0.110
 6192SOL     OW19474   2.594   2.936   6.847
 6192SOL    HW119475   2.593   2.999   6.770
 6192SOL    HW219476   2.503   2.931   6.888
 6193SOL     OW19477   5.539   0.058   1.897
 6193SOL    HW119478   5.480   0.023   1.970
 6193SOL    HW219479   5.592   0.135   1.932
 6194SOL     OW19480   2.898   0.458   1.049
 6194SOL    HW119481   2.835   0.531   1.023
 6194SOL    HW219482   2.915   0.462   1.147
 6195SOL     OW19483   3.331   6.814   6.563
 6195SOL    HW119484   3.404   6.865   6.516
 6195SOL    HW219485   3.243   6.835   6.521
 6196SOL     OW19486   0.664   2.049   5.945
 6196SOL    HW119487   0.567   2.028   5.947
 6196SOL    HW219488   0.717   1.965   5.951
 6197SOL     OW19489   2.327   3.676   0.768
 6197SOL    HW119490   2.384   3.747   0.727
 6197SOL    HW219491   2.246   3.661   0.711
 6198SOL     OW19492   3.615   4.915   2.422
 6198SOL    HW119493   3.581   4.911   2.328
 6198SOL    HW219494   3.545   4.956   2.481
 6199SOL     OW19495   1.643   6.776   0.271
 6199SOL    HW119496   1.704   6.846   0.308
 6199SOL    HW219497   1.563   6.820   0.229
 6200SOL     OW19498   3.672   0.911   6.538
 6200SOL    HW119499   3.728   0.865   6.607
 6200SOL    HW219500   3.732   0.951   6.469
 6201SOL     OW19501   1.997   3.972   5.312
 6201SOL    HW119502   1.998   3.888   5.257
 6201SOL    HW219503   2.035   4.047   5.258
 6202SOL     OW19504   2.879   1.995   1.034
 6202SOL    HW119505   2.947   2.021   1.103
 6202SOL    HW219506   2.915   2.015   0.943
 6203SOL     OW19507   4.956   0.952   4.620
 6203SOL    HW119508   4.937   1.043   4.584
 6203SOL    HW219509   4.871   0.899   4.624
 6204SOL     OW19510   2.431   6.034   5.369
 6204SOL    HW119511   2.368   6.095   5.322
 6204SOL    HW219512   2.494   5.992   5.303
 6205SOL     OW19513   5.170   5.910   6.883
 6205SOL    HW119514   5.254   5.895   6.936
 6205SOL    HW219515   5.115   5.826   6.884
 6206SOL     OW19516   5.830   0.271   2.799
 6206SOL    HW119517   5.826   0.293   2.702
 6206SOL    HW219518   5.925   0.279   2.831
 6207SOL     OW19519   1.548   3.944   4.664
 6207SOL    HW119520   1.478   3.920   4.597
 6207SOL    HW219521   1.604   4.018   4.627
 6208SOL     OW19522   5.855   0.006   6.276
 6208SOL    HW119523   5.906   0.070   6.333
 6208SOL    HW219524   5.777   0.052   6.235
 6209SOL     OW19525   4.328   6.630   0.047
 6209SOL    HW119526   4.343   6.560   0.117
 6209SOL    HW219527   4.409   6.688   0.039
 6210SOL     OW19528   5.684   4.311   3.298
 6210SOL    HW119529   5.627   4.382   3.339
 6210SOL    HW219530   5.645   4.221   3.318
 6211SOL     OW19531   2.843   0.180   4.810
 6211SOL    HW119532   2.915   0.189   4.741
 6211SOL    HW219533   2.879   0.206   4.900
 6212SOL     OW19534   6.584   6.219   3.769
 6212SOL    HW119535   6.670   6.181   3.735
 6212SOL    HW219536   6.599   6.263   3.857
 6213SOL     OW19537   6.303   0.849   6.573
 6213SOL    HW119538   6.333   0.776   6.512
 6213SOL    HW219539   6.205   0.840   6.591
 6214SOL     OW19540   6.790   4.723   2.638
 6214SOL    HW119541   6.704   4.772   2.622
 6214SOL    HW219542   6.775   4.625   2.627
 6215SOL     OW19543   2.829   2.903   1.107
 6215SOL    HW119544   2.788   2.823   1.063
 6215SOL    HW219545   2.924   2.883   1.130
 6216SOL     OW19546   5.766   1.806   2.084
 6216SOL    HW119547   5.832   1.787   2.011
 6216SOL    HW219548   5.813   1.804   2.173
 6217SOL     OW19549   4.623   2.057   1.034
 6217SOL    HW119550   4.697   2.060   1.101
 6217SOL    HW219551   4.623   1.968   0.988
 6218SOL     OW19552   2.686   4.927   4.604
 6218SOL    HW119553   2.593   4.931   4.568
 6218SOL    HW219554   2.748   4.895   4.532
 6219SOL     OW19555   0.804   2.426   5.037
 6219SOL    HW119556   0.825   2.509   5.088
 6219SOL    HW219557   0.842   2.347   5.084
 6220SOL     OW19558   2.195   4.835   5.038
 6220SOL    HW119559   2.264   4.763   5.044
 6220SOL    HW219560   2.221   4.912   5.097
 6221SOL     OW19561   3.922   5.006   4.244
 6221SOL    HW119562   3.933   4.934   4.175
 6221SOL    HW219563   4.010   5.050   4.261
 6222SOL     OW19564   6.646   7.017   1.997
 6222SOL    HW119565   6.576   0.047   2.043
 6222SOL    HW219566   6.601   6.944   1.945
 6223SOL     OW19567   5.799   2.967   4.358
 6223SOL    HW119568   5.855   2.919   4.291
 6223SOL    HW219569   5.836   2.954   4.450
 6224SOL     OW19570   2.155   1.276   5.322
 6224SOL    HW119571   2.250   1.287   5.351
 6224SOL    HW219572   2.151   1.217   5.242
 6225SOL     OW19573   3.102   3.379   0.692
 6225SOL    HW119574   3.022   3.320   0.698
 6225SOL    HW219575   3.131   3.386   0.596
 6226SOL     OW19576   5.534   0.569   4.138
 6226SOL    HW119577   5.513   0.663   4.166
 6226SOL    HW219578   5.493   0.505   4.204
 6227SOL     OW19579   3.408   4.513   5.824
 6227SOL    HW119580   3.466   4.438   5.856
 6227SOL    HW219581   3.329   4.475   5.775
 6228SOL     OW19582   6.970   1.639   3.226
 6228SOL    HW119583   6.943   1.544   3.241
 6228SOL    HW219584   0.044   1.644   3.212
 6229SOL     OW19585   2.373   2.237   2.728
 6229SOL    HW119586   2.430   2.255   2.809
 6229SOL    HW219587   2.426   2.256   2.646
 6230SOL     OW19588   2.070   2.050   4.064
 6230SOL    HW119589   2.030   2.031   4.153
 6230SOL    HW219590   2.140   2.122   4.074
 6231SOL     OW19591   0.408   5.147   1.335
 6231SOL    HW119592   0.479   5.217   1.336
 6231SOL    HW219593   0.330   5.180   1.281
 6232SOL     OW19594   0.386   0.633   0.302
 6232SOL    HW119595   0.321   0.570   0.344
 6232SOL    HW219596   0.407   0.708   0.365
 6233SOL     OW19597   4.898   2.157   6.474
 6233SOL    HW119598   4.893   2.206   6.561
 6233SOL    HW219599   4.976   2.190   6.421
 6234SOL     OW19600   1.643   2.062   4.738
 6234SOL    HW119601   1.591   2.102   4.813
 6234SOL    HW219602   1.602   2.091   4.651
 6235SOL     OW19603   1.607   0.195   2.487
 6235SOL    HW119604   1.656   0.157   2.409
 6235SOL    HW219605   1.564   0.281   2.461
 6236SOL     OW19606   0.073   4.735   0.856
 6236SOL    HW119607   0.026   4.751   0.942
 6236SOL    HW219608   0.165   4.774   0.860
 6237SOL     OW19609   4.537   6.392   0.922
 6237SOL    HW119610   4.553   6.415   1.018
 6237SOL    HW219611   4.609   6.433   0.865
 6238SOL     OW19612   4.740   5.489   1.781
 6238SOL    HW119613   4.683   5.421   1.736
 6238SOL    HW219614   4.830   5.451   1.800
 6239SOL     OW19615   2.493   6.854   2.841
 6239SOL    HW119616   2.396   6.864   2.863
 6239SOL    HW219617   2.503   6.799   2.758
 6240SOL     OW19618   1.609   3.022   0.741
 6240SOL    HW119619   1.587   3.119   0.728
 6240SOL    HW219620   1.566   2.968   0.669
 6241SOL     OW19621   2.712   0.222   1.836
 6241SOL    HW119622   2.693   0.140   1.891
 6241SOL    HW219623   2.802   0.212   1.792
 6242SOL     OW19624   4.961   2.040   3.559
 6242SOL    HW119625   4.884   2.052   3.497
 6242SOL    HW219626   5.046   2.053   3.509
 6243SOL     OW19627   5.755   6.353   4.234
 6243SOL    HW119628   5.672   6.308   4.269
 6243SOL    HW219629   5.749   6.360   4.135
 6244SOL     OW19630   2.779   1.891   2.462
 6244SOL    HW119631   2.867   1.861   2.426
 6244SOL    HW219632   2.794   1.966   2.527
 6245SOL     OW19633   2.888   4.589   1.243
 6245SOL    HW119634   2.863   4.663   1.305
 6245SOL    HW219635   2.988   4.581   1.239
 6246SOL     OW19636   2.837   2.012   5.675
 6246SOL    HW119637   2.776   1.972   5.607
 6246SOL    HW219638   2.846   2.110   5.659
 6247SOL     OW19639   0.548   6.871   3.543
 6247SOL    HW119640   0.534   6.961   3.584
 6247SOL    HW219641   0.515   6.800   3.606
 6248SOL     OW19642   0.758   4.546   1.470
 6248SOL    HW119643   0.748   4.644   1.489
 6248SOL    HW219644   0.730   4.494   1.551
 6249SOL     OW19645   6.872   3.988   0.389
 6249SOL    HW119646   6.790   3.954   0.343
 6249SOL    HW219647   6.880   3.946   0.479
 6250SOL     OW19648   6.238   6.705   6.962
 6250SOL    HW119649   6.226   6.787   7.017
 6250SOL    HW219650   6.254   6.732   6.866
 6251SOL     OW19651   4.145   1.126   1.122
 6251SOL    HW119652   4.064   1.075   1.149
 6251SOL    HW219653   4.143   1.217   1.163
 6252SOL     OW19654   3.155   5.593   5.137
 6252SOL    HW119655   3.145   5.522   5.068
 6252SOL    HW219656   3.065   5.629   5.162
 6253SOL     OW19657   2.377   4.204   1.858
 6253SOL    HW119658   2.351   4.215   1.954
 6253SOL    HW219659   2.351   4.285   1.806
 6254SOL     OW19660   5.890   0.344   0.387
 6254SOL    HW119661   5.796   0.359   0.416
 6254SOL    HW219662   5.891   0.305   0.295
 6255SOL     OW19663   0.528   1.295   2.557
 6255SOL    HW119664   0.534   1.198   2.581
 6255SOL    HW219665   0.479   1.305   2.470
 6256SOL     OW19666   4.052   4.886   2.511
 6256SOL    HW119667   3.963   4.926   2.531
 6256SOL    HW219668   4.048   4.840   2.422
 6257SOL     OW19669   5.365   2.892   0.354
 6257SOL    HW119670   5.303   2.959   0.394
 6257SOL    HW219671   5.445   2.939   0.316
 6258SOL     OW19672   4.302   1.961   2.303
 6258SOL    HW119673   4.205   1.940   2.320
 6258SOL    HW219674   4.343   1.997   2.387
 6259SOL     OW19675   3.188   2.167   1.891
 6259SOL    HW119676   3.133   2.090   1.926
 6259SOL    HW219677   3.139   2.212   1.817
 6260SOL     OW19678   3.424   4.123   0.157
 6260SOL    HW119679   3.349   4.122   0.223
 6260SOL    HW219680   3.452   4.029   0.136
 6261SOL     OW19681   4.128   1.085   0.431
 6261SOL    HW119682   4.072   1.005   0.450
 6261SOL    HW219683   4.142   1.137   0.515
 6262SOL     OW19684   1.180   4.639   6.743
 6262SOL    HW119685   1.253   4.653   6.675
 6262SOL    HW219686   1.091   4.657   6.700
 6263SOL     OW19687   0.029   0.050   0.555
 6263SOL    HW119688   7.009   0.047   0.466
 6263SOL    HW219689   0.121   0.012   0.547
 6264SOL     OW19690   2.653   1.914   0.762
 6264SOL    HW119691   2.577   1.976   0.781
 6264SOL    HW219692   2.736   1.966   0.747
 6265SOL     OW19693   4.057   3.958   1.221
 6265SOL    HW119694   4.150   3.943   1.189
 6265SOL    HW219695   4.059   3.992   1.315
 6266SOL     OW19696   3.430   0.708   2.876
 6266SOL    HW119697   3.363   0.766   2.922
 6266SOL    HW219698   3.384   0.650   2.809
 6267SOL     OW19699   3.339   0.374   0.007
 6267SOL    HW119700   3.287   0.392   6.948
 6267SOL    HW219701   3.295   0.422   0.083
 6268SOL     OW19702   2.959   4.777   2.773
 6268SOL    HW119703   3.045   4.789   2.822
 6268SOL    HW219704   2.885   4.761   2.839
 6269SOL     OW19705   5.652   6.130   1.558
 6269SOL    HW119706   5.597   6.063   1.608
 6269SOL    HW219707   5.747   6.124   1.589
 6270SOL     OW19708   1.547   0.662   4.584
 6270SOL    HW119709   1.625   0.712   4.546
 6270SOL    HW219710   1.492   0.724   4.639
 6271SOL     OW19711   0.124   1.468   0.281
 6271SOL    HW119712   0.035   1.444   0.242
 6271SOL    HW219713   0.173   1.527   0.217
 6272SOL     OW19714   2.198   2.397   3.923
 6272SOL    HW119715   2.271   2.462   3.906
 6272SOL    HW219716   2.143   2.386   3.839
 6273SOL     OW19717   2.305   1.142   1.356
 6273SOL    HW119718   2.337   1.211   1.420
 6273SOL    HW219719   2.383   1.098   1.311
 6274SOL     OW19720   3.591   5.805   6.394
 6274SOL    HW119721   3.652   5.809   6.315
 6274SOL    HW219722   3.642   5.774   6.474
 6275SOL     OW19723   1.743   0.213   4.795
 6275SOL    HW119724   1.689   0.276   4.740
 6275SOL    HW219725   1.809   0.264   4.851
 6276SOL     OW19726   1.315   5.648   3.810
 6276SOL    HW119727   1.412   5.625   3.800
 6276SOL    HW219728   1.264   5.567   3.840
 6277SOL     OW19729   5.369   2.775   2.560
 6277SOL    HW119730   5.290   2.836   2.568
 6277SOL    HW219731   5.452   2.829   2.548
 6278SOL     OW19732   4.849   0.363   4.151
 6278SOL    HW119733   4.773   0.428   4.157
 6278SOL    HW219734   4.862   0.335   4.056
 6279SOL     OW19735   3.973   1.459   1.079
 6279SOL    HW119736   3.932   1.390   1.020
 6279SOL    HW219737   4.071   1.441   1.090
 6280SOL     OW19738   0.250   4.214   5.648
 6280SOL    HW119739   0.296   4.291   5.693
 6280SOL    HW219740   0.241   4.139   5.713
 6281SOL     OW19741   2.313   0.422   5.534
 6281SOL    HW119742   2.409   0.436   5.558
 6281SOL    HW219743   2.300   0.437   5.436
 6282SOL     OW19744   1.997   6.914   4.537
 6282SOL    HW119745   2.002   6.924   4.438
 6282SOL    HW219746   2.012   7.003   4.580
 6283SOL     OW19747   0.131   2.669   5.193
 6283SOL    HW119748   0.138   2.764   5.222
 6283SOL    HW219749   0.053   2.626   5.238
 6284SOL     OW19750   1.169   4.889   5.478
 6284SOL    HW119751   1.261   4.928   5.482
 6284SOL    HW219752   1.165   4.820   5.406
 6285SOL     OW19753   1.511   3.072   3.198
 6285SOL    HW119754   1.484   3.166   3.175
 6285SOL    HW219755   1.608   3.059   3.174
 6286SOL     OW19756   5.630   1.270   3.498
 6286SOL    HW119757   5.628   1.364   3.464
 6286SOL    HW219758   5.585   1.209   3.432
 6287SOL     OW19759   5.048   4.069   1.855
 6287SOL    HW119760   4.999   4.003   1.798
 6287SOL    HW219761   4.990   4.097   1.931
 6288SOL     OW19762   5.285   3.791   0.096
 6288SOL    HW119763   5.366   3.844   0.122
 6288SOL    HW219764   5.230   3.844   0.031
 6289SOL     OW19765   1.558   1.825   3.917
 6289SOL    HW119766   1.621   1.792   3.988
 6289SOL    HW219767   1.606   1.890   3.858
 6290SOL     OW19768   4.802   4.205   3.726
 6290SOL    HW119769   4.824   4.288   3.778
 6290SOL    HW219770   4.748   4.228   3.646
 6291SOL     OW19771   3.870   4.057   3.465
 6291SOL    HW119772   3.875   3.970   3.415
 6291SOL    HW219773   3.954   4.109   3.449
 6292SOL     OW19774   1.235   1.846   2.185
 6292SOL    HW119775   1.263   1.781   2.256
 6292SOL    HW219776   1.236   1.939   2.222
 6293SOL     OW19777   5.094   0.085   0.135
 6293SOL    HW119778   5.121   0.047   0.223
 6293SOL    HW219779   5.067   0.180   0.146
 6294SOL     OW19780   3.917   5.142   2.879
 6294SOL    HW119781   3.895   5.058   2.831
 6294SOL    HW219782   4.009   5.173   2.853
 6295SOL     OW19783   5.722   5.788   6.080
 6295SOL    HW119784   5.790   5.746   6.020
 6295SOL    HW219785   5.767   5.853   6.141
 6296SOL     OW19786   6.301   0.690   3.130
 6296SOL    HW119787   6.205   0.684   3.158
 6296SOL    HW219788   6.331   0.785   3.138
 6297SOL     OW19789   5.328   6.139   5.958
 6297SOL    HW119790   5.414   6.186   5.974
 6297SOL    HW219791   5.337   6.078   5.879
 6298SOL     OW19792   0.537   3.207   5.289
 6298SOL    HW119793   0.553   3.238   5.196
 6298SOL    HW219794   0.453   3.247   5.324
 6299SOL     OW19795   6.522   2.935   6.492
 6299SOL    HW119796   6.423   2.920   6.496
 6299SOL    HW219797   6.568   2.874   6.557
 6300SOL     OW19798   4.730   1.043   4.090
 6300SOL    HW119799   4.758   1.139   4.099
 6300SOL    HW219800   4.735   0.998   4.179
 6301SOL     OW19801   3.342   0.176   0.966
 6301SOL    HW119802   3.384   0.129   1.044
 6301SOL    HW219803   3.302   0.109   0.904
 6302SOL     OW19804   1.912   0.949   3.437
 6302SOL    HW119805   1.854   0.974   3.360
 6302SOL    HW219806   1.855   0.914   3.512
 6303SOL     OW19807   1.693   6.344   4.943
 6303SOL    HW119808   1.652   6.310   5.028
 6303SOL    HW219809   1.717   6.267   4.884
 6304SOL     OW19810   2.584   1.635   0.148
 6304SOL    HW119811   2.647   1.708   0.120
 6304SOL    HW219812   2.491   1.672   0.154
 6305SOL     OW19813   6.454   6.949   1.286
 6305SOL    HW119814   6.357   6.970   1.277
 6305SOL    HW219815   6.486   6.904   1.203
 6306SOL     OW19816   6.861   3.064   3.858
 6306SOL    HW119817   6.878   2.982   3.913
 6306SOL    HW219818   6.935   3.076   3.792
 6307SOL     OW19819   1.929   5.101   6.678
 6307SOL    HW119820   1.852   5.040   6.699
 6307SOL    HW219821   2.015   5.050   6.690
 6308SOL     OW19822   2.730   1.725   5.062
 6308SOL    HW119823   2.686   1.807   5.098
 6308SOL    HW219824   2.815   1.751   5.015
 6309SOL     OW19825   5.391   2.330   4.166
 6309SOL    HW119826   5.292   2.317   4.163
 6309SOL    HW219827   5.435   2.243   4.187
 6310SOL     OW19828   1.109   4.966   4.668
 6310SOL    HW119829   1.022   5.010   4.690
 6310SOL    HW219830   1.159   4.947   4.752
 6311SOL     OW19831   5.947   0.185   4.622
 6311SOL    HW119832   5.896   0.111   4.576
 6311SOL    HW219833   6.020   0.216   4.561
 6312SOL     OW19834   4.587   5.114   5.965
 6312SOL    HW119835   4.628   5.022   5.967
 6312SOL    HW219836   4.541   5.131   6.052
 6313SOL     OW19837   2.078   5.877   3.414
 6313SOL    HW119838   2.082   5.940   3.492
 6313SOL    HW219839   2.161   5.823   3.411
 6314SOL     OW19840   2.858   6.056   2.925
 6314SOL    HW119841   2.864   6.035   2.828
 6314SOL    HW219842   2.950   6.061   2.964
 6315SOL     OW19843   3.181   3.848   0.384
 6315SOL    HW119844   3.251   3.919   0.394
 6315SOL    HW219845   3.214   3.778   0.321
 6316SOL     OW19846   4.695   2.581   5.485
 6316SOL    HW119847   4.624   2.604   5.552
 6316SOL    HW219848   4.761   2.656   5.479
 6317SOL     OW19849   5.182   6.934   3.846
 6317SOL    HW119850   5.267   6.904   3.802
 6317SOL    HW219851   5.199   7.016   3.900
 6318SOL     OW19852   2.217   2.303   5.228
 6318SOL    HW119853   2.223   2.247   5.311
 6318SOL    HW219854   2.282   2.378   5.234
 6319SOL     OW19855   0.903   1.975   3.324
 6319SOL    HW119856   0.868   2.010   3.411
 6319SOL    HW219857   0.997   1.945   3.336
 6320SOL     OW19858   5.831   3.463   2.841
 6320SOL    HW119859   5.745   3.483   2.887
 6320SOL    HW219860   5.900   3.436   2.908
 6321SOL     OW19861   2.569   5.181   0.839
 6321SOL    HW119862   2.473   5.197   0.861
 6321SOL    HW219863   2.586   5.084   0.827
 6322SOL     OW19864   1.446   1.186   6.894
 6322SOL    HW119865   1.536   1.229   6.900
 6322SOL    HW219866   1.380   1.238   6.948
 6323SOL     OW19867   4.082   2.562   0.822
 6323SOL    HW119868   4.159   2.549   0.759
 6323SOL    HW219869   4.035   2.648   0.800
 6324SOL     OW19870   4.358   1.334   5.821
 6324SOL    HW119871   4.454   1.309   5.811
 6324SOL    HW219872   4.340   1.364   5.915
 6325SOL     OW19873   0.636   2.707   2.378
 6325SOL    HW119874   0.693   2.658   2.444
 6325SOL    HW219875   0.608   2.795   2.417
 6326SOL     OW19876   5.190   5.613   1.629
 6326SOL    HW119877   5.222   5.707   1.644
 6326SOL    HW219878   5.265   5.558   1.591
 6327SOL     OW19879   5.926   5.492   5.602
 6327SOL    HW119880   5.833   5.526   5.615
 6327SOL    HW219881   5.930   5.439   5.517
 6328SOL     OW19882   2.483   4.050   6.653
 6328SOL    HW119883   2.447   4.114   6.722
 6328SOL    HW219884   2.582   4.042   6.664
 6329SOL     OW19885   1.225   1.268   3.441
 6329SOL    HW119886   1.284   1.189   3.427
 6329SOL    HW219887   1.275   1.339   3.491
 6330SOL     OW19888   4.057   0.907   0.805
 6330SOL    HW119889   3.970   0.936   0.767
 6330SOL    HW219890   4.114   0.987   0.826
 6331SOL     OW19891   6.168   2.065   1.504
 6331SOL    HW119892   6.261   2.030   1.512
 6331SOL    HW219893   6.109   1.994   1.464
 6332SOL     OW19894   5.867   5.714   1.030
 6332SOL    HW119895   5.928   5.781   0.988
 6332SOL    HW219896   5.910   5.676   1.112
 6333SOL     OW19897   3.193   4.885   3.343
 6333SOL    HW119898   3.263   4.841   3.286
 6333SOL    HW219899   3.108   4.833   3.339
 6334SOL     OW19900   2.148   0.613   2.244
 6334SOL    HW119901   2.074   0.619   2.178
 6334SOL    HW219902   2.152   0.521   2.282
 6335SOL     OW19903   6.673   1.082   6.524
 6335SOL    HW119904   6.623   1.053   6.606
 6335SOL    HW219905   6.754   1.133   6.552
 6336SOL     OW19906   0.102   2.609   4.297
 6336SOL    HW119907   0.062   2.697   4.273
 6336SOL    HW219908   0.165   2.620   4.374
 6337SOL     OW19909   5.679   4.209   5.743
 6337SOL    HW119910   5.671   4.143   5.818
 6337SOL    HW219911   5.734   4.168   5.670
 6338SOL     OW19912   3.694   1.574   2.660
 6338SOL    HW119913   3.650   1.506   2.717
 6338SOL    HW219914   3.792   1.577   2.679
 6339SOL     OW19915   0.309   2.150   3.910
 6339SOL    HW119916   0.362   2.177   3.830
 6339SOL    HW219917   0.218   2.191   3.905
 6340SOL     OW19918   2.729   5.703   3.644
 6340SOL    HW119919   2.654   5.731   3.584
 6340SOL    HW219920   2.727   5.604   3.657
 6341SOL     OW19921   0.094   4.459   3.412
 6341SOL    HW119922   0.192   4.446   3.396
 6341SOL    HW219923   0.070   4.555   3.397
 6342SOL     OW19924   1.308   2.547   1.404
 6342SOL    HW119925   1.343   2.641   1.399
 6342SOL    HW219926   1.292   2.513   1.311
 6343SOL     OW19927   3.883   1.314   6.717
 6343SOL    HW119928   3.919   1.406   6.700
 6343SOL    HW219929   3.789   1.308   6.684
 6344SOL     OW19930   0.453   4.027   4.938
 6344SOL    HW119931   0.459   4.069   5.028
 6344SOL    HW219932   0.518   3.951   4.933
 6345SOL     OW19933   3.670   1.553   2.130
 6345SOL    HW119934   3.706   1.610   2.204
 6345SOL    HW219935   3.577   1.580   2.109
 6346SOL     OW19936   0.756   3.970   3.578
 6346SOL    HW119937   0.712   4.032   3.642
 6346SOL    HW219938   0.716   3.982   3.487
 6347SOL     OW19939   3.255   6.962   0.858
 6347SOL    HW119940   3.229   6.908   0.938
 6347SOL    HW219941   3.173   6.989   0.808
 6348SOL     OW19942   0.584   2.917   4.058
 6348SOL    HW119943   0.582   3.015   4.073
 6348SOL    HW219944   0.629   2.872   4.135
 6349SOL     OW19945   2.999   1.043   1.006
 6349SOL    HW119946   3.007   0.945   0.984
 6349SOL    HW219947   2.936   1.086   0.942
 6350SOL     OW19948   1.671   5.741   2.232
 6350SOL    HW119949   1.728   5.820   2.255
 6350SOL    HW219950   1.584   5.774   2.195
 6351SOL     OW19951   0.046   1.116   2.147
 6351SOL    HW119952   0.088   1.143   2.234
 6351SOL    HW219953   0.001   1.195   2.106
 6352SOL     OW19954   1.069   5.421   2.226
 6352SOL    HW119955   1.099   5.501   2.174
 6352SOL    HW219956   1.083   5.439   2.324
 6353SOL     OW19957   0.737   0.129   0.334
 6353SOL    HW119958   0.799   0.084   0.398
 6353SOL    HW219959   0.660   0.068   0.313
 6354SOL     OW19960   0.756   0.180   2.521
 6354SOL    HW119961   0.821   0.217   2.587
 6354SOL    HW219962   0.744   0.245   2.446
 6355SOL     OW19963   1.552   2.813   3.001
 6355SOL    HW119964   1.642   2.777   3.026
 6355SOL    HW219965   1.493   2.812   3.082
 6356SOL     OW19966   3.480   4.636   1.053
 6356SOL    HW119967   3.472   4.604   1.147
 6356SOL    HW219968   3.417   4.583   0.995
 6357SOL     OW19969   4.021   2.162   6.911
 6357SOL    HW119970   3.963   2.234   6.872
 6357SOL    HW219971   3.988   2.140   7.003
 6358SOL     OW19972   6.943   2.240   3.629
 6358SOL    HW119973   6.871   2.278   3.571
 6358SOL    HW219974   6.990   2.166   3.580
 6359SOL     OW19975   0.236   0.740   6.061
 6359SOL    HW119976   0.248   0.838   6.043
 6359SOL    HW219977   0.255   0.688   5.978
 6360SOL     OW19978   2.772   5.087   3.927
 6360SOL    HW119979   2.847   5.091   3.861
 6360SOL    HW219980   2.690   5.129   3.888
 6361SOL     OW19981   4.397   5.825   5.783
 6361SOL    HW119982   4.492   5.796   5.781
 6361SOL    HW219983   4.362   5.832   5.689
 6362SOL     OW19984   6.063   5.165   6.641
 6362SOL    HW119985   5.993   5.175   6.712
 6362SOL    HW219986   6.030   5.204   6.556
 6363SOL     OW19987   1.630   5.813   4.165
 6363SOL    HW119988   1.714   5.867   4.163
 6363SOL    HW219989   1.644   5.732   4.222
 6364SOL     OW19990   2.318   2.557   5.808
 6364SOL    HW119991   2.375   2.635   5.834
 6364SOL    HW219992   2.242   2.549   5.872
 6365SOL     OW19993   4.843   6.807   3.245
 6365SOL    HW119994   4.919   6.846   3.297
 6365SOL    HW219995   4.794   6.880   3.197
 6366SOL     OW19996   0.680   5.430   5.278
 6366SOL    HW119997   0.744   5.506   5.263
 6366SOL    HW219998   0.731   5.344   5.276
 6367SOL     OW19999   5.352   6.868   4.176
 6367SOL    HW120000   5.415   6.932   4.134
 6367SOL    HW220001   5.303   6.913   4.251
 6368SOL     OW20002   3.334   6.679   4.121
 6368SOL    HW120003   3.422   6.724   4.135
 6368SOL    HW220004   3.260   6.745   4.130
 6369SOL     OW20005   2.355   4.867   3.742
 6369SOL    HW120006   2.381   4.864   3.838
 6369SOL    HW220007   2.255   4.877   3.734
 6370SOL     OW20008   5.858   2.136   0.925
 6370SOL    HW120009   5.801   2.084   0.862
 6370SOL    HW220010   5.803   2.168   1.002
 6371SOL     OW20011   4.753   2.780   2.483
 6371SOL    HW120012   4.772   2.819   2.394
 6371SOL    HW220013   4.836   2.735   2.518
 6372SOL     OW20014   3.668   6.376   2.273
 6372SOL    HW120015   3.608   6.442   2.319
 6372SOL    HW220016   3.743   6.351   2.334
 6373SOL     OW20017   4.106   4.057   6.038
 6373SOL    HW120018   4.063   4.105   5.962
 6373SOL    HW220019   4.204   4.051   6.023
 6374SOL     OW20020   2.992   3.275   2.896
 6374SOL    HW120021   2.936   3.349   2.933
 6374SOL    HW220022   2.990   3.197   2.959
 6375SOL     OW20023   1.391   6.524   2.827
 6375SOL    HW120024   1.381   6.622   2.842
 6375SOL    HW220025   1.305   6.478   2.849
 6376SOL     OW20026   6.330   2.120   4.586
 6376SOL    HW120027   6.354   2.030   4.550
 6376SOL    HW220028   6.410   2.160   4.631
 6377SOL     OW20029   0.470   1.269   4.587
 6377SOL    HW120030   0.568   1.261   4.605
 6377SOL    HW220031   0.444   1.366   4.587
 6378SOL     OW20032   5.142   4.133   4.070
 6378SOL    HW120033   5.047   4.121   4.041
 6378SOL    HW220034   5.177   4.219   4.032
 6379SOL     OW20035   2.164   4.079   3.767
 6379SOL    HW120036   2.204   4.170   3.765
 6379SOL    HW220037   2.111   4.063   3.684
 6380SOL     OW20038   0.868   0.975   6.572
 6380SOL    HW120039   0.944   1.037   6.552
 6380SOL    HW220040   0.888   0.923   6.656
 6381SOL     OW20041   3.076   4.027   3.011
 6381SOL    HW120042   3.012   4.061   3.081
 6381SOL    HW220043   3.025   4.007   2.928
 6382SOL     OW20044   1.167   3.441   6.160
 6382SOL    HW120045   1.224   3.389   6.096
 6382SOL    HW220046   1.071   3.418   6.143
 6383SOL     OW20047   2.460   2.028   4.069
 6383SOL    HW120048   2.437   2.087   3.992
 6383SOL    HW220049   2.538   2.067   4.119
 6384SOL     OW20050   6.738   4.893   2.340
 6384SOL    HW120051   6.775   4.812   2.295
 6384SOL    HW220052   6.695   4.867   2.427
 6385SOL     OW20053   0.654   5.409   4.509
 6385SOL    HW120054   0.682   5.345   4.437
 6385SOL    HW220055   0.733   5.434   4.564
 6386SOL     OW20056   2.749   5.430   0.888
 6386SOL    HW120057   2.756   5.453   0.791
 6386SOL    HW220058   2.697   5.345   0.899
 6387SOL     OW20059   6.677   0.899   5.002
 6387SOL    HW120060   6.733   0.837   4.948
 6387SOL    HW220061   6.621   0.955   4.941
 6388SOL     OW20062   3.084   4.769   1.878
 6388SOL    HW120063   3.098   4.677   1.840
 6388SOL    HW220064   3.004   4.769   1.938
 6389SOL     OW20065   1.361   5.786   2.960
 6389SOL    HW120066   1.437   5.759   3.019
 6389SOL    HW220067   1.316   5.866   3.000
 6390SOL     OW20068   0.829   2.495   3.887
 6390SOL    HW120069   0.888   2.438   3.830
 6390SOL    HW220070   0.743   2.447   3.905
 6391SOL     OW20071   2.439   2.078   0.505
 6391SOL    HW120072   2.492   2.155   0.469
 6391SOL    HW220073   2.457   2.068   0.603
 6392SOL     OW20074   1.305   6.122   3.423
 6392SOL    HW120075   1.293   6.167   3.511
 6392SOL    HW220076   1.233   6.053   3.411
 6393SOL     OW20077   6.112   6.323   0.383
 6393SOL    HW120078   6.193   6.376   0.356
 6393SOL    HW220079   6.056   6.378   0.444
 6394SOL     OW20080   2.362   4.881   0.536
 6394SOL    HW120081   2.413   4.900   0.620
 6394SOL    HW220082   2.407   4.806   0.487
 6395SOL     OW20083   6.160   1.493   0.860
 6395SOL    HW120084   6.107   1.493   0.776
 6395SOL    HW220085   6.241   1.550   0.848
 6396SOL     OW20086   4.896   3.914   5.728
 6396SOL    HW120087   4.947   3.987   5.774
 6396SOL    HW220088   4.807   3.903   5.771
 6397SOL     OW20089   0.350   1.326   0.402
 6397SOL    HW120090   0.344   1.240   0.351
 6397SOL    HW220091   0.276   1.387   0.373
 6398SOL     OW20092   3.206   1.480   1.572
 6398SOL    HW120093   3.149   1.495   1.491
 6398SOL    HW220094   3.296   1.448   1.544
 6399SOL     OW20095   1.753   5.700   6.743
 6399SOL    HW120096   1.682   5.719   6.811
 6399SOL    HW220097   1.839   5.744   6.771
 6400SOL     OW20098   2.695   5.764   3.349
 6400SOL    HW120099   2.681   5.678   3.300
 6400SOL    HW220100   2.646   5.837   3.301
 6401SOL     OW20101   0.350   4.594   3.538
 6401SOL    HW120102   0.404   4.515   3.567
 6401SOL    HW220103   0.403   4.678   3.550
 6402SOL     OW20104   2.598   1.191   3.229
 6402SOL    HW120105   2.656   1.197   3.148
 6402SOL    HW220106   2.655   1.184   3.311
 6403SOL     OW20107   0.961   5.022   6.454
 6403SOL    HW120108   0.897   4.991   6.525
 6403SOL    HW220109   0.932   4.986   6.365
 6404SOL     OW20110   5.039   1.102   3.194
 6404SOL    HW120111   5.111   1.077   3.129
 6404SOL    HW220112   4.949   1.091   3.151
 6405SOL     OW20113   2.611   1.444   2.258
 6405SOL    HW120114   2.601   1.481   2.166
 6405SOL    HW220115   2.634   1.518   2.322
 6406SOL     OW20116   2.300   1.143   4.183
 6406SOL    HW120117   2.325   1.082   4.258
 6406SOL    HW220118   2.223   1.106   4.133
 6407SOL     OW20119   3.512   5.542   5.768
 6407SOL    HW120120   3.578   5.570   5.838
 6407SOL    HW220121   3.420   5.544   5.808
 6408SOL     OW20122   5.327   1.742   6.570
 6408SOL    HW120123   5.308   1.740   6.472
 6408SOL    HW220124   5.241   1.740   6.621
 6409SOL     OW20125   0.146   3.578   2.757
 6409SOL    HW120126   0.159   3.511   2.830
 6409SOL    HW220127   0.206   3.555   2.680
 6410SOL     OW20128   1.888   1.578   0.633
 6410SOL    HW120129   1.880   1.649   0.703
 6410SOL    HW220130   1.930   1.616   0.551
 6411SOL     OW20131   0.631   1.289   3.553
 6411SOL    HW120132   0.648   1.262   3.458
 6411SOL    HW220133   0.692   1.365   3.578
 6412SOL     OW20134   0.215   2.573   5.928
 6412SOL    HW120135   0.265   2.648   5.970
 6412SOL    HW220136   0.118   2.598   5.921
 6413SOL     OW20137   6.769   4.624   0.975
 6413SOL    HW120138   6.701   4.559   1.009
 6413SOL    HW220139   6.729   4.680   0.903
 6414SOL     OW20140   6.273   6.876   2.366
 6414SOL    HW120141   6.271   6.776   2.371
 6414SOL    HW220142   6.224   6.906   2.284
 6415SOL     OW20143   1.789   1.651   1.370
 6415SOL    HW120144   1.725   1.696   1.307
 6415SOL    HW220145   1.851   1.593   1.318
 6416SOL     OW20146   1.666   0.527   6.537
 6416SOL    HW120147   1.631   0.607   6.488
 6416SOL    HW220148   1.631   0.528   6.631
 6417SOL     OW20149   0.600   0.110   3.233
 6417SOL    HW120150   0.535   0.125   3.307
 6417SOL    HW220151   0.561   0.048   3.165
 6418SOL     OW20152   7.006   6.092   1.980
 6418SOL    HW120153   6.940   6.123   1.913
 6418SOL    HW220154   0.018   6.004   1.953
 6419SOL     OW20155   3.810   4.934   1.603
 6419SOL    HW120156   3.901   4.975   1.602
 6419SOL    HW220157   3.749   4.990   1.659
 6420SOL     OW20158   2.352   4.123   6.041
 6420SOL    HW120159   2.358   4.212   5.996
 6420SOL    HW220160   2.411   4.057   5.994
 6421SOL     OW20161   5.633   1.007   1.412
 6421SOL    HW120162   5.640   1.104   1.435
 6421SOL    HW220163   5.553   0.968   1.458
 6422SOL     OW20164   6.537   1.634   3.562
 6422SOL    HW120165   6.537   1.729   3.532
 6422SOL    HW220166   6.535   1.573   3.482
 6423SOL     OW20167   5.190   3.644   0.788
 6423SOL    HW120168   5.218   3.740   0.778
 6423SOL    HW220169   5.268   3.589   0.815
 6424SOL     OW20170   6.966   3.597   5.862
 6424SOL    HW120171   6.963   3.689   5.900
 6424SOL    HW220172   0.026   3.552   5.889
 6425SOL     OW20173   0.733   4.261   2.482
 6425SOL    HW120174   0.679   4.201   2.421
 6425SOL    HW220175   0.768   4.338   2.430
 6426SOL     OW20176   1.047   2.107   3.565
 6426SOL    HW120177   1.059   2.183   3.502
 6426SOL    HW220178   0.950   2.092   3.583
 6427SOL     OW20179   1.455   3.611   5.569
 6427SOL    HW120180   1.428   3.549   5.496
 6427SOL    HW220181   1.547   3.587   5.601
 6428SOL     OW20182   6.713   3.556   1.884
 6428SOL    HW120183   6.784   3.508   1.833
 6428SOL    HW220184   6.712   3.524   1.979
 6429SOL     OW20185   1.197   6.811   4.411
 6429SOL    HW120186   1.242   6.762   4.336
 6429SOL    HW220187   1.098   6.817   4.393
 6430SOL     OW20188   5.892   1.905   1.132
 6430SOL    HW120189   5.933   1.839   1.069
 6430SOL    HW220190   5.947   1.988   1.134
 6431SOL     OW20191   5.633   6.569   2.701
 6431SOL    HW120192   5.693   6.600   2.775
 6431SOL    HW220193   5.614   6.471   2.712
 6432SOL     OW20194   4.823   3.333   0.744
 6432SOL    HW120195   4.772   3.414   0.717
 6432SOL    HW220196   4.864   3.291   0.663
 6433SOL     OW20197   2.834   4.236   1.134
 6433SOL    HW120198   2.851   4.305   1.204
 6433SOL    HW220199   2.900   4.162   1.144
 6434SOL     OW20200   1.239   3.750   1.089
 6434SOL    HW120201   1.306   3.761   1.015
 6434SOL    HW220202   1.196   3.660   1.082
 6435SOL     OW20203   4.497   4.667   6.610
 6435SOL    HW120204   4.586   4.629   6.636
 6435SOL    HW220205   4.425   4.614   6.654
 6436SOL     OW20206   1.787   3.206   3.495
 6436SOL    HW120207   1.761   3.300   3.478
 6436SOL    HW220208   1.769   3.183   3.591
 6437SOL     OW20209   1.543   6.852   6.769
 6437SOL    HW120210   1.493   6.932   6.735
 6437SOL    HW220211   1.571   6.795   6.692
 6438SOL     OW20212   1.180   3.881   3.977
 6438SOL    HW120213   1.230   3.919   4.055
 6438SOL    HW220214   1.107   3.943   3.951
 6439SOL     OW20215   1.398   7.012   1.246
 6439SOL    HW120216   1.462   0.009   1.172
 6439SOL    HW220217   1.368   6.917   1.238
 6440SOL     OW20218   1.312   1.357   2.725
 6440SOL    HW120219   1.326   1.456   2.718
 6440SOL    HW220220   1.214   1.338   2.734
 6441SOL     OW20221   2.026   1.074   3.668
 6441SOL    HW120222   2.004   1.032   3.580
 6441SOL    HW220223   2.057   1.004   3.732
 6442SOL     OW20224   2.108   2.359   4.498
 6442SOL    HW120225   2.096   2.361   4.598
 6442SOL    HW220226   2.185   2.300   4.475
 6443SOL     OW20227   3.019   2.314   0.077
 6443SOL    HW120228   3.109   2.345   0.045
 6443SOL    HW220229   2.952   2.387   0.063
 6444SOL     OW20230   0.674   1.176   3.278
 6444SOL    HW120231   0.670   1.242   3.203
 6444SOL    HW220232   0.583   1.136   3.292
 6445SOL     OW20233   3.953   2.908   5.299
 6445SOL    HW120234   3.986   2.980   5.239
 6445SOL    HW220235   3.853   2.908   5.298
 6446SOL     OW20236   6.446   1.221   6.886
 6446SOL    HW120237   6.530   1.257   6.925
 6446SOL    HW220238   6.413   1.283   6.814
 6447SOL     OW20239   1.639   0.054   2.074
 6447SOL    HW120240   1.602   0.042   1.982
 6447SOL    HW220241   1.565   0.072   2.138
 6448SOL     OW20242   6.063   2.581   3.463
 6448SOL    HW120243   6.046   2.680   3.456
 6448SOL    HW220244   6.025   2.536   3.382
 6449SOL     OW20245   3.051   3.153   0.982
 6449SOL    HW120246   3.128   3.152   1.046
 6449SOL    HW220247   2.979   3.214   1.017
 6450SOL     OW20248   5.746   3.821   1.708
 6450SOL    HW120249   5.828   3.818   1.766
 6450SOL    HW220250   5.742   3.738   1.652
 6451SOL     OW20251   2.721   5.688   5.461
 6451SOL    HW120252   2.765   5.767   5.503
 6451SOL    HW220253   2.743   5.606   5.514
 6452SOL     OW20254   3.593   6.766   4.236
 6452SOL    HW120255   3.655   6.821   4.180
 6452SOL    HW220256   3.621   6.670   4.231
 6453SOL     OW20257   1.410   6.262   6.580
 6453SOL    HW120258   1.348   6.258   6.658
 6453SOL    HW220259   1.466   6.345   6.587
 6454SOL     OW20260   3.292   1.721   4.832
 6454SOL    HW120261   3.270   1.810   4.791
 6454SOL    HW220262   3.215   1.659   4.821
 6455SOL     OW20263   6.470   2.697   5.092
 6455SOL    HW120264   6.561   2.699   5.133
 6455SOL    HW220265   6.460   2.613   5.038
 6456SOL     OW20266   0.612   0.436   2.933
 6456SOL    HW120267   0.542   0.461   2.999
 6456SOL    HW220268   0.688   0.389   2.980
 6457SOL     OW20269   6.352   2.058   1.239
 6457SOL    HW120270   6.417   2.073   1.164
 6457SOL    HW220271   6.400   2.018   1.317
 6458SOL     OW20272   1.494   5.565   3.345
 6458SOL    HW120273   1.550   5.482   3.348
 6458SOL    HW220274   1.544   5.637   3.297
 6459SOL     OW20275   5.931   4.270   6.997
 6459SOL    HW120276   5.964   4.238   6.908
 6459SOL    HW220277   5.971   4.359   7.017
 6460SOL     OW20278   3.317   4.914   6.278
 6460SOL    HW120279   3.342   4.848   6.207
 6460SOL    HW220280   3.391   4.981   6.288
 6461SOL     OW20281   3.517   5.105   5.447
 6461SOL    HW120282   3.574   5.187   5.452
 6461SOL    HW220283   3.564   5.034   5.395
 6462SOL     OW20284   2.109   3.489   5.089
 6462SOL    HW120285   2.129   3.580   5.126
 6462SOL    HW220286   2.119   3.420   5.161
 6463SOL     OW20287   2.245   4.183   6.299
 6463SOL    HW120288   2.176   4.254   6.316
 6463SOL    HW220289   2.231   4.144   6.208
 6464SOL     OW20290   0.250   5.322   3.096
 6464SOL    HW120291   0.211   5.297   3.007
 6464SOL    HW220292   0.304   5.405   3.087
 6465SOL     OW20293   6.203   1.795   3.581
 6465SOL    HW120294   6.122   1.849   3.561
 6465SOL    HW220295   6.278   1.856   3.607
 6466SOL     OW20296   0.522   2.398   5.175
 6466SOL    HW120297   0.606   2.406   5.121
 6466SOL    HW220298   0.541   2.427   5.269
 6467SOL     OW20299   2.819   1.285   6.610
 6467SOL    HW120300   2.753   1.343   6.562
 6467SOL    HW220301   2.882   1.245   6.544
 6468SOL     OW20302   4.843   6.038   1.359
 6468SOL    HW120303   4.939   6.062   1.343
 6468SOL    HW220304   4.788   6.122   1.365
 6469SOL     OW20305   6.586   0.716   5.616
 6469SOL    HW120306   6.570   0.633   5.667
 6469SOL    HW220307   6.656   0.772   5.662
 6470SOL     OW20308   6.018   0.090   5.959
 6470SOL    HW120309   6.029   0.094   5.860
 6470SOL    HW220310   5.932   0.043   5.981
 6471SOL     OW20311   6.448   4.888   6.702
 6471SOL    HW120312   6.501   4.803   6.704
 6471SOL    HW220313   6.493   4.954   6.643
 6472SOL     OW20314   0.988   6.694   2.099
 6472SOL    HW120315   0.918   6.742   2.152
 6472SOL    HW220316   1.022   6.617   2.152
 6473SOL     OW20317   2.098   1.417   6.331
 6473SOL    HW120318   2.014   1.441   6.282
 6473SOL    HW220319   2.075   1.356   6.408
 6474SOL     OW20320   1.114   3.470   5.809
 6474SOL    HW120321   1.203   3.505   5.835
 6474SOL    HW220322   1.099   3.381   5.852
 6475SOL     OW20323   4.574   5.955   4.083
 6475SOL    HW120324   4.635   5.937   4.160
 6475SOL    HW220325   4.508   5.880   4.075
 6476SOL     OW20326   4.841   4.630   2.689
 6476SOL    HW120327   4.910   4.664   2.626
 6476SOL    HW220328   4.756   4.682   2.677
 6477SOL     OW20329   6.500   5.508   0.422
 6477SOL    HW120330   6.553   5.592   0.428
 6477SOL    HW220331   6.558   5.434   0.390
 6478SOL     OW20332   4.790   6.670   1.830
 6478SOL    HW120333   4.829   6.599   1.888
 6478SOL    HW220334   4.839   6.756   1.845
 6479SOL     OW20335   4.082   5.351   2.160
 6479SOL    HW120336   4.155   5.389   2.102
 6479SOL    HW220337   4.120   5.279   2.217
 6480SOL     OW20338   2.851   2.726   0.264
 6480SOL    HW120339   2.770   2.763   0.219
 6480SOL    HW220340   2.930   2.785   0.246
 6481SOL     OW20341   3.877   1.116   1.779
 6481SOL    HW120342   3.901   1.044   1.714
 6481SOL    HW220343   3.851   1.199   1.729
 6482SOL     OW20344   6.983   0.536   6.638
 6482SOL    HW120345   6.978   0.437   6.623
 6482SOL    HW220346   0.053   0.566   6.632
 6483SOL     OW20347   1.243   6.792   2.441
 6483SOL    HW120348   1.179   6.869   2.443
 6483SOL    HW220349   1.315   6.808   2.509
 6484SOL     OW20350   4.570   0.739   3.200
 6484SOL    HW120351   4.621   0.819   3.232
 6484SOL    HW220352   4.615   0.656   3.233
 6485SOL     OW20353   1.739   2.350   3.454
 6485SOL    HW120354   1.784   2.435   3.427
 6485SOL    HW220355   1.770   2.276   3.395
 6486SOL     OW20356   1.349   3.855   3.717
 6486SOL    HW120357   1.334   3.773   3.773
 6486SOL    HW220358   1.261   3.897   3.695
 6487SOL     OW20359   6.092   6.535   4.379
 6487SOL    HW120360   6.173   6.572   4.333
 6487SOL    HW220361   6.117   6.500   4.469
 6488SOL     OW20362   2.850   4.868   5.956
 6488SOL    HW120363   2.805   4.780   5.941
 6488SOL    HW220364   2.793   4.941   5.918
 6489SOL     OW20365   1.583   1.869   5.828
 6489SOL    HW120366   1.618   1.829   5.744
 6489SOL    HW220367   1.655   1.921   5.874
 6490SOL     OW20368   3.608   1.520   0.270
 6490SOL    HW120369   3.548   1.519   0.350
 6490SOL    HW220370   3.701   1.544   0.298
 6491SOL     OW20371   4.512   1.762   6.177
 6491SOL    HW120372   4.563   1.771   6.091
 6491SOL    HW220373   4.469   1.849   6.200
 6492SOL     OW20374   6.292   6.505   0.287
 6492SOL    HW120375   6.344   6.584   0.318
 6492SOL    HW220376   6.207   6.536   0.243
 6493SOL     OW20377   1.613   6.772   6.045
 6493SOL    HW120378   1.572   6.795   5.956
 6493SOL    HW220379   1.543   6.734   6.105
 6494SOL     OW20380   0.787   0.409   3.464
 6494SOL    HW120381   0.819   0.447   3.378
 6494SOL    HW220382   0.809   0.472   3.539
 6495SOL     OW20383   5.835   5.056   3.021
 6495SOL    HW120384   5.834   5.002   2.937
 6495SOL    HW220385   5.828   5.154   2.998
 6496SOL     OW20386   1.041   6.574   2.356
 6496SOL    HW120387   0.957   6.609   2.398
 6496SOL    HW220388   1.119   6.630   2.386
 6497SOL     OW20389   1.705   3.976   0.470
 6497SOL    HW120390   1.704   4.064   0.421
 6497SOL    HW220391   1.720   3.902   0.405
 6498SOL     OW20392   2.297   4.178   4.319
 6498SOL    HW120393   2.307   4.079   4.332
 6498SOL    HW220394   2.356   4.226   4.384
 6499SOL     OW20395   5.412   1.267   3.681
 6499SOL    HW120396   5.495   1.256   3.628
 6499SOL    HW220397   5.410   1.358   3.722
 6500SOL     OW20398   4.886   4.625   3.299
 6500SOL    HW120399   4.832   4.615   3.215
 6500SOL    HW220400   4.917   4.719   3.307
 6501SOL     OW20401   6.204   3.829   1.192
 6501SOL    HW120402   6.192   3.815   1.290
 6501SOL    HW220403   6.283   3.775   1.161
 6502SOL     OW20404   0.951   5.029   3.139
 6502SOL    HW120405   0.905   4.989   3.061
 6502SOL    HW220406   0.980   5.122   3.117
 6503SOL     OW20407   4.868   6.884   4.903
 6503SOL    HW120408   4.922   6.827   4.841
 6503SOL    HW220409   4.899   6.869   4.997
 6504SOL     OW20410   3.606   0.866   0.648
 6504SOL    HW120411   3.630   0.787   0.592
 6504SOL    HW220412   3.511   0.893   0.628
 6505SOL     OW20413   5.728   4.846   0.944
 6505SOL    HW120414   5.661   4.884   0.880
 6505SOL    HW220415   5.809   4.815   0.893
 6506SOL     OW20416   1.685   2.816   1.246
 6506SOL    HW120417   1.660   2.875   1.170
 6506SOL    HW220418   1.728   2.871   1.318
 6507SOL     OW20419   2.278   6.800   1.323
 6507SOL    HW120420   2.182   6.776   1.334
 6507SOL    HW220421   2.305   6.863   1.396
 6508SOL     OW20422   2.248   2.151   3.290
 6508SOL    HW120423   2.272   2.066   3.245
 6508SOL    HW220424   2.297   2.158   3.377
 6509SOL     OW20425   0.963   2.968   4.648
 6509SOL    HW120426   0.996   2.887   4.600
 6509SOL    HW220427   0.864   2.977   4.635
 6510SOL     OW20428   6.207   4.760   6.748
 6510SOL    HW120429   6.158   4.799   6.670
 6510SOL    HW220430   6.302   4.792   6.747
 6511SOL     OW20431   6.475   6.474   6.111
 6511SOL    HW120432   6.550   6.417   6.146
 6511SOL    HW220433   6.511   6.562   6.081
 6512SOL     OW20434   5.422   0.089   3.321
 6512SOL    HW120435   5.439   0.130   3.231
 6512SOL    HW220436   5.352   0.018   3.311
 6513SOL     OW20437   3.964   6.729   2.936
 6513SOL    HW120438   4.061   6.754   2.932
 6513SOL    HW220439   3.929   6.717   2.843
 6514SOL     OW20440   4.325   0.453   3.991
 6514SOL    HW120441   4.343   0.473   3.894
 6514SOL    HW220442   4.231   0.423   4.002
 6515SOL     OW20443   0.598   6.450   4.990
 6515SOL    HW120444   0.691   6.436   5.024
 6515SOL    HW220445   0.534   6.393   5.044
 6516SOL     OW20446   0.783   1.865   5.173
 6516SOL    HW120447   0.851   1.890   5.104
 6516SOL    HW220448   0.726   1.944   5.194
 6517SOL     OW20449   0.636   1.314   0.405
 6517SOL    HW120450   0.709   1.341   0.469
 6517SOL    HW220451   0.551   1.302   0.456
 6518SOL     OW20452   6.767   6.548   0.967
 6518SOL    HW120453   6.828   6.603   0.910
 6518SOL    HW220454   6.795   6.452   0.962
 6519SOL     OW20455   1.881   2.014   4.599
 6519SOL    HW120456   1.947   2.008   4.675
 6519SOL    HW220457   1.788   2.007   4.635
 6520SOL     OW20458   5.918   6.094   1.649
 6520SOL    HW120459   5.942   6.039   1.569
 6520SOL    HW220460   5.998   6.103   1.708
 6521SOL     OW20461   0.128   1.987   5.057
 6521SOL    HW120462   0.173   2.077   5.063
 6521SOL    HW220463   0.031   1.997   5.080
 6522SOL     OW20464   2.416   5.298   6.799
 6522SOL    HW120465   2.429   5.199   6.794
 6522SOL    HW220466   2.383   5.332   6.711
 6523SOL     OW20467   1.864   1.550   6.203
 6523SOL    HW120468   1.945   1.608   6.196
 6523SOL    HW220469   1.841   1.514   6.112
 6524SOL     OW20470   4.056   3.461   3.311
 6524SOL    HW120471   4.090   3.384   3.257
 6524SOL    HW220472   4.040   3.431   3.405
 6525SOL     OW20473   0.344   3.218   3.128
 6525SOL    HW120474   0.427   3.163   3.121
 6525SOL    HW220475   0.340   3.262   3.218
 6526SOL     OW20476   1.583   5.910   5.323
 6526SOL    HW120477   1.671   5.868   5.299
 6526SOL    HW220478   1.510   5.867   5.271
 6527SOL     OW20479   1.235   6.696   4.832
 6527SOL    HW120480   1.278   6.773   4.787
 6527SOL    HW220481   1.201   6.724   4.922
 6528SOL     OW20482   0.100   1.859   4.445
 6528SOL    HW120483   0.086   1.867   4.543
 6528SOL    HW220484   0.195   1.832   4.427
 6529SOL     OW20485   6.496   1.234   1.659
 6529SOL    HW120486   6.461   1.152   1.612
 6529SOL    HW220487   6.427   1.265   1.725
 6530SOL     OW20488   6.715   2.031   0.707
 6530SOL    HW120489   6.748   2.125   0.693
 6530SOL    HW220490   6.652   2.007   0.633
 6531SOL     OW20491   5.738   3.369   3.825
 6531SOL    HW120492   5.671   3.298   3.805
 6531SOL    HW220493   5.699   3.436   3.889
 6532SOL     OW20494   6.808   1.256   6.176
 6532SOL    HW120495   6.883   1.198   6.210
 6532SOL    HW220496   6.819   1.270   6.077
 6533SOL     OW20497   5.013   0.278   1.125
 6533SOL    HW120498   5.097   0.224   1.121
 6533SOL    HW220499   4.944   0.230   1.180
 6534SOL     OW20500   2.556   4.167   1.171
 6534SOL    HW120501   2.526   4.231   1.242
 6534SOL    HW220502   2.650   4.188   1.145
 6535SOL     OW20503   0.153   3.683   5.629
 6535SOL    HW120504   0.183   3.702   5.723
 6535SOL    HW220505   0.090   3.754   5.599
 6536SOL     OW20506   5.891   1.876   0.008
 6536SOL    HW120507   5.948   1.812   0.059
 6536SOL    HW220508   5.938   1.965   0.003
 6537SOL     OW20509   0.683   6.424   0.432
 6537SOL    HW120510   0.604   6.396   0.377
 6537SOL    HW220511   0.674   6.521   0.455
 6538SOL     OW20512   3.049   3.905   0.030
 6538SOL    HW120513   3.118   3.844   7.015
 6538SOL    HW220514   3.004   3.858   0.107
 6539SOL     OW20515   2.381   1.861   6.850
 6539SOL    HW120516   2.472   1.826   6.828
 6539SOL    HW220517   2.346   1.914   6.773
 6540SOL     OW20518   2.792   1.400   4.296
 6540SOL    HW120519   2.740   1.368   4.375
 6540SOL    HW220520   2.890   1.397   4.317
 6541SOL     OW20521   2.623   2.482   5.799
 6541SOL    HW120522   2.687   2.418   5.757
 6541SOL    HW220523   2.534   2.438   5.812
 6542SOL     OW20524   6.442   4.383   3.899
 6542SOL    HW120525   6.522   4.401   3.841
 6542SOL    HW220526   6.361   4.426   3.859
 6543SOL     OW20527   6.411   6.211   6.867
 6543SOL    HW120528   6.476   6.195   6.793
 6543SOL    HW220529   6.337   6.144   6.863
 6544SOL     OW20530   6.669   6.561   4.060
 6544SOL    HW120531   6.635   6.648   4.025
 6544SOL    HW220532   6.750   6.534   4.008
 6545SOL     OW20533   5.111   1.777   5.635
 6545SOL    HW120534   5.067   1.707   5.579
 6545SOL    HW220535   5.045   1.849   5.657
 6546SOL     OW20536   2.991   4.615   6.177
 6546SOL    HW120537   3.052   4.691   6.151
 6546SOL    HW220538   2.906   4.621   6.125
 6547SOL     OW20539   5.012   2.421   6.650
 6547SOL    HW120540   5.111   2.411   6.636
 6547SOL    HW220541   4.975   2.482   6.580
 6548SOL     OW20542   6.783   4.253   5.958
 6548SOL    HW120543   6.851   4.210   5.899
 6548SOL    HW220544   6.829   4.309   6.027
 6549SOL     OW20545   3.164   2.375   0.801
 6549SOL    HW120546   3.224   2.454   0.790
 6549SOL    HW220547   3.217   2.291   0.789
 6550SOL     OW20548   0.341   5.462   3.626
 6550SOL    HW120549   0.330   5.382   3.684
 6550SOL    HW220550   0.253   5.485   3.583
 6551SOL     OW20551   1.725   4.689   1.717
 6551SOL    HW120552   1.639   4.653   1.754
 6551SOL    HW220553   1.802   4.638   1.756
 6552SOL     OW20554   2.620   4.669   5.728
 6552SOL    HW120555   2.584   4.762   5.728
 6552SOL    HW220556   2.681   4.657   5.650
 6553SOL     OW20557   0.768   3.062   2.650
 6553SOL    HW120558   0.851   3.027   2.607
 6553SOL    HW220559   0.791   3.136   2.713
 6554SOL     OW20560   6.301   2.446   5.257
 6554SOL    HW120561   6.315   2.432   5.159
 6554SOL    HW220562   6.330   2.364   5.307
 6555SOL     OW20563   1.278   1.621   1.539
 6555SOL    HW120564   1.326   1.611   1.451
 6555SOL    HW220565   1.226   1.538   1.558
 6556SOL     OW20566   3.516   5.816   4.395
 6556SOL    HW120567   3.461   5.881   4.448
 6556SOL    HW220568   3.609   5.851   4.386
 6557SOL     OW20569   5.981   5.232   0.913
 6557SOL    HW120570   6.014   5.298   0.981
 6557SOL    HW220571   6.051   5.218   0.843
 6558SOL     OW20572   6.251   5.990   6.827
 6558SOL    HW120573   6.197   5.956   6.904
 6558SOL    HW220574   6.274   5.915   6.766
 6559SOL     OW20575   4.280   4.207   1.351
 6559SOL    HW120576   4.324   4.273   1.413
 6559SOL    HW220577   4.337   4.125   1.343
 6560SOL     OW20578   3.803   2.354   0.256
 6560SOL    HW120579   3.843   2.278   0.306
 6560SOL    HW220580   3.705   2.340   0.246
 6561SOL     OW20581   4.111   3.408   3.007
 6561SOL    HW120582   4.094   3.502   3.035
 6561SOL    HW220583   4.082   3.346   3.080
 6562SOL     OW20584   6.321   4.744   6.056
 6562SOL    HW120585   6.230   4.709   6.035
 6562SOL    HW220586   6.379   4.741   5.974
 6563SOL     OW20587   0.960   5.504   1.717
 6563SOL    HW120588   0.987   5.413   1.685
 6563SOL    HW220589   0.877   5.495   1.774
 6564SOL     OW20590   1.482   4.281   1.968
 6564SOL    HW120591   1.402   4.311   2.019
 6564SOL    HW220592   1.467   4.189   1.933
 6565SOL     OW20593   6.814   2.881   5.230
 6565SOL    HW120594   6.759   2.913   5.307
 6565SOL    HW220595   6.784   2.789   5.204
 6566SOL     OW20596   3.178   6.607   0.901
 6566SOL    HW120597   3.193   6.613   0.802
 6566SOL    HW220598   3.205   6.516   0.933
 6567SOL     OW20599   5.090   2.712   0.962
 6567SOL    HW120600   5.160   2.708   1.033
 6567SOL    HW220601   5.072   2.808   0.939
 6568SOL     OW20602   4.572   4.227   1.664
 6568SOL    HW120603   4.515   4.264   1.737
 6568SOL    HW220604   4.668   4.237   1.689
 6569SOL     OW20605   1.511   4.512   0.120
 6569SOL    HW120606   1.527   4.567   0.202
 6569SOL    HW220607   1.475   4.570   0.047
 6570SOL     OW20608   5.556   2.011   1.766
 6570SOL    HW120609   5.570   1.918   1.800
 6570SOL    HW220610   5.639   2.042   1.719
 6571SOL     OW20611   2.858   6.418   3.448
 6571SOL    HW120612   2.915   6.388   3.525
 6571SOL    HW220613   2.762   6.424   3.478
 6572SOL     OW20614   6.996   4.238   5.769
 6572SOL    HW120615   6.961   4.195   5.686
 6572SOL    HW220616   0.045   4.301   5.746
 6573SOL     OW20617   2.507   1.242   2.456
 6573SOL    HW120618   2.489   1.159   2.404
 6573SOL    HW220619   2.505   1.321   2.395
 6574SOL     OW20620   2.670   4.949   2.771
 6574SOL    HW120621   2.737   5.007   2.817
 6574SOL    HW220622   2.695   4.853   2.785
 6575SOL     OW20623   1.272   1.471   2.252
 6575SOL    HW120624   1.267   1.530   2.332
 6575SOL    HW220625   1.227   1.384   2.272
 6576SOL     OW20626   1.594   5.755   6.317
 6576SOL    HW120627   1.667   5.717   6.260
 6576SOL    HW220628   1.560   5.685   6.379
 6577SOL     OW20629   6.973   2.024   3.794
 6577SOL    HW120630   0.044   2.004   3.774
 6577SOL    HW220631   6.940   2.096   3.734
 6578SOL     OW20632   6.472   5.601   3.853
 6578SOL    HW120633   6.378   5.636   3.860
 6578SOL    HW220634   6.530   5.670   3.810
 6579SOL     OW20635   6.659   4.074   3.060
 6579SOL    HW120636   6.685   3.980   3.036
 6579SOL    HW220637   6.564   4.090   3.034
 6580SOL     OW20638   5.879   1.792   2.346
 6580SOL    HW120639   5.792   1.806   2.394
 6580SOL    HW220640   5.919   1.704   2.373
 6581SOL     OW20641   3.377   1.899   6.668
 6581SOL    HW120642   3.470   1.918   6.700
 6581SOL    HW220643   3.314   1.903   6.746
 6582SOL     OW20644   6.594   6.969   2.727
 6582SOL    HW120645   6.644   6.968   2.640
 6582SOL    HW220646   6.633   6.902   2.790
 6583SOL     OW20647   5.348   1.653   5.689
 6583SOL    HW120648   5.380   1.645   5.594
 6583SOL    HW220649   5.251   1.677   5.689
 6584SOL     OW20650   6.125   1.570   6.729
 6584SOL    HW120651   6.129   1.493   6.792
 6584SOL    HW220652   6.137   1.537   6.635
 6585SOL     OW20653   1.034   1.945   6.611
 6585SOL    HW120654   1.078   2.000   6.540
 6585SOL    HW220655   0.944   1.982   6.632
 6586SOL     OW20656   6.223   1.757   6.130
 6586SOL    HW120657   6.291   1.793   6.067
 6586SOL    HW220658   6.163   1.693   6.082
 6587SOL     OW20659   2.333   6.461   3.229
 6587SOL    HW120660   2.381   6.538   3.186
 6587SOL    HW220661   2.274   6.418   3.161
 6588SOL     OW20662   1.788   2.833   6.777
 6588SOL    HW120663   1.872   2.808   6.729
 6588SOL    HW220664   1.722   2.872   6.712
 6589SOL     OW20665   4.680   1.594   5.505
 6589SOL    HW120666   4.675   1.496   5.525
 6589SOL    HW220667   4.720   1.607   5.414
 6590SOL     OW20668   0.284   1.285   5.310
 6590SOL    HW120669   0.269   1.380   5.336
 6590SOL    HW220670   0.366   1.279   5.252
 6591SOL     OW20671   6.025   0.775   3.046
 6591SOL    HW120672   5.934   0.811   3.025
 6591SOL    HW220673   6.070   0.834   3.113
 6592SOL     OW20674   4.632   5.777   4.471
 6592SOL    HW120675   4.634   5.678   4.454
 6592SOL    HW220676   4.696   5.799   4.544
 6593SOL     OW20677   3.219   1.865   3.005
 6593SOL    HW120678   3.204   1.880   2.908
 6593SOL    HW220679   3.281   1.934   3.041
 6594SOL     OW20680   5.121   0.640   6.747
 6594SOL    HW120681   5.122   0.541   6.753
 6594SOL    HW220682   5.060   0.668   6.672
 6595SOL     OW20683   1.882   3.802   1.118
 6595SOL    HW120684   1.819   3.813   1.041
 6595SOL    HW220685   1.892   3.888   1.167
 6596SOL     OW20686   4.499   7.002   4.962
 6596SOL    HW120687   4.550   7.019   5.046
 6596SOL    HW220688   4.558   6.955   4.896
 6597SOL     OW20689   0.449   6.000   4.685
 6597SOL    HW120690   0.468   6.027   4.591
 6597SOL    HW220691   0.437   6.082   4.741
 6598SOL     OW20692   2.092   5.688   5.113
 6598SOL    HW120693   2.040   5.669   5.196
 6598SOL    HW220694   2.190   5.691   5.134
 6599SOL     OW20695   4.641   4.713   6.263
 6599SOL    HW120696   4.564   4.675   6.212
 6599SOL    HW220697   4.607   4.774   6.334
 6600SOL     OW20698   4.694   5.854   3.862
 6600SOL    HW120699   4.640   5.887   3.939
 6600SOL    HW220700   4.789   5.839   3.892
 6601SOL     OW20701   0.386   0.414   0.061
 6601SOL    HW120702   0.289   0.403   0.081
 6601SOL    HW220703   0.431   0.461   0.138
 6602SOL     OW20704   6.721   1.348   1.550
 6602SOL    HW120705   6.705   1.446   1.534
 6602SOL    HW220706   6.637   1.306   1.586
 6603SOL     OW20707   2.153   3.532   3.044
 6603SOL    HW120708   2.208   3.570   3.119
 6603SOL    HW220709   2.158   3.594   2.965
 6604SOL     OW20710   3.110   5.215   2.704
 6604SOL    HW120711   3.057   5.271   2.641
 6604SOL    HW220712   3.200   5.257   2.719
 6605SOL     OW20713   6.093   5.827   6.966
 6605SOL    HW120714   6.091   5.809   0.040
 6605SOL    HW220715   6.133   5.749   6.919
 6606SOL     OW20716   5.359   1.273   2.380
 6606SOL    HW120717   5.457   1.262   2.361
 6606SOL    HW220718   5.335   1.224   2.463
 6607SOL     OW20719   1.810   1.278   2.172
 6607SOL    HW120720   1.731   1.218   2.155
 6607SOL    HW220721   1.845   1.311   2.084
 6608SOL     OW20722   5.749   4.057   3.788
 6608SOL    HW120723   5.693   3.982   3.824
 6608SOL    HW220724   5.689   4.127   3.748
 6609SOL     OW20725   5.200   1.256   6.218
 6609SOL    HW120726   5.207   1.158   6.202
 6609SOL    HW220727   5.291   1.293   6.237
 6610SOL     OW20728   2.662   0.502   0.468
 6610SOL    HW120729   2.629   0.476   0.559
 6610SOL    HW220730   2.663   0.422   0.409
 6611SOL     OW20731   5.977   2.441   2.758
 6611SOL    HW120732   6.058   2.408   2.807
 6611SOL    HW220733   5.992   2.433   2.659
 6612SOL     OW20734   1.323   6.420   7.005
 6612SOL    HW120735   1.309   6.497   6.943
 6612SOL    HW220736   1.333   6.454   0.074
 6613SOL     OW20737   4.689   4.895   1.886
 6613SOL    HW120738   4.591   4.877   1.876
 6613SOL    HW220739   4.705   4.994   1.881
 6614SOL     OW20740   5.028   5.980   6.304
 6614SOL    HW120741   5.104   5.978   6.239
 6614SOL    HW220742   5.056   6.030   6.386
 6615SOL     OW20743   0.922   3.792   5.191
 6615SOL    HW120744   0.937   3.703   5.234
 6615SOL    HW220745   0.984   3.802   5.113
 6616SOL     OW20746   5.446   0.885   4.916
 6616SOL    HW120747   5.468   0.955   4.848
 6616SOL    HW220748   5.380   0.821   4.877
 6617SOL     OW20749   3.953   6.886   5.026
 6617SOL    HW120750   3.930   6.790   5.042
 6617SOL    HW220751   4.001   6.895   4.939
 6618SOL     OW20752   1.252   4.416   2.054
 6618SOL    HW120753   1.163   4.415   2.100
 6618SOL    HW220754   1.258   4.496   1.994
 6619SOL     OW20755   4.670   5.511   2.495
 6619SOL    HW120756   4.580   5.467   2.492
 6619SOL    HW220757   4.736   5.449   2.537
 6620SOL     OW20758   1.243   2.846   5.763
 6620SOL    HW120759   1.221   2.754   5.796
 6620SOL    HW220760   1.261   2.906   5.842
 6621SOL     OW20761   2.711   4.165   0.170
 6621SOL    HW120762   2.688   4.262   0.156
 6621SOL    HW220763   2.653   4.109   0.111
 6622SOL     OW20764   6.562   6.141   0.619
 6622SOL    HW120765   6.547   6.234   0.585
 6622SOL    HW220766   6.615   6.089   0.553
 6623SOL     OW20767   3.448   3.338   2.317
 6623SOL    HW120768   3.450   3.402   2.240
 6623SOL    HW220769   3.381   3.369   2.384
 6624SOL     OW20770   4.160   5.153   4.358
 6624SOL    HW120771   4.221   5.114   4.428
 6624SOL    HW220772   4.114   5.233   4.396
 6625SOL     OW20773   6.409   0.663   6.828
 6625SOL    HW120774   6.459   0.734   6.779
 6625SOL    HW220775   6.338   0.705   6.884
 6626SOL     OW20776   3.650   5.168   3.296
 6626SOL    HW120777   3.688   5.076   3.289
 6626SOL    HW220778   3.551   5.164   3.289
 6627SOL     OW20779   2.029   0.458   0.500
 6627SOL    HW120780   1.988   0.379   0.455
 6627SOL    HW220781   2.115   0.431   0.544
 6628SOL     OW20782   4.130   5.755   2.914
 6628SOL    HW120783   4.174   5.776   2.827
 6628SOL    HW220784   4.057   5.821   2.931
 6629SOL     OW20785   3.830   5.437   0.851
 6629SOL    HW120786   3.927   5.423   0.830
 6629SOL    HW220787   3.813   5.407   0.945
 6630SOL     OW20788   3.113   1.976   0.719
 6630SOL    HW120789   3.118   1.879   0.693
 6630SOL    HW220790   3.173   2.029   0.658
 6631SOL     OW20791   5.297   0.898   2.547
 6631SOL    HW120792   5.295   0.842   2.629
 6631SOL    HW220793   5.350   0.851   2.476
 6632SOL     OW20794   6.916   0.551   1.073
 6632SOL    HW120795   6.837   0.545   1.012
 6632SOL    HW220796   6.988   0.604   1.028
 6633SOL     OW20797   1.620   6.690   1.181
 6633SOL    HW120798   1.680   6.610   1.178
 6633SOL    HW220799   1.559   6.690   1.102
 6634SOL     OW20800   6.725   2.767   6.240
 6634SOL    HW120801   6.691   2.791   6.149
 6634SOL    HW220802   6.648   2.753   6.302
 6635SOL     OW20803   4.561   4.606   3.591
 6635SOL    HW120804   4.541   4.603   3.493
 6635SOL    HW220805   4.657   4.585   3.606
 6636SOL     OW20806   2.152   2.302   4.181
 6636SOL    HW120807   2.079   2.368   4.197
 6636SOL    HW220808   2.204   2.329   4.100
 6637SOL     OW20809   0.390   6.960   0.968
 6637SOL    HW120810   0.359   7.009   1.050
 6637SOL    HW220811   0.323   6.889   0.944
 6638SOL     OW20812   2.499   5.975   6.060
 6638SOL    HW120813   2.424   6.026   6.102
 6638SOL    HW220814   2.467   5.884   6.035
 6639SOL     OW20815   5.662   5.111   6.791
 6639SOL    HW120816   5.747   5.163   6.794
 6639SOL    HW220817   5.590   5.167   6.749
 6640SOL     OW20818   6.761   2.382   3.474
 6640SOL    HW120819   6.679   2.429   3.506
 6640SOL    HW220820   6.738   2.325   3.395
 6641SOL     OW20821   1.915   4.131   6.163
 6641SOL    HW120822   1.828   4.138   6.212
 6641SOL    HW220823   1.897   4.115   6.066
 6642SOL     OW20824   0.561   5.726   6.611
 6642SOL    HW120825   0.590   5.654   6.675
 6642SOL    HW220826   0.629   5.734   6.538
 6643SOL     OW20827   5.144   4.762   6.735
 6643SOL    HW120828   5.053   4.737   6.704
 6643SOL    HW220829   5.209   4.691   6.709
 6644SOL     OW20830   2.857   4.858   2.028
 6644SOL    HW120831   2.827   4.764   2.008
 6644SOL    HW220832   2.797   4.898   2.097
 6645SOL     OW20833   0.112   4.789   5.882
 6645SOL    HW120834   0.133   4.768   5.787
 6645SOL    HW220835   0.051   4.868   5.887
 6646SOL     OW20836   2.428   5.695   3.712
 6646SOL    HW120837   2.345   5.675   3.660
 6646SOL    HW220838   2.451   5.792   3.704
 6647SOL     OW20839   3.085   1.309   1.931
 6647SOL    HW120840   3.061   1.268   1.843
 6647SOL    HW220841   3.120   1.401   1.916
 6648SOL     OW20842   4.951   5.614   2.452
 6648SOL    HW120843   4.853   5.595   2.455
 6648SOL    HW220844   4.966   5.704   2.411
 6649SOL     OW20845   4.399   2.289   6.498
 6649SOL    HW120846   4.470   2.222   6.479
 6649SOL    HW220847   4.435   2.381   6.484
 6650SOL     OW20848   4.055   1.847   3.655
 6650SOL    HW120849   4.146   1.889   3.656
 6650SOL    HW220850   4.014   1.859   3.564
 6651SOL     OW20851   0.739   2.650   6.956
 6651SOL    HW120852   0.737   2.723   7.024
 6651SOL    HW220853   0.743   2.689   6.864
 6652SOL     OW20854   6.909   5.632   2.115
 6652SOL    HW120855   6.913   5.632   2.015
 6652SOL    HW220856   6.993   5.671   2.152
 6653SOL     OW20857   3.739   3.871   4.148
 6653SOL    HW120858   3.716   3.933   4.222
 6653SOL    HW220859   3.696   3.903   4.063
 6654SOL     OW20860   2.245   3.296   1.679
 6654SOL    HW120861   2.183   3.348   1.621
 6654SOL    HW220862   2.266   3.350   1.761
 6655SOL     OW20863   2.866   6.523   2.119
 6655SOL    HW120864   2.813   6.497   2.038
 6655SOL    HW220865   2.834   6.469   2.198
 6656SOL     OW20866   6.088   1.823   1.335
 6656SOL    HW120867   6.034   1.876   1.269
 6656SOL    HW220868   6.072   1.725   1.320
 6657SOL     OW20869   3.139   6.467   6.581
 6657SOL    HW120870   3.226   6.493   6.539
 6657SOL    HW220871   3.098   6.546   6.625
 6658SOL     OW20872   6.103   1.139   4.831
 6658SOL    HW120873   6.187   1.129   4.885
 6658SOL    HW220874   6.045   1.059   4.845
 6659SOL     OW20875   2.034   3.129   0.368
 6659SOL    HW120876   2.052   3.062   0.440
 6659SOL    HW220877   2.044   3.085   0.278
 6660SOL     OW20878   6.729   6.794   2.920
 6660SOL    HW120879   6.827   6.814   2.922
 6660SOL    HW220880   6.708   6.726   2.990
 6661SOL     OW20881   0.328   5.741   3.971
 6661SOL    HW120882   0.320   5.659   4.029
 6661SOL    HW220883   0.346   5.821   4.028
 6662SOL     OW20884   1.356   1.565   7.001
 6662SOL    HW120885   1.321   1.585   0.068
 6662SOL    HW220886   1.285   1.519   6.948
 6663SOL     OW20887   0.410   5.688   2.326
 6663SOL    HW120888   0.432   5.783   2.307
 6663SOL    HW220889   0.427   5.633   2.245
 6664SOL     OW20890   1.528   0.555   2.021
 6664SOL    HW120891   1.468   0.478   2.042
 6664SOL    HW220892   1.533   0.568   1.922
 6665SOL     OW20893   2.101   6.665   3.014
 6665SOL    HW120894   2.166   6.712   2.954
 6665SOL    HW220895   2.135   6.574   3.035
 6666SOL     OW20896   6.367   0.552   5.829
 6666SOL    HW120897   6.333   0.544   5.923
 6666SOL    HW220898   6.292   0.581   5.769
 6667SOL     OW20899   6.967   5.107   5.150
 6667SOL    HW120900   6.919   5.112   5.237
 6667SOL    HW220901   6.917   5.048   5.087
 6668SOL     OW20902   1.061   4.277   1.707
 6668SOL    HW120903   1.107   4.243   1.625
 6668SOL    HW220904   1.061   4.377   1.706
 6669SOL     OW20905   2.277   5.895   3.028
 6669SOL    HW120906   2.344   5.829   2.992
 6669SOL    HW220907   2.201   5.846   3.069
 6670SOL     OW20908   3.204   4.999   0.389
 6670SOL    HW120909   3.105   5.006   0.378
 6670SOL    HW220910   3.242   4.943   0.316
 6671SOL     OW20911   6.690   3.214   5.745
 6671SOL    HW120912   6.782   3.190   5.712
 6671SOL    HW220913   6.664   3.153   5.820
 6672SOL     OW20914   1.013   0.848   5.864
 6672SOL    HW120915   1.090   0.911   5.862
 6672SOL    HW220916   0.956   0.862   5.783
 6673SOL     OW20917   4.566   4.832   1.562
 6673SOL    HW120918   4.553   4.801   1.656
 6673SOL    HW220919   4.643   4.783   1.521
 6674SOL     OW20920   1.033   5.910   4.871
 6674SOL    HW120921   1.061   5.882   4.963
 6674SOL    HW220922   0.935   5.929   4.870
 6675SOL     OW20923   6.040   5.488   0.148
 6675SOL    HW120924   6.063   5.415   0.083
 6675SOL    HW220925   6.113   5.495   0.216
 6676SOL     OW20926   0.705   2.302   5.912
 6676SOL    HW120927   0.696   2.203   5.908
 6676SOL    HW220928   0.616   2.343   5.935
 6677SOL     OW20929   1.038   2.816   0.185
 6677SOL    HW120930   1.005   2.782   0.274
 6677SOL    HW220931   1.076   2.907   0.197
 6678SOL     OW20932   0.913   2.778   5.875
 6678SOL    HW120933   0.837   2.715   5.895
 6678SOL    HW220934   0.966   2.793   5.958
 6679SOL     OW20935   1.590   2.600   4.906
 6679SOL    HW120936   1.579   2.506   4.876
 6679SOL    HW220937   1.570   2.606   5.004
 6680SOL     OW20938   3.362   6.565   6.429
 6680SOL    HW120939   3.372   6.648   6.483
 6680SOL    HW220940   3.452   6.525   6.413
 6681SOL     OW20941   5.023   5.663   0.600
 6681SOL    HW120942   5.102   5.719   0.574
 6681SOL    HW220943   4.949   5.677   0.535
 6682SOL     OW20944   0.364   5.263   2.331
 6682SOL    HW120945   0.315   5.275   2.417
 6682SOL    HW220946   0.305   5.218   2.265
 6683SOL     OW20947   5.226   1.785   4.931
 6683SOL    HW120948   5.172   1.864   4.903
 6683SOL    HW220949   5.173   1.702   4.917
 6684SOL     OW20950   0.954   0.029   2.148
 6684SOL    HW120951   0.858   0.003   2.156
 6684SOL    HW220952   1.011   6.977   2.174
 6685SOL     OW20953   5.258   3.201   6.291
 6685SOL    HW120954   5.165   3.203   6.254
 6685SOL    HW220955   5.316   3.266   6.240
 6686SOL     OW20956   6.305   3.884   3.109
 6686SOL    HW120957   6.255   3.843   3.033
 6686SOL    HW220958   6.343   3.972   3.081
 6687SOL     OW20959   1.333   1.896   1.053
 6687SOL    HW120960   1.318   1.831   1.127
 6687SOL    HW220961   1.365   1.848   0.972
 6688SOL     OW20962   0.763   4.146   2.858
 6688SOL    HW120963   0.817   4.105   2.784
 6688SOL    HW220964   0.670   4.164   2.825
 6689SOL     OW20965   4.947   4.748   0.002
 6689SOL    HW120966   4.906   4.755   0.093
 6689SOL    HW220967   5.023   4.813   7.020
 6690SOL     OW20968   2.120   2.977   0.582
 6690SOL    HW120969   2.179   2.970   0.663
 6690SOL    HW220970   2.028   2.945   0.606
 6691SOL     OW20971   2.484   4.821   1.411
 6691SOL    HW120972   2.399   4.863   1.443
 6691SOL    HW220973   2.559   4.886   1.424
 6692SOL     OW20974   3.525   4.147   5.089
 6692SOL    HW120975   3.481   4.161   5.178
 6692SOL    HW220976   3.620   4.178   5.093
 6693SOL     OW20977   4.396   3.549   5.298
 6693SOL    HW120978   4.377   3.647   5.305
 6693SOL    HW220979   4.474   3.535   5.238
 6694SOL     OW20980   4.128   6.257   1.037
 6694SOL    HW120981   4.058   6.321   1.068
 6694SOL    HW220982   4.196   6.305   0.982
 6695SOL     OW20983   1.346   1.302   6.544
 6695SOL    HW120984   1.373   1.310   6.640
 6695SOL    HW220985   1.352   1.392   6.500
 6696SOL     OW20986   2.184   3.136   1.934
 6696SOL    HW120987   2.085   3.131   1.923
 6696SOL    HW220988   2.213   3.231   1.929
 6697SOL     OW20989   4.744   1.406   3.170
 6697SOL    HW120990   4.815   1.342   3.143
 6697SOL    HW220991   4.657   1.359   3.180
 6698SOL     OW20992   4.086   3.314   0.286
 6698SOL    HW120993   4.142   3.396   0.273
 6698SOL    HW220994   3.992   3.333   0.257
 6699SOL     OW20995   1.981   4.725   0.460
 6699SOL    HW120996   2.021   4.785   0.529
 6699SOL    HW220997   1.978   4.773   0.372
 6700SOL     OW20998   0.218   5.773   0.901
 6700SOL    HW120999   0.308   5.803   0.869
 6700SOL    HW221000   0.173   5.847   0.950
 6701SOL     OW21001   0.623   1.787   0.652
 6701SOL    HW121002   0.617   1.700   0.701
 6701SOL    HW221003   0.611   1.772   0.554
 6702SOL     OW21004   2.468   1.510   1.725
 6702SOL    HW121005   2.509   1.574   1.660
 6702SOL    HW221006   2.536   1.443   1.753
 6703SOL     OW21007   6.969   1.400   6.769
 6703SOL    HW121008   0.018   1.365   6.827
 6703SOL    HW221009   6.948   1.494   6.795
 6704SOL     OW21010   4.813   2.009   2.418
 6704SOL    HW121011   4.810   2.074   2.494
 6704SOL    HW221012   4.848   2.055   2.336
 6705SOL     OW21013   5.652   2.208   0.398
 6705SOL    HW121014   5.564   2.194   0.443
 6705SOL    HW221015   5.642   2.190   0.300
 6706SOL     OW21016   0.651   4.278   6.330
 6706SOL    HW121017   0.687   4.344   6.264
 6706SOL    HW221018   0.723   4.250   6.393
 6707SOL     OW21019   1.086   5.536   2.926
 6707SOL    HW121020   1.050   5.611   2.981
 6707SOL    HW221021   1.182   5.519   2.951
 6708SOL     OW21022   2.370   6.095   2.154
 6708SOL    HW121023   2.304   6.160   2.191
 6708SOL    HW221024   2.322   6.025   2.101
 6709SOL     OW21025   4.352   1.358   2.396
 6709SOL    HW121026   4.330   1.394   2.487
 6709SOL    HW221027   4.271   1.364   2.337
 6710SOL     OW21028   3.272   2.604   0.133
 6710SOL    HW121029   3.199   2.660   0.093
 6710SOL    HW221030   3.249   2.581   0.227
 6711SOL     OW21031   3.951   4.107   0.084
 6711SOL    HW121032   4.042   4.098   0.125
 6711SOL    HW221033   3.907   4.018   0.080
 6712SOL     OW21034   3.767   6.236   6.759
 6712SOL    HW121035   3.793   6.310   6.821
 6712SOL    HW221036   3.683   6.262   6.710
 6713SOL     OW21037   2.166   2.238   1.251
 6713SOL    HW121038   2.175   2.311   1.318
 6713SOL    HW221039   2.082   2.186   1.269
 6714SOL     OW21040   5.820   0.525   4.491
 6714SOL    HW121041   5.877   0.494   4.567
 6714SOL    HW221042   5.725   0.531   4.522
 6715SOL     OW21043   0.445   1.034   0.725
 6715SOL    HW121044   0.479   0.947   0.688
 6715SOL    HW221045   0.517   1.078   0.778
 6716SOL     OW21046   1.986   5.350   1.293
 6716SOL    HW121047   1.909   5.398   1.251
 6716SOL    HW221048   1.959   5.257   1.316
 6717SOL     OW21049   4.110   1.970   6.708
 6717SOL    HW121050   4.030   1.952   6.651
 6717SOL    HW221051   4.082   2.024   6.788
 6718SOL     OW21052   3.082   0.385   0.876
 6718SOL    HW121053   3.014   0.398   0.948
 6718SOL    HW221054   3.174   0.393   0.914
 6719SOL     OW21055   6.484   6.443   5.297
 6719SOL    HW121056   6.488   6.349   5.330
 6719SOL    HW221057   6.389   6.466   5.273
 6720SOL     OW21058   1.667   5.275   1.091
 6720SOL    HW121059   1.645   5.244   1.183
 6720SOL    HW221060   1.610   5.227   1.024
 6721SOL     OW21061   5.465   6.587   3.808
 6721SOL    HW121062   5.533   6.521   3.777
 6721SOL    HW221063   5.392   6.539   3.857
 6722SOL     OW21064   4.374   2.883   6.496
 6722SOL    HW121065   4.447   2.868   6.563
 6722SOL    HW221066   4.382   2.975   6.458
 6723SOL     OW21067   4.229   6.362   3.304
 6723SOL    HW121068   4.204   6.408   3.219
 6723SOL    HW221069   4.216   6.425   3.381
 6724SOL     OW21070   3.443   4.911   5.111
 6724SOL    HW121071   3.425   5.009   5.102
 6724SOL    HW221072   3.381   4.872   5.180
 6725SOL     OW21073   0.395   4.983   2.516
 6725SOL    HW121074   0.387   5.062   2.577
 6725SOL    HW221075   0.316   4.980   2.455
 6726SOL     OW21076   2.420   2.149   3.500
 6726SOL    HW121077   2.453   2.235   3.541
 6726SOL    HW221078   2.477   2.127   3.421
 6727SOL     OW21079   3.776   3.259   6.375
 6727SOL    HW121080   3.746   3.171   6.338
 6727SOL    HW221081   3.845   3.244   6.446
 6728SOL     OW21082   4.052   1.645   3.828
 6728SOL    HW121083   3.958   1.633   3.859
 6728SOL    HW221084   4.060   1.732   3.779
 6729SOL     OW21085   5.854   0.662   2.652
 6729SOL    HW121086   5.933   0.714   2.686
 6729SOL    HW221087   5.784   0.659   2.723
 6730SOL     OW21088   2.520   0.953   0.171
 6730SOL    HW121089   2.520   1.051   0.192
 6730SOL    HW221090   2.588   0.934   0.101
 6731SOL     OW21091   2.763   4.735   1.739
 6731SOL    HW121092   2.798   4.651   1.781
 6731SOL    HW221093   2.705   4.783   1.806
 6732SOL     OW21094   2.620   5.917   0.920
 6732SOL    HW121095   2.609   5.956   1.011
 6732SOL    HW221096   2.675   5.833   0.926
 6733SOL     OW21097   5.227   5.791   5.255
 6733SOL    HW121098   5.289   5.820   5.328
 6733SOL    HW221099   5.268   5.811   5.166
 6734SOL     OW21100   2.480   3.638   5.360
 6734SOL    HW121101   2.446   3.593   5.277
 6734SOL    HW221102   2.486   3.571   5.434
 6735SOL     OW21103   6.792   5.554   5.872
 6735SOL    HW121104   6.784   5.486   5.945
 6735SOL    HW221105   6.725   5.534   5.800
 6736SOL     OW21106   2.102   3.379   2.215
 6736SOL    HW121107   2.121   3.282   2.229
 6736SOL    HW221108   2.150   3.411   2.132
 6737SOL     OW21109   2.331   0.774   1.556
 6737SOL    HW121110   2.376   0.710   1.618
 6737SOL    HW221111   2.327   0.864   1.599
 6738SOL     OW21112   3.211   0.931   2.682
 6738SOL    HW121113   3.138   0.882   2.635
 6738SOL    HW221114   3.208   0.912   2.780
 6739SOL     OW21115   3.849   6.653   4.761
 6739SOL    HW121116   3.883   6.738   4.720
 6739SOL    HW221117   3.770   6.621   4.708
 6740SOL     OW21118   0.362   1.805   4.382
 6740SOL    HW121119   0.460   1.825   4.383
 6740SOL    HW221120   0.348   1.707   4.367
 6741SOL     OW21121   6.195   0.123   6.299
 6741SOL    HW121122   6.110   0.149   6.346
 6741SOL    HW221123   6.268   0.115   6.367
 6742SOL     OW21124   6.136   5.454   6.195
 6742SOL    HW121125   6.050   5.434   6.242
 6742SOL    HW221126   6.118   5.518   6.120
 6743SOL     OW21127   4.597   3.030   1.063
 6743SOL    HW121128   4.637   3.120   1.044
 6743SOL    HW221129   4.514   3.041   1.118
 6744SOL     OW21130   4.684   4.757   5.161
 6744SOL    HW121131   4.633   4.671   5.154
 6744SOL    HW221132   4.745   4.753   5.240
 6745SOL     OW21133   0.781   4.257   3.783
 6745SOL    HW121134   0.688   4.222   3.792
 6745SOL    HW221135   0.799   4.323   3.856
 6746SOL     OW21136   0.185   1.443   0.818
 6746SOL    HW121137   0.248   1.398   0.755
 6746SOL    HW221138   0.143   1.522   0.773
 6747SOL     OW21139   5.438   6.004   5.703
 6747SOL    HW121140   5.490   6.088   5.690
 6747SOL    HW221141   5.487   5.943   5.765
 6748SOL     OW21142   0.330   0.023   1.837
 6748SOL    HW121143   0.396   0.030   1.762
 6748SOL    HW221144   0.339   6.959   1.881
 6749SOL     OW21145   4.129   6.123   0.773
 6749SOL    HW121146   4.070   6.190   0.818
 6749SOL    HW221147   4.075   6.068   0.710
 6750SOL     OW21148   2.707   3.189   5.273
 6750SOL    HW121149   2.712   3.142   5.362
 6750SOL    HW221150   2.642   3.141   5.214
 6751SOL     OW21151   3.053   1.818   5.328
 6751SOL    HW121152   3.062   1.841   5.425
 6751SOL    HW221153   3.014   1.895   5.278
 6752SOL     OW21154   5.992   1.650   0.356
 6752SOL    HW121155   6.067   1.642   0.421
 6752SOL    HW221156   6.028   1.648   0.262
 6753SOL     OW21157   4.824   1.998   6.798
 6753SOL    HW121158   4.767   2.080   6.797
 6753SOL    HW221159   4.768   1.919   6.770
 6754SOL     OW21160   5.796   1.019   6.836
 6754SOL    HW121161   5.715   0.972   6.799
 6754SOL    HW221162   5.829   0.971   6.917
 6755SOL     OW21163   4.790   1.864   3.681
 6755SOL    HW121164   4.857   1.938   3.679
 6755SOL    HW221165   4.767   1.837   3.588
 6756SOL     OW21166   5.379   4.674   4.361
 6756SOL    HW121167   5.279   4.672   4.366
 6756SOL    HW221168   5.408   4.707   4.271
 6757SOL     OW21169   6.018   5.672   2.087
 6757SOL    HW121170   5.946   5.642   2.149
 6757SOL    HW221171   5.979   5.734   2.018
 6758SOL     OW21172   4.968   2.562   2.116
 6758SOL    HW121173   4.978   2.652   2.159
 6758SOL    HW221174   5.053   2.510   2.128
 6759SOL     OW21175   0.031   4.703   3.356
 6759SOL    HW121176   0.062   4.792   3.390
 6759SOL    HW221177   6.983   4.716   3.289
 6760SOL     OW21178   6.590   3.957   4.485
 6760SOL    HW121179   6.549   3.866   4.494
 6760SOL    HW221180   6.540   4.022   4.542
 6761SOL     OW21181   4.995   3.239   6.190
 6761SOL    HW121182   4.909   3.286   6.172
 6761SOL    HW221183   4.976   3.147   6.223
 6762SOL     OW21184   6.079   4.704   4.434
 6762SOL    HW121185   5.987   4.670   4.452
 6762SOL    HW221186   6.111   4.758   4.513
 6763SOL     OW21187   5.605   6.668   5.842
 6763SOL    HW121188   5.543   6.656   5.765
 6763SOL    HW221189   5.681   6.727   5.815
 6764SOL     OW21190   2.107   3.891   6.559
 6764SOL    HW121191   2.109   3.792   6.571
 6764SOL    HW221192   2.157   3.916   6.477
 6765SOL     OW21193   5.916   4.938   3.234
 6765SOL    HW121194   5.870   4.965   3.318
 6765SOL    HW221195   5.878   4.988   3.157
 6766SOL     OW21196   1.337   0.652   5.630
 6766SOL    HW121197   1.425   0.606   5.614
 6766SOL    HW221198   1.297   0.677   5.542
 6767SOL     OW21199   0.532   2.868   6.940
 6767SOL    HW121200   0.598   2.857   6.865
 6767SOL    HW221201   0.449   2.816   6.918
 6768SOL     OW21202   0.157   0.268   5.103
 6768SOL    HW121203   0.125   0.282   5.197
 6768SOL    HW221204   0.079   0.252   5.043
 6769SOL     OW21205   1.954   3.405   5.974
 6769SOL    HW121206   2.049   3.407   6.005
 6769SOL    HW221207   1.932   3.313   5.941
 6770SOL     OW21208   0.582   1.850   3.634
 6770SOL    HW121209   0.542   1.825   3.546
 6770SOL    HW221210   0.524   1.817   3.708
 6771SOL     OW21211   4.399   1.600   3.109
 6771SOL    HW121212   4.386   1.553   3.022
 6771SOL    HW221213   4.476   1.664   3.103
 6772SOL     OW21214   7.002   0.528   1.665
 6772SOL    HW121215   6.972   0.575   1.748
 6772SOL    HW221216   0.036   0.451   1.690
 6773SOL     OW21217   1.267   6.803   1.175
 6773SOL    HW121218   1.191   6.838   1.119
 6773SOL    HW221219   1.310   6.726   1.127
 6774SOL     OW21220   2.673   2.632   5.558
 6774SOL    HW121221   2.726   2.714   5.581
 6774SOL    HW221222   2.664   2.574   5.639
 6775SOL     OW21223   0.568   2.736   4.721
 6775SOL    HW121224   0.644   2.722   4.784
 6775SOL    HW221225   0.601   2.729   4.627
 6776SOL     OW21226   4.055   3.666   3.096
 6776SOL    HW121227   4.071   3.750   3.042
 6776SOL    HW221228   4.059   3.688   3.193
 6777SOL     OW21229   6.404   6.206   6.466
 6777SOL    HW121230   6.332   6.136   6.456
 6777SOL    HW221231   6.371   6.293   6.429
 6778SOL     OW21232   5.739   5.852   2.053
 6778SOL    HW121233   5.740   5.881   1.957
 6778SOL    HW221234   5.808   5.902   2.104
 6779SOL     OW21235   4.806   3.973   6.115
 6779SOL    HW121236   4.764   4.049   6.165
 6779SOL    HW221237   4.760   3.962   6.027
 6780SOL     OW21238   3.640   2.068   2.708
 6780SOL    HW121239   3.702   2.103   2.639
 6780SOL    HW221240   3.592   1.987   2.673
 6781SOL     OW21241   6.496   1.791   3.262
 6781SOL    HW121242   6.566   1.755   3.200
 6781SOL    HW221243   6.538   1.851   3.330
 6782SOL     OW21244   6.684   1.637   3.126
 6782SOL    HW121245   6.681   1.558   3.065
 6782SOL    HW221246   6.777   1.649   3.161
 6783SOL     OW21247   0.452   5.319   5.771
 6783SOL    HW121248   0.404   5.318   5.683
 6783SOL    HW221249   0.551   5.313   5.755
 6784SOL     OW21250   2.400   3.933   1.830
 6784SOL    HW121251   2.399   4.027   1.863
 6784SOL    HW221252   2.426   3.932   1.734
 6785SOL     OW21253   5.766   5.190   4.353
 6785SOL    HW121254   5.842   5.255   4.353
 6785SOL    HW221255   5.744   5.164   4.259
 6786SOL     OW21256   5.698   1.993   5.877
 6786SOL    HW121257   5.682   1.949   5.789
 6786SOL    HW221258   5.619   1.978   5.937
 6787SOL     OW21259   3.018   1.971   0.229
 6787SOL    HW121260   2.956   2.043   0.197
 6787SOL    HW221261   2.982   1.931   0.314
 6788SOL     OW21262   0.167   4.189   2.345
 6788SOL    HW121263   0.250   4.243   2.351
 6788SOL    HW221264   0.169   4.116   2.413
 6789SOL     OW21265   5.140   4.472   3.292
 6789SOL    HW121266   5.146   4.377   3.321
 6789SOL    HW221267   5.045   4.503   3.303
 6790SOL     OW21268   0.705   5.050   6.563
 6790SOL    HW121269   0.621   5.037   6.615
 6790SOL    HW221270   0.691   5.120   6.493
 6791SOL     OW21271   2.450   0.159   3.009
 6791SOL    HW121272   2.501   0.218   2.947
 6791SOL    HW221273   2.459   0.193   3.103
 6792SOL     OW21274   4.001   0.307   5.808
 6792SOL    HW121275   4.016   0.256   5.894
 6792SOL    HW221276   4.084   0.357   5.785
 6793SOL     OW21277   1.945   3.705   5.890
 6793SOL    HW121278   1.922   3.608   5.880
 6793SOL    HW221279   1.963   3.726   5.986
 6794SOL     OW21280   5.953   2.455   5.246
 6794SOL    HW121281   6.041   2.446   5.291
 6794SOL    HW221282   5.882   2.470   5.315
 6795SOL     OW21283   1.133   0.648   1.502
 6795SOL    HW121284   1.139   0.677   1.598
 6795SOL    HW221285   1.214   0.595   1.479
 6796SOL     OW21286   6.177   2.026   2.816
 6796SOL    HW121287   6.256   1.970   2.843
 6796SOL    HW221288   6.096   1.968   2.810
 6797SOL     OW21289   0.423   3.285   1.477
 6797SOL    HW121290   0.331   3.304   1.511
 6797SOL    HW221291   0.418   3.218   1.403
 6798SOL     OW21292   5.388   0.578   2.167
 6798SOL    HW121293   5.295   0.570   2.202
 6798SOL    HW221294   5.388   0.564   2.068
 6799SOL     OW21295   6.457   0.373   3.771
 6799SOL    HW121296   6.505   0.413   3.694
 6799SOL    HW221297   6.511   0.299   3.811
 6800SOL     OW21298   6.124   3.093   1.342
 6800SOL    HW121299   6.102   3.156   1.416
 6800SOL    HW221300   6.199   3.032   1.371
 6801SOL     OW21301   0.801   6.924   6.685
 6801SOL    HW121302   0.852   6.982   6.748
 6801SOL    HW221303   0.848   6.837   6.673
 6802SOL     OW21304   3.149   5.136   1.794
 6802SOL    HW121305   3.057   5.102   1.770
 6802SOL    HW221306   3.144   5.190   1.877
 6803SOL     OW21307   5.160   5.277   6.239
 6803SOL    HW121308   5.087   5.272   6.170
 6803SOL    HW221309   5.172   5.372   6.267
 6804SOL     OW21310   3.452   5.042   2.606
 6804SOL    HW121311   3.497   5.123   2.643
 6804SOL    HW221312   3.386   5.007   2.673
 6805SOL     OW21313   0.115   4.011   4.649
 6805SOL    HW121314   0.215   4.019   4.644
 6805SOL    HW221315   0.074   4.057   4.571
 6806SOL     OW21316   6.170   2.736   1.581
 6806SOL    HW121317   6.116   2.651   1.581
 6806SOL    HW221318   6.209   2.751   1.672
 6807SOL     OW21319   3.024   3.882   1.927
 6807SOL    HW121320   3.013   3.927   1.839
 6807SOL    HW221321   2.998   3.786   1.919
 6808SOL     OW21322   3.296   0.924   4.003
 6808SOL    HW121323   3.339   0.874   3.928
 6808SOL    HW221324   3.200   0.940   3.981
 6809SOL     OW21325   6.098   3.058   6.395
 6809SOL    HW121326   6.163   3.113   6.344
 6809SOL    HW221327   6.062   3.110   6.472
 6810SOL     OW21328   2.932   1.011   4.723
 6810SOL    HW121329   2.948   0.913   4.713
 6810SOL    HW221330   2.946   1.056   4.635
 6811SOL     OW21331   6.070   1.393   0.114
 6811SOL    HW121332   6.150   1.409   0.056
 6811SOL    HW221333   6.002   1.341   0.063
 6812SOL     OW21334   3.664   4.162   5.393
 6812SOL    HW121335   3.698   4.219   5.468
 6812SOL    HW221336   3.735   4.151   5.324
 6813SOL     OW21337   6.946   3.368   2.173
 6813SOL    HW121338   6.987   3.404   2.089
 6813SOL    HW221339   6.971   3.271   2.183
 6814SOL     OW21340   5.447   0.873   6.919
 6814SOL    HW121341   5.471   0.870   7.016
 6814SOL    HW221342   5.349   0.890   6.909
 6815SOL     OW21343   0.891   5.212   6.116
 6815SOL    HW121344   0.862   5.208   6.020
 6815SOL    HW221345   0.983   5.251   6.121
 6816SOL     OW21346   6.912   0.242   3.298
 6816SOL    HW121347   6.968   0.237   3.380
 6816SOL    HW221348   6.903   0.337   3.269
 6817SOL     OW21349   4.162   2.378   1.307
 6817SOL    HW121350   4.135   2.373   1.211
 6817SOL    HW221351   4.099   2.323   1.362
 6818SOL     OW21352   1.247   6.536   5.373
 6818SOL    HW121353   1.276   6.620   5.420
 6818SOL    HW221354   1.159   6.552   5.328
 6819SOL     OW21355   4.631   4.531   1.919
 6819SOL    HW121356   4.656   4.599   1.989
 6819SOL    HW221357   4.585   4.454   1.963
 6820SOL     OW21358   2.948   5.332   1.298
 6820SOL    HW121359   3.029   5.272   1.296
 6820SOL    HW221360   2.896   5.316   1.382
 6821SOL     OW21361   3.858   2.658   5.380
 6821SOL    HW121362   3.927   2.594   5.345
 6821SOL    HW221363   3.885   2.751   5.356
 6822SOL     OW21364   6.038   3.406   5.852
 6822SOL    HW121365   5.986   3.489   5.832
 6822SOL    HW221366   6.027   3.341   5.777
 6823SOL     OW21367   6.951   2.673   5.377
 6823SOL    HW121368   6.996   2.668   5.466
 6823SOL    HW221369   6.912   2.764   5.364
 6824SOL     OW21370   0.966   6.661   5.319
 6824SOL    HW121371   0.949   6.759   5.306
 6824SOL    HW221372   0.968   6.616   5.230
 6825SOL     OW21373   4.296   4.682   0.604
 6825SOL    HW121374   4.211   4.636   0.629
 6825SOL    HW221375   4.368   4.655   0.668
 6826SOL     OW21376   6.530   6.450   3.621
 6826SOL    HW121377   6.590   6.516   3.666
 6826SOL    HW221378   6.544   6.359   3.661
 6827SOL     OW21379   5.034   5.699   4.886
 6827SOL    HW121380   5.023   5.601   4.900
 6827SOL    HW221381   4.969   5.749   4.944
 6828SOL     OW21382   3.061   2.137   2.356
 6828SOL    HW121383   2.985   2.189   2.318
 6828SOL    HW221384   3.142   2.196   2.359
 6829SOL     OW21385   3.886   0.219   3.091
 6829SOL    HW121386   3.960   0.164   3.129
 6829SOL    HW221387   3.894   0.223   2.991
 6830SOL     OW21388   4.885   4.930   2.838
 6830SOL    HW121389   4.816   4.871   2.881
 6830SOL    HW221390   4.953   4.873   2.791
 6831SOL     OW21391   1.703   2.274   5.960
 6831SOL    HW121392   1.658   2.266   6.049
 6831SOL    HW221393   1.648   2.332   5.900
 6832SOL     OW21394   2.598   2.177   6.411
 6832SOL    HW121395   2.608   2.228   6.325
 6832SOL    HW221396   2.684   2.179   6.461
 6833SOL     OW21397   3.754   5.337   6.058
 6833SOL    HW121398   3.824   5.357   6.126
 6833SOL    HW221399   3.746   5.238   6.045
 6834SOL     OW21400   6.527   6.733   6.895
 6834SOL    HW121401   6.500   6.647   6.852
 6834SOL    HW221402   6.535   6.720   6.994
 6835SOL     OW21403   2.684   1.087   4.850
 6835SOL    HW121404   2.674   1.079   4.950
 6835SOL    HW221405   2.770   1.045   4.822
 6836SOL     OW21406   1.957   4.582   6.424
 6836SOL    HW121407   1.996   4.500   6.383
 6836SOL    HW221408   1.893   4.557   6.496
 6837SOL     OW21409   6.591   0.904   2.155
 6837SOL    HW121410   6.562   0.973   2.088
 6837SOL    HW221411   6.652   0.946   2.222
 6838SOL     OW21412   3.285   4.036   4.960
 6838SOL    HW121413   3.262   3.940   4.976
 6838SOL    HW221414   3.369   4.058   5.010
 6839SOL     OW21415   6.342   3.315   4.939
 6839SOL    HW121416   6.287   3.285   5.017
 6839SOL    HW221417   6.352   3.240   4.873
 6840SOL     OW21418   2.682   6.617   5.046
 6840SOL    HW121419   2.698   6.642   5.142
 6840SOL    HW221420   2.766   6.582   5.006
 6841SOL     OW21421   5.081   6.115   1.283
 6841SOL    HW121422   5.134   6.153   1.359
 6841SOL    HW221423   5.102   6.166   1.200
 6842SOL     OW21424   0.472   3.535   4.433
 6842SOL    HW121425   0.528   3.511   4.354
 6842SOL    HW221426   0.528   3.535   4.515
 6843SOL     OW21427   3.829   2.222   1.673
 6843SOL    HW121428   3.819   2.124   1.688
 6843SOL    HW221429   3.771   2.272   1.738
 6844SOL     OW21430   3.954   5.519   4.151
 6844SOL    HW121431   3.876   5.581   4.140
 6844SOL    HW221432   3.926   5.426   4.129
 6845SOL     OW21433   4.243   4.456   0.850
 6845SOL    HW121434   4.263   4.544   0.894
 6845SOL    HW221435   4.196   4.472   0.763
 6846SOL     OW21436   3.346   2.977   2.903
 6846SOL    HW121437   3.380   3.070   2.917
 6846SOL    HW221438   3.305   2.970   2.811
 6847SOL     OW21439   5.784   3.346   2.196
 6847SOL    HW121440   5.804   3.257   2.155
 6847SOL    HW221441   5.868   3.385   2.234
 6848SOL     OW21442   6.687   6.561   3.293
 6848SOL    HW121443   6.685   6.476   3.241
 6848SOL    HW221444   6.675   6.541   3.390
 6849SOL     OW21445   3.619   6.777   3.858
 6849SOL    HW121446   3.555   6.722   3.911
 6849SOL    HW221447   3.681   6.825   3.920
 6850SOL     OW21448   5.370   3.256   1.481
 6850SOL    HW121449   5.340   3.163   1.459
 6850SOL    HW221450   5.324   3.287   1.564
 6851SOL     OW21451   2.077   5.866   5.642
 6851SOL    HW121452   2.002   5.930   5.625
 6851SOL    HW221453   2.040   5.774   5.655
 6852SOL     OW21454   0.176   4.699   2.322
 6852SOL    HW121455   0.213   4.650   2.401
 6852SOL    HW221456   0.191   4.797   2.333
 6853SOL     OW21457   6.609   3.596   5.666
 6853SOL    HW121458   6.595   3.630   5.573
 6853SOL    HW221459   6.697   3.548   5.671
 6854SOL     OW21460   0.095   1.884   6.448
 6854SOL    HW121461   0.141   1.969   6.423
 6854SOL    HW221462   0.136   1.808   6.396
 6855SOL     OW21463   3.567   6.231   1.231
 6855SOL    HW121464   3.623   6.180   1.166
 6855SOL    HW221465   3.626   6.286   1.290
 6856SOL     OW21466   6.814   3.930   5.800
 6856SOL    HW121467   6.818   3.844   5.749
 6856SOL    HW221468   6.843   4.005   5.741
 6857SOL     OW21469   4.425   1.735   5.793
 6857SOL    HW121470   4.498   1.667   5.803
 6857SOL    HW221471   4.463   1.819   5.754
 6858SOL     OW21472   3.713   2.983   5.037
 6858SOL    HW121473   3.621   2.970   5.000
 6858SOL    HW221474   3.716   2.949   5.132
 6859SOL     OW21475   3.860   0.125   1.117
 6859SOL    HW121476   3.793   0.199   1.122
 6859SOL    HW221477   3.878   0.103   1.021
 6860SOL     OW21478   4.826   4.522   0.394
 6860SOL    HW121479   4.796   4.586   0.464
 6860SOL    HW221480   4.833   4.430   0.434
 6861SOL     OW21481   6.073   4.903   0.319
 6861SOL    HW121482   6.157   4.941   0.279
 6861SOL    HW221483   6.069   4.805   0.299
 6862SOL     OW21484   3.740   5.739   4.091
 6862SOL    HW121485   3.643   5.713   4.093
 6862SOL    HW221486   3.757   5.795   4.010
 6863SOL     OW21487   0.070   3.301   4.221
 6863SOL    HW121488   7.007   3.286   4.174
 6863SOL    HW221489   0.115   3.381   4.181
 6864SOL     OW21490   4.353   5.744   5.128
 6864SOL    HW121491   4.357   5.767   5.031
 6864SOL    HW221492   4.411   5.664   5.145
 6865SOL     OW21493   6.651   3.970   4.196
 6865SOL    HW121494   6.682   3.887   4.149
 6865SOL    HW221495   6.660   3.957   4.295
 6866SOL     OW21496   0.388   3.471   2.115
 6866SOL    HW121497   0.372   3.502   2.209
 6866SOL    HW221498   0.345   3.382   2.101
 6867SOL     OW21499   2.223   4.329   2.683
 6867SOL    HW121500   2.162   4.275   2.741
 6867SOL    HW221501   2.178   4.345   2.594
 6868SOL     OW21502   2.384   5.434   5.198
 6868SOL    HW121503   2.367   5.532   5.189
 6868SOL    HW221504   2.301   5.388   5.231
 6869SOL     OW21505   5.928   3.801   5.525
 6869SOL    HW121506   5.943   3.886   5.575
 6869SOL    HW221507   5.831   3.794   5.499
 6870SOL     OW21508   5.040   4.416   2.723
 6870SOL    HW121509   4.980   4.489   2.689
 6870SOL    HW221510   4.992   4.329   2.720
 6871SOL     OW21511   5.071   6.655   2.219
 6871SOL    HW121512   5.157   6.678   2.263
 6871SOL    HW221513   4.996   6.669   2.284
 6872SOL     OW21514   2.742   3.264   6.386
 6872SOL    HW121515   2.816   3.268   6.452
 6872SOL    HW221516   2.667   3.323   6.417
 6873SOL     OW21517   4.950   4.762   5.754
 6873SOL    HW121518   4.852   4.749   5.738
 6873SOL    HW221519   5.000   4.740   5.671
 6874SOL     OW21520   1.024   2.487   5.650
 6874SOL    HW121521   1.097   2.464   5.715
 6874SOL    HW221522   1.030   2.584   5.626
 6875SOL     OW21523   3.114   2.093   3.902
 6875SOL    HW121524   3.084   2.164   3.966
 6875SOL    HW221525   3.101   2.004   3.944
 6876SOL     OW21526   3.361   5.883   6.531
 6876SOL    HW121527   3.297   5.944   6.484
 6876SOL    HW221528   3.438   5.863   6.471
 6877SOL     OW21529   2.350   3.968   6.423
 6877SOL    HW121530   2.309   4.044   6.373
 6877SOL    HW221531   2.399   4.003   6.502
 6878SOL     OW21532   1.342   1.791   5.200
 6878SOL    HW121533   1.441   1.802   5.200
 6878SOL    HW221534   1.308   1.798   5.106
 6879SOL     OW21535   0.947   1.873   5.972
 6879SOL    HW121536   0.968   1.791   6.027
 6879SOL    HW221537   0.997   1.869   5.886
 6880SOL     OW21538   1.686   4.504   4.815
 6880SOL    HW121539   1.704   4.573   4.745
 6880SOL    HW221540   1.754   4.513   4.888
 6881SOL     OW21541   6.525   4.268   1.316
 6881SOL    HW121542   6.519   4.178   1.274
 6881SOL    HW221543   6.534   4.258   1.415
 6882SOL     OW21544   2.024   0.010   5.569
 6882SOL    HW121545   2.072   0.093   5.541
 6882SOL    HW221546   2.032   7.025   5.668
 6883SOL     OW21547   3.617   6.044   1.707
 6883SOL    HW121548   3.580   5.977   1.643
 6883SOL    HW221549   3.542   6.099   1.744
 6884SOL     OW21550   2.799   4.731   3.012
 6884SOL    HW121551   2.756   4.744   3.102
 6884SOL    HW221552   2.728   4.718   2.943
 6885SOL     OW21553   3.016   5.240   4.353
 6885SOL    HW121554   3.030   5.153   4.305
 6885SOL    HW221555   3.044   5.230   4.449
 6886SOL     OW21556   5.678   2.261   3.156
 6886SOL    HW121557   5.679   2.164   3.135
 6886SOL    HW221558   5.687   2.313   3.071
 6887SOL     OW21559   6.156   0.473   4.905
 6887SOL    HW121560   6.227   0.442   4.841
 6887SOL    HW221561   6.066   0.450   4.869
 6888SOL     OW21562   5.808   6.099   4.376
 6888SOL    HW121563   5.797   6.197   4.392
 6888SOL    HW221564   5.847   6.084   4.286
 6889SOL     OW21565   1.148   4.472   5.680
 6889SOL    HW121566   1.240   4.489   5.646
 6889SOL    HW221567   1.152   4.439   5.775
 6890SOL     OW21568   2.456   0.405   0.637
 6890SOL    HW121569   2.392   0.389   0.562
 6890SOL    HW221570   2.445   0.498   0.672
 6891SOL     OW21571   3.439   4.939   3.801
 6891SOL    HW121572   3.439   5.023   3.856
 6891SOL    HW221573   3.413   4.961   3.707
 6892SOL     OW21574   4.105   0.673   3.961
 6892SOL    HW121575   4.105   0.578   3.993
 6892SOL    HW221576   4.016   0.694   3.919
 6893SOL     OW21577   5.083   6.390   2.155
 6893SOL    HW121578   5.074   6.484   2.186
 6893SOL    HW221579   5.047   6.328   2.226
 6894SOL     OW21580   6.295   4.676   6.315
 6894SOL    HW121581   6.321   4.729   6.235
 6894SOL    HW221582   6.245   4.594   6.286
 6895SOL     OW21583   3.932   5.670   6.290
 6895SOL    HW121584   3.884   5.659   6.378
 6895SOL    HW221585   3.965   5.764   6.282
 6896SOL     OW21586   4.541   0.267   2.911
 6896SOL    HW121587   4.528   0.242   2.815
 6896SOL    HW221588   4.508   0.361   2.926
 6897SOL     OW21589   3.245   2.150   0.556
 6897SOL    HW121590   3.169   2.206   0.522
 6897SOL    HW221591   3.329   2.204   0.555
 6898SOL     OW21592   4.004   2.134   2.303
 6898SOL    HW121593   3.998   2.119   2.205
 6898SOL    HW221594   4.076   2.077   2.342
 6899SOL     OW21595   5.228   6.426   6.808
 6899SOL    HW121596   5.185   6.339   6.834
 6899SOL    HW221597   5.324   6.409   6.784
 6900SOL     OW21598   3.967   1.065   5.414
 6900SOL    HW121599   4.014   0.995   5.468
 6900SOL    HW221600   3.951   1.146   5.470
 6901SOL     OW21601   1.560   0.706   7.025
 6901SOL    HW121602   1.635   0.669   0.055
 6901SOL    HW221603   1.490   0.743   0.060
 6902SOL     OW21604   6.467   5.508   0.693
 6902SOL    HW121605   6.541   5.574   0.706
 6902SOL    HW221606   6.453   5.491   0.595
 6903SOL     OW21607   4.871   3.497   1.101
 6903SOL    HW121608   4.915   3.565   1.042
 6903SOL    HW221609   4.940   3.435   1.138
 6904SOL     OW21610   0.424   1.522   3.017
 6904SOL    HW121611   0.420   1.572   2.931
 6904SOL    HW221612   0.513   1.478   3.027
 6905SOL     OW21613   5.231   6.091   0.421
 6905SOL    HW121614   5.166   6.084   0.346
 6905SOL    HW221615   5.324   6.099   0.383
 6906SOL     OW21616   4.446   6.756   3.837
 6906SOL    HW121617   4.415   6.822   3.905
 6906SOL    HW221618   4.382   6.679   3.835
 6907SOL     OW21619   3.676   1.918   1.468
 6907SOL    HW121620   3.701   1.900   1.563
 6907SOL    HW221621   3.587   1.876   1.449
 6908SOL     OW21622   0.892   6.870   6.167
 6908SOL    HW121623   0.975   6.843   6.118
 6908SOL    HW221624   0.903   6.849   6.264
 6909SOL     OW21625   4.333   3.557   7.009
 6909SOL    HW121626   4.324   3.522   0.077
 6909SOL    HW221627   4.361   3.653   7.012
 6910SOL     OW21628   6.952   1.352   2.430
 6910SOL    HW121629   6.887   1.317   2.498
 6910SOL    HW221630   0.004   1.288   2.423
 6911SOL     OW21631   4.024   1.187   4.787
 6911SOL    HW121632   4.090   1.159   4.718
 6911SOL    HW221633   3.931   1.176   4.751
 6912SOL     OW21634   4.940   5.713   0.853
 6912SOL    HW121635   4.910   5.637   0.911
 6912SOL    HW221636   4.986   5.677   0.772
 6913SOL     OW21637   5.612   5.025   5.485
 6913SOL    HW121638   5.686   4.993   5.425
 6913SOL    HW221639   5.613   4.972   5.569
 6914SOL     OW21640   5.736   5.359   0.527
 6914SOL    HW121641   5.691   5.310   0.453
 6914SOL    HW221642   5.821   5.399   0.493
 6915SOL     OW21643   0.759   5.533   1.133
 6915SOL    HW121644   0.839   5.482   1.166
 6915SOL    HW221645   0.789   5.620   1.095
 6916SOL     OW21646   6.701   1.353   6.811
 6916SOL    HW121647   6.663   1.406   6.735
 6916SOL    HW221648   6.800   1.364   6.814
 6917SOL     OW21649   4.451   6.276   6.262
 6917SOL    HW121650   4.367   6.320   6.230
 6917SOL    HW221651   4.506   6.343   6.312
 6918SOL     OW21652   2.010   2.837   3.452
 6918SOL    HW121653   1.926   2.883   3.426
 6918SOL    HW221654   2.088   2.897   3.435
 6919SOL     OW21655   1.856   6.261   3.283
 6919SOL    HW121656   1.940   6.209   3.264
 6919SOL    HW221657   1.833   6.317   3.203
 6920SOL     OW21658   5.288   5.785   4.965
 6920SOL    HW121659   5.192   5.757   4.961
 6920SOL    HW221660   5.294   5.883   4.942
 6921SOL     OW21661   0.501   7.014   3.018
 6921SOL    HW121662   0.447   0.068   2.988
 6921SOL    HW221663   0.595   7.025   2.987
 6922SOL     OW21664   2.104   6.069   0.402
 6922SOL    HW121665   2.010   6.037   0.394
 6922SOL    HW221666   2.167   5.996   0.375
 6923SOL     OW21667   4.732   6.996   4.222
 6923SOL    HW121668   4.827   6.966   4.217
 6923SOL    HW221669   4.673   6.915   4.226
 6924SOL     OW21670   0.281   5.709   1.184
 6924SOL    HW121671   0.377   5.735   1.179
 6924SOL    HW221672   0.242   5.705   1.092
 6925SOL     OW21673   5.349   6.374   2.217
 6925SOL    HW121674   5.253   6.398   2.207
 6925SOL    HW221675   5.385   6.343   2.129
 6926SOL     OW21676   2.869   3.484   5.019
 6926SOL    HW121677   2.966   3.463   5.028
 6926SOL    HW221678   2.819   3.443   5.096
 6927SOL     OW21679   4.342   3.758   5.864
 6927SOL    HW121680   4.379   3.773   5.772
 6927SOL    HW221681   4.363   3.837   5.921
 6928SOL     OW21682   5.504   0.547   6.500
 6928SOL    HW121683   5.546   0.456   6.501
 6928SOL    HW221684   5.511   0.588   6.591
 6929SOL     OW21685   3.346   5.032   0.622
 6929SOL    HW121686   3.308   5.011   0.532
 6929SOL    HW221687   3.425   4.974   0.640
 6930SOL     OW21688   0.880   6.266   3.333
 6930SOL    HW121689   0.782   6.255   3.349
 6930SOL    HW221690   0.905   6.362   3.345
 6931SOL     OW21691   1.575   1.115   1.298
 6931SOL    HW121692   1.653   1.154   1.250
 6931SOL    HW221693   1.600   1.093   1.392
 6932SOL     OW21694   2.607   2.926   0.687
 6932SOL    HW121695   2.582   2.829   0.684
 6932SOL    HW221696   2.555   2.976   0.618
 6933SOL     OW21697   3.647   6.755   6.609
 6933SOL    HW121698   3.619   6.831   6.550
 6933SOL    HW221699   3.726   6.783   6.664
 6934SOL     OW21700   5.369   3.642   6.539
 6934SOL    HW121701   5.376   3.675   6.633
 6934SOL    HW221702   5.296   3.574   6.533
 6935SOL     OW21703   4.566   5.113   3.387
 6935SOL    HW121704   4.500   5.102   3.462
 6935SOL    HW221705   4.599   5.207   3.385
 6936SOL     OW21706   1.185   4.368   0.940
 6936SOL    HW121707   1.132   4.292   0.979
 6936SOL    HW221708   1.258   4.331   0.883
 6937SOL     OW21709   4.469   0.197   5.584
 6937SOL    HW121710   4.459   0.297   5.584
 6937SOL    HW221711   4.535   0.170   5.654
 6938SOL     OW21712   4.617   2.414   5.277
 6938SOL    HW121713   4.627   2.320   5.308
 6938SOL    HW221714   4.629   2.477   5.354
 6939SOL     OW21715   1.300   4.053   2.739
 6939SOL    HW121716   1.250   4.017   2.817
 6939SOL    HW221717   1.242   4.048   2.657
 6940SOL     OW21718   4.686   0.757   4.683
 6940SOL    HW121719   4.624   0.831   4.709
 6940SOL    HW221720   4.645   0.704   4.609
 6941SOL     OW21721   3.845   3.021   3.135
 6941SOL    HW121722   3.746   3.014   3.147
 6941SOL    HW221723   3.868   3.005   3.038
 6942SOL     OW21724   6.695   2.054   0.245
 6942SOL    HW121725   6.776   2.095   0.285
 6942SOL    HW221726   6.702   2.057   0.145
 6943SOL     OW21727   4.854   6.407   6.275
 6943SOL    HW121728   4.813   6.340   6.336
 6943SOL    HW221729   4.783   6.451   6.221
 6944SOL     OW21730   1.871   6.091   5.883
 6944SOL    HW121731   1.793   6.148   5.859
 6944SOL    HW221732   1.939   6.146   5.933
 6945SOL     OW21733   5.562   3.095   5.816
 6945SOL    HW121734   5.498   3.079   5.891
 6945SOL    HW221735   5.520   3.155   5.748
 6946SOL     OW21736   5.727   4.456   3.057
 6946SOL    HW121737   5.728   4.372   3.110
 6946SOL    HW221738   5.745   4.534   3.117
 6947SOL     OW21739   3.859   6.512   2.744
 6947SOL    HW121740   3.841   6.433   2.685
 6947SOL    HW221741   3.783   6.577   2.738
 6948SOL     OW21742   4.237   1.912   5.488
 6948SOL    HW121743   4.281   1.856   5.419
 6948SOL    HW221744   4.178   1.980   5.444
 6949SOL     OW21745   5.249   0.369   2.683
 6949SOL    HW121746   5.233   0.271   2.689
 6949SOL    HW221747   5.185   0.417   2.743
 6950SOL     OW21748   1.627   0.476   3.051
 6950SOL    HW121749   1.635   0.483   3.150
 6950SOL    HW221750   1.563   0.546   3.018
 6951SOL     OW21751   6.257   5.233   5.908
 6951SOL    HW121752   6.321   5.303   5.941
 6951SOL    HW221753   6.255   5.158   5.974
 6952SOL     OW21754   0.305   4.766   4.421
 6952SOL    HW121755   0.262   4.856   4.413
 6952SOL    HW221756   0.266   4.704   4.353
 6953SOL     OW21757   5.093   1.305   5.158
 6953SOL    HW121758   5.167   1.361   5.194
 6953SOL    HW221759   5.128   1.242   5.089
 6954SOL     OW21760   0.732   4.443   3.211
 6954SOL    HW121761   0.734   4.478   3.305
 6954SOL    HW221762   0.815   4.388   3.195
 6955SOL     OW21763   6.940   5.630   1.819
 6955SOL    HW121764   0.013   5.631   1.837
 6955SOL    HW221765   6.911   5.721   1.789
 6956SOL     OW21766   3.336   4.776   1.750
 6956SOL    HW121767   3.400   4.703   1.776
 6956SOL    HW221768   3.264   4.783   1.819
 6957SOL     OW21769   0.486   4.764   0.558
 6957SOL    HW121770   0.554   4.714   0.503
 6957SOL    HW221771   0.443   4.701   0.622
 6958SOL     OW21772   2.752   3.928   6.397
 6958SOL    HW121773   2.717   3.851   6.450
 6958SOL    HW221774   2.727   4.014   6.442
 6959SOL     OW21775   2.614   1.068   4.195
 6959SOL    HW121776   2.636   1.137   4.126
 6959SOL    HW221777   2.696   1.044   4.246
 6960SOL     OW21778   0.196   5.081   6.750
 6960SOL    HW121779   0.137   5.040   6.681
 6960SOL    HW221780   0.150   5.078   6.839
 6961SOL     OW21781   0.285   1.122   2.789
 6961SOL    HW121782   0.293   1.221   2.782
 6961SOL    HW221783   0.240   1.086   2.707
 6962SOL     OW21784   4.423   4.042   0.919
 6962SOL    HW121785   4.342   3.989   0.943
 6962SOL    HW221786   4.500   3.980   0.905
 6963SOL     OW21787   0.050   5.316   1.479
 6963SOL    HW121788   0.057   5.293   1.382
 6963SOL    HW221789   7.013   5.393   1.491
 6964SOL     OW21790   3.907   5.989   5.144
 6964SOL    HW121791   3.832   6.045   5.181
 6964SOL    HW221792   3.993   6.038   5.155
 6965SOL     OW21793   6.895   2.549   5.846
 6965SOL    HW121794   6.901   2.525   5.943
 6965SOL    HW221795   6.811   2.510   5.808
 6966SOL     OW21796   4.682   2.674   4.046
 6966SOL    HW121797   4.748   2.670   4.121
 6966SOL    HW221798   4.591   2.654   4.080
 6967SOL     OW21799   2.395   0.724   6.044
 6967SOL    HW121800   2.449   0.807   6.051
 6967SOL    HW221801   2.308   0.743   5.998
 6968SOL     OW21802   5.001   6.528   2.458
 6968SOL    HW121803   5.073   6.554   2.522
 6968SOL    HW221804   4.990   6.429   2.458
 6969SOL     OW21805   3.340   2.020   1.196
 6969SOL    HW121806   3.318   1.975   1.109
 6969SOL    HW221807   3.385   2.108   1.176
 6970SOL     OW21808   4.977   4.738   0.319
 6970SOL    HW121809   4.989   4.788   0.406
 6970SOL    HW221810   4.965   4.641   0.338
 6971SOL     OW21811   5.011   0.779   1.977
 6971SOL    HW121812   4.952   0.838   1.923
 6971SOL    HW221813   4.962   0.694   1.999
 6972SOL     OW21814   5.889   4.951   4.484
 6972SOL    HW121815   5.851   5.041   4.461
 6972SOL    HW221816   5.930   4.955   4.575
 6973SOL     OW21817   1.896   4.991   2.996
 6973SOL    HW121818   1.931   4.965   3.086
 6973SOL    HW221819   1.877   4.909   2.942
 6974SOL     OW21820   3.092   4.039   4.419
 6974SOL    HW121821   3.021   4.068   4.355
 6974SOL    HW221822   3.049   3.996   4.499
 6975SOL     OW21823   3.782   1.081   5.711
 6975SOL    HW121824   3.847   1.156   5.725
 6975SOL    HW221825   3.802   1.007   5.776
 6976SOL     OW21826   2.201   4.853   6.333
 6976SOL    HW121827   2.298   4.875   6.344
 6976SOL    HW221828   2.148   4.938   6.327
 6977SOL     OW21829   3.850   2.172   2.537
 6977SOL    HW121830   3.886   2.169   2.443
 6977SOL    HW221831   3.912   2.225   2.594
 6978SOL     OW21832   6.360   0.263   2.714
 6978SOL    HW121833   6.356   0.231   2.809
 6978SOL    HW221834   6.339   0.186   2.653
 6979SOL     OW21835   0.362   4.809   2.746
 6979SOL    HW121836   0.452   4.768   2.735
 6979SOL    HW221837   0.370   4.895   2.797
 6980SOL     OW21838   3.375   1.069   4.435
 6980SOL    HW121839   3.392   0.971   4.425
 6980SOL    HW221840   3.348   1.107   4.347
 6981SOL     OW21841   2.555   5.284   0.189
 6981SOL    HW121842   2.526   5.189   0.178
 6981SOL    HW221843   2.488   5.344   0.146
 6982SOL     OW21844   0.439   0.151   4.789
 6982SOL    HW121845   0.370   0.105   4.733
 6982SOL    HW221846   0.408   0.152   4.884
 6983SOL     OW21847   6.743   0.723   4.400
 6983SOL    HW121848   6.684   0.756   4.327
 6983SOL    HW221849   6.765   0.798   4.462
 6984SOL     OW21850   1.525   1.028   6.433
 6984SOL    HW121851   1.488   0.941   6.399
 6984SOL    HW221852   1.623   1.017   6.451
 6985SOL     OW21853   5.385   5.818   1.962
 6985SOL    HW121854   5.287   5.817   1.941
 6985SOL    HW221855   5.432   5.879   1.899
 6986SOL     OW21856   2.323   6.842   5.251
 6986SOL    HW121857   2.375   6.928   5.255
 6986SOL    HW221858   2.226   6.862   5.259
 6987SOL     OW21859   0.242   3.672   6.138
 6987SOL    HW121860   0.303   3.750   6.123
 6987SOL    HW221861   0.276   3.618   6.216
 6988SOL     OW21862   5.510   0.818   4.210
 6988SOL    HW121863   5.588   0.878   4.225
 6988SOL    HW221864   5.444   0.829   4.284
 6989SOL     OW21865   1.406   2.337   4.321
 6989SOL    HW121866   1.400   2.290   4.233
 6989SOL    HW221867   1.410   2.436   4.306
 6990SOL     OW21868   3.713   3.404   0.364
 6990SOL    HW121869   3.712   3.387   0.463
 6990SOL    HW221870   3.753   3.494   0.347
 6991SOL     OW21871   3.836   4.570   5.320
 6991SOL    HW121872   3.879   4.480   5.326
 6991SOL    HW221873   3.745   4.566   5.360
 6992SOL     OW21874   5.448   6.436   4.573
 6992SOL    HW121875   5.403   6.411   4.658
 6992SOL    HW221876   5.504   6.518   4.587
 6993SOL     OW21877   0.303   0.197   3.033
 6993SOL    HW121878   0.261   0.161   3.116
 6993SOL    HW221879   0.264   0.287   3.012
 6994SOL     OW21880   1.260   2.951   6.220
 6994SOL    HW121881   1.250   2.996   6.309
 6994SOL    HW221882   1.341   2.892   6.222
 6995SOL     OW21883   6.895   5.685   3.136
 6995SOL    HW121884   6.853   5.695   3.226
 6995SOL    HW221885   6.895   5.589   3.109
 6996SOL     OW21886   2.597   6.754   5.683
 6996SOL    HW121887   2.503   6.748   5.716
 6996SOL    HW221888   2.646   6.824   5.736
 6997SOL     OW21889   5.032   0.299   4.981
 6997SOL    HW121890   5.051   0.397   4.986
 6997SOL    HW221891   5.070   0.262   4.896
 6998SOL     OW21892   0.849   2.670   3.198
 6998SOL    HW121893   0.749   2.670   3.196
 6998SOL    HW221894   0.883   2.590   3.149
 6999SOL     OW21895   3.166   1.700   5.873
 6999SOL    HW121896   3.153   1.696   5.972
 6999SOL    HW221897   3.222   1.779   5.850
 7000SOL     OW21898   0.350   6.585   2.628
 7000SOL    HW121899   0.357   6.622   2.535
 7000SOL    HW221900   0.285   6.640   2.680
 7001SOL     OW21901   2.596   2.801   5.783
 7001SOL    HW121902   2.557   2.742   5.712
 7001SOL    HW221903   2.680   2.761   5.817
 7002SOL     OW21904   1.376   5.105   3.283
 7002SOL    HW121905   1.463   5.084   3.239
 7002SOL    HW221906   1.352   5.031   3.346
 7003SOL     OW21907   2.201   5.882   0.817
 7003SOL    HW121908   2.293   5.919   0.803
 7003SOL    HW221909   2.183   5.810   0.750
 7004SOL     OW21910   1.385   4.243   0.812
 7004SOL    HW121911   1.382   4.188   0.728
 7004SOL    HW221912   1.472   4.226   0.859
 7005SOL     OW21913   5.155   6.127   5.584
 7005SOL    HW121914   5.138   6.212   5.634
 7005SOL    HW221915   5.232   6.079   5.626
 7006SOL     OW21916   4.249   4.740   4.682
 7006SOL    HW121917   4.281   4.716   4.774
 7006SOL    HW221918   4.311   4.701   4.614
 7007SOL     OW21919   5.156   4.848   2.756
 7007SOL    HW121920   5.198   4.772   2.805
 7007SOL    HW221921   5.197   4.855   2.664
 7008SOL     OW21922   1.017   5.260   3.819
 7008SOL    HW121923   0.979   5.208   3.895
 7008SOL    HW221924   1.006   5.208   3.734
 7009SOL     OW21925   0.761   4.446   2.282
 7009SOL    HW121926   0.784   4.542   2.268
 7009SOL    HW221927   0.704   4.414   2.207
 7010SOL     OW21928   3.659   5.092   6.130
 7010SOL    HW121929   3.638   4.999   6.098
 7010SOL    HW221930   3.597   5.116   6.205
 7011SOL     OW21931   2.942   0.975   5.075
 7011SOL    HW121932   2.850   0.976   5.115
 7011SOL    HW221933   2.966   1.067   5.045
 7012SOL     OW21934   0.924   0.780   2.231
 7012SOL    HW121935   0.967   0.745   2.148
 7012SOL    HW221936   0.898   0.876   2.217
 7013SOL     OW21937   0.701   0.632   2.289
 7013SOL    HW121938   0.788   0.669   2.256
 7013SOL    HW221939   0.626   0.678   2.242
 7014SOL     OW21940   2.170   4.455   1.756
 7014SOL    HW121941   2.227   4.419   1.683
 7014SOL    HW221942   2.202   4.547   1.781
 7015SOL     OW21943   5.614   2.909   2.503
 7015SOL    HW121944   5.669   2.937   2.581
 7015SOL    HW221945   5.626   2.974   2.428
 7016SOL     OW21946   3.710   5.238   1.389
 7016SOL    HW121947   3.696   5.263   1.484
 7016SOL    HW221948   3.806   5.213   1.374
 7017SOL     OW21949   3.326   1.109   3.581
 7017SOL    HW121950   3.425   1.104   3.569
 7017SOL    HW221951   3.286   1.018   3.571
 7018SOL     OW21952   0.678   4.873   4.443
 7018SOL    HW121953   0.600   4.823   4.479
 7018SOL    HW221954   0.761   4.819   4.456
 7019SOL     OW21955   2.243   5.804   0.037
 7019SOL    HW121956   2.312   5.874   0.056
 7019SOL    HW221957   2.161   5.848   7.024
 7020SOL     OW21958   6.308   6.419   6.338
 7020SOL    HW121959   6.366   6.396   6.260
 7020SOL    HW221960   6.212   6.406   6.312
 7021SOL     OW21961   2.562   1.220   6.115
 7021SOL    HW121962   2.578   1.289   6.044
 7021SOL    HW221963   2.490   1.252   6.177
 7022SOL     OW21964   5.275   4.754   0.284
 7022SOL    HW121965   5.309   4.837   0.240
 7022SOL    HW221966   5.178   4.766   0.307
 7023SOL     OW21967   6.470   3.719   2.497
 7023SOL    HW121968   6.492   3.642   2.557
 7023SOL    HW221969   6.473   3.689   2.402
 7024SOL     OW21970   0.585   6.003   0.765
 7024SOL    HW121971   0.539   6.006   0.853
 7024SOL    HW221972   0.562   6.085   0.713
 7025SOL     OW21973   2.385   1.389   6.306
 7025SOL    HW121974   2.354   1.458   6.240
 7025SOL    HW221975   2.306   1.354   6.357
 7026SOL     OW21976   4.334   1.907   0.973
 7026SOL    HW121977   4.353   1.949   0.884
 7026SOL    HW221978   4.358   1.810   0.969
 7027SOL     OW21979   4.594   6.747   4.190
 7027SOL    HW121980   4.509   6.779   4.150
 7027SOL    HW221981   4.577   6.664   4.243
 7028SOL     OW21982   3.852   0.521   4.467
 7028SOL    HW121983   3.951   0.503   4.471
 7028SOL    HW221984   3.837   0.620   4.469
 7029SOL     OW21985   3.987   0.501   6.011
 7029SOL    HW121986   4.006   0.448   5.928
 7029SOL    HW221987   4.019   0.450   6.091
 7030SOL     OW21988   1.654   3.224   4.340
 7030SOL    HW121989   1.636   3.322   4.347
 7030SOL    HW221990   1.570   3.177   4.313
 7031SOL     OW21991   2.524   6.002   4.217
 7031SOL    HW121992   2.530   6.074   4.285
 7031SOL    HW221993   2.472   6.034   4.138
 7032SOL     OW21994   6.030   1.999   2.256
 7032SOL    HW121995   6.035   2.078   2.318
 7032SOL    HW221996   5.960   1.936   2.290
 7033SOL     OW21997   6.701   0.744   3.742
 7033SOL    HW121998   6.638   0.792   3.681
 7033SOL    HW221999   6.649   0.694   3.811
 7034SOL     OW22000   6.120   6.220   2.998
 7034SOL    HW122001   6.047   6.284   3.023
 7034SOL    HW222002   6.186   6.267   2.939
 7035SOL     OW22003   6.224   5.768   1.381
 7035SOL    HW122004   6.228   5.683   1.435
 7035SOL    HW222005   6.315   5.791   1.348
 7036SOL     OW22006   6.758   4.771   1.794
 7036SOL    HW122007   6.753   4.672   1.801
 7036SOL    HW222008   6.699   4.802   1.719
 7037SOL     OW22009   1.281   6.473   6.421
 7037SOL    HW122010   1.306   6.568   6.438
 7037SOL    HW222011   1.337   6.413   6.477
 7038SOL     OW22012   0.683   4.192   4.478
 7038SOL    HW122013   0.677   4.172   4.576
 7038SOL    HW222014   0.624   4.270   4.456
 7039SOL     OW22015   4.038   1.309   0.270
 7039SOL    HW122016   4.063   1.233   0.330
 7039SOL    HW222017   3.982   1.374   0.321
 7040SOL     OW22018   4.933   2.639   6.140
 7040SOL    HW122019   4.900   2.587   6.060
 7040SOL    HW222020   4.892   2.730   6.139
 7041SOL     OW22021   2.037   2.315   2.238
 7041SOL    HW122022   2.113   2.259   2.205
 7041SOL    HW222023   1.990   2.357   2.160
 7042SOL     OW22024   2.651   6.782   6.890
 7042SOL    HW122025   2.664   6.730   6.806
 7042SOL    HW222026   2.614   6.723   6.961
 7043SOL     OW22027   1.936   1.857   2.741
 7043SOL    HW122028   1.858   1.917   2.723
 7043SOL    HW222029   2.020   1.901   2.710
 7044SOL     OW22030   4.812   5.313   2.608
 7044SOL    HW122031   4.769   5.240   2.662
 7044SOL    HW222032   4.868   5.272   2.536
 7045SOL     OW22033   5.338   5.620   1.254
 7045SOL    HW122034   5.331   5.571   1.167
 7045SOL    HW222035   5.268   5.692   1.257
 7046SOL     OW22036   3.710   0.725   4.911
 7046SOL    HW122037   3.636   0.770   4.961
 7046SOL    HW222038   3.711   0.628   4.934
 7047SOL     OW22039   1.728   1.017   4.627
 7047SOL    HW122040   1.746   0.947   4.696
 7047SOL    HW222041   1.632   1.046   4.632
 7048SOL     OW22042   6.757   6.209   0.169
 7048SOL    HW122043   6.658   6.215   0.174
 7048SOL    HW222044   6.783   6.129   0.114
 7049SOL     OW22045   2.282   1.277   0.732
 7049SOL    HW122046   2.193   1.317   0.710
 7049SOL    HW222047   2.271   1.181   0.758
 7050SOL     OW22048   3.924   3.647   4.659
 7050SOL    HW122049   3.976   3.562   4.652
 7050SOL    HW222050   3.868   3.659   4.577
 7051SOL     OW22051   6.751   6.334   1.965
 7051SOL    HW122052   6.828   6.334   2.028
 7051SOL    HW222053   6.679   6.394   2.000
 7052SOL     OW22054   6.813   1.994   3.141
 7052SOL    HW122055   6.753   2.073   3.132
 7052SOL    HW222056   6.818   1.967   3.237
 7053SOL     OW22057   0.411   4.975   6.585
 7053SOL    HW122058   0.340   4.924   6.535
 7053SOL    HW222059   0.368   5.037   6.649
 7054SOL     OW22060   0.010   6.670   1.915
 7054SOL    HW122061   0.049   6.743   1.971
 7054SOL    HW222062   0.083   6.616   1.874
 7055SOL     OW22063   3.752   0.073   4.999
 7055SOL    HW122064   3.736   0.144   5.067
 7055SOL    HW222065   3.831   0.018   5.027
 7056SOL     OW22066   5.453   5.195   4.064
 7056SOL    HW122067   5.407   5.273   4.022
 7056SOL    HW222068   5.415   5.178   4.155
 7057SOL     OW22069   0.372   5.595   3.234
 7057SOL    HW122070   0.451   5.590   3.172
 7057SOL    HW222071   0.395   5.651   3.313
 7058SOL     OW22072   0.870   5.633   5.356
 7058SOL    HW122073   0.862   5.657   5.453
 7058SOL    HW222074   0.946   5.684   5.315
 7059SOL     OW22075   1.358   0.340   2.060
 7059SOL    HW122076   1.319   0.325   1.969
 7059SOL    HW222077   1.307   0.285   2.127
 7060SOL     OW22078   3.252   6.395   1.082
 7060SOL    HW122079   3.309   6.390   1.165
 7060SOL    HW222080   3.279   6.321   1.020
 7061SOL     OW22081   0.565   1.020   2.584
 7061SOL    HW122082   0.641   0.974   2.538
 7061SOL    HW222083   0.478   0.984   2.551
 7062SOL     OW22084   5.415   2.331   4.803
 7062SOL    HW122085   5.428   2.367   4.711
 7062SOL    HW222086   5.372   2.240   4.797
 7063SOL     OW22087   3.809   6.589   0.945
 7063SOL    HW122088   3.808   6.562   0.848
 7063SOL    HW222089   3.786   6.686   0.952
 7064SOL     OW22090   3.689   2.427   0.653
 7064SOL    HW122091   3.776   2.412   0.606
 7064SOL    HW222092   3.682   2.523   0.681
 7065SOL     OW22093   4.639   3.590   1.235
 7065SOL    HW122094   4.730   3.585   1.194
 7065SOL    HW222095   4.632   3.521   1.308
 7066SOL     OW22096   3.543   6.749   0.870
 7066SOL    HW122097   3.447   6.721   0.857
 7066SOL    HW222098   3.553   6.795   0.958
 7067SOL     OW22099   0.060   3.954   5.471
 7067SOL    HW122100   7.006   4.011   5.492
 7067SOL    HW222101   0.042   3.900   5.389
 7068SOL     OW22102   1.567   1.022   3.778
 7068SOL    HW122103   1.625   1.036   3.858
 7068SOL    HW222104   1.605   0.949   3.721
 7069SOL     OW22105   1.346   4.810   4.643
 7069SOL    HW122106   1.311   4.721   4.615
 7069SOL    HW222107   1.283   4.851   4.709
 7070SOL     OW22108   5.983   5.517   4.631
 7070SOL    HW122109   6.024   5.497   4.720
 7070SOL    HW222110   6.005   5.611   4.605
 7071SOL     OW22111   1.745   6.254   5.655
 7071SOL    HW122112   1.807   6.180   5.631
 7071SOL    HW222113   1.653   6.233   5.622
 7072SOL     OW22114   0.663   6.559   6.608
 7072SOL    HW122115   0.636   6.479   6.554
 7072SOL    HW222116   0.593   6.576   6.678
 7073SOL     OW22117   1.047   0.567   5.809
 7073SOL    HW122118   1.057   0.663   5.833
 7073SOL    HW222119   0.950   0.540   5.816
 7074SOL     OW22120   3.418   1.814   1.391
 7074SOL    HW122121   3.402   1.867   1.308
 7074SOL    HW222122   3.354   1.844   1.462
 7075SOL     OW22123   1.856   6.373   3.007
 7075SOL    HW122124   1.842   6.466   2.972
 7075SOL    HW222125   1.770   6.323   3.005
 7076SOL     OW22126   2.797   2.564   6.541
 7076SOL    HW122127   2.867   2.503   6.579
 7076SOL    HW222128   2.791   2.550   6.442
 7077SOL     OW22129   2.591   5.677   5.726
 7077SOL    HW122130   2.596   5.723   5.637
 7077SOL    HW222131   2.683   5.650   5.755
 7078SOL     OW22132   6.005   1.007   3.572
 7078SOL    HW122133   6.043   0.915   3.566
 7078SOL    HW222134   5.931   1.009   3.640
 7079SOL     OW22135   6.056   6.124   6.026
 7079SOL    HW122136   6.075   6.135   5.928
 7079SOL    HW222137   5.969   6.168   6.048
 7080SOL     OW22138   4.673   1.384   3.884
 7080SOL    HW122139   4.616   1.428   3.952
 7080SOL    HW222140   4.660   1.428   3.795
 7081SOL     OW22141   3.759   1.170   4.742
 7081SOL    HW122142   3.707   1.124   4.670
 7081SOL    HW222143   3.763   1.112   4.824
 7082SOL     OW22144   5.079   0.954   6.021
 7082SOL    HW122145   5.003   1.001   6.067
 7082SOL    HW222146   5.158   0.954   6.082
 7083SOL     OW22147   3.281   7.005   6.764
 7083SOL    HW122148   3.361   0.008   6.818
 7083SOL    HW222149   3.303   6.924   6.711
 7084SOL     OW22150   6.733   6.530   5.901
 7084SOL    HW122151   6.726   6.514   5.803
 7084SOL    HW222152   6.772   6.450   5.946
 7085SOL     OW22153   2.586   2.269   1.481
 7085SOL    HW122154   2.661   2.202   1.476
 7085SOL    HW222155   2.549   2.272   1.574
 7086SOL     OW22156   5.969   0.194   6.447
 7086SOL    HW122157   6.010   0.178   6.537
 7086SOL    HW222158   5.932   0.286   6.442
 7087SOL     OW22159   1.427   3.379   3.625
 7087SOL    HW122160   1.478   3.295   3.645
 7087SOL    HW222161   1.377   3.368   3.539
 7088SOL     OW22162   6.086   2.967   5.370
 7088SOL    HW122163   6.176   2.957   5.412
 7088SOL    HW222164   6.084   2.919   5.283
 7089SOL     OW22165   2.713   1.482   0.369
 7089SOL    HW122166   2.744   1.494   0.275
 7089SOL    HW222167   2.643   1.550   0.390
 7090SOL     OW22168   2.631   2.208   4.972
 7090SOL    HW122169   2.557   2.270   4.996
 7090SOL    HW222170   2.717   2.259   4.964
 7091SOL     OW22171   6.988   6.285   6.840
 7091SOL    HW122172   0.023   6.335   6.902
 7091SOL    HW222173   6.900   6.332   6.834
 7092SOL     OW22174   3.443   3.719   1.089
 7092SOL    HW122175   3.345   3.734   1.078
 7092SOL    HW222176   3.462   3.621   1.092
 7093SOL     OW22177   3.328   3.940   4.650
 7093SOL    HW122178   3.230   3.926   4.634
 7093SOL    HW222179   3.343   4.031   4.689
 7094SOL     OW22180   0.818   0.420   5.623
 7094SOL    HW122181   0.785   0.361   5.697
 7094SOL    HW222182   0.800   0.376   5.535
 7095SOL     OW22183   0.507   3.379   6.706
 7095SOL    HW122184   0.410   3.400   6.714
 7095SOL    HW222185   0.531   3.370   6.609
 7096SOL     OW22186   4.579   2.385   3.372
 7096SOL    HW122187   4.578   2.481   3.343
 7096SOL    HW222188   4.620   2.329   3.300
 7097SOL     OW22189   0.223   0.745   1.672
 7097SOL    HW122190   0.292   0.687   1.629
 7097SOL    HW222191   0.132   0.715   1.642
 7098SOL     OW22192   1.858   6.536   5.943
 7098SOL    HW122193   1.824   6.598   5.872
 7098SOL    HW222194   1.890   6.588   6.021
 7099SOL     OW22195   0.714   1.163   6.249
 7099SOL    HW122196   0.638   1.187   6.309
 7099SOL    HW222197   0.769   1.091   6.291
 7100SOL     OW22198   5.688   3.388   1.153
 7100SOL    HW122199   5.774   3.435   1.168
 7100SOL    HW222200   5.669   3.383   1.055
 7101SOL     OW22201   3.073   0.602   5.412
 7101SOL    HW122202   3.131   0.547   5.472
 7101SOL    HW222203   3.034   0.543   5.341
 7102SOL     OW22204   4.251   1.429   1.053
 7102SOL    HW122205   4.268   1.493   0.978
 7102SOL    HW222206   4.338   1.404   1.096
 7103SOL     OW22207   3.527   6.792   6.867
 7103SOL    HW122208   3.562   6.783   6.774
 7103SOL    HW222209   3.588   6.744   6.930
 7104SOL     OW22210   0.935   2.038   2.884
 7104SOL    HW122211   0.999   2.061   2.958
 7104SOL    HW222212   0.939   2.108   2.813
 7105SOL     OW22213   3.458   3.463   4.933
 7105SOL    HW122214   3.393   3.526   4.891
 7105SOL    HW222215   3.506   3.412   4.861
 7106SOL     OW22216   3.133   2.827   5.319
 7106SOL    HW122217   3.183   2.861   5.239
 7106SOL    HW222218   3.180   2.747   5.356
 7107SOL     OW22219   2.672   2.157   0.419
 7107SOL    HW122220   2.736   2.201   0.482
 7107SOL    HW222221   2.663   2.061   0.443
 7108SOL     OW22222   5.189   7.020   1.713
 7108SOL    HW122223   5.216   0.088   1.737
 7108SOL    HW222224   5.219   6.957   1.785
 7109SOL     OW22225   3.536   6.953   6.445
 7109SOL    HW122226   3.631   6.972   6.422
 7109SOL    HW222227   3.478   0.003   6.412
 7110SOL     OW22228   4.841   5.089   3.577
 7110SOL    HW122229   4.819   5.182   3.605
 7110SOL    HW222230   4.758   5.041   3.549
 7111SOL     OW22231   2.284   2.850   4.139
 7111SOL    HW122232   2.251   2.880   4.229
 7111SOL    HW222233   2.247   2.911   4.069
 7112SOL     OW22234   0.812   6.531   3.317
 7112SOL    HW122235   0.765   6.574   3.239
 7112SOL    HW222236   0.787   6.579   3.401
 7113SOL     OW22237   4.114   3.468   4.228
 7113SOL    HW122238   4.153   3.489   4.318
 7113SOL    HW222239   4.121   3.549   4.169
 7114SOL     OW22240   3.949   0.984   1.545
 7114SOL    HW122241   4.001   0.945   1.470
 7114SOL    HW222242   3.951   1.084   1.539
 7115SOL     OW22243   4.875   1.504   1.249
 7115SOL    HW122244   4.948   1.529   1.314
 7115SOL    HW222245   4.818   1.584   1.231
 7116SOL     OW22246   5.354   4.111   3.049
 7116SOL    HW122247   5.348   4.207   3.078
 7116SOL    HW222248   5.316   4.052   3.119
 7117SOL     OW22249   6.296   6.883   1.945
 7117SOL    HW122250   6.236   6.922   2.015
 7117SOL    HW222251   6.359   6.818   1.986
 7118SOL     OW22252   6.006   2.913   0.877
 7118SOL    HW122253   6.015   3.013   0.880
 7118SOL    HW222254   6.004   2.877   0.970
 7119SOL     OW22255   6.884   1.772   3.451
 7119SOL    HW122256   6.931   1.726   3.526
 7119SOL    HW222257   6.907   1.727   3.365
 7120SOL     OW22258   5.008   1.292   3.417
 7120SOL    HW122259   5.091   1.247   3.451
 7120SOL    HW222260   4.993   1.266   3.322
 7121SOL     OW22261   3.214   6.836   3.340
 7121SOL    HW122262   3.298   6.782   3.346
 7121SOL    HW222263   3.231   6.921   3.291
 7122SOL     OW22264   6.116   0.956   6.838
 7122SOL    HW122265   6.138   1.034   6.896
 7122SOL    HW222266   6.079   0.988   6.751
 7123SOL     OW22267   2.809   5.171   1.116
 7123SOL    HW122268   2.869   5.243   1.151
 7123SOL    HW222269   2.723   5.171   1.168
 7124SOL     OW22270   0.360   4.995   0.552
 7124SOL    HW122271   0.408   4.907   0.557
 7124SOL    HW222272   0.393   5.055   0.624
 7125SOL     OW22273   5.957   6.425   2.412
 7125SOL    HW122274   5.905   6.431   2.326
 7125SOL    HW222275   6.039   6.369   2.398
 7126SOL     OW22276   1.183   4.634   0.456
 7126SOL    HW122277   1.206   4.600   0.365
 7126SOL    HW222278   1.224   4.575   0.525
 7127SOL     OW22279   3.930   6.241   4.567
 7127SOL    HW122280   3.952   6.197   4.479
 7127SOL    HW222281   4.007   6.232   4.629
 7128SOL     OW22282   3.279   3.835   1.355
 7128SOL    HW122283   3.216   3.762   1.384
 7128SOL    HW222284   3.331   3.804   1.276
 7129SOL     OW22285   2.428   0.027   1.855
 7129SOL    HW122286   2.491   0.013   1.932
 7129SOL    HW222287   2.478   0.019   1.769
 7130SOL     OW22288   2.144   4.369   3.416
 7130SOL    HW122289   2.083   4.449   3.417
 7130SOL    HW222290   2.091   4.288   3.443
 7131SOL     OW22291   2.430   0.688   3.087
 7131SOL    HW122292   2.334   0.666   3.103
 7131SOL    HW222293   2.440   0.786   3.075
 7132SOL     OW22294   3.618   4.153   3.275
 7132SOL    HW122295   3.691   4.165   3.343
 7132SOL    HW222296   3.646   4.084   3.208
 7133SOL     OW22297   5.276   5.122   2.841
 7133SOL    HW122298   5.319   5.050   2.896
 7133SOL    HW222299   5.186   5.142   2.878
 7134SOL     OW22300   5.810   4.532   4.515
 7134SOL    HW122301   5.727   4.476   4.517
 7134SOL    HW222302   5.861   4.519   4.599
 7135SOL     OW22303   1.159   1.970   4.725
 7135SOL    HW122304   1.068   1.938   4.700
 7135SOL    HW222305   1.151   2.055   4.777
 7136SOL     OW22306   2.174   1.115   0.332
 7136SOL    HW122307   2.089   1.062   0.324
 7136SOL    HW222308   2.194   1.159   0.245
 7137SOL     OW22309   4.513   0.567   4.530
 7137SOL    HW122310   4.601   0.527   4.555
 7137SOL    HW222311   4.486   0.534   4.439
 7138SOL     OW22312   2.392   3.970   1.163
 7138SOL    HW122313   2.470   4.024   1.134
 7138SOL    HW222314   2.394   3.881   1.117
 7139SOL     OW22315   3.849   2.821   1.425
 7139SOL    HW122316   3.842   2.831   1.326
 7139SOL    HW222317   3.844   2.911   1.468
 7140SOL     OW22318   6.131   3.892   5.038
 7140SOL    HW122319   6.046   3.854   5.074
 7140SOL    HW222320   6.170   3.955   5.106
 7141SOL     OW22321   2.871   6.814   0.687
 7141SOL    HW122322   2.873   6.743   0.617
 7141SOL    HW222323   2.777   6.846   0.699
 7142SOL     OW22324   4.025   6.174   4.324
 7142SOL    HW122325   3.997   6.098   4.265
 7142SOL    HW222326   4.125   6.180   4.324
 7143SOL     OW22327   1.601   4.173   5.578
 7143SOL    HW122328   1.611   4.110   5.501
 7143SOL    HW222329   1.655   4.255   5.561
 7144SOL     OW22330   0.757   2.279   3.516
 7144SOL    HW122331   0.810   2.338   3.455
 7144SOL    HW222332   0.667   2.319   3.531
 7145SOL     OW22333   4.588   6.896   6.707
 7145SOL    HW122334   4.684   6.885   6.679
 7145SOL    HW222335   4.530   6.838   6.650
 7146SOL     OW22336   3.311   5.266   0.350
 7146SOL    HW122337   3.267   5.179   0.376
 7146SOL    HW222338   3.299   5.282   0.252
 7147SOL     OW22339   0.414   0.478   3.144
 7147SOL    HW122340   0.373   0.387   3.145
 7147SOL    HW222341   0.438   0.505   3.237
 7148SOL     OW22342   0.749   1.010   1.726
 7148SOL    HW122343   0.773   1.106   1.742
 7148SOL    HW222344   0.801   0.952   1.789
 7149SOL     OW22345   6.242   1.606   3.385
 7149SOL    HW122346   6.250   1.691   3.436
 7149SOL    HW222347   6.333   1.573   3.359
 7150SOL     OW22348   6.369   2.823   0.085
 7150SOL    HW122349   6.389   2.823   0.183
 7150SOL    HW222350   6.366   2.918   0.052
 7151SOL     OW22351   2.860   6.049   1.950
 7151SOL    HW122352   2.845   5.984   1.875
 7151SOL    HW222353   2.777   6.055   2.006
 7152SOL     OW22354   1.254   2.772   3.759
 7152SOL    HW122355   1.243   2.783   3.858
 7152SOL    HW222356   1.341   2.814   3.732
 7153SOL     OW22357   3.812   1.565   3.909
 7153SOL    HW122358   3.855   1.477   3.927
 7153SOL    HW222359   3.760   1.594   3.989
 7154SOL     OW22360   4.601   5.223   3.685
 7154SOL    HW122361   4.545   5.151   3.726
 7154SOL    HW222362   4.545   5.304   3.668
 7155SOL     OW22363   2.373   0.075   1.226
 7155SOL    HW122364   2.423   0.150   1.184
 7155SOL    HW222365   2.340   0.013   1.155
 7156SOL     OW22366   6.927   5.672   4.824
 7156SOL    HW122367   6.925   5.584   4.777
 7156SOL    HW222368   6.962   5.742   4.761
 7157SOL     OW22369   4.837   4.658   1.016
 7157SOL    HW122370   4.882   4.641   0.929
 7157SOL    HW222371   4.760   4.596   1.026
 7158SOL     OW22372   6.517   6.783   3.203
 7158SOL    HW122373   6.433   6.773   3.257
 7158SOL    HW222374   6.588   6.723   3.239
 7159SOL     OW22375   0.986   5.401   0.391
 7159SOL    HW122376   1.031   5.315   0.415
 7159SOL    HW222377   0.891   5.382   0.363
 7160SOL     OW22378   5.909   0.195   1.964
 7160SOL    HW122379   5.892   0.224   1.870
 7160SOL    HW222380   5.830   0.218   2.021
 7161SOL     OW22381   3.469   3.207   4.082
 7161SOL    HW122382   3.561   3.236   4.054
 7161SOL    HW222383   3.444   3.124   4.034
 7162SOL     OW22384   3.403   5.004   3.531
 7162SOL    HW122385   3.373   5.099   3.537
 7162SOL    HW222386   3.356   4.958   3.455
 7163SOL     OW22387   2.645   0.273   3.470
 7163SOL    HW122388   2.715   0.266   3.541
 7163SOL    HW222389   2.682   0.323   3.391
 7164SOL     OW22390   2.202   1.009   2.951
 7164SOL    HW122391   2.260   1.061   3.015
 7164SOL    HW222392   2.163   1.072   2.884
 7165SOL     OW22393   5.110   1.149   1.001
 7165SOL    HW122394   5.132   1.244   0.978
 7165SOL    HW222395   5.169   1.118   1.075
 7166SOL     OW22396   5.315   4.802   1.019
 7166SOL    HW122397   5.283   4.752   1.100
 7166SOL    HW222398   5.356   4.888   1.047
 7167SOL     OW22399   4.876   3.263   5.115
 7167SOL    HW122400   4.841   3.351   5.082
 7167SOL    HW222401   4.825   3.189   5.072
 7168SOL     OW22402   1.121   0.337   3.654
 7168SOL    HW122403   1.109   0.420   3.600
 7168SOL    HW222404   1.193   0.281   3.614
 7169SOL     OW22405   1.336   2.308   5.112
 7169SOL    HW122406   1.280   2.331   5.192
 7169SOL    HW222407   1.433   2.317   5.135
 7170SOL     OW22408   6.422   4.961   4.225
 7170SOL    HW122409   6.344   4.933   4.282
 7170SOL    HW222410   6.503   4.909   4.252
 7171SOL     OW22411   4.398   3.330   5.485
 7171SOL    HW122412   4.417   3.400   5.416
 7171SOL    HW222413   4.483   3.283   5.508
 7172SOL     OW22414   1.191   6.796   0.387
 7172SOL    HW122415   1.146   6.739   0.318
 7172SOL    HW222416   1.135   6.800   0.469
 7173SOL     OW22417   6.872   6.295   5.875
 7173SOL    HW122418   6.922   6.344   5.946
 7173SOL    HW222419   6.935   6.235   5.825
 7174SOL     OW22420   1.614   5.218   0.266
 7174SOL    HW122421   1.624   5.288   0.194
 7174SOL    HW222422   1.681   5.146   0.251
 7175SOL     OW22423   6.445   3.817   6.169
 7175SOL    HW122424   6.424   3.725   6.137
 7175SOL    HW222425   6.392   3.837   6.251
 7176SOL     OW22426   6.053   4.136   0.900
 7176SOL    HW122427   6.060   4.079   0.983
 7176SOL    HW222428   5.978   4.201   0.911
 7177SOL     OW22429   0.737   5.380   2.113
 7177SOL    HW122430   0.789   5.295   2.106
 7177SOL    HW222431   0.768   5.431   2.193
 7178SOL     OW22432   0.888   2.686   5.249
 7178SOL    HW122433   0.984   2.705   5.233
 7178SOL    HW222434   0.873   2.668   5.347
 7179SOL     OW22435   2.686   3.710   5.768
 7179SOL    HW122436   2.768   3.658   5.792
 7179SOL    HW222437   2.709   3.782   5.703
 7180SOL     OW22438   0.111   5.871   1.939
 7180SOL    HW122439   0.145   5.873   1.845
 7180SOL    HW222440   0.176   5.820   1.996
 7181SOL     OW22441   5.227   0.652   1.519
 7181SOL    HW122442   5.267   0.562   1.533
 7181SOL    HW222443   5.163   0.673   1.593
 7182SOL     OW22444   2.663   4.260   5.552
 7182SOL    HW122445   2.601   4.193   5.592
 7182SOL    HW222446   2.752   4.253   5.596
 7183SOL     OW22447   1.412   5.496   2.555
 7183SOL    HW122448   1.451   5.415   2.600
 7183SOL    HW222449   1.368   5.554   2.624
 7184SOL     OW22450   2.438   6.392   4.382
 7184SOL    HW122451   2.341   6.405   4.399
 7184SOL    HW222452   2.486   6.478   4.397
 7185SOL     OW22453   4.737   2.547   0.002
 7185SOL    HW122454   4.788   2.481   6.971
 7185SOL    HW222455   4.733   2.514   0.097
 7186SOL     OW22456   0.199   6.220   5.442
 7186SOL    HW122457   0.176   6.211   5.345
 7186SOL    HW222458   0.282   6.275   5.453
 7187SOL     OW22459   2.053   4.161   1.822
 7187SOL    HW122460   2.119   4.236   1.823
 7187SOL    HW222461   2.089   4.083   1.873
 7188SOL     OW22462   5.187   2.065   2.158
 7188SOL    HW122463   5.225   2.046   2.067
 7188SOL    HW222464   5.222   1.998   2.223
 7189SOL     OW22465   6.816   1.279   5.322
 7189SOL    HW122466   6.846   1.339   5.247
 7189SOL    HW222467   6.741   1.221   5.290
 7190SOL     OW22468   5.356   4.328   3.543
 7190SOL    HW122469   5.424   4.383   3.494
 7190SOL    HW222470   5.402   4.250   3.587
 7191SOL     OW22471   1.751   3.494   1.988
 7191SOL    HW122472   1.832   3.438   1.972
 7191SOL    HW222473   1.777   3.590   1.990
 7192SOL     OW22474   2.848   4.259   6.039
 7192SOL    HW122475   2.874   4.322   5.966
 7192SOL    HW222476   2.748   4.260   6.051
 7193SOL     OW22477   4.135   2.255   3.558
 7193SOL    HW122478   4.036   2.236   3.555
 7193SOL    HW222479   4.183   2.176   3.596
 7194SOL     OW22480   2.579   1.577   1.979
 7194SOL    HW122481   2.562   1.604   1.884
 7194SOL    HW222482   2.674   1.548   1.989
 7195SOL     OW22483   1.104   5.566   1.057
 7195SOL    HW122484   1.093   5.556   0.958
 7195SOL    HW222485   1.072   5.482   1.102
 7196SOL     OW22486   3.180   3.378   2.456
 7196SOL    HW122487   3.098   3.335   2.416
 7196SOL    HW222488   3.153   3.434   2.534
 7197SOL     OW22489   6.696   1.818   6.066
 7197SOL    HW122490   6.687   1.918   6.057
 7197SOL    HW222491   6.699   1.777   5.975
 7198SOL     OW22492   0.989   6.364   6.639
 7198SOL    HW122493   0.900   6.331   6.670
 7198SOL    HW222494   0.983   6.391   6.543
 7199SOL     OW22495   5.910   6.623   2.761
 7199SOL    HW122496   6.008   6.638   2.756
 7199SOL    HW222497   5.864   6.676   2.690
 7200SOL     OW22498   1.836   1.146   1.148
 7200SOL    HW122499   1.883   1.189   1.225
 7200SOL    HW222500   1.901   1.130   1.074
 7201SOL     OW22501   1.877   4.230   3.828
 7201SOL    HW122502   1.970   4.193   3.827
 7201SOL    HW222503   1.822   4.180   3.895
 7202SOL     OW22504   3.801   0.832   6.774
 7202SOL    HW122505   3.723   0.792   6.823
 7202SOL    HW222506   3.880   0.772   6.783
 7203SOL     OW22507   5.240   1.238   0.369
 7203SOL    HW122508   5.143   1.217   0.358
 7203SOL    HW222509   5.251   1.334   0.395
 7204SOL     OW22510   5.988   1.577   3.529
 7204SOL    HW122511   6.076   1.610   3.494
 7204SOL    HW222512   5.971   1.617   3.619
 7205SOL     OW22513   2.366   4.851   2.362
 7205SOL    HW122514   2.434   4.847   2.435
 7205SOL    HW222515   2.341   4.758   2.335
 7206SOL     OW22516   6.186   1.002   1.701
 7206SOL    HW122517   6.146   0.916   1.669
 7206SOL    HW222518   6.220   1.054   1.622
 7207SOL     OW22519   3.676   6.862   1.763
 7207SOL    HW122520   3.740   6.787   1.751
 7207SOL    HW222521   3.714   6.928   1.828
 7208SOL     OW22522   3.234   0.281   5.887
 7208SOL    HW122523   3.238   0.275   5.787
 7208SOL    HW222524   3.325   0.297   5.923
 7209SOL     OW22525   3.834   3.450   4.256
 7209SOL    HW122526   3.934   3.452   4.254
 7209SOL    HW222527   3.802   3.476   4.347
 7210SOL     OW22528   4.673   1.553   4.211
 7210SOL    HW122529   4.771   1.569   4.215
 7210SOL    HW222530   4.625   1.641   4.204
 7211SOL     OW22531   1.610   5.273   3.443
 7211SOL    HW122532   1.550   5.207   3.397
 7211SOL    HW222533   1.705   5.250   3.426
 7212SOL     OW22534   6.110   6.421   4.131
 7212SOL    HW122535   6.063   6.470   4.057
 7212SOL    HW222536   6.092   6.466   4.218
 7213SOL     OW22537   5.883   0.886   5.446
 7213SOL    HW122538   5.942   0.962   5.416
 7213SOL    HW222539   5.787   0.913   5.437
 7214SOL     OW22540   1.954   5.082   4.737
 7214SOL    HW122541   1.961   5.169   4.688
 7214SOL    HW222542   2.040   5.032   4.728
 7215SOL     OW22543   1.131   3.674   3.798
 7215SOL    HW122544   1.032   3.683   3.789
 7215SOL    HW222545   1.159   3.710   3.887
 7216SOL     OW22546   2.750   0.142   1.011
 7216SOL    HW122547   2.783   0.054   1.045
 7216SOL    HW222548   2.819   0.181   0.949
 7217SOL     OW22549   1.088   3.034   2.187
 7217SOL    HW122550   1.113   3.080   2.273
 7217SOL    HW222551   1.083   2.935   2.204
 7218SOL     OW22552   4.966   3.032   5.367
 7218SOL    HW122553   5.033   3.099   5.335
 7218SOL    HW222554   4.934   3.058   5.458
 7219SOL     OW22555   3.713   1.056   2.681
 7219SOL    HW122556   3.704   1.009   2.593
 7219SOL    HW222557   3.808   1.084   2.694
 7220SOL     OW22558   6.503   1.234   2.613
 7220SOL    HW122559   6.464   1.178   2.686
 7220SOL    HW222560   6.472   1.201   2.524
 7221SOL     OW22561   5.349   5.191   6.415
 7221SOL    HW122562   5.275   5.220   6.354
 7221SOL    HW222563   5.365   5.093   6.404
 7222SOL     OW22564   0.412   5.963   1.348
 7222SOL    HW122565   0.316   5.979   1.326
 7222SOL    HW222566   0.451   5.900   1.281
 7223SOL     OW22567   3.766   0.836   5.547
 7223SOL    HW122568   3.807   0.868   5.632
 7223SOL    HW222569   3.705   0.906   5.510
 7224SOL     OW22570   5.245   6.858   4.752
 7224SOL    HW122571   5.170   6.907   4.706
 7224SOL    HW222572   5.265   6.774   4.702
 7225SOL     OW22573   2.216   6.394   6.915
 7225SOL    HW122574   2.129   6.372   6.870
 7225SOL    HW222575   2.283   6.324   6.893
 7226SOL     OW22576   6.994   6.533   0.605
 7226SOL    HW122577   6.953   6.623   0.617
 7226SOL    HW222578   6.925   6.462   0.619
 7227SOL     OW22579   0.220   2.655   6.992
 7227SOL    HW122580   0.134   2.609   6.975
 7227SOL    HW222581   0.211   2.715   0.047
 7228SOL     OW22582   1.090   0.684   2.421
 7228SOL    HW122583   1.037   0.759   2.382
 7228SOL    HW222584   1.188   0.705   2.414
 7229SOL     OW22585   0.449   0.359   3.770
 7229SOL    HW122586   0.357   0.377   3.735
 7229SOL    HW222587   0.442   0.320   3.861
 7230SOL     OW22588   5.263   3.927   3.268
 7230SOL    HW122589   5.203   3.883   3.201
 7230SOL    HW222590   5.241   3.893   3.359
 7231SOL     OW22591   5.885   1.123   6.345
 7231SOL    HW122592   5.848   1.182   6.416
 7231SOL    HW222593   5.822   1.120   6.267
 7232SOL     OW22594   4.234   4.676   1.487
 7232SOL    HW122595   4.212   4.737   1.563
 7232SOL    HW222596   4.274   4.729   1.412
 7233SOL     OW22597   6.925   2.367   6.744
 7233SOL    HW122598   6.922   2.269   6.762
 7233SOL    HW222599   6.859   2.389   6.672
 7234SOL     OW22600   6.253   1.895   2.133
 7234SOL    HW122601   6.205   1.814   2.101
 7234SOL    HW222602   6.194   1.947   2.195
 7235SOL     OW22603   5.653   3.805   5.490
 7235SOL    HW122604   5.587   3.844   5.554
 7235SOL    HW222605   5.640   3.846   5.400
 7236SOL     OW22606   3.243   0.340   2.991
 7236SOL    HW122607   3.288   0.425   2.963
 7236SOL    HW222608   3.262   0.269   2.924
 7237SOL     OW22609   5.890   5.588   5.935
 7237SOL    HW122610   5.989   5.577   5.921
 7237SOL    HW222611   5.842   5.570   5.849
 7238SOL     OW22612   1.822   1.701   1.041
 7238SOL    HW122613   1.750   1.742   1.096
 7238SOL    HW222614   1.873   1.635   1.097
 7239SOL     OW22615   3.935   1.700   1.541
 7239SOL    HW122616   3.910   1.702   1.444
 7239SOL    HW222617   3.912   1.788   1.583
 7240SOL     OW22618   2.777   4.586   0.453
 7240SOL    HW122619   2.781   4.490   0.427
 7240SOL    HW222620   2.821   4.642   0.382
 7241SOL     OW22621   3.952   0.203   5.386
 7241SOL    HW122622   3.946   0.104   5.386
 7241SOL    HW222623   4.044   0.232   5.410
 7242SOL     OW22624   5.149   4.958   7.019
 7242SOL    HW122625   5.221   4.953   0.064
 7242SOL    HW222626   5.191   4.957   6.928
 7243SOL     OW22627   0.158   5.618   0.276
 7243SOL    HW122628   0.165   5.664   0.364
 7243SOL    HW222629   0.244   5.628   0.226
 7244SOL     OW22630   5.921   1.160   1.555
 7244SOL    HW122631   5.912   1.207   1.467
 7244SOL    HW222632   5.963   1.071   1.540
 7245SOL     OW22633   7.009   2.039   3.455
 7245SOL    HW122634   6.985   1.942   3.452
 7245SOL    HW222635   0.055   2.058   3.388
 7246SOL     OW22636   0.223   6.357   6.015
 7246SOL    HW122637   0.297   6.357   5.947
 7246SOL    HW222638   0.229   6.273   6.069
 7247SOL     OW22639   3.380   5.319   2.758
 7247SOL    HW122640   3.477   5.297   2.748
 7247SOL    HW222641   3.363   5.355   2.850
 7248SOL     OW22642   3.469   0.443   4.611
 7248SOL    HW122643   3.527   0.367   4.581
 7248SOL    HW222644   3.523   0.527   4.613
 7249SOL     OW22645   6.129   5.598   6.813
 7249SOL    HW122646   6.211   5.544   6.830
 7249SOL    HW222647   6.125   5.624   6.717
 7250SOL     OW22648   3.074   4.249   6.668
 7250SOL    HW122649   3.101   4.240   6.572
 7250SOL    HW222650   3.077   4.159   6.712
 7251SOL     OW22651   5.876   0.099   5.095
 7251SOL    HW122652   5.865   0.141   5.005
 7251SOL    HW222653   5.967   0.121   5.131
 7252SOL     OW22654   3.711   3.649   4.878
 7252SOL    HW122655   3.798   3.637   4.831
 7252SOL    HW222656   3.637   3.654   4.812
 7253SOL     OW22657   5.236   6.356   1.497
 7253SOL    HW122658   5.303   6.306   1.442
 7253SOL    HW222659   5.248   6.332   1.594
 7254SOL     OW22660   4.830   5.831   5.183
 7254SOL    HW122661   4.902   5.857   5.246
 7254SOL    HW222662   4.800   5.737   5.202
 7255SOL     OW22663   3.868   3.907   2.370
 7255SOL    HW122664   3.810   3.951   2.301
 7255SOL    HW222665   3.948   3.867   2.325
 7256SOL     OW22666   4.403   4.879   4.129
 7256SOL    HW122667   4.482   4.819   4.110
 7256SOL    HW222668   4.334   4.827   4.180
 7257SOL     OW22669   5.973   4.027   3.014
 7257SOL    HW122670   5.922   3.943   3.028
 7257SOL    HW222671   5.918   4.092   2.962
 7258SOL     OW22672   3.994   6.883   4.672
 7258SOL    HW122673   4.056   6.822   4.624
 7258SOL    HW222674   4.046   6.957   4.715
 7259SOL     OW22675   2.578   5.342   5.922
 7259SOL    HW122676   2.637   5.307   5.849
 7259SOL    HW222677   2.517   5.412   5.884
 7260SOL     OW22678   3.598   2.039   1.824
 7260SOL    HW122679   3.565   2.109   1.760
 7260SOL    HW222680   3.634   2.082   1.906
 7261SOL     OW22681   1.389   3.885   2.188
 7261SOL    HW122682   1.292   3.907   2.188
 7261SOL    HW222683   1.441   3.961   2.228
 7262SOL     OW22684   6.261   2.030   5.287
 7262SOL    HW122685   6.211   2.093   5.227
 7262SOL    HW222686   6.215   1.941   5.287
 7263SOL     OW22687   3.759   6.296   1.783
 7263SOL    HW122688   3.721   6.385   1.760
 7263SOL    HW222689   3.703   6.224   1.742
 7264SOL     OW22690   1.011   6.773   5.592
 7264SOL    HW122691   0.986   6.740   5.502
 7264SOL    HW222692   1.004   6.873   5.594
 7265SOL     OW22693   4.328   4.773   5.919
 7265SOL    HW122694   4.248   4.712   5.917
 7265SOL    HW222695   4.351   4.793   6.014
 7266SOL     OW22696   5.876   1.487   2.082
 7266SOL    HW122697   5.800   1.544   2.113
 7266SOL    HW222698   5.853   1.391   2.093
 7267SOL     OW22699   7.013   3.958   4.270
 7267SOL    HW122700   6.915   3.956   4.251
 7267SOL    HW222701   0.009   4.032   4.334
 7268SOL     OW22702   3.045   6.932   1.451
 7268SOL    HW122703   3.010   6.839   1.460
 7268SOL    HW222704   3.112   6.950   1.523
 7269SOL     OW22705   1.200   6.773   1.455
 7269SOL    HW122706   1.218   6.762   1.357
 7269SOL    HW222707   1.159   6.690   1.491
 7270SOL     OW22708   3.309   1.320   2.768
 7270SOL    HW122709   3.225   1.266   2.761
 7270SOL    HW222710   3.292   1.399   2.827
 7271SOL     OW22711   6.661   3.903   3.446
 7271SOL    HW122712   6.588   3.841   3.418
 7271SOL    HW222713   6.732   3.851   3.494
 7272SOL     OW22714   5.640   2.153   1.088
 7272SOL    HW122715   5.643   2.249   1.116
 7272SOL    HW222716   5.557   2.110   1.123
 7273SOL     OW22717   5.471   4.909   6.894
 7273SOL    HW122718   5.517   4.823   6.872
 7273SOL    HW222719   5.536   4.985   6.882
 7274SOL     OW22720   6.745   4.725   5.278
 7274SOL    HW122721   6.691   4.761   5.354
 7274SOL    HW222722   6.843   4.739   5.296
 7275SOL     OW22723   6.102   6.978   1.000
 7275SOL    HW122724   6.035   0.021   1.030
 7275SOL    HW222725   6.103   6.974   0.900
 7276SOL     OW22726   2.910   1.741   3.696
 7276SOL    HW122727   2.829   1.784   3.737
 7276SOL    HW222728   2.883   1.655   3.652
 7277SOL     OW22729   5.528   1.518   4.788
 7277SOL    HW122730   5.566   1.468   4.866
 7277SOL    HW222731   5.600   1.532   4.719
 7278SOL     OW22732   2.443   1.281   2.859
 7278SOL    HW122733   2.418   1.224   2.937
 7278SOL    HW222734   2.362   1.302   2.805
 7279SOL     OW22735   4.586   4.245   0.974
 7279SOL    HW122736   4.499   4.205   0.947
 7279SOL    HW222737   4.658   4.214   0.911
 7280SOL     OW22738   6.134   2.322   5.503
 7280SOL    HW122739   6.059   2.267   5.464
 7280SOL    HW222740   6.221   2.276   5.486
 7281SOL     OW22741   4.325   5.187   2.027
 7281SOL    HW122742   4.344   5.285   2.037
 7281SOL    HW222743   4.388   5.134   2.084
 7282SOL     OW22744   6.326   3.928   2.588
 7282SOL    HW122745   6.372   3.845   2.556
 7282SOL    HW222746   6.235   3.904   2.623
 7283SOL     OW22747   4.249   4.668   2.920
 7283SOL    HW122748   4.214   4.582   2.957
 7283SOL    HW222749   4.234   4.742   2.987
 7284SOL     OW22750   0.201   1.932   2.765
 7284SOL    HW122751   0.159   1.982   2.841
 7284SOL    HW222752   0.248   1.997   2.705
 7285SOL     OW22753   4.767   3.268   1.752
 7285SOL    HW122754   4.722   3.265   1.663
 7285SOL    HW222755   4.731   3.194   1.810
 7286SOL     OW22756   0.176   1.417   3.061
 7286SOL    HW122757   0.268   1.440   3.030
 7286SOL    HW222758   0.170   1.319   3.079
 7287SOL     OW22759   1.779   2.172   3.234
 7287SOL    HW122760   1.803   2.081   3.200
 7287SOL    HW222761   1.796   2.240   3.163
 7288SOL     OW22762   2.657   1.728   2.815
 7288SOL    HW122763   2.720   1.793   2.857
 7288SOL    HW222764   2.604   1.775   2.743
 7289SOL     OW22765   6.588   1.752   1.262
 7289SOL    HW122766   6.653   1.683   1.230
 7289SOL    HW222767   6.516   1.765   1.194
 7290SOL     OW22768   3.592   0.998   5.307
 7290SOL    HW122769   3.657   1.074   5.313
 7290SOL    HW222770   3.542   0.990   5.393
 7291SOL     OW22771   3.256   1.467   0.535
 7291SOL    HW122772   3.170   1.421   0.556
 7291SOL    HW222773   3.333   1.411   0.567
 7292SOL     OW22774   2.687   0.702   2.560
 7292SOL    HW122775   2.768   0.688   2.504
 7292SOL    HW222776   2.611   0.647   2.524
 7293SOL     OW22777   0.029   1.965   4.051
 7293SOL    HW122778   0.010   1.996   3.958
 7293SOL    HW222779   0.064   2.041   4.105
 7294SOL     OW22780   3.493   6.539   2.393
 7294SOL    HW122781   3.473   6.602   2.467
 7294SOL    HW222782   3.450   6.572   2.309
 7295SOL     OW22783   6.049   5.116   1.689
 7295SOL    HW122784   6.062   5.023   1.721
 7295SOL    HW222785   5.975   5.118   1.621
 7296SOL     OW22786   4.736   4.733   2.102
 7296SOL    HW122787   4.707   4.780   2.185
 7296SOL    HW222788   4.730   4.796   2.025
 7297SOL     OW22789   4.286   6.822   1.638
 7297SOL    HW122790   4.308   6.725   1.628
 7297SOL    HW222791   4.269   6.862   1.548
 7298SOL     OW22792   4.130   5.041   6.711
 7298SOL    HW122793   4.124   5.016   6.808
 7298SOL    HW222794   4.214   5.005   6.672
 7299SOL     OW22795   1.141   2.528   6.268
 7299SOL    HW122796   1.046   2.511   6.295
 7299SOL    HW222797   1.175   2.450   6.217
 7300SOL     OW22798   0.491   4.786   2.367
 7300SOL    HW122799   0.461   4.701   2.409
 7300SOL    HW222800   0.453   4.864   2.418
 7301SOL     OW22801   4.518   1.972   5.674
 7301SOL    HW122802   4.434   2.024   5.658
 7301SOL    HW222803   4.555   1.941   5.587
 7302SOL     OW22804   5.502   1.893   6.052
 7302SOL    HW122805   5.473   1.808   6.096
 7302SOL    HW222806   5.554   1.948   6.117
 7303SOL     OW22807   2.722   1.767   1.725
 7303SOL    HW122808   2.730   1.833   1.650
 7303SOL    HW222809   2.809   1.720   1.737
 7304SOL     OW22810   2.640   5.642   1.284
 7304SOL    HW122811   2.629   5.675   1.378
 7304SOL    HW222812   2.553   5.606   1.251
 7305SOL     OW22813   6.346   1.347   0.663
 7305SOL    HW122814   6.309   1.395   0.743
 7305SOL    HW222815   6.319   1.251   0.667
 7306SOL     OW22816   0.346   2.769   1.133
 7306SOL    HW122817   0.392   2.724   1.210
 7306SOL    HW222818   0.256   2.728   1.119
 7307SOL     OW22819   2.310   0.342   1.030
 7307SOL    HW122820   2.244   0.270   1.008
 7307SOL    HW222821   2.390   0.302   1.073
 7308SOL     OW22822   5.024   1.118   2.870
 7308SOL    HW122823   5.007   1.100   2.773
 7308SOL    HW222824   4.942   1.096   2.923
 7309SOL     OW22825   2.594   5.140   3.434
 7309SOL    HW122826   2.531   5.066   3.457
 7309SOL    HW222827   2.634   5.123   3.344
 7310SOL     OW22828   2.214   2.903   6.044
 7310SOL    HW122829   2.289   2.887   6.109
 7310SOL    HW222830   2.127   2.895   6.091
 7311SOL     OW22831   0.111   6.080   6.491
 7311SOL    HW122832   0.095   5.991   6.449
 7311SOL    HW222833   0.192   6.122   6.449
 7312SOL     OW22834   6.490   2.141   3.847
 7312SOL    HW122835   6.402   2.176   3.876
 7312SOL    HW222836   6.552   2.135   3.926
 7313SOL     OW22837   2.608   0.875   2.742
 7313SOL    HW122838   2.641   0.819   2.666
 7313SOL    HW222839   2.528   0.926   2.714
 7314SOL     OW22840   0.168   4.143   6.218
 7314SOL    HW122841   0.088   4.105   6.263
 7314SOL    HW222842   0.251   4.101   6.254
 7315SOL     OW22843   1.882   4.858   2.306
 7315SOL    HW122844   1.904   4.956   2.309
 7315SOL    HW222845   1.902   4.822   2.215
 7316SOL     OW22846   3.184   2.341   1.220
 7316SOL    HW122847   3.192   2.412   1.150
 7316SOL    HW222848   3.275   2.315   1.252
 7317SOL     OW22849   3.691   1.871   0.394
 7317SOL    HW122850   3.601   1.830   0.402
 7317SOL    HW222851   3.732   1.882   0.485
 7318SOL     OW22852   4.793   6.055   0.927
 7318SOL    HW122853   4.724   6.042   0.856
 7318SOL    HW222854   4.788   5.981   0.994
 7319SOL     OW22855   5.698   5.388   6.537
 7319SOL    HW122856   5.744   5.435   6.612
 7319SOL    HW222857   5.611   5.351   6.569
 7320SOL     OW22858   0.206   2.358   1.218
 7320SOL    HW122859   0.269   2.316   1.282
 7320SOL    HW222860   0.144   2.288   1.181
 7321SOL     OW22861   1.390   0.876   0.223
 7321SOL    HW122862   1.400   0.838   0.316
 7321SOL    HW222863   1.476   0.917   0.194
 7322SOL     OW22864   1.172   2.869   2.778
 7322SOL    HW122865   1.223   2.824   2.704
 7322SOL    HW222866   1.237   2.903   2.847
 7323SOL     OW22867   0.679   3.004   0.890
 7323SOL    HW122868   0.589   2.979   0.923
 7323SOL    HW222869   0.671   3.074   0.818
 7324SOL     OW22870   5.817   4.555   3.388
 7324SOL    HW122871   5.794   4.460   3.370
 7324SOL    HW222872   5.807   4.609   3.305
 7325SOL     OW22873   4.549   0.953   5.923
 7325SOL    HW122874   4.588   0.895   5.852
 7325SOL    HW222875   4.449   0.944   5.922
 7326SOL     OW22876   3.741   0.431   0.235
 7326SOL    HW122877   3.756   0.519   0.191
 7326SOL    HW222878   3.671   0.380   0.183
 7327SOL     OW22879   1.190   4.347   3.331
 7327SOL    HW122880   1.132   4.321   3.408
 7327SOL    HW222881   1.279   4.303   3.339
 7328SOL     OW22882   4.353   5.026   4.558
 7328SOL    HW122883   4.381   5.073   4.642
 7328SOL    HW222884   4.432   4.979   4.518
 7329SOL     OW22885   3.412   3.358   1.060
 7329SOL    HW122886   3.332   3.388   1.112
 7329SOL    HW222887   3.383   3.302   0.983
 7330SOL     OW22888   2.649   3.257   1.665
 7330SOL    HW122889   2.562   3.264   1.616
 7330SOL    HW222890   2.712   3.326   1.630
 7331SOL     OW22891   5.480   2.492   2.579
 7331SOL    HW122892   5.409   2.563   2.580
 7331SOL    HW222893   5.563   2.528   2.537
 7332SOL     OW22894   3.549   5.978   5.958
 7332SOL    HW122895   3.506   6.019   5.877
 7332SOL    HW222896   3.501   5.893   5.981
 7333SOL     OW22897   0.958   0.941   0.558
 7333SOL    HW122898   0.997   1.018   0.507
 7333SOL    HW222899   0.961   0.960   0.656
 7334SOL     OW22900   2.927   6.647   4.371
 7334SOL    HW122901   2.991   6.707   4.323
 7334SOL    HW222902   2.949   6.647   4.469
 7335SOL     OW22903   6.273   3.527   1.641
 7335SOL    HW122904   6.350   3.582   1.610
 7335SOL    HW222905   6.271   3.525   1.741
 7336SOL     OW22906   1.990   6.559   1.777
 7336SOL    HW122907   1.977   6.627   1.704
 7336SOL    HW222908   1.905   6.511   1.794
 7337SOL     OW22909   2.303   1.746   3.458
 7337SOL    HW122910   2.371   1.675   3.437
 7337SOL    HW222911   2.341   1.810   3.525
 7338SOL     OW22912   5.231   3.436   1.724
 7338SOL    HW122913   5.265   3.509   1.664
 7338SOL    HW222914   5.290   3.429   1.805
 7339SOL     OW22915   6.815   5.766   4.474
 7339SOL    HW122916   6.821   5.855   4.518
 7339SOL    HW222917   6.905   5.739   4.442
 7340SOL     OW22918   2.485   6.786   0.871
 7340SOL    HW122919   2.405   6.756   0.819
 7340SOL    HW222920   2.456   6.820   0.960
 7341SOL     OW22921   6.447   5.529   4.480
 7341SOL    HW122922   6.538   5.527   4.438
 7341SOL    HW222923   6.383   5.481   4.420
 7342SOL     OW22924   1.173   5.181   1.352
 7342SOL    HW122925   1.212   5.226   1.272
 7342SOL    HW222926   1.181   5.082   1.342
 7343SOL     OW22927   5.179   3.167   2.791
 7343SOL    HW122928   5.183   3.068   2.809
 7343SOL    HW222929   5.250   3.213   2.845
 7344SOL     OW22930   2.219   1.149   0.066
 7344SOL    HW122931   2.208   1.050   0.065
 7344SOL    HW222932   2.286   1.176   7.022
 7345SOL     OW22933   3.653   5.451   0.352
 7345SOL    HW122934   3.618   5.544   0.345
 7345SOL    HW222935   3.594   5.397   0.411
 7346SOL     OW22936   3.966   4.652   1.788
 7346SOL    HW122937   3.929   4.565   1.757
 7346SOL    HW222938   4.017   4.696   1.714
 7347SOL     OW22939   5.933   2.734   2.798
 7347SOL    HW122940   6.026   2.716   2.830
 7347SOL    HW222941   5.928   2.723   2.699
 7348SOL     OW22942   0.584   2.353   4.391
 7348SOL    HW122943   0.585   2.396   4.482
 7348SOL    HW222944   0.541   2.263   4.398
 7349SOL     OW22945   3.913   1.573   0.444
 7349SOL    HW122946   3.955   1.648   0.393
 7349SOL    HW222947   3.981   1.534   0.507
 7350SOL     OW22948   2.510   0.969   3.036
 7350SOL    HW122949   2.479   1.035   3.105
 7350SOL    HW222950   2.478   0.999   2.946
 7351SOL     OW22951   3.960   4.706   0.022
 7351SOL    HW122952   3.899   4.681   6.971
 7351SOL    HW222953   3.986   4.623   0.071
 7352SOL     OW22954   6.527   1.226   3.377
 7352SOL    HW122955   6.484   1.135   3.377
 7352SOL    HW222956   6.618   1.220   3.418
 7353SOL     OW22957   4.819   2.599   4.753
 7353SOL    HW122958   4.916   2.599   4.774
 7353SOL    HW222959   4.804   2.570   4.659
 7354SOL     OW22960   6.148   4.034   5.548
 7354SOL    HW122961   6.191   4.081   5.625
 7354SOL    HW222962   6.187   3.942   5.539
 7355SOL     OW22963   1.518   4.530   1.818
 7355SOL    HW122964   1.456   4.513   1.741
 7355SOL    HW222965   1.518   4.450   1.879
 7356SOL     OW22966   5.994   1.914   5.531
 7356SOL    HW122967   6.028   1.900   5.624
 7356SOL    HW222968   5.938   1.997   5.528
 7357SOL     OW22969   6.692   1.654   0.300
 7357SOL    HW122970   6.606   1.628   0.344
 7357SOL    HW222971   6.745   1.571   0.280
 7358SOL     OW22972   2.921   0.583   4.255
 7358SOL    HW122973   2.934   0.642   4.176
 7358SOL    HW222974   2.847   0.620   4.312
 7359SOL     OW22975   3.630   3.235   3.269
 7359SOL    HW122976   3.674   3.221   3.358
 7359SOL    HW222977   3.579   3.152   3.245
 7360SOL     OW22978   0.315   2.517   6.231
 7360SOL    HW122979   0.330   2.612   6.259
 7360SOL    HW222980   0.222   2.489   6.257
 7361SOL     OW22981   5.183   6.927   2.693
 7361SOL    HW122982   5.275   6.954   2.720
 7361SOL    HW222983   5.189   6.847   2.633
 7362SOL     OW22984   1.681   6.311   5.912
 7362SOL    HW122985   1.670   6.304   5.813
 7362SOL    HW222986   1.732   6.394   5.934
 7363SOL     OW22987   5.077   2.615   6.369
 7363SOL    HW122988   5.018   2.632   6.290
 7363SOL    HW222989   5.056   2.681   6.442
 7364SOL     OW22990   5.322   0.532   1.901
 7364SOL    HW122991   5.369   0.597   1.841
 7364SOL    HW222992   5.223   0.541   1.887
 7365SOL     OW22993   3.548   0.559   2.242
 7365SOL    HW122994   3.572   0.476   2.192
 7365SOL    HW222995   3.512   0.627   2.178
 7366SOL     OW22996   0.934   5.677   0.595
 7366SOL    HW122997   0.939   5.577   0.592
 7366SOL    HW222998   0.891   5.711   0.511
 7367SOL     OW22999   4.748   3.761   0.082
 7367SOL    HW123000   4.808   3.839   0.064
 7367SOL    HW223001   4.692   3.742   0.001
 7368SOL     OW23002   3.617   3.890   3.565
 7368SOL    HW123003   3.551   3.965   3.574
 7368SOL    HW223004   3.673   3.906   3.484
 7369SOL     OW23005   4.300   2.143   0.041
 7369SOL    HW123006   4.265   2.174   6.978
 7369SOL    HW223007   4.242   2.177   0.114
 7370SOL     OW23008   1.948   6.046   1.427
 7370SOL    HW123009   2.042   6.080   1.433
 7370SOL    HW223010   1.922   6.005   1.514
 7371SOL     OW23011   2.822   5.180   4.636
 7371SOL    HW123012   2.785   5.088   4.649
 7371SOL    HW223013   2.768   5.228   4.566
 7372SOL     OW23014   3.304   6.659   5.962
 7372SOL    HW123015   3.378   6.726   5.958
 7372SOL    HW223016   3.269   6.654   6.056
 7373SOL     OW23017   3.585   0.645   1.411
 7373SOL    HW123018   3.509   0.709   1.401
 7373SOL    HW223019   3.639   0.671   1.491
 7374SOL     OW23020   1.525   3.161   5.984
 7374SOL    HW123021   1.555   3.197   5.895
 7374SOL    HW223022   1.573   3.210   6.057
 7375SOL     OW23023   0.793   0.307   3.082
 7375SOL    HW123024   0.752   0.230   3.130
 7375SOL    HW223025   0.888   0.286   3.060
 7376SOL     OW23026   2.971   3.984   5.841
 7376SOL    HW123027   3.020   3.947   5.762
 7376SOL    HW223028   3.002   3.938   5.924
 7377SOL     OW23029   4.506   4.605   1.238
 7377SOL    HW123030   4.474   4.693   1.273
 7377SOL    HW223031   4.477   4.532   1.300
 7378SOL     OW23032   6.643   1.583   5.390
 7378SOL    HW123033   6.669   1.635   5.308
 7378SOL    HW223034   6.573   1.516   5.365
 7379SOL     OW23035   3.224   1.537   1.849
 7379SOL    HW123036   3.256   1.506   1.759
 7379SOL    HW223037   3.297   1.525   1.916
 7380SOL     OW23038   6.870   3.190   5.257
 7380SOL    HW123039   6.819   3.129   5.317
 7380SOL    HW223040   6.894   3.142   5.172
 7381SOL     OW23041   5.636   2.513   0.417
 7381SOL    HW123042   5.723   2.546   0.453
 7381SOL    HW223043   5.640   2.414   0.404
 7382SOL     OW23044   0.461   6.057   3.525
 7382SOL    HW123045   0.424   6.007   3.446
 7382SOL    HW223046   0.401   6.043   3.604
 7383SOL     OW23047   0.073   6.229   3.475
 7383SOL    HW123048   0.141   6.261   3.410
 7383SOL    HW223049   0.063   6.130   3.467
 7384SOL     OW23050   6.128   1.128   2.542
 7384SOL    HW123051   6.183   1.080   2.611
 7384SOL    HW223052   6.067   1.062   2.497
 7385SOL     OW23053   5.119   6.795   1.528
 7385SOL    HW123054   5.127   6.727   1.601
 7385SOL    HW223055   5.135   6.886   1.566
 7386SOL     OW23056   0.328   2.352   5.738
 7386SOL    HW123057   0.356   2.333   5.643
 7386SOL    HW223058   0.294   2.445   5.744
 7387SOL     OW23059   4.035   5.712   3.398
 7387SOL    HW123060   4.021   5.799   3.446
 7387SOL    HW223061   4.130   5.683   3.410
 7388SOL     OW23062   6.786   4.995   3.854
 7388SOL    HW123063   6.694   4.958   3.864
 7388SOL    HW223064   6.803   5.063   3.924
 7389SOL     OW23065   1.267   4.148   6.002
 7389SOL    HW123066   1.337   4.145   6.073
 7389SOL    HW223067   1.224   4.059   5.993
 7390SOL     OW23068   2.432   6.455   5.310
 7390SOL    HW123069   2.370   6.421   5.381
 7390SOL    HW223070   2.488   6.528   5.347
 7391SOL     OW23071   6.712   3.137   0.031
 7391SOL    HW123072   6.761   3.086   6.985
 7391SOL    HW223073   6.740   3.233   0.029
 7392SOL     OW23074   2.523   4.584   3.459
 7392SOL    HW123075   2.487   4.491   3.463
 7392SOL    HW223076   2.545   4.615   3.552
 7393SOL     OW23077   0.386   3.781   1.639
 7393SOL    HW123078   0.340   3.869   1.644
 7393SOL    HW223079   0.416   3.754   1.731
 7394SOL     OW23080   2.844   3.337   6.097
 7394SOL    HW123081   2.765   3.381   6.055
 7394SOL    HW223082   2.815   3.290   6.180
 7395SOL     OW23083   1.635   6.102   0.117
 7395SOL    HW123084   1.651   6.184   0.062
 7395SOL    HW223085   1.542   6.069   0.103
 7396SOL     OW23086   0.935   6.946   6.933
 7396SOL    HW123087   0.936   6.921   0.005
 7396SOL    HW223088   0.888   0.009   6.921
 7397SOL     OW23089   6.149   5.425   4.821
 7397SOL    HW123090   6.094   5.342   4.822
 7397SOL    HW223091   6.245   5.402   4.805
 7398SOL     OW23092   4.018   5.344   3.326
 7398SOL    HW123093   3.986   5.309   3.238
 7398SOL    HW223094   3.956   5.416   3.358
 7399SOL     OW23095   4.944   4.000   5.222
 7399SOL    HW123096   4.917   4.096   5.222
 7399SOL    HW223097   4.939   3.964   5.128
 7400SOL     OW23098   1.979   5.283   6.498
 7400SOL    HW123099   1.950   5.369   6.539
 7400SOL    HW223100   1.953   5.207   6.556
 7401SOL     OW23101   6.397   1.875   4.458
 7401SOL    HW123102   6.380   1.862   4.361
 7401SOL    HW223103   6.467   1.810   4.489
 7402SOL     OW23104   2.393   0.060   3.667
 7402SOL    HW123105   2.335   0.014   3.734
 7402SOL    HW223106   2.396   0.158   3.686
 7403SOL     OW23107   1.921   3.094   1.851
 7403SOL    HW123108   1.943   2.998   1.864
 7403SOL    HW223109   1.823   3.104   1.834
 7404SOL     OW23110   1.265   1.039   2.158
 7404SOL    HW123111   1.207   1.067   2.082
 7404SOL    HW223112   1.280   0.940   2.154
 7405SOL     OW23113   2.497   4.824   6.239
 7405SOL    HW123114   2.581   4.862   6.276
 7405SOL    HW223115   2.513   4.729   6.212
 7406SOL     OW23116   0.338   5.027   1.649
 7406SOL    HW123117   0.281   5.037   1.568
 7406SOL    HW223118   0.333   4.932   1.681
 7407SOL     OW23119   2.137   6.805   6.201
 7407SOL    HW123120   2.142   6.892   6.250
 7407SOL    HW223121   2.055   6.803   6.144
 7408SOL     OW23122   0.840   4.009   5.557
 7408SOL    HW123123   0.884   4.006   5.467
 7408SOL    HW223124   0.910   4.003   5.628
 7409SOL     OW23125   3.128   4.970   5.942
 7409SOL    HW123126   3.040   4.923   5.934
 7409SOL    HW223127   3.132   5.045   5.876
 7410SOL     OW23128   5.978   4.781   0.836
 7410SOL    HW123129   6.065   4.820   0.807
 7410SOL    HW223130   5.939   4.729   0.761
 7411SOL     OW23131   4.728   5.616   5.314
 7411SOL    HW123132   4.805   5.553   5.305
 7411SOL    HW223133   4.647   5.577   5.271
 7412SOL     OW23134   1.015   1.989   0.043
 7412SOL    HW123135   0.983   1.944   0.127
 7412SOL    HW223136   1.107   2.024   0.058
 7413SOL     OW23137   6.768   3.347   4.769
 7413SOL    HW123138   6.689   3.407   4.759
 7413SOL    HW223139   6.801   3.321   4.678
 7414SOL     OW23140   6.608   5.674   3.223
 7414SOL    HW123141   6.634   5.754   3.169
 7414SOL    HW223142   6.516   5.644   3.196
 7415SOL     OW23143   2.077   2.384   2.787
 7415SOL    HW123144   2.166   2.430   2.793
 7415SOL    HW223145   2.092   2.285   2.782
 7416SOL     OW23146   4.943   6.456   4.235
 7416SOL    HW123147   4.896   6.441   4.148
 7416SOL    HW223148   5.003   6.536   4.227
 7417SOL     OW23149   0.830   6.387   0.728
 7417SOL    HW123150   0.792   6.418   0.641
 7417SOL    HW223151   0.839   6.287   0.726
 7418SOL     OW23152   1.751   3.425   0.894
 7418SOL    HW123153   1.727   3.360   0.966
 7418SOL    HW223154   1.802   3.378   0.822
 7419SOL     OW23155   6.643   1.144   5.148
 7419SOL    HW123156   6.697   1.182   5.073
 7419SOL    HW223157   6.623   1.048   5.130
 7420SOL     OW23158   0.176   5.525   1.799
 7420SOL    HW123159   0.208   5.560   1.711
 7420SOL    HW223160   0.173   5.425   1.796
 7421SOL     OW23161   3.871   3.101   0.978
 7421SOL    HW123162   3.884   3.184   1.033
 7421SOL    HW223163   3.817   3.123   0.897
 7422SOL     OW23164   0.992   3.232   0.836
 7422SOL    HW123165   0.934   3.305   0.798
 7422SOL    HW223166   0.998   3.243   0.936
 7423SOL     OW23167   2.083   5.995   6.949
 7423SOL    HW123168   2.079   5.997   6.849
 7423SOL    HW223169   2.020   6.063   6.986
 7424SOL     OW23170   5.775   1.376   4.127
 7424SOL    HW123171   5.853   1.329   4.170
 7424SOL    HW223172   5.797   1.396   4.032
 7425SOL     OW23173   3.879   5.747   5.965
 7425SOL    HW123174   3.867   5.817   5.895
 7425SOL    HW223175   3.953   5.774   6.026
 7426SOL     OW23176   0.969   1.130   6.917
 7426SOL    HW123177   1.001   1.205   6.858
 7426SOL    HW223178   1.023   1.048   6.898
 7427SOL     OW23179   4.247   5.056   3.996
 7427SOL    HW123180   4.313   4.999   4.045
 7427SOL    HW223181   4.162   5.062   4.048
 7428SOL     OW23182   3.152   2.006   5.983
 7428SOL    HW123183   3.218   1.990   5.910
 7428SOL    HW223184   3.195   2.061   6.055
 7429SOL     OW23185   6.167   0.020   3.631
 7429SOL    HW123186   6.202   7.018   3.721
 7429SOL    HW223187   6.199   0.112   3.609
 7430SOL     OW23188   6.674   4.078   5.061
 7430SOL    HW123189   6.718   4.007   5.006
 7430SOL    HW223190   6.744   4.136   5.102
 7431SOL     OW23191   0.990   4.088   2.167
 7431SOL    HW123192   0.892   4.106   2.165
 7431SOL    HW223193   1.029   4.103   2.076
 7432SOL     OW23194   0.647   6.129   5.058
 7432SOL    HW123195   0.673   6.169   4.970
 7432SOL    HW223196   0.704   6.170   5.130
 7433SOL     OW23197   6.044   5.906   0.961
 7433SOL    HW123198   6.142   5.898   0.976
 7433SOL    HW223199   6.012   5.994   0.996
 7434SOL     OW23200   4.574   1.039   6.269
 7434SOL    HW123201   4.494   1.003   6.219
 7434SOL    HW223202   4.575   1.139   6.263
 7435SOL     OW23203   2.442   6.256   0.335
 7435SOL    HW123204   2.457   6.172   0.388
 7435SOL    HW223205   2.374   6.240   0.264
 7436SOL     OW23206   5.021   2.866   0.462
 7436SOL    HW123207   5.001   2.913   0.376
 7436SOL    HW223208   5.115   2.831   0.460
 7437SOL     OW23209   0.241   5.941   5.903
 7437SOL    HW123210   0.169   5.949   5.972
 7437SOL    HW223211   0.200   5.928   5.813
 7438SOL     OW23212   6.408   4.629   1.756
 7438SOL    HW123213   6.435   4.724   1.737
 7438SOL    HW223214   6.389   4.619   1.853
 7439SOL     OW23215   1.096   6.608   3.375
 7439SOL    HW123216   1.120   6.625   3.280
 7439SOL    HW223217   1.000   6.581   3.382
 7440SOL     OW23218   1.444   2.341   3.954
 7440SOL    HW123219   1.392   2.406   3.900
 7440SOL    HW223220   1.530   2.320   3.908
 7441SOL     OW23221   5.274   0.209   4.188
 7441SOL    HW123222   5.356   0.158   4.215
 7441SOL    HW223223   5.234   0.253   4.269
 7442SOL     OW23224   1.685   1.333   6.888
 7442SOL    HW123225   1.737   1.419   6.889
 7442SOL    HW223226   1.748   1.256   6.878
 7443SOL     OW23227   0.194   0.539   0.544
 7443SOL    HW123228   0.097   0.546   0.523
 7443SOL    HW223229   0.225   0.625   0.585
 7444SOL     OW23230   0.387   2.851   6.602
 7444SOL    HW123231   0.364   2.764   6.645
 7444SOL    HW223232   0.316   2.918   6.623
 7445SOL     OW23233   5.387   2.493   1.944
 7445SOL    HW123234   5.346   2.466   1.857
 7445SOL    HW223235   5.345   2.441   2.018
 7446SOL     OW23236   6.546   2.919   1.405
 7446SOL    HW123237   6.540   2.937   1.503
 7446SOL    HW223238   6.459   2.881   1.373
 7447SOL     OW23239   0.812   4.570   5.854
 7447SOL    HW123240   0.714   4.590   5.854
 7447SOL    HW223241   0.826   4.472   5.844
 7448SOL     OW23242   6.809   6.772   5.973
 7448SOL    HW123243   6.890   6.762   6.030
 7448SOL    HW223244   6.785   6.683   5.933
 7449SOL     OW23245   5.253   2.229   2.412
 7449SOL    HW123246   5.336   2.239   2.468
 7449SOL    HW223247   5.201   2.150   2.444
 7450SOL     OW23248   3.313   1.158   3.035
 7450SOL    HW123249   3.365   1.148   2.950
 7450SOL    HW223250   3.343   1.088   3.100
 7451SOL     OW23251   1.740   0.738   3.913
 7451SOL    HW123252   1.769   0.811   3.975
 7451SOL    HW223253   1.643   0.720   3.927
 7452SOL     OW23254   1.773   6.685   5.165
 7452SOL    HW123255   1.740   6.648   5.078
 7452SOL    HW223256   1.829   6.615   5.211
 7453SOL     OW23257   6.305   5.942   5.088
 7453SOL    HW123258   6.350   6.016   5.137
 7453SOL    HW223259   6.302   5.860   5.145
 7454SOL     OW23260   0.669   3.713   0.810
 7454SOL    HW123261   0.634   3.630   0.852
 7454SOL    HW223262   0.631   3.722   0.718
 7455SOL     OW23263   4.950   2.330   0.215
 7455SOL    HW123264   4.917   2.236   0.199
 7455SOL    HW223265   4.871   2.391   0.225
 7456SOL     OW23266   2.003   3.618   4.755
 7456SOL    HW123267   2.011   3.678   4.835
 7456SOL    HW223268   2.018   3.523   4.783
 7457SOL     OW23269   5.836   0.990   5.910
 7457SOL    HW123270   5.891   0.918   5.953
 7457SOL    HW223271   5.873   1.012   5.820
 7458SOL     OW23272   2.620   1.364   0.065
 7458SOL    HW123273   2.594   1.312   0.146
 7458SOL    HW223274   2.603   1.461   0.082
 7459SOL     OW23275   4.660   0.916   4.401
 7459SOL    HW123276   4.707   0.999   4.433
 7459SOL    HW223277   4.561   0.933   4.401
 7460SOL     OW23278   0.640   4.657   6.871
 7460SOL    HW123279   0.716   4.607   6.915
 7460SOL    HW223280   0.554   4.631   6.915
 7461SOL     OW23281   5.044   1.070   4.279
 7461SOL    HW123282   5.014   0.990   4.330
 7461SOL    HW223283   5.075   1.042   4.189
 7462SOL     OW23284   2.454   1.737   2.147
 7462SOL    HW123285   2.508   1.680   2.086
 7462SOL    HW223286   2.444   1.828   2.108
 7463SOL     OW23287   3.435   3.642   2.869
 7463SOL    HW123288   3.477   3.730   2.847
 7463SOL    HW223289   3.489   3.596   2.940
 7464SOL     OW23290   5.550   6.237   0.687
 7464SOL    HW123291   5.569   6.140   0.676
 7464SOL    HW223292   5.570   6.265   0.781
 7465SOL     OW23293   2.906   0.744   1.859
 7465SOL    HW123294   2.853   0.717   1.778
 7465SOL    HW223295   2.860   0.711   1.941
 7466SOL     OW23296   0.906   0.576   6.719
 7466SOL    HW123297   0.866   0.580   6.628
 7466SOL    HW223298   0.950   0.487   6.732
 7467SOL     OW23299   6.749   1.303   1.264
 7467SOL    HW123300   6.744   1.332   1.360
 7467SOL    HW223301   6.836   1.256   1.248
 7468SOL     OW23302   6.635   3.181   3.023
 7468SOL    HW123303   6.646   3.082   3.024
 7468SOL    HW223304   6.681   3.221   3.103
 7469SOL     OW23305   0.336   1.637   2.171
 7469SOL    HW123306   0.407   1.634   2.101
 7469SOL    HW223307   0.358   1.571   2.244
 7470SOL     OW23308   6.826   2.616   2.242
 7470SOL    HW123309   6.885   2.600   2.321
 7470SOL    HW223310   6.827   2.536   2.182
 7471SOL     OW23311   6.036   6.093   5.752
 7471SOL    HW123312   6.118   6.058   5.707
 7471SOL    HW223313   5.956   6.071   5.696
 7472SOL     OW23314   3.388   0.045   2.997
 7472SOL    HW123315   3.446   0.084   2.925
 7472SOL    HW223316   3.445   7.023   3.064
 7473SOL     OW23317   6.597   3.560   4.769
 7473SOL    HW123318   6.534   3.635   4.790
 7473SOL    HW223319   6.671   3.594   4.710
 7474SOL     OW23320   3.843   1.307   3.271
 7474SOL    HW123321   3.943   1.310   3.264
 7474SOL    HW223322   3.813   1.372   3.341
 7475SOL     OW23323   3.994   1.447   0.703
 7475SOL    HW123324   3.934   1.412   0.775
 7475SOL    HW223325   4.059   1.376   0.677
 7476SOL     OW23326   4.175   6.646   4.801
 7476SOL    HW123327   4.086   6.622   4.763
 7476SOL    HW223328   4.223   6.563   4.829
 7477SOL     OW23329   4.542   2.203   4.075
 7477SOL    HW123330   4.558   2.178   4.171
 7477SOL    HW223331   4.595   2.143   4.015
 7478SOL     OW23332   1.335   4.971   0.867
 7478SOL    HW123333   1.328   4.899   0.798
 7478SOL    HW223334   1.431   4.992   0.885
 7479SOL     OW23335   4.636   0.575   6.619
 7479SOL    HW123336   4.586   0.660   6.603
 7479SOL    HW223337   4.578   0.497   6.597
 7480SOL     OW23338   6.917   5.365   0.969
 7480SOL    HW123339   6.938   5.267   0.969
 7480SOL    HW223340   6.988   5.414   0.919
 7481SOL     OW23341   5.722   5.269   0.797
 7481SOL    HW123342   5.814   5.259   0.837
 7481SOL    HW223343   5.730   5.304   0.704
 7482SOL     OW23344   5.273   0.555   4.260
 7482SOL    HW123345   5.270   0.654   4.273
 7482SOL    HW223346   5.222   0.530   4.178
 7483SOL     OW23347   3.528   0.544   6.299
 7483SOL    HW123348   3.516   0.643   6.314
 7483SOL    HW223349   3.504   0.522   6.205
 7484SOL     OW23350   1.935   6.909   2.470
 7484SOL    HW123351   1.873   6.956   2.407
 7484SOL    HW223352   1.890   6.897   2.558
 7485SOL     OW23353   1.993   6.521   6.581
 7485SOL    HW123354   1.913   6.563   6.538
 7485SOL    HW223355   1.963   6.452   6.647
 7486SOL     OW23356   2.546   6.699   5.403
 7486SOL    HW123357   2.470   6.754   5.367
 7486SOL    HW223358   2.571   6.732   5.493
 7487SOL     OW23359   3.736   5.938   3.895
 7487SOL    HW123360   3.696   5.883   3.822
 7487SOL    HW223361   3.810   5.995   3.858
 7488SOL     OW23362   3.819   0.920   5.968
 7488SOL    HW123363   3.771   0.841   6.007
 7488SOL    HW223364   3.780   1.004   6.004
 7489SOL     OW23365   5.584   3.510   3.430
 7489SOL    HW123366   5.607   3.481   3.337
 7489SOL    HW223367   5.667   3.534   3.479
 7490SOL     OW23368   5.744   1.375   1.693
 7490SOL    HW123369   5.692   1.296   1.725
 7490SOL    HW223370   5.841   1.364   1.717
 7491SOL     OW23371   6.562   5.688   6.484
 7491SOL    HW123372   6.625   5.615   6.458
 7491SOL    HW223373   6.609   5.776   6.479
 7492SOL     OW23374   1.457   2.892   4.354
 7492SOL    HW123375   1.463   2.864   4.449
 7492SOL    HW223376   1.477   2.815   4.294
 7493SOL     OW23377   5.130   3.677   6.689
 7493SOL    HW123378   5.127   3.757   6.749
 7493SOL    HW223379   5.142   3.595   6.744
 7494SOL     OW23380   5.584   1.154   1.778
 7494SOL    HW123381   5.546   1.183   1.866
 7494SOL    HW223382   5.522   1.181   1.704
 7495SOL     OW23383   1.062   1.858   1.560
 7495SOL    HW123384   1.084   1.771   1.515
 7495SOL    HW223385   0.995   1.908   1.506
 7496SOL     OW23386   0.684   4.928   5.911
 7496SOL    HW123387   0.586   4.931   5.890
 7496SOL    HW223388   0.703   4.846   5.965
 7497SOL     OW23389   1.848   4.423   1.810
 7497SOL    HW123390   1.945   4.426   1.783
 7497SOL    HW223391   1.811   4.333   1.789
 7498SOL     OW23392   3.678   1.806   4.153
 7498SOL    HW123393   3.635   1.716   4.146
 7498SOL    HW223394   3.706   1.822   4.247
 7499SOL     OW23395   5.060   6.245   4.371
 7499SOL    HW123396   5.024   6.308   4.302
 7499SOL    HW223397   5.007   6.160   4.369
 7500SOL     OW23398   5.209   4.652   1.212
 7500SOL    HW123399   5.239   4.703   1.292
 7500SOL    HW223400   5.185   4.559   1.238
 7501SOL     OW23401   0.282   4.302   4.215
 7501SOL    HW123402   0.299   4.247   4.134
 7501SOL    HW223403   0.185   4.301   4.237
 7502SOL     OW23404   1.923   1.779   4.988
 7502SOL    HW123405   1.946   1.869   4.951
 7502SOL    HW223406   1.960   1.708   4.927
 7503SOL     OW23407   2.591   2.069   6.726
 7503SOL    HW123408   2.682   2.033   6.748
 7503SOL    HW223409   2.574   2.151   6.781
 7504SOL     OW23410   4.019   6.144   3.286
 7504SOL    HW123411   3.986   6.146   3.192
 7504SOL    HW223412   4.078   6.223   3.303
 7505SOL     OW23413   1.591   2.326   5.186
 7505SOL    HW123414   1.645   2.346   5.105
 7505SOL    HW223415   1.651   2.301   5.262
 7506SOL     OW23416   3.193   1.582   2.929
 7506SOL    HW123417   3.202   1.680   2.949
 7506SOL    HW223418   3.229   1.529   3.005
 7507SOL     OW23419   1.307   6.111   5.852
 7507SOL    HW123420   1.345   6.091   5.942
 7507SOL    HW223421   1.235   6.045   5.831
 7508SOL     OW23422   5.221   0.226   3.497
 7508SOL    HW123423   5.263   0.246   3.585
 7508SOL    HW223424   5.293   0.200   3.432
 7509SOL     OW23425   4.573   4.208   5.974
 7509SOL    HW123426   4.649   4.244   6.026
 7509SOL    HW223427   4.599   4.201   5.877
 7510SOL     OW23428   3.556   4.204   4.511
 7510SOL    HW123429   3.521   4.163   4.595
 7510SOL    HW223430   3.489   4.195   4.438
 7511SOL     OW23431   0.863   0.375   2.228
 7511SOL    HW123432   0.877   0.376   2.327
 7511SOL    HW223433   0.779   0.424   2.205
 7512SOL     OW23434   1.738   2.861   1.613
 7512SOL    HW123435   1.827   2.835   1.649
 7512SOL    HW223436   1.675   2.784   1.623
 7513SOL     OW23437   1.121   2.278   6.768
 7513SOL    HW123438   1.056   2.273   6.844
 7513SOL    HW223439   1.089   2.344   6.701
 7514SOL     OW23440   2.473   5.751   2.910
 7514SOL    HW123441   2.493   5.654   2.898
 7514SOL    HW223442   2.553   5.797   2.950
 7515SOL     OW23443   6.205   5.896   2.238
 7515SOL    HW123444   6.261   5.902   2.155
 7515SOL    HW223445   6.193   5.800   2.262
 7516SOL     OW23446   0.189   1.158   3.086
 7516SOL    HW123447   0.143   1.090   3.029
 7516SOL    HW223448   0.287   1.155   3.068
 7517SOL     OW23449   0.551   4.111   1.604
 7517SOL    HW123450   0.453   4.108   1.584
 7517SOL    HW223451   0.575   4.038   1.668
 7518SOL     OW23452   4.889   5.471   3.987
 7518SOL    HW123453   4.850   5.441   3.900
 7518SOL    HW223454   4.974   5.422   4.004
 7519SOL     OW23455   2.538   6.164   3.626
 7519SOL    HW123456   2.458   6.183   3.570
 7519SOL    HW223457   2.572   6.248   3.667
 7520SOL     OW23458   1.764   6.255   4.186
 7520SOL    HW123459   1.673   6.240   4.147
 7520SOL    HW223460   1.833   6.231   4.118
 7521SOL     OW23461   4.627   4.234   5.718
 7521SOL    HW123462   4.724   4.213   5.707
 7521SOL    HW223463   4.586   4.245   5.627
 7522SOL     OW23464   1.964   0.761   1.299
 7522SOL    HW123465   2.020   0.844   1.302
 7522SOL    HW223466   1.999   0.694   1.364
 7523SOL     OW23467   5.598   0.296   6.542
 7523SOL    HW123468   5.581   0.221   6.478
 7523SOL    HW223469   5.679   0.275   6.597
 7524SOL     OW23470   0.295   1.368   5.003
 7524SOL    HW123471   0.246   1.315   5.073
 7524SOL    HW223472   0.324   1.456   5.041
 7525SOL     OW23473   1.356   0.288   0.553
 7525SOL    HW123474   1.331   0.291   0.456
 7525SOL    HW223475   1.377   0.380   0.586
 7526SOL     OW23476   3.670   2.846   4.759
 7526SOL    HW123477   3.703   2.764   4.712
 7526SOL    HW223478   3.735   2.872   4.831
 7527SOL     OW23479   5.534   5.048   3.335
 7527SOL    HW123480   5.510   4.995   3.416
 7527SOL    HW223481   5.560   4.987   3.261
 7528SOL     OW23482   6.521   3.320   6.711
 7528SOL    HW123483   6.510   3.319   6.611
 7528SOL    HW223484   6.432   3.308   6.754
 7529SOL     OW23485   2.817   1.233   6.263
 7529SOL    HW123486   2.862   1.144   6.262
 7529SOL    HW223487   2.724   1.223   6.228
 7530SOL     OW23488   0.637   3.774   2.617
 7530SOL    HW123489   0.686   3.854   2.582
 7530SOL    HW223490   0.640   3.774   2.717
 7531SOL     OW23491   3.860   2.189   3.491
 7531SOL    HW123492   3.762   2.200   3.513
 7531SOL    HW223493   3.876   2.216   3.396
 7532SOL     OW23494   5.245   5.302   2.603
 7532SOL    HW123495   5.169   5.239   2.613
 7532SOL    HW223496   5.309   5.291   2.679
 7533SOL     OW23497   3.864   0.945   3.972
 7533SOL    HW123498   3.913   0.909   4.051
 7533SOL    HW223499   3.793   1.008   4.002
 7534SOL     OW23500   5.189   6.359   4.790
 7534SOL    HW123501   5.257   6.402   4.849
 7534SOL    HW223502   5.097   6.379   4.824
 7535SOL     OW23503   3.165   2.982   6.209
 7535SOL    HW123504   3.205   3.073   6.217
 7535SOL    HW223505   3.232   2.920   6.168
 7536SOL     OW23506   4.402   6.179   3.972
 7536SOL    HW123507   4.486   6.182   3.919
 7536SOL    HW223508   4.415   6.121   4.053
 7537SOL     OW23509   1.583   4.982   5.672
 7537SOL    HW123510   1.560   4.887   5.648
 7537SOL    HW223511   1.650   5.017   5.607
 7538SOL     OW23512   2.885   3.445   2.502
 7538SOL    HW123513   2.907   3.512   2.572
 7538SOL    HW223514   2.878   3.354   2.543
 7539SOL     OW23515   2.130   2.727   4.453
 7539SOL    HW123516   2.206   2.745   4.515
 7539SOL    HW223517   2.072   2.808   4.447
 7540SOL     OW23518   2.024   1.351   0.065
 7540SOL    HW123519   2.088   1.274   0.056
 7540SOL    HW223520   1.959   1.332   0.139
 7541SOL     OW23521   6.648   2.438   5.739
 7541SOL    HW123522   6.549   2.423   5.726
 7541SOL    HW223523   6.698   2.367   5.690
 7542SOL     OW23524   1.239   6.461   6.087
 7542SOL    HW123525   1.247   6.438   5.990
 7542SOL    HW223526   1.245   6.377   6.141
 7543SOL     OW23527   3.794   2.817   0.282
 7543SOL    HW123528   3.805   2.894   0.220
 7543SOL    HW223529   3.865   2.749   0.265
 7544SOL     OW23530   1.768   2.276   2.603
 7544SOL    HW123531   1.819   2.322   2.530
 7544SOL    HW223532   1.761   2.338   2.682
 7545SOL     OW23533   5.532   6.258   4.359
 7545SOL    HW123534   5.530   6.165   4.395
 7545SOL    HW223535   5.497   6.322   4.428
 7546SOL     OW23536   4.808   1.177   6.991
 7546SOL    HW123537   4.717   1.214   6.969
 7546SOL    HW223538   4.835   1.207   0.058
 7547SOL     OW23539   3.458   0.497   0.296
 7547SOL    HW123540   3.471   0.401   0.270
 7547SOL    HW223541   3.547   0.540   0.309
 7548SOL     OW23542   1.651   2.241   1.454
 7548SOL    HW123543   1.603   2.294   1.523
 7548SOL    HW223544   1.644   2.287   1.365
 7549SOL     OW23545   5.478   2.206   2.612
 7549SOL    HW123546   5.475   2.306   2.609
 7549SOL    HW223547   5.561   2.173   2.568
 7550SOL     OW23548   1.542   5.524   2.021
 7550SOL    HW123549   1.461   5.529   1.962
 7550SOL    HW223550   1.513   5.526   2.117
 7551SOL     OW23551   4.914   3.478   6.591
 7551SOL    HW123552   4.821   3.441   6.595
 7551SOL    HW223553   4.911   3.577   6.608
 7552SOL     OW23554   3.314   5.280   3.885
 7552SOL    HW123555   3.309   5.379   3.869
 7552SOL    HW223556   3.223   5.240   3.874
 7553SOL     OW23557   4.341   5.280   6.044
 7553SOL    HW123558   4.360   5.349   5.974
 7553SOL    HW223559   4.309   5.196   6.001
 7554SOL     OW23560   6.593   0.895   1.081
 7554SOL    HW123561   6.672   0.863   1.134
 7554SOL    HW223562   6.599   0.994   1.069
 7555SOL     OW23563   1.125   5.954   5.489
 7555SOL    HW123564   1.208   6.008   5.500
 7555SOL    HW223565   1.149   5.861   5.460
 7556SOL     OW23566   1.046   2.971   5.141
 7556SOL    HW123567   0.952   2.946   5.120
 7556SOL    HW223568   1.084   3.027   5.067
 7557SOL     OW23569   4.654   3.888   0.295
 7557SOL    HW123570   4.723   3.919   0.361
 7557SOL    HW223571   4.698   3.832   0.225
 7558SOL     OW23572   1.463   3.262   2.992
 7558SOL    HW123573   1.370   3.257   2.956
 7558SOL    HW223574   1.517   3.187   2.954
 7559SOL     OW23575   0.453   3.938   0.934
 7559SOL    HW123576   0.507   4.017   0.905
 7559SOL    HW223577   0.487   3.856   0.888
 7560SOL     OW23578   4.965   6.822   0.165
 7560SOL    HW123579   4.997   6.727   0.159
 7560SOL    HW223580   4.947   6.857   0.073
 7561SOL     OW23581   0.175   3.392   0.685
 7561SOL    HW123582   0.204   3.311   0.635
 7561SOL    HW223583   0.105   3.440   0.632
 7562SOL     OW23584   5.811   5.761   5.109
 7562SOL    HW123585   5.816   5.860   5.104
 7562SOL    HW223586   5.778   5.725   5.021
 7563SOL     OW23587   2.500   0.607   2.344
 7563SOL    HW123588   2.492   0.524   2.289
 7563SOL    HW223589   2.423   0.667   2.325
 7564SOL     OW23590   5.232   5.934   3.909
 7564SOL    HW123591   5.263   5.998   3.980
 7564SOL    HW223592   5.141   5.961   3.878
 7565SOL     OW23593   4.922   4.586   0.748
 7565SOL    HW123594   4.902   4.488   0.750
 7565SOL    HW223595   4.987   4.606   0.675
 7566SOL     OW23596   1.357   5.777   4.051
 7566SOL    HW123597   1.359   5.732   3.961
 7566SOL    HW223598   1.449   5.777   4.090
 7567SOL     OW23599   2.920   4.265   0.432
 7567SOL    HW123600   2.929   4.228   0.340
 7567SOL    HW223601   3.010   4.293   0.465
 7568SOL     OW23602   5.054   4.883   3.370
 7568SOL    HW123603   5.061   4.975   3.332
 7568SOL    HW223604   5.055   4.887   3.470
 7569SOL     OW23605   4.255   7.001   1.051
 7569SOL    HW123606   4.334   7.006   1.111
 7569SOL    HW223607   4.188   0.046   1.077
 7570SOL     OW23608   6.040   5.177   4.119
 7570SOL    HW123609   5.997   5.262   4.089
 7570SOL    HW223610   6.015   5.104   4.056
 7571SOL     OW23611   5.530   4.544   2.329
 7571SOL    HW123612   5.578   4.480   2.269
 7571SOL    HW223613   5.588   4.568   2.407
 7572SOL     OW23614   2.695   1.372   4.767
 7572SOL    HW123615   2.789   1.396   4.792
 7572SOL    HW223616   2.675   1.279   4.797
 7573SOL     OW23617   2.479   5.591   4.226
 7573SOL    HW123618   2.456   5.641   4.309
 7573SOL    HW223619   2.537   5.647   4.167
 7574SOL     OW23620   5.026   6.175   3.063
 7574SOL    HW123621   4.986   6.264   3.085
 7574SOL    HW223622   5.070   6.180   2.973
 7575SOL     OW23623   3.736   1.969   5.088
 7575SOL    HW123624   3.785   2.038   5.035
 7575SOL    HW223625   3.672   1.920   5.029
 7576SOL     OW23626   6.591   2.603   0.308
 7576SOL    HW123627   6.585   2.698   0.277
 7576SOL    HW223628   6.502   2.572   0.340
 7577SOL     OW23629   5.932   0.436   4.746
 7577SOL    HW123630   5.959   0.346   4.709
 7577SOL    HW223631   5.874   0.423   4.826
 7578SOL     OW23632   2.104   5.047   4.392
 7578SOL    HW123633   2.088   5.140   4.424
 7578SOL    HW223634   2.168   5.001   4.453
 7579SOL     OW23635   3.979   1.734   2.750
 7579SOL    HW123636   3.916   1.721   2.827
 7579SOL    HW223637   3.936   1.792   2.681
 7580SOL     OW23638   1.757   3.795   2.433
 7580SOL    HW123639   1.748   3.756   2.341
 7580SOL    HW223640   1.668   3.798   2.477
 7581SOL     OW23641   6.135   0.815   1.103
 7581SOL    HW123642   6.173   0.907   1.105
 7581SOL    HW223643   6.120   0.783   1.197
 7582SOL     OW23644   3.263   1.051   0.852
 7582SOL    HW123645   3.301   0.959   0.852
 7582SOL    HW223646   3.201   1.061   0.930
 7583SOL     OW23647   6.193   3.320   2.727
 7583SOL    HW123648   6.279   3.273   2.747
 7583SOL    HW223649   6.153   3.354   2.812
 7584SOL     OW23650   2.533   0.282   1.534
 7584SOL    HW123651   2.460   0.280   1.466
 7584SOL    HW223652   2.605   0.344   1.503
 7585SOL     OW23653   1.772   4.770   5.973
 7585SOL    HW123654   1.834   4.784   6.051
 7585SOL    HW223655   1.813   4.808   5.890
 7586SOL     OW23656   2.617   0.979   2.354
 7586SOL    HW123657   2.598   0.945   2.446
 7586SOL    HW223658   2.709   0.950   2.326
 7587SOL     OW23659   1.007   1.532   5.791
 7587SOL    HW123660   1.103   1.504   5.782
 7587SOL    HW223661   0.947   1.454   5.775
 7588SOL     OW23662   0.202   4.201   2.084
 7588SOL    HW123663   0.195   4.204   2.184
 7588SOL    HW223664   0.222   4.292   2.049
 7589SOL     OW23665   5.621   5.790   0.932
 7589SOL    HW123666   5.711   5.769   0.971
 7589SOL    HW223667   5.598   5.885   0.952
 7590SOL     OW23668   1.985   0.734   6.273
 7590SOL    HW123669   1.975   0.645   6.316
 7590SOL    HW223670   2.048   0.791   6.326
 7591SOL     OW23671   6.606   4.320   0.471
 7591SOL    HW123672   6.697   4.344   0.503
 7591SOL    HW223673   6.571   4.393   0.413
 7592SOL     OW23674   5.419   6.049   0.103
 7592SOL    HW123675   5.328   6.091   0.100
 7592SOL    HW223676   5.462   6.071   0.191
 7593SOL     OW23677   6.120   2.186   6.522
 7593SOL    HW123678   6.069   2.118   6.470
 7593SOL    HW223679   6.160   2.142   6.603
 7594SOL     OW23680   1.212   6.116   3.723
 7594SOL    HW123681   1.162   6.031   3.711
 7594SOL    HW223682   1.240   6.125   3.819
 7595SOL     OW23683   6.214   2.610   0.001
 7595SOL    HW123684   6.265   2.692   0.028
 7595SOL    HW223685   6.126   2.609   0.049
 7596SOL     OW23686   5.669   4.015   2.040
 7596SOL    HW123687   5.717   4.102   2.043
 7596SOL    HW223688   5.590   4.022   1.978
 7597SOL     OW23689   3.622   5.333   1.639
 7597SOL    HW123690   3.555   5.276   1.687
 7597SOL    HW223691   3.584   5.424   1.623
 7598SOL     OW23692   6.965   1.073   3.849
 7598SOL    HW123693   0.006   1.010   3.809
 7598SOL    HW223694   7.012   1.134   3.913
 7599SOL     OW23695   6.249   2.057   2.522
 7599SOL    HW123696   6.199   2.056   2.608
 7599SOL    HW223697   6.273   1.963   2.495
 7600SOL     OW23698   2.213   1.641   1.226
 7600SOL    HW123699   2.203   1.740   1.222
 7600SOL    HW223700   2.193   1.609   1.319
 7601SOL     OW23701   2.008   6.517   4.769
 7601SOL    HW123702   2.024   6.580   4.845
 7601SOL    HW223703   2.091   6.464   4.751
 7602SOL     OW23704   0.716   3.821   4.576
 7602SOL    HW123705   0.799   3.771   4.550
 7602SOL    HW223706   0.737   3.919   4.579
 7603SOL     OW23707   0.974   6.576   1.227
 7603SOL    HW123708   0.931   6.521   1.155
 7603SOL    HW223709   0.919   6.657   1.244
 7604SOL     OW23710   5.011   5.909   5.389
 7604SOL    HW123711   5.041   5.940   5.479
 7604SOL    HW223712   5.088   5.869   5.340
 7605SOL     OW23713   6.420   4.342   6.833
 7605SOL    HW123714   6.425   4.305   6.926
 7605SOL    HW223715   6.337   4.397   6.824
 7606SOL     OW23716   5.918   2.206   2.375
 7606SOL    HW123717   5.883   2.186   2.283
 7606SOL    HW223718   5.906   2.304   2.394
 7607SOL     OW23719   4.479   0.098   6.762
 7607SOL    HW123720   4.425   0.081   6.845
 7607SOL    HW223721   4.501   0.010   6.719
 7608SOL     OW23722   3.449   3.367   3.622
 7608SOL    HW123723   3.427   3.408   3.711
 7608SOL    HW223724   3.523   3.418   3.579
 7609SOL     OW23725   1.197   3.204   3.966
 7609SOL    HW123726   1.267   3.164   4.026
 7609SOL    HW223727   1.229   3.291   3.929
 7610SOL     OW23728   5.652   0.379   1.115
 7610SOL    HW123729   5.647   0.279   1.122
 7610SOL    HW223730   5.562   0.418   1.135
 7611SOL     OW23731   1.455   2.323   0.042
 7611SOL    HW123732   1.540   2.343   0.089
 7611SOL    HW223733   1.419   2.406   7.024
 7612SOL     OW23734   3.459   2.037   3.050
 7612SOL    HW123735   3.426   2.048   3.143
 7612SOL    HW223736   3.559   2.036   3.049
 7613SOL     OW23737   4.823   1.219   2.162
 7613SOL    HW123738   4.888   1.275   2.110
 7613SOL    HW223739   4.731   1.230   2.124
 7614SOL     OW23740   4.297   1.975   0.657
 7614SOL    HW123741   4.223   1.922   0.615
 7614SOL    HW223742   4.268   2.071   0.664
 7615SOL     OW23743   3.444   4.934   5.850
 7615SOL    HW123744   3.345   4.945   5.858
 7615SOL    HW223745   3.485   5.022   5.826
 7616SOL     OW23746   6.472   3.474   3.629
 7616SOL    HW123747   6.425   3.476   3.718
 7616SOL    HW223748   6.417   3.522   3.561
 7617SOL     OW23749   3.172   5.003   3.051
 7617SOL    HW123750   3.200   5.078   3.112
 7617SOL    HW223751   3.131   4.929   3.105
 7618SOL     OW23752   2.069   2.771   6.706
 7618SOL    HW123753   2.133   2.799   6.635
 7618SOL    HW223754   2.104   2.797   6.796
 7619SOL     OW23755   5.292   3.716   5.722
 7619SOL    HW123756   5.212   3.658   5.737
 7619SOL    HW223757   5.328   3.745   5.811
 7620SOL     OW23758   3.397   6.756   1.768
 7620SOL    HW123759   3.329   6.807   1.714
 7620SOL    HW223760   3.478   6.813   1.781
 7621SOL     OW23761   2.094   0.623   1.500
 7621SOL    HW123762   2.160   0.698   1.501
 7621SOL    HW223763   2.143   0.536   1.515
 7622SOL     OW23764   3.928   2.504   0.483
 7622SOL    HW123765   3.844   2.493   0.431
 7622SOL    HW223766   3.985   2.574   0.439
 7623SOL     OW23767   4.711   0.628   5.529
 7623SOL    HW123768   4.810   0.631   5.545
 7623SOL    HW223769   4.687   0.692   5.457
 7624SOL     OW23770   0.571   1.021   3.582
 7624SOL    HW123771   0.613   1.107   3.610
 7624SOL    HW223772   0.637   0.947   3.594
 7625SOL     OW23773   4.931   0.478   1.317
 7625SOL    HW123774   4.982   0.556   1.352
 7625SOL    HW223775   4.979   0.440   1.238
 7626SOL     OW23776   1.917   5.881   4.826
 7626SOL    HW123777   1.967   5.796   4.840
 7626SOL    HW223778   1.979   5.959   4.837
 7627SOL     OW23779   6.756   2.405   0.929
 7627SOL    HW123780   6.669   2.385   0.884
 7627SOL    HW223781   6.749   2.383   1.026
 7628SOL     OW23782   3.121   1.690   0.748
 7628SOL    HW123783   3.040   1.650   0.706
 7628SOL    HW223784   3.161   1.626   0.813
 7629SOL     OW23785   0.094   5.725   3.306
 7629SOL    HW123786   0.010   5.732   3.252
 7629SOL    HW223787   0.149   5.649   3.272
 7630SOL     OW23788   6.096   0.635   2.805
 7630SOL    HW123789   6.073   0.695   2.882
 7630SOL    HW223790   6.189   0.657   2.773
 7631SOL     OW23791   0.551   2.474   3.420
 7631SOL    HW123792   0.581   2.560   3.378
 7631SOL    HW223793   0.527   2.491   3.515
 7632SOL     OW23794   4.646   1.644   0.320
 7632SOL    HW123795   4.656   1.743   0.330
 7632SOL    HW223796   4.734   1.600   0.335
 7633SOL     OW23797   4.999   4.091   6.771
 7633SOL    HW123798   4.971   4.179   6.810
 7633SOL    HW223799   5.065   4.105   6.698
 7634SOL     OW23800   1.563   1.292   1.911
 7634SOL    HW123801   1.515   1.370   1.952
 7634SOL    HW223802   1.660   1.312   1.904
 7635SOL     OW23803   2.909   4.217   5.700
 7635SOL    HW123804   2.939   4.139   5.756
 7635SOL    HW223805   2.967   4.223   5.619
 7636SOL     OW23806   0.770   0.009   4.204
 7636SOL    HW123807   0.812   0.011   4.113
 7636SOL    HW223808   0.776   0.100   4.246
 7637SOL     OW23809   2.052   6.169   4.316
 7637SOL    HW123810   1.956   6.146   4.334
 7637SOL    HW223811   2.106   6.085   4.312
 7638SOL     OW23812   5.187   5.106   2.089
 7638SOL    HW123813   5.229   5.064   2.169
 7638SOL    HW223814   5.186   5.040   2.014
 7639SOL     OW23815   0.969   2.169   5.301
 7639SOL    HW123816   0.991   2.265   5.321
 7639SOL    HW223817   1.050   2.123   5.265
 7640SOL     OW23818   2.323   1.670   0.259
 7640SOL    HW123819   2.323   1.769   0.251
 7640SOL    HW223820   2.387   1.642   0.330
 7641SOL     OW23821   5.620   3.924   2.288
 7641SOL    HW123822   5.639   3.985   2.212
 7641SOL    HW223823   5.644   3.830   2.262
 7642SOL     OW23824   2.587   2.061   2.339
 7642SOL    HW123825   2.668   2.010   2.366
 7642SOL    HW223826   2.570   2.048   2.241
 7643SOL     OW23827   4.932   2.967   3.839
 7643SOL    HW123828   4.947   3.019   3.755
 7643SOL    HW223829   4.898   3.027   3.911
 7644SOL     OW23830   6.818   2.948   2.532
 7644SOL    HW123831   6.770   2.869   2.569
 7644SOL    HW223832   6.901   2.964   2.584
 7645SOL     OW23833   4.157   4.332   6.905
 7645SOL    HW123834   4.110   4.354   6.819
 7645SOL    HW223835   4.106   4.371   6.981
 7646SOL     OW23836   2.316   2.151   1.708
 7646SOL    HW123837   2.376   2.201   1.770
 7646SOL    HW223838   2.355   2.060   1.690
 7647SOL     OW23839   2.608   4.180   1.688
 7647SOL    HW123840   2.515   4.181   1.725
 7647SOL    HW223841   2.654   4.096   1.717
 7648SOL     OW23842   4.123   1.024   3.920
 7648SOL    HW123843   4.025   1.010   3.917
 7648SOL    HW223844   4.154   1.066   3.834
 7649SOL     OW23845   3.166   0.730   1.775
 7649SOL    HW123846   3.073   0.739   1.810
 7649SOL    HW223847   3.187   0.809   1.717
 7650SOL     OW23848   6.321   4.584   2.029
 7650SOL    HW123849   6.362   4.660   2.079
 7650SOL    HW223850   6.255   4.537   2.087
 7651SOL     OW23851   3.646   1.253   6.495
 7651SOL    HW123852   3.556   1.216   6.516
 7651SOL    HW223853   3.636   1.338   6.443
 7652SOL     OW23854   0.642   3.545   2.062
 7652SOL    HW123855   0.717   3.483   2.087
 7652SOL    HW223856   0.555   3.506   2.093
 7653SOL     OW23857   2.704   1.983   1.504
 7653SOL    HW123858   2.748   2.031   1.580
 7653SOL    HW223859   2.773   1.964   1.433
 7654SOL     OW23860   4.887   3.980   3.602
 7654SOL    HW123861   4.879   3.914   3.677
 7654SOL    HW223862   4.850   4.068   3.632
 7655SOL     OW23863   4.329   6.455   5.301
 7655SOL    HW123864   4.343   6.365   5.258
 7655SOL    HW223865   4.411   6.479   5.354
 7656SOL     OW23866   0.667   6.229   5.585
 7656SOL    HW123867   0.584   6.176   5.601
 7656SOL    HW223868   0.747   6.177   5.616
 7657SOL     OW23869   3.379   1.433   3.782
 7657SOL    HW123870   3.390   1.394   3.874
 7657SOL    HW223871   3.293   1.400   3.742
 7658SOL     OW23872   4.116   0.886   5.566
 7658SOL    HW123873   4.098   0.879   5.664
 7658SOL    HW223874   4.122   0.794   5.527
 7659SOL     OW23875   5.671   6.890   0.826
 7659SOL    HW123876   5.602   6.821   0.843
 7659SOL    HW223877   5.669   6.917   0.729
 7660SOL     OW23878   5.696   5.099   4.115
 7660SOL    HW123879   5.712   5.004   4.087
 7660SOL    HW223880   5.610   5.131   4.076
 7661SOL     OW23881   6.451   2.801   3.774
 7661SOL    HW123882   6.523   2.870   3.781
 7661SOL    HW223883   6.488   2.718   3.732
 7662SOL     OW23884   0.136   4.898   1.981
 7662SOL    HW123885   0.156   4.809   2.023
 7662SOL    HW223886   0.065   4.887   1.912
 7663SOL     OW23887   0.038   5.007   6.531
 7663SOL    HW123888   0.023   5.100   6.497
 7663SOL    HW223889   0.105   4.962   6.473
 7664SOL     OW23890   2.444   5.406   3.507
 7664SOL    HW123891   2.480   5.328   3.455
 7664SOL    HW223892   2.477   5.400   3.602
 7665SOL     OW23893   3.361   6.783   4.922
 7665SOL    HW123894   3.431   6.712   4.927
 7665SOL    HW223895   3.403   6.870   4.896
 7666SOL     OW23896   1.034   0.858   1.339
 7666SOL    HW123897   1.032   0.843   1.241
 7666SOL    HW223898   1.064   0.775   1.385
 7667SOL     OW23899   4.371   6.343   6.796
 7667SOL    HW123900   4.336   6.297   6.877
 7667SOL    HW223901   4.313   6.320   6.717
 7668SOL     OW23902   3.435   3.841   1.566
 7668SOL    HW123903   3.530   3.859   1.541
 7668SOL    HW223904   3.379   3.835   1.484
 7669SOL     OW23905   5.171   6.941   4.395
 7669SOL    HW123906   5.114   6.991   4.330
 7669SOL    HW223907   5.117   6.919   4.477
 7670SOL     OW23908   1.527   5.504   0.845
 7670SOL    HW123909   1.539   5.525   0.942
 7670SOL    HW223910   1.486   5.583   0.799
 7671SOL     OW23911   6.146   2.776   4.582
 7671SOL    HW123912   6.141   2.835   4.662
 7671SOL    HW223913   6.211   2.702   4.598
 7672SOL     OW23914   5.562   0.694   3.034
 7672SOL    HW123915   5.531   0.712   3.127
 7672SOL    HW223916   5.500   0.627   2.991
 7673SOL     OW23917   0.942   4.508   1.270
 7673SOL    HW123918   0.925   4.569   1.193
 7673SOL    HW223919   0.863   4.509   1.331
 7674SOL     OW23920   5.902   1.661   4.893
 7674SOL    HW123921   5.967   1.737   4.905
 7674SOL    HW223922   5.950   1.574   4.900
 7675SOL     OW23923   4.484   6.628   2.925
 7675SOL    HW123924   4.407   6.573   2.958
 7675SOL    HW223925   4.568   6.598   2.972
 7676SOL     OW23926   1.516   0.705   0.827
 7676SOL    HW123927   1.539   0.737   0.735
 7676SOL    HW223928   1.486   0.783   0.883
 7677SOL     OW23929   1.481   2.963   2.419
 7677SOL    HW123930   1.538   2.923   2.347
 7677SOL    HW223931   1.474   3.061   2.405
 7678SOL     OW23932   6.243   6.520   0.616
 7678SOL    HW123933   6.206   6.428   0.629
 7678SOL    HW223934   6.235   6.572   0.701
 7679SOL     OW23935   0.838   5.225   5.301
 7679SOL    HW123936   0.871   5.202   5.209
 7679SOL    HW223937   0.910   5.205   5.368
 7680SOL     OW23938   3.610   2.684   0.454
 7680SOL    HW123939   3.619   2.694   0.553
 7680SOL    HW223940   3.673   2.746   0.408
 7681SOL     OW23941   2.727   1.837   0.021
 7681SOL    HW123942   2.727   1.928   0.063
 7681SOL    HW223943   2.674   1.839   6.961
 7682SOL     OW23944   2.808   6.942   1.865
 7682SOL    HW123945   2.766   6.954   1.775
 7682SOL    HW223946   2.889   7.001   1.872
 7683SOL     OW23947   4.887   2.024   3.278
 7683SOL    HW123948   4.886   1.949   3.211
 7683SOL    HW223949   4.963   2.085   3.257
 7684SOL     OW23950   4.332   2.133   5.909
 7684SOL    HW123951   4.378   2.151   5.822
 7684SOL    HW223952   4.276   2.051   5.900
 7685SOL     OW23953   3.161   2.915   0.474
 7685SOL    HW123954   3.203   2.824   0.472
 7685SOL    HW223955   3.140   2.944   0.381
 7686SOL     OW23956   4.135   6.307   3.991
 7686SOL    HW123957   4.108   6.307   3.895
 7686SOL    HW223958   4.216   6.250   4.003
 7687SOL     OW23959   5.675   4.964   5.783
 7687SOL    HW123960   5.765   4.932   5.813
 7687SOL    HW223961   5.675   5.064   5.781
 7688SOL     OW23962   0.587   6.186   4.407
 7688SOL    HW123963   0.630   6.228   4.487
 7688SOL    HW223964   0.505   6.237   4.382
 7689SOL     OW23965   4.548   6.303   4.798
 7689SOL    HW123966   4.608   6.378   4.829
 7689SOL    HW223967   4.564   6.222   4.855
 7690SOL     OW23968   6.629   5.045   3.615
 7690SOL    HW123969   6.672   4.968   3.662
 7690SOL    HW223970   6.681   5.066   3.532
 7691SOL     OW23971   5.322   3.095   4.573
 7691SOL    HW123972   5.245   3.035   4.592
 7691SOL    HW223973   5.290   3.180   4.531
 7692SOL     OW23974   1.797   6.562   2.105
 7692SOL    HW123975   1.836   6.644   2.064
 7692SOL    HW223976   1.818   6.560   2.203
 7693SOL     OW23977   4.667   1.308   6.146
 7693SOL    HW123978   4.735   1.271   6.083
 7693SOL    HW223979   4.699   1.396   6.182
 7694SOL     OW23980   0.173   5.391   4.560
 7694SOL    HW123981   0.181   5.341   4.474
 7694SOL    HW223982   0.104   5.347   4.618
 7695SOL     OW23983   4.055   6.808   1.059
 7695SOL    HW123984   4.020   6.824   1.151
 7695SOL    HW223985   4.141   6.859   1.047
 7696SOL     OW23986   0.178   2.862   5.715
 7696SOL    HW123987   0.105   2.925   5.742
 7696SOL    HW223988   0.267   2.903   5.735
 7697SOL     OW23989   2.990   1.631   2.640
 7697SOL    HW123990   3.054   1.595   2.572
 7697SOL    HW223991   2.899   1.594   2.621
 7698SOL     OW23992   6.893   2.555   6.117
 7698SOL    HW123993   6.920   2.471   6.163
 7698SOL    HW223994   6.837   2.611   6.179
 7699SOL     OW23995   2.426   5.032   6.793
 7699SOL    HW123996   2.459   4.979   6.715
 7699SOL    HW223997   2.438   4.979   6.877
 7700SOL     OW23998   4.916   6.727   4.667
 7700SOL    HW123999   4.852   6.749   4.594
 7700SOL    HW224000   4.964   6.642   4.645
 7701SOL     OW24001   6.806   1.897   4.186
 7701SOL    HW124002   6.902   1.903   4.159
 7701SOL    HW224003   6.772   1.804   4.168
 7702SOL     OW24004   3.433   6.138   5.769
 7702SOL    HW124005   3.395   6.224   5.804
 7702SOL    HW224006   3.404   6.125   5.674
 7703SOL     OW24007   0.964   0.887   5.602
 7703SOL    HW124008   0.873   0.927   5.604
 7703SOL    HW224009   1.033   0.958   5.591
 7704SOL     OW24010   4.341   4.512   6.783
 7704SOL    HW124011   4.268   4.456   6.822
 7704SOL    HW224012   4.427   4.495   6.832
 7705SOL     OW24013   3.366   5.187   5.192
 7705SOL    HW124014   3.298   5.245   5.237
 7705SOL    HW224015   3.452   5.191   5.243
 7706SOL     OW24016   0.009   0.893   5.228
 7706SOL    HW124017   0.028   0.991   5.232
 7706SOL    HW224018   6.939   0.879   5.198
 7707SOL     OW24019   6.913   5.220   6.063
 7707SOL    HW124020   6.994   5.279   6.061
 7707SOL    HW224021   6.831   5.276   6.054
 7708SOL     OW24022   4.717   6.825   4.487
 7708SOL    HW124023   4.644   6.760   4.465
 7708SOL    HW224024   4.701   6.911   4.437
 7709SOL     OW24025   4.380   2.356   2.256
 7709SOL    HW124026   4.362   2.310   2.344
 7709SOL    HW224027   4.459   2.416   2.266
 7710SOL     OW24028   2.315   0.950   0.482
 7710SOL    HW124029   2.298   0.860   0.442
 7710SOL    HW224030   2.275   1.021   0.423
 7711SOL     OW24031   5.388   6.893   5.334
 7711SOL    HW124032   5.456   6.824   5.311
 7711SOL    HW224033   5.297   6.851   5.335
 7712SOL     OW24034   5.495   5.274   0.964
 7712SOL    HW124035   5.558   5.333   1.014
 7712SOL    HW224036   5.535   5.251   0.875
 7713SOL     OW24037   1.471   4.120   6.229
 7713SOL    HW124038   1.501   4.039   6.279
 7713SOL    HW224039   1.409   4.174   6.287
 7714SOL     OW24040   5.878   4.267   3.974
 7714SOL    HW124041   5.818   4.219   4.038
 7714SOL    HW224042   5.947   4.319   4.024
 7715SOL     OW24043   5.051   0.611   1.762
 7715SOL    HW124044   5.055   0.681   1.833
 7715SOL    HW224045   4.958   0.574   1.757
 7716SOL     OW24046   4.523   2.026   3.748
 7716SOL    HW124047   4.556   2.121   3.743
 7716SOL    HW224048   4.589   1.966   3.704
 7717SOL     OW24049   2.886   1.378   5.675
 7717SOL    HW124050   2.884   1.385   5.575
 7717SOL    HW224051   2.905   1.468   5.714
 7718SOL     OW24052   2.873   6.564   3.727
 7718SOL    HW124053   2.962   6.566   3.682
 7718SOL    HW224054   2.814   6.634   3.688
 7719SOL     OW24055   6.966   2.258   4.486
 7719SOL    HW124056   0.037   2.268   4.458
 7719SOL    HW224057   6.919   2.196   4.422
 7720SOL     OW24058   5.730   6.047   1.862
 7720SOL    HW124059   5.807   6.081   1.917
 7720SOL    HW224060   5.750   6.059   1.765
 7721SOL     OW24061   2.097   4.427   2.472
 7721SOL    HW124062   2.046   4.493   2.529
 7721SOL    HW224063   2.033   4.382   2.409
 7722SOL     OW24064   6.623   5.415   3.962
 7722SOL    HW124065   6.560   5.493   3.962
 7722SOL    HW224066   6.593   5.348   3.894
 7723SOL     OW24067   6.555   3.116   0.659
 7723SOL    HW124068   6.640   3.068   0.641
 7723SOL    HW224069   6.533   3.110   0.757
 7724SOL     OW24070   1.256   4.188   1.525
 7724SOL    HW124071   1.212   4.230   1.446
 7724SOL    HW224072   1.343   4.235   1.543
 7725SOL     OW24073   5.746   3.164   4.155
 7725SOL    HW124074   5.757   3.261   4.179
 7725SOL    HW224075   5.777   3.108   4.232
 7726SOL     OW24076   0.278   4.580   2.874
 7726SOL    HW124077   0.309   4.670   2.845
 7726SOL    HW224078   0.265   4.579   2.973
 7727SOL     OW24079   6.464   2.433   2.120
 7727SOL    HW124080   6.443   2.368   2.193
 7727SOL    HW224081   6.419   2.404   2.035
 7728SOL     OW24082   1.987   2.569   3.134
 7728SOL    HW124083   2.065   2.507   3.121
 7728SOL    HW224084   1.984   2.597   3.230
 7729SOL     OW24085   4.690   2.482   0.264
 7729SOL    HW124086   4.720   2.488   0.359
 7729SOL    HW224087   4.618   2.550   0.248
 7730SOL     OW24088   5.547   0.869   2.800
 7730SOL    HW124089   5.507   0.817   2.876
 7730SOL    HW224090   5.473   0.909   2.746
 7731SOL     OW24091   5.852   1.287   6.931
 7731SOL    HW124092   5.832   1.189   6.926
 7731SOL    HW224093   5.829   1.330   6.843
 7732SOL     OW24094   4.219   5.665   0.852
 7732SOL    HW124095   4.239   5.649   0.756
 7732SOL    HW224096   4.251   5.756   0.879
 7733SOL     OW24097   3.522   0.123   2.196
 7733SOL    HW124098   3.575   0.038   2.206
 7733SOL    HW224099   3.583   0.197   2.169
 7734SOL     OW24100   1.849   2.334   3.047
 7734SOL    HW124101   1.904   2.283   2.980
 7734SOL    HW224102   1.896   2.420   3.070
 7735SOL     OW24103   4.692   4.486   0.150
 7735SOL    HW124104   4.636   4.568   0.143
 7735SOL    HW224105   4.766   4.501   0.215
 7736SOL     OW24106   6.473   4.794   0.008
 7736SOL    HW124107   6.559   4.754   0.039
 7736SOL    HW224108   6.491   4.865   6.965
 7737SOL     OW24109   4.403   1.472   0.560
 7737SOL    HW124110   4.442   1.555   0.600
 7737SOL    HW224111   4.465   1.436   0.490
 7738SOL     OW24112   3.248   5.286   0.086
 7738SOL    HW124113   3.257   5.246   7.020
 7738SOL    HW224114   3.237   5.385   0.079
 7739SOL     OW24115   6.172   2.188   0.612
 7739SOL    HW124116   6.203   2.093   0.604
 7739SOL    HW224117   6.087   2.200   0.562
 7740SOL     OW24118   0.290   6.857   3.321
 7740SOL    HW124119   0.293   6.904   3.409
 7740SOL    HW224120   0.373   6.803   3.308
 7741SOL     OW24121   2.402   5.732   4.439
 7741SOL    HW124122   2.467   5.788   4.492
 7741SOL    HW224123   2.351   5.673   4.501
 7742SOL     OW24124   6.755   1.563   3.807
 7742SOL    HW124125   6.724   1.544   3.713
 7742SOL    HW224126   6.738   1.482   3.864
 7743SOL     OW24127   4.307   2.387   4.227
 7743SOL    HW124128   4.230   2.330   4.199
 7743SOL    HW224129   4.341   2.438   4.148
 7744SOL     OW24130   6.709   0.491   4.540
 7744SOL    HW124131   6.701   0.581   4.497
 7744SOL    HW224132   6.643   0.483   4.614
 7745SOL     OW24133   4.142   3.225   6.286
 7745SOL    HW124134   4.167   3.168   6.207
 7745SOL    HW224135   4.183   3.316   6.276
 7746SOL     OW24136   1.158   0.999   0.760
 7746SOL    HW124137   1.156   1.048   0.847
 7746SOL    HW224138   1.191   1.059   0.688
 7747SOL     OW24139   4.968   6.615   0.863
 7747SOL    HW124140   5.042   6.570   0.813
 7747SOL    HW224141   4.968   6.582   0.958
 7748SOL     OW24142   2.772   4.272   6.728
 7748SOL    HW124143   2.863   4.301   6.698
 7748SOL    HW224144   2.770   4.172   6.740
 7749SOL     OW24145   5.340   2.919   5.539
 7749SOL    HW124146   5.440   2.923   5.537
 7749SOL    HW224147   5.309   2.900   5.632
 7750SOL     OW24148   6.685   5.519   2.223
 7750SOL    HW124149   6.609   5.585   2.222
 7750SOL    HW224150   6.769   5.565   2.193
 7751SOL     OW24151   1.017   2.766   2.382
 7751SOL    HW124152   0.982   2.847   2.429
 7751SOL    HW224153   1.054   2.702   2.448
 7752SOL     OW24154   4.421   1.832   3.914
 7752SOL    HW124155   4.328   1.850   3.947
 7752SOL    HW224156   4.456   1.913   3.867
 7753SOL     OW24157   3.078   1.542   4.781
 7753SOL    HW124158   3.028   1.583   4.704
 7753SOL    HW224159   3.015   1.523   4.856
 7754SOL     OW24160   4.620   6.117   1.709
 7754SOL    HW124161   4.524   6.091   1.723
 7754SOL    HW224162   4.659   6.064   1.634
 7755SOL     OW24163   0.169   4.508   5.953
 7755SOL    HW124164   0.148   4.602   5.976
 7755SOL    HW224165   0.097   4.448   5.988
 7756SOL     OW24166   2.565   5.458   1.700
 7756SOL    HW124167   2.597   5.468   1.606
 7756SOL    HW224168   2.489   5.521   1.716
 7757SOL     OW24169   6.842   4.251   2.432
 7757SOL    HW124170   6.890   4.176   2.387
 7757SOL    HW224171   6.905   4.328   2.445
 7758SOL     OW24172   1.461   1.626   4.857
 7758SOL    HW124173   1.546   1.680   4.863
 7758SOL    HW224174   1.465   1.551   4.924
 7759SOL     OW24175   2.659   2.656   6.770
 7759SOL    HW124176   2.645   2.755   6.779
 7759SOL    HW224177   2.705   2.637   6.683
 7760SOL     OW24178   3.948   2.607   0.205
 7760SOL    HW124179   4.047   2.602   0.202
 7760SOL    HW224180   3.910   2.564   0.123
 7761SOL     OW24181   4.405   5.360   4.066
 7761SOL    HW124182   4.495   5.397   4.087
 7761SOL    HW224183   4.377   5.388   3.974
 7762SOL     OW24184   5.986   1.824   2.761
 7762SOL    HW124185   5.961   1.731   2.785
 7762SOL    HW224186   5.920   1.860   2.695
 7763SOL     OW24187   2.260   0.128   4.424
 7763SOL    HW124188   2.353   0.102   4.399
 7763SOL    HW224189   2.242   0.221   4.392
 7764SOL     OW24190   2.517   4.033   5.616
 7764SOL    HW124191   2.491   3.964   5.548
 7764SOL    HW224192   2.436   4.065   5.665
 7765SOL     OW24193   6.399   3.172   5.968
 7765SOL    HW124194   6.476   3.157   6.031
 7765SOL    HW224195   6.393   3.270   5.947
 7766SOL     OW24196   5.868   4.181   6.340
 7766SOL    HW124197   5.911   4.101   6.382
 7766SOL    HW224198   5.903   4.264   6.383
 7767SOL     OW24199   3.567   0.135   4.078
 7767SOL    HW124200   3.506   0.148   4.157
 7767SOL    HW224201   3.649   0.190   4.091
 7768SOL     OW24202   4.459   4.767   3.319
 7768SOL    HW124203   4.486   4.671   3.313
 7768SOL    HW224204   4.525   4.823   3.269
 7769SOL     OW24205   3.674   2.911   5.313
 7769SOL    HW124206   3.615   2.991   5.307
 7769SOL    HW224207   3.621   2.831   5.340
 7770SOL     OW24208   2.188   3.093   4.414
 7770SOL    HW124209   2.193   3.181   4.461
 7770SOL    HW224210   2.223   3.021   4.474
 7771SOL     OW24211   2.422   2.845   6.210
 7771SOL    HW124212   2.522   2.852   6.204
 7771SOL    HW224213   2.396   2.751   6.231
 7772SOL     OW24214   5.118   6.602   1.731
 7772SOL    HW124215   5.197   6.577   1.787
 7772SOL    HW224216   5.034   6.570   1.775
 7773SOL     OW24217   3.178   6.233   6.732
 7773SOL    HW124218   3.147   6.316   6.687
 7773SOL    HW224219   3.192   6.161   6.664
 7774SOL     OW24220   4.538   1.587   2.433
 7774SOL    HW124221   4.504   1.495   2.410
 7774SOL    HW224222   4.603   1.616   2.363
 7775SOL     OW24223   2.505   1.219   0.265
 7775SOL    HW124224   2.501   1.196   0.362
 7775SOL    HW224225   2.416   1.251   0.234
 7776SOL     OW24226   1.578   1.543   4.629
 7776SOL    HW124227   1.631   1.473   4.676
 7776SOL    HW224228   1.527   1.597   4.697
 7777SOL     OW24229   6.318   5.281   4.001
 7777SOL    HW124230   6.298   5.192   3.960
 7777SOL    HW224231   6.250   5.303   4.070
 7778SOL     OW24232   0.008   4.822   2.697
 7778SOL    HW124233   0.082   4.766   2.659
 7778SOL    HW224234   6.945   4.787   2.665
 7779SOL     OW24235   4.453   6.070   2.681
 7779SOL    HW124236   4.551   6.049   2.682
 7779SOL    HW224237   4.413   6.047   2.770
 7780SOL     OW24238   6.225   6.656   4.862
 7780SOL    HW124239   6.315   6.619   4.885
 7780SOL    HW224240   6.235   6.751   4.832
 7781SOL     OW24241   1.334   2.863   1.032
 7781SOL    HW124242   1.331   2.941   0.971
 7781SOL    HW224243   1.243   2.843   1.067
 7782SOL     OW24244   5.964   2.702   4.310
 7782SOL    HW124245   6.049   2.669   4.268
 7782SOL    HW224246   5.958   2.669   4.404
 7783SOL     OW24247   1.436   6.871   5.095
 7783SOL    HW124248   1.496   6.876   5.175
 7783SOL    HW224249   1.492   6.862   5.012
 7784SOL     OW24250   2.011   2.027   1.713
 7784SOL    HW124251   1.943   2.006   1.642
 7784SOL    HW224252   2.087   2.076   1.672
 7785SOL     OW24253   0.270   6.856   3.008
 7785SOL    HW124254   0.313   6.914   3.077
 7785SOL    HW224255   0.299   6.761   3.020
 7786SOL     OW24256   3.946   1.301   5.569
 7786SOL    HW124257   3.990   1.318   5.657
 7786SOL    HW224258   3.978   1.368   5.502
 7787SOL     OW24259   2.526   2.599   1.565
 7787SOL    HW124260   2.502   2.560   1.476
 7787SOL    HW224261   2.593   2.540   1.610
 7788SOL     OW24262   6.666   4.532   1.537
 7788SOL    HW124263   6.579   4.579   1.553
 7788SOL    HW224264   6.663   4.441   1.580
 7789SOL     OW24265   2.912   1.638   5.750
 7789SOL    HW124266   2.997   1.645   5.803
 7789SOL    HW224267   2.839   1.689   5.796
 7790SOL     OW24268   4.345   4.551   1.826
 7790SOL    HW124269   4.260   4.562   1.879
 7790SOL    HW224270   4.389   4.465   1.851
 7791SOL     OW24271   2.489   4.972   2.155
 7791SOL    HW124272   2.435   4.928   2.226
 7791SOL    HW224273   2.587   4.961   2.176
 7792SOL     OW24274   0.374   1.574   2.481
 7792SOL    HW124275   0.442   1.549   2.412
 7792SOL    HW224276   0.328   1.658   2.453
 7793SOL     OW24277   4.792   0.986   6.581
 7793SOL    HW124278   4.809   0.890   6.556
 7793SOL    HW224279   4.838   1.046   6.515
 7794SOL     OW24280   0.550   6.723   3.314
 7794SOL    HW124281   0.626   6.721   3.249
 7794SOL    HW224282   0.580   6.764   3.400
 7795SOL     OW24283   2.931   5.674   0.325
 7795SOL    HW124284   2.969   5.587   0.295
 7795SOL    HW224285   2.988   5.711   0.399
 7796SOL     OW24286   3.410   3.537   6.920
 7796SOL    HW124287   3.388   3.452   6.872
 7796SOL    HW224288   3.508   3.542   6.936
 7797SOL     OW24289   0.467   5.985   3.013
 7797SOL    HW124290   0.414   5.930   2.948
 7797SOL    HW224291   0.478   6.077   2.977
 7798SOL     OW24292   1.405   3.502   0.837
 7798SOL    HW124293   1.403   3.423   0.898
 7798SOL    HW224294   1.489   3.554   0.851
 7799SOL     OW24295   2.434   6.082   3.136
 7799SOL    HW124296   2.458   6.063   3.231
 7799SOL    HW224297   2.378   6.008   3.100
 7800SOL     OW24298   0.201   6.077   2.363
 7800SOL    HW124299   0.240   6.168   2.380
 7800SOL    HW224300   0.264   6.024   2.306
 7801SOL     OW24301   1.498   1.942   1.731
 7801SOL    HW124302   1.571   1.948   1.663
 7801SOL    HW224303   1.412   1.972   1.691
 7802SOL     OW24304   6.774   3.750   4.646
 7802SOL    HW124305   6.696   3.802   4.611
 7802SOL    HW224306   6.835   3.727   4.571
 7803SOL     OW24307   3.874   2.511   5.675
 7803SOL    HW124308   3.849   2.497   5.579
 7803SOL    HW224309   3.884   2.608   5.694
 7804SOL     OW24310   3.297   1.848   5.165
 7804SOL    HW124311   3.212   1.869   5.213
 7804SOL    HW224312   3.285   1.763   5.112
 7805SOL     OW24313   4.791   3.242   0.483
 7805SOL    HW124314   4.740   3.303   0.422
 7805SOL    HW224315   4.779   3.147   0.453
 7806SOL     OW24316   6.333   1.585   5.750
 7806SOL    HW124317   6.252   1.527   5.739
 7806SOL    HW224318   6.413   1.527   5.763
 7807SOL     OW24319   1.497   4.726   5.887
 7807SOL    HW124320   1.584   4.742   5.934
 7807SOL    HW224321   1.422   4.728   5.953
 7808SOL     OW24322   6.147   3.732   2.941
 7808SOL    HW124323   6.079   3.711   3.011
 7808SOL    HW224324   6.105   3.786   2.868
 7809SOL     OW24325   4.732   5.201   2.325
 7809SOL    HW124326   4.663   5.270   2.305
 7809SOL    HW224327   4.782   5.177   2.241
 7810SOL     OW24328   3.968   6.306   5.745
 7810SOL    HW124329   4.010   6.330   5.657
 7810SOL    HW224330   4.039   6.296   5.814
 7811SOL     OW24331   1.819   6.662   2.924
 7811SOL    HW124332   1.769   6.690   3.006
 7811SOL    HW224333   1.916   6.649   2.948
 7812SOL     OW24334   3.119   1.750   6.161
 7812SOL    HW124335   3.106   1.699   6.246
 7812SOL    HW224336   3.054   1.826   6.158
 7813SOL     OW24337   5.790   0.444   0.681
 7813SOL    HW124338   5.730   0.429   0.603
 7813SOL    HW224339   5.851   0.521   0.661
 7814SOL     OW24340   6.476   2.574   1.691
 7814SOL    HW124341   6.470   2.608   1.598
 7814SOL    HW224342   6.456   2.476   1.693
 7815SOL     OW24343   5.569   4.178   5.435
 7815SOL    HW124344   5.535   4.105   5.495
 7815SOL    HW224345   5.606   4.252   5.491
 7816SOL     OW24346   0.889   0.645   5.489
 7816SOL    HW124347   0.861   0.583   5.562
 7816SOL    HW224348   0.933   0.725   5.527
 7817SOL     OW24349   3.314   2.970   6.819
 7817SOL    HW124350   3.255   2.940   6.894
 7817SOL    HW224351   3.372   2.893   6.791
 7818SOL     OW24352   5.623   0.281   4.352
 7818SOL    HW124353   5.555   0.327   4.410
 7818SOL    HW224354   5.683   0.349   4.311
 7819SOL     OW24355   1.357   3.627   4.135
 7819SOL    HW124356   1.329   3.559   4.067
 7819SOL    HW224357   1.456   3.639   4.131
 7820SOL     OW24358   1.546   6.978   5.717
 7820SOL    HW124359   1.509   6.887   5.735
 7820SOL    HW224360   1.627   6.970   5.659
 7821SOL     OW24361   4.755   6.653   0.007
 7821SOL    HW124362   4.730   6.595   0.084
 7821SOL    HW224363   4.690   6.729   0.001
 7822SOL     OW24364   0.681   1.383   4.952
 7822SOL    HW124365   0.585   1.398   4.974
 7822SOL    HW224366   0.708   1.441   4.876
 7823SOL     OW24367   2.148   3.369   5.334
 7823SOL    HW124368   2.121   3.423   5.414
 7823SOL    HW224369   2.205   3.292   5.364
 7824SOL     OW24370   5.399   3.149   3.238
 7824SOL    HW124371   5.304   3.169   3.260
 7824SOL    HW224372   5.456   3.227   3.264
 7825SOL     OW24373   3.782   3.661   2.306
 7825SOL    HW124374   3.772   3.744   2.361
 7825SOL    HW224375   3.878   3.650   2.278
 7826SOL     OW24376   6.140   6.923   1.309
 7826SOL    HW124377   6.122   6.932   1.211
 7826SOL    HW224378   6.134   7.013   1.352
 7827SOL     OW24379   4.992   3.756   0.576
 7827SOL    HW124380   4.968   3.660   0.561
 7827SOL    HW224381   5.061   3.762   0.648
 7828SOL     OW24382   0.807   5.856   0.778
 7828SOL    HW124383   0.852   5.789   0.720
 7828SOL    HW224384   0.722   5.886   0.735
 7829SOL     OW24385   4.068   3.323   2.530
 7829SOL    HW124386   4.067   3.265   2.449
 7829SOL    HW224387   4.092   3.268   2.610
 7830SOL     OW24388   5.806   3.025   6.639
 7830SOL    HW124389   5.833   2.929   6.643
 7830SOL    HW224390   5.870   3.080   6.692
 7831SOL     OW24391   1.812   2.671   6.529
 7831SOL    HW124392   1.804   2.716   6.440
 7831SOL    HW224393   1.899   2.694   6.571
 7832SOL     OW24394   2.770   2.553   5.283
 7832SOL    HW124395   2.738   2.529   5.375
 7832SOL    HW224396   2.714   2.505   5.215
 7833SOL     OW24397   1.476   6.704   0.733
 7833SOL    HW124398   1.445   6.783   0.680
 7833SOL    HW224399   1.576   6.702   0.734
 7834SOL     OW24400   0.263   0.398   1.047
 7834SOL    HW124401   0.206   0.444   0.978
 7834SOL    HW224402   0.218   0.314   1.076
 7835SOL     OW24403   2.119   2.632   5.125
 7835SOL    HW124404   2.037   2.612   5.071
 7835SOL    HW224405   2.113   2.585   5.213
 7836SOL     OW24406   2.499   0.166   0.051
 7836SOL    HW124407   2.565   0.101   0.013
 7836SOL    HW224408   2.409   0.123   0.055
 7837SOL     OW24409   6.021   0.554   3.745
 7837SOL    HW124410   5.941   0.527   3.692
 7837SOL    HW224411   5.992   0.588   3.834
 7838SOL     OW24412   3.913   6.695   3.347
 7838SOL    HW124413   3.871   6.737   3.427
 7838SOL    HW224414   3.842   6.678   3.278
 7839SOL     OW24415   6.557   5.152   4.487
 7839SOL    HW124416   6.466   5.194   4.495
 7839SOL    HW224417   6.557   5.086   4.412
 7840SOL     OW24418   5.022   3.097   5.846
 7840SOL    HW124419   4.941   3.156   5.838
 7840SOL    HW224420   5.103   3.153   5.857
 7841SOL     OW24421   1.126   1.795   6.348
 7841SOL    HW124422   1.046   1.774   6.405
 7841SOL    HW224423   1.159   1.712   6.304
 7842SOL     OW24424   3.055   1.231   2.716
 7842SOL    HW124425   3.030   1.267   2.626
 7842SOL    HW224426   3.037   1.132   2.718
 7843SOL     OW24427   5.714   3.810   1.143
 7843SOL    HW124428   5.802   3.778   1.179
 7843SOL    HW224429   5.706   3.909   1.159
 7844SOL     OW24430   4.468   1.432   4.074
 7844SOL    HW124431   4.389   1.487   4.048
 7844SOL    HW224432   4.520   1.479   4.145
 7845SOL     OW24433   0.755   1.105   4.230
 7845SOL    HW124434   0.781   1.068   4.320
 7845SOL    HW224435   0.815   1.182   4.207
 7846SOL     OW24436   3.931   0.413   1.945
 7846SOL    HW124437   3.918   0.455   2.035
 7846SOL    HW224438   3.978   0.326   1.955
 7847SOL     OW24439   6.974   0.740   7.016
 7847SOL    HW124440   0.037   0.704   6.984
 7847SOL    HW224441   6.988   0.796   0.073
 7848SOL     OW24442   4.916   4.280   0.512
 7848SOL    HW124443   4.930   4.270   0.611
 7848SOL    HW224444   4.916   4.189   0.470
 7849SOL     OW24445   5.438   4.098   5.212
 7849SOL    HW124446   5.482   4.137   5.293
 7849SOL    HW224447   5.427   4.169   5.143
 7850SOL     OW24448   0.864   0.974   4.446
 7850SOL    HW124449   0.940   1.039   4.449
 7850SOL    HW224450   0.845   0.940   4.538
 7851SOL     OW24451   5.308   6.757   0.076
 7851SOL    HW124452   5.270   6.665   0.080
 7851SOL    HW224453   5.276   6.803   7.019
 7852SOL     OW24454   2.576   6.275   6.303
 7852SOL    HW124455   2.609   6.181   6.313
 7852SOL    HW224456   2.476   6.275   6.312
 7853SOL     OW24457   2.283   2.939   0.798
 7853SOL    HW124458   2.342   3.012   0.832
 7853SOL    HW224459   2.332   2.852   0.803
 7854SOL     OW24460   3.604   4.123   2.681
 7854SOL    HW124461   3.688   4.082   2.646
 7854SOL    HW224462   3.595   4.103   2.779
 7855SOL     OW24463   3.617   6.746   5.764
 7855SOL    HW124464   3.637   6.771   5.858
 7855SOL    HW224465   3.575   6.655   5.761
 7856SOL     OW24466   4.927   2.971   6.257
 7856SOL    HW124467   4.847   2.934   6.209
 7856SOL    HW224468   4.908   2.975   6.355
 7857SOL     OW24469   0.727   1.582   4.780
 7857SOL    HW124470   0.676   1.643   4.841
 7857SOL    HW224471   0.726   1.620   4.687
 7858SOL     OW24472   6.520   4.098   3.732
 7858SOL    HW124473   6.506   4.104   3.634
 7858SOL    HW224474   6.444   4.143   3.780
 7859SOL     OW24475   0.763   5.785   6.454
 7859SOL    HW124476   0.816   5.758   6.374
 7859SOL    HW224477   0.822   5.835   6.518
 7860SOL     OW24478   3.312   0.065   2.377
 7860SOL    HW124479   3.364   0.102   2.300
 7860SOL    HW224480   3.362   7.014   2.419
 7861SOL     OW24481   5.850   3.938   0.366
 7861SOL    HW124482   5.894   3.921   0.278
 7861SOL    HW224483   5.841   4.036   0.381
 7862SOL     OW24484   3.078   4.543   1.684
 7862SOL    HW124485   3.080   4.481   1.605
 7862SOL    HW224486   2.998   4.522   1.740
 7863SOL     OW24487   6.777   5.963   2.097
 7863SOL    HW124488   6.823   5.943   2.183
 7863SOL    HW224489   6.836   6.022   2.041
 7864SOL     OW24490   0.767   5.128   4.484
 7864SOL    HW124491   0.774   5.117   4.583
 7864SOL    HW224492   0.747   5.039   4.442
 7865SOL     OW24493   2.905   0.555   2.448
 7865SOL    HW124494   3.003   0.573   2.460
 7865SOL    HW224495   2.891   0.501   2.365
 7866SOL     OW24496   2.627   2.464   4.105
 7866SOL    HW124497   2.609   2.417   4.192
 7866SOL    HW224498   2.716   2.436   4.069
 7867SOL     OW24499   5.521   4.923   2.408
 7867SOL    HW124500   5.441   4.979   2.390
 7867SOL    HW224501   5.494   4.840   2.456
 7868SOL     OW24502   5.701   0.203   0.779
 7868SOL    HW124503   5.734   0.294   0.754
 7868SOL    HW224504   5.730   0.137   0.711
 7869SOL     OW24505   0.215   3.149   1.771
 7869SOL    HW124506   0.286   3.199   1.821
 7869SOL    HW224507   0.166   3.088   1.834
 7870SOL     OW24508   0.168   6.453   3.764
 7870SOL    HW124509   0.101   6.379   3.769
 7870SOL    HW224510   0.161   6.510   3.846
 7871SOL     OW24511   5.221   3.381   3.638
 7871SOL    HW124512   5.296   3.442   3.665
 7871SOL    HW224513   5.251   3.286   3.643
 7872SOL     OW24514   6.604   3.047   3.762
 7872SOL    HW124515   6.698   3.051   3.797
 7872SOL    HW224516   6.600   3.093   3.673
 7873SOL     OW24517   0.213   5.035   5.022
 7873SOL    HW124518   0.141   5.079   5.075
 7873SOL    HW224519   0.236   5.092   4.943
 7874SOL     OW24520   5.803   0.667   0.174
 7874SOL    HW124521   5.737   0.599   0.142
 7874SOL    HW224522   5.770   0.710   0.257
 7875SOL     OW24523   4.475   3.196   6.770
 7875SOL    HW124524   4.502   3.105   6.803
 7875SOL    HW224525   4.377   3.209   6.784
 7876SOL     OW24526   6.948   0.402   3.885
 7876SOL    HW124527   6.902   0.430   3.969
 7876SOL    HW224528   6.882   0.360   3.823
 7877SOL     OW24529   0.063   2.214   2.211
 7877SOL    HW124530   0.029   2.132   2.256
 7877SOL    HW224531   7.015   2.282   2.207
 7878SOL     OW24532   4.847   3.895   1.734
 7878SOL    HW124533   4.767   3.946   1.704
 7878SOL    HW224534   4.898   3.862   1.654
 7879SOL     OW24535   5.776   0.518   5.012
 7879SOL    HW124536   5.716   0.589   4.975
 7879SOL    HW224537   5.846   0.560   5.069
 7880SOL     OW24538   0.854   0.224   6.232
 7880SOL    HW124539   0.756   0.235   6.212
 7880SOL    HW224540   0.892   0.155   6.170
 7881SOL     OW24541   6.974   4.943   4.172
 7881SOL    HW124542   0.048   4.939   4.184
 7881SOL    HW224543   6.949   5.029   4.127
 7882SOL     OW24544   0.474   4.089   2.486
 7882SOL    HW124545   0.382   4.060   2.508
 7882SOL    HW224546   0.513   4.029   2.416
 7883SOL     OW24547   3.832   1.236   4.192
 7883SOL    HW124548   3.928   1.261   4.205
 7883SOL    HW224549   3.775   1.288   4.256
 7884SOL     OW24550   0.970   3.739   4.558
 7884SOL    HW124551   1.052   3.796   4.562
 7884SOL    HW224552   0.948   3.706   4.649
 7885SOL     OW24553   6.288   5.325   3.715
 7885SOL    HW124554   6.229   5.397   3.678
 7885SOL    HW224555   6.313   5.348   3.809
 7886SOL     OW24556   4.987   3.472   3.738
 7886SOL    HW124557   4.913   3.413   3.707
 7886SOL    HW224558   5.069   3.453   3.684
 7887SOL     OW24559   2.441   3.415   0.746
 7887SOL    HW124560   2.364   3.477   0.762
 7887SOL    HW224561   2.446   3.391   0.649
 7888SOL     OW24562   6.295   2.196   4.294
 7888SOL    HW124563   6.344   2.164   4.374
 7888SOL    HW224564   6.210   2.241   4.322
 7889SOL     OW24565   5.822   5.519   0.014
 7889SOL    HW124566   5.908   5.514   0.065
 7889SOL    HW224567   5.752   5.465   0.062
 7890SOL     OW24568   1.680   3.625   4.161
 7890SOL    HW124569   1.683   3.577   4.073
 7890SOL    HW224570   1.687   3.723   4.146
 7891SOL     OW24571   6.785   1.827   3.887
 7891SOL    HW124572   6.852   1.895   3.857
 7891SOL    HW224573   6.797   1.743   3.834
 7892SOL     OW24574   0.252   1.790   5.851
 7892SOL    HW124575   0.331   1.737   5.819
 7892SOL    HW224576   0.215   1.844   5.776
 7893SOL     OW24577   6.299   0.217   0.508
 7893SOL    HW124578   6.239   0.264   0.572
 7893SOL    HW224579   6.309   0.272   0.425
 7894SOL     OW24580   3.315   1.799   6.339
 7894SOL    HW124581   3.287   1.819   6.245
 7894SOL    HW224582   3.242   1.748   6.385
 7895SOL     OW24583   4.751   6.241   3.381
 7895SOL    HW124584   4.767   6.283   3.471
 7895SOL    HW224585   4.773   6.307   3.309
 7896SOL     OW24586   2.735   2.640   1.038
 7896SOL    HW124587   2.767   2.679   0.951
 7896SOL    HW224588   2.643   2.603   1.026
 7897SOL     OW24589   3.263   3.514   0.474
 7897SOL    HW124590   3.334   3.480   0.413
 7897SOL    HW224591   3.300   3.586   0.533
 7898SOL     OW24592   5.754   6.864   3.519
 7898SOL    HW124593   5.783   6.769   3.511
 7898SOL    HW224594   5.830   6.919   3.556
 7899SOL     OW24595   6.362   4.969   3.600
 7899SOL    HW124596   6.301   5.009   3.668
 7899SOL    HW224597   6.457   4.994   3.622
 7900SOL     OW24598   0.794   4.351   1.684
 7900SOL    HW124599   0.749   4.380   1.769
 7900SOL    HW224600   0.886   4.317   1.706
 7901SOL     OW24601   6.645   1.392   6.466
 7901SOL    HW124602   6.657   1.317   6.400
 7901SOL    HW224603   6.605   1.471   6.420
 7902SOL     OW24604   1.130   6.539   2.721
 7902SOL    HW124605   1.204   6.532   2.653
 7902SOL    HW224606   1.042   6.533   2.674
 7903SOL     OW24607   2.960   2.114   4.901
 7903SOL    HW124608   3.008   2.171   4.968
 7903SOL    HW224609   2.945   2.167   4.817
 7904SOL     OW24610   5.130   1.457   1.996
 7904SOL    HW124611   5.052   1.407   1.959
 7904SOL    HW224612   5.192   1.394   2.043
 7905SOL     OW24613   5.768   0.788   1.286
 7905SOL    HW124614   5.716   0.843   1.352
 7905SOL    HW224615   5.732   0.805   1.194
 7906SOL     OW24616   1.832   5.567   0.295
 7906SOL    HW124617   1.807   5.571   0.392
 7906SOL    HW224618   1.908   5.504   0.282
 7907SOL     OW24619   6.327   0.270   3.003
 7907SOL    HW124620   6.368   0.359   2.983
 7907SOL    HW224621   6.341   0.247   3.099
 7908SOL     OW24622   0.992   0.310   6.758
 7908SOL    HW124623   1.087   0.321   6.785
 7908SOL    HW224624   0.987   0.260   6.671
 7909SOL     OW24625   6.098   4.871   1.756
 7909SOL    HW124626   6.148   4.810   1.695
 7909SOL    HW224627   6.050   4.816   1.826
 7910SOL     OW24628   1.257   3.594   0.144
 7910SOL    HW124629   1.236   3.676   0.090
 7910SOL    HW224630   1.252   3.514   0.085
 7911SOL     OW24631   1.051   4.297   0.046
 7911SOL    HW124632   1.082   4.241   0.122
 7911SOL    HW224633   1.006   4.238   7.003
 7912SOL     OW24634   5.871   5.725   0.540
 7912SOL    HW124635   5.878   5.825   0.544
 7912SOL    HW224636   5.791   5.695   0.592
 7913SOL     OW24637   0.853   4.149   1.198
 7913SOL    HW124638   0.821   4.054   1.186
 7913SOL    HW224639   0.823   4.183   1.287
 7914SOL     OW24640   6.323   5.875   4.794
 7914SOL    HW124641   6.400   5.812   4.805
 7914SOL    HW224642   6.294   5.908   4.884
 7915SOL     OW24643   3.654   6.199   2.606
 7915SOL    HW124644   3.708   6.268   2.560
 7915SOL    HW224645   3.580   6.169   2.546
 7916SOL     OW24646   1.636   0.391   4.588
 7916SOL    HW124647   1.666   0.366   4.496
 7916SOL    HW224648   1.628   0.490   4.595
 7917SOL     OW24649   4.571   3.576   0.906
 7917SOL    HW124650   4.513   3.502   0.872
 7917SOL    HW224651   4.589   3.562   1.003
 7918SOL     OW24652   1.909   2.048   4.904
 7918SOL    HW124653   1.921   2.094   4.992
 7918SOL    HW224654   1.830   2.086   4.856
 7919SOL     OW24655   2.187   6.287   3.892
 7919SOL    HW124656   2.259   6.331   3.946
 7919SOL    HW224657   2.173   6.339   3.807
 7920SOL     OW24658   5.236   0.548   1.230
 7920SOL    HW124659   5.185   0.635   1.226
 7920SOL    HW224660   5.280   0.541   1.319
 7921SOL     OW24661   5.391   2.194   1.679
 7921SOL    HW124662   5.309   2.196   1.736
 7921SOL    HW224663   5.449   2.117   1.707
 7922SOL     OW24664   1.420   5.541   1.136
 7922SOL    HW124665   1.479   5.568   1.211
 7922SOL    HW224666   1.339   5.599   1.134
 7923SOL     OW24667   4.576   1.042   0.439
 7923SOL    HW124668   4.651   1.059   0.503
 7923SOL    HW224669   4.610   1.047   0.345
 7924SOL     OW24670   5.950   6.347   0.995
 7924SOL    HW124671   6.009   6.418   1.033
 7924SOL    HW224672   5.903   6.383   0.914
 7925SOL     OW24673   1.626   6.282   6.930
 7925SOL    HW124674   1.528   6.289   6.912
 7925SOL    HW224675   1.663   6.201   6.883
 7926SOL     OW24676   4.406   5.176   6.905
 7926SOL    HW124677   4.483   5.132   6.951
 7926SOL    HW224678   4.426   5.186   6.808
 7927SOL     OW24679   4.557   0.542   2.926
 7927SOL    HW124680   4.543   0.571   2.831
 7927SOL    HW224681   4.653   0.518   2.940
 7928SOL     OW24682   6.634   1.934   3.463
 7928SOL    HW124683   6.650   2.031   3.446
 7928SOL    HW224684   6.721   1.888   3.481
 7929SOL     OW24685   3.941   4.422   6.133
 7929SOL    HW124686   4.006   4.466   6.071
 7929SOL    HW224687   3.987   4.399   6.218
 7930SOL     OW24688   4.636   6.031   5.585
 7930SOL    HW124689   4.649   5.941   5.542
 7930SOL    HW224690   4.678   6.101   5.528
 7931SOL     OW24691   3.675   2.142   1.084
 7931SOL    HW124692   3.681   2.230   1.036
 7931SOL    HW224693   3.696   2.156   1.181
 7932SOL     OW24694   1.588   4.909   2.577
 7932SOL    HW124695   1.576   4.854   2.494
 7932SOL    HW224696   1.649   4.986   2.557
 7933SOL     OW24697   0.804   1.324   6.532
 7933SOL    HW124698   0.804   1.225   6.526
 7933SOL    HW224699   0.892   1.355   6.568
 7934SOL     OW24700   0.968   4.800   1.617
 7934SOL    HW124701   0.901   4.819   1.545
 7934SOL    HW224702   0.995   4.886   1.660
 7935SOL     OW24703   5.153   3.205   4.063
 7935SOL    HW124704   5.092   3.126   4.070
 7935SOL    HW224705   5.242   3.174   4.029
 7936SOL     OW24706   3.898   6.137   3.817
 7936SOL    HW124707   3.894   6.186   3.905
 7936SOL    HW224708   3.895   6.204   3.743
 7937SOL     OW24709   3.585   0.771   6.916
 7937SOL    HW124710   3.521   0.793   6.843
 7937SOL    HW224711   3.541   0.785   7.005
 7938SOL     OW24712   4.157   6.759   4.495
 7938SOL    HW124713   4.121   6.667   4.480
 7938SOL    HW224714   4.127   6.819   4.420
 7939SOL     OW24715   0.687   1.903   3.991
 7939SOL    HW124716   0.672   1.935   3.897
 7939SOL    HW224717   0.606   1.922   4.046
 7940SOL     OW24718   5.213   1.210   3.009
 7940SOL    HW124719   5.139   1.193   2.945
 7940SOL    HW224720   5.182   1.274   3.079
 7941SOL     OW24721   3.393   6.943   1.454
 7941SOL    HW124722   3.369   6.862   1.401
 7941SOL    HW224723   3.484   6.974   1.428
 7942SOL     OW24724   1.121   4.680   1.385
 7942SOL    HW124725   1.095   4.738   1.462
 7942SOL    HW224726   1.052   4.609   1.371
 7943SOL     OW24727   1.322   5.720   6.103
 7943SOL    HW124728   1.359   5.672   6.023
 7943SOL    HW224729   1.342   5.668   6.185
 7944SOL     OW24730   1.466   2.382   0.807
 7944SOL    HW124731   1.392   2.442   0.834
 7944SOL    HW224732   1.467   2.301   0.866
 7945SOL     OW24733   6.135   4.247   3.042
 7945SOL    HW124734   6.124   4.281   3.136
 7945SOL    HW224735   6.077   4.167   3.028
 7946SOL     OW24736   3.465   1.353   5.979
 7946SOL    HW124737   3.377   1.314   5.952
 7946SOL    HW224738   3.465   1.452   5.962
 7947SOL     OW24739   0.834   3.760   6.236
 7947SOL    HW124740   0.756   3.811   6.274
 7947SOL    HW224741   0.832   3.767   6.136
 7948SOL     OW24742   1.464   4.381   2.297
 7948SOL    HW124743   1.424   4.294   2.269
 7948SOL    HW224744   1.427   4.408   2.386
 7949SOL     OW24745   3.768   6.226   6.307
 7949SOL    HW124746   3.677   6.184   6.302
 7949SOL    HW224747   3.825   6.174   6.372
 7950SOL     OW24748   5.533   4.685   5.633
 7950SOL    HW124749   5.494   4.692   5.541
 7950SOL    HW224750   5.609   4.750   5.642
 7951SOL     OW24751   3.270   6.439   2.774
 7951SOL    HW124752   3.235   6.364   2.830
 7951SOL    HW224753   3.211   6.450   2.693
 7952SOL     OW24754   5.804   3.635   6.705
 7952SOL    HW124755   5.759   3.546   6.701
 7952SOL    HW224756   5.861   3.647   6.624
 7953SOL     OW24757   2.796   0.793   1.154
 7953SOL    HW124758   2.785   0.892   1.155
 7953SOL    HW224759   2.744   0.754   1.077
 7954SOL     OW24760   3.796   3.525   6.473
 7954SOL    HW124761   3.754   3.499   6.560
 7954SOL    HW224762   3.815   3.443   6.419
 7955SOL     OW24763   1.609   1.431   0.202
 7955SOL    HW124764   1.555   1.422   0.118
 7955SOL    HW224765   1.557   1.485   0.268
 7956SOL     OW24766   5.996   6.110   0.265
 7956SOL    HW124767   6.064   6.038   0.249
 7956SOL    HW224768   6.041   6.192   0.299
 7957SOL     OW24769   4.383   0.934   5.618
 7957SOL    HW124770   4.284   0.933   5.607
 7957SOL    HW224771   4.407   0.913   5.712
 7958SOL     OW24772   5.806   2.810   6.955
 7958SOL    HW124773   5.844   2.832   6.866
 7958SOL    HW224774   5.815   2.712   6.973
 7959SOL     OW24775   5.622   1.501   6.348
 7959SOL    HW124776   5.715   1.537   6.351
 7959SOL    HW224777   5.588   1.487   6.442
 7960SOL     OW24778   0.514   0.675   5.790
 7960SOL    HW124779   0.491   0.730   5.710
 7960SOL    HW224780   0.546   0.734   5.864
 7961SOL     OW24781   6.788   6.371   0.671
 7961SOL    HW124782   6.690   6.358   0.682
 7961SOL    HW224783   6.820   6.318   0.593
 7962SOL     OW24784   5.216   6.878   5.878
 7962SOL    HW124785   5.147   6.817   5.838
 7962SOL    HW224786   5.217   6.865   5.978
 7963SOL     OW24787   0.318   5.739   4.375
 7963SOL    HW124788   0.409   5.761   4.340
 7963SOL    HW224789   0.322   5.734   4.475
 7964SOL     OW24790   6.807   4.492   2.114
 7964SOL    HW124791   6.847   4.577   2.149
 7964SOL    HW224792   6.715   4.481   2.151
 7965SOL     OW24793   3.194   2.512   6.476
 7965SOL    HW124794   3.272   2.553   6.524
 7965SOL    HW224795   3.227   2.446   6.408
 7966SOL     OW24796   4.929   3.651   4.831
 7966SOL    HW124797   5.024   3.627   4.811
 7966SOL    HW224798   4.893   3.588   4.900
 7967SOL     OW24799   1.821   4.539   2.045
 7967SOL    HW124800   1.811   4.490   1.958
 7967SOL    HW224801   1.740   4.521   2.102
 7968SOL     OW24802   0.202   2.426   4.712
 7968SOL    HW124803   0.229   2.475   4.629
 7968SOL    HW224804   0.282   2.383   4.753
 7969SOL     OW24805   4.545   4.755   0.100
 7969SOL    HW124806   4.551   4.802   0.012
 7969SOL    HW224807   4.613   4.794   0.163
 7970SOL     OW24808   5.788   3.005   2.730
 7970SOL    HW124809   5.743   3.087   2.765
 7970SOL    HW224810   5.886   3.022   2.722
 7971SOL     OW24811   3.092   0.954   0.515
 7971SOL    HW124812   3.115   0.957   0.418
 7971SOL    HW224813   2.996   0.980   0.528
 7972SOL     OW24814   3.839   3.885   3.255
 7972SOL    HW124815   3.862   3.926   3.167
 7972SOL    HW224816   3.898   3.806   3.272
 7973SOL     OW24817   6.261   3.653   2.283
 7973SOL    HW124818   6.254   3.567   2.333
 7973SOL    HW224819   6.358   3.673   2.266
 7974SOL     OW24820   6.892   2.356   6.327
 7974SOL    HW124821   6.923   2.262   6.339
 7974SOL    HW224822   6.795   2.363   6.351
 7975SOL     OW24823   5.665   0.823   1.045
 7975SOL    HW124824   5.566   0.814   1.056
 7975SOL    HW224825   5.701   0.742   0.999
 7976SOL     OW24826   0.829   6.719   0.305
 7976SOL    HW124827   0.748   6.722   0.246
 7976SOL    HW224828   0.801   6.709   0.400
 7977SOL     OW24829   5.609   5.335   3.314
 7977SOL    HW124830   5.602   5.380   3.402
 7977SOL    HW224831   5.587   5.237   3.324
 7978SOL     OW24832   0.304   4.432   1.860
 7978SOL    HW124833   0.241   4.398   1.790
 7978SOL    HW224834   0.382   4.477   1.815
 7979SOL     OW24835   1.856   2.874   4.406
 7979SOL    HW124836   1.795   2.813   4.456
 7979SOL    HW224837   1.873   2.956   4.460
 7980SOL     OW24838   4.138   5.477   0.068
 7980SOL    HW124839   4.095   5.388   0.084
 7980SOL    HW224840   4.086   5.528   7.024
 7981SOL     OW24841   1.384   4.990   2.896
 7981SOL    HW124842   1.372   4.912   2.958
 7981SOL    HW224843   1.464   5.042   2.923
 7982SOL     OW24844   6.419   2.232   5.413
 7982SOL    HW124845   6.394   2.143   5.375
 7982SOL    HW224846   6.500   2.222   5.472
 7983SOL     OW24847   5.032   1.546   1.505
 7983SOL    HW124848   4.992   1.458   1.478
 7983SOL    HW224849   5.106   1.530   1.570
 7984SOL     OW24850   1.022   1.598   2.700
 7984SOL    HW124851   0.977   1.683   2.727
 7984SOL    HW224852   1.069   1.558   2.779
 7985SOL     OW24853   2.586   2.326   5.387
 7985SOL    HW124854   2.541   2.307   5.474
 7985SOL    HW224855   2.633   2.244   5.355
 7986SOL     OW24856   2.667   1.090   3.836
 7986SOL    HW124857   2.571   1.080   3.810
 7986SOL    HW224858   2.674   1.150   3.915
 7987SOL     OW24859   1.442   3.355   0.412
 7987SOL    HW124860   1.537   3.325   0.412
 7987SOL    HW224861   1.438   3.455   0.408
 7988SOL     OW24862   6.884   1.599   0.948
 7988SOL    HW124863   6.919   1.638   0.863
 7988SOL    HW224864   6.959   1.584   1.011
 7989SOL     OW24865   0.168   4.631   0.240
 7989SOL    HW124866   0.243   4.618   0.305
 7989SOL    HW224867   0.107   4.552   0.241
 7990SOL     OW24868   4.144   5.250   5.771
 7990SOL    HW124869   4.220   5.271   5.709
 7990SOL    HW224870   4.078   5.325   5.769
 7991SOL     OW24871   6.380   1.267   4.990
 7991SOL    HW124872   6.373   1.282   4.892
 7991SOL    HW224873   6.348   1.175   5.012
 7992SOL     OW24874   2.801   6.906   0.236
 7992SOL    HW124875   2.769   6.940   0.148
 7992SOL    HW224876   2.723   6.900   0.299
 7993SOL     OW24877   6.651   6.106   1.276
 7993SOL    HW124878   6.738   6.058   1.281
 7993SOL    HW224879   6.640   6.165   1.356
 7994SOL     OW24880   5.427   0.210   3.717
 7994SOL    HW124881   5.445   0.120   3.677
 7994SOL    HW224882   5.378   0.199   3.803
 7995SOL     OW24883   0.511   4.392   1.485
 7995SOL    HW124884   0.591   4.397   1.425
 7995SOL    HW224885   0.479   4.484   1.507
 7996SOL     OW24886   3.244   0.870   2.968
 7996SOL    HW124887   3.258   0.949   3.028
 7996SOL    HW224888   3.171   0.812   3.005
 7997SOL     OW24889   1.374   1.606   6.463
 7997SOL    HW124890   1.466   1.579   6.431
 7997SOL    HW224891   1.321   1.639   6.385
 7998SOL     OW24892   2.708   1.423   0.634
 7998SOL    HW124893   2.744   1.442   0.543
 7998SOL    HW224894   2.618   1.465   0.644
 7999SOL     OW24895   0.984   0.606   4.565
 7999SOL    HW124896   0.999   0.537   4.636
 7999SOL    HW224897   1.047   0.589   4.488
 8000SOL     OW24898   4.450   5.325   6.574
 8000SOL    HW124899   4.528   5.270   6.603
 8000SOL    HW224900   4.438   5.316   6.475
 8001SOL     OW24901   4.381   6.555   1.608
 8001SOL    HW124902   4.477   6.582   1.618
 8001SOL    HW224903   4.376   6.458   1.584
 8002SOL     OW24904   0.791   0.023   5.240
 8002SOL    HW124905   0.731   0.002   5.163
 8002SOL    HW224906   0.746   7.022   5.325
 8003SOL     OW24907   1.996   5.845   2.270
 8003SOL    HW124908   1.991   5.941   2.299
 8003SOL    HW224909   2.021   5.840   2.174
 8004SOL     OW24910   1.267   3.304   3.429
 8004SOL    HW124911   1.234   3.337   3.341
 8004SOL    HW224912   1.239   3.208   3.441
 8005SOL     OW24913   2.385   0.377   3.546
 8005SOL    HW124914   2.330   0.376   3.463
 8005SOL    HW224915   2.482   0.364   3.522
 8006SOL     OW24916   3.521   4.745   5.607
 8006SOL    HW124917   3.515   4.682   5.684
 8006SOL    HW224918   3.546   4.695   5.525
 8007SOL     OW24919   6.426   0.618   6.486
 8007SOL    HW124920   6.525   0.631   6.485
 8007SOL    HW224921   6.404   0.530   6.445
 8008SOL     OW24922   5.411   0.076   6.650
 8008SOL    HW124923   5.456   0.047   6.566
 8008SOL    HW224924   5.346   0.150   6.630
 8009SOL     OW24925   4.828   2.065   6.215
 8009SOL    HW124926   4.865   1.973   6.205
 8009SOL    HW224927   4.868   2.109   6.296
 8010SOL     OW24928   2.655   1.889   5.495
 8010SOL    HW124929   2.575   1.950   5.493
 8010SOL    HW224930   2.624   1.795   5.510
 8011SOL     OW24931   4.345   1.456   2.078
 8011SOL    HW124932   4.326   1.409   1.992
 8011SOL    HW224933   4.272   1.438   2.143
 8012SOL     OW24934   0.192   1.529   5.357
 8012SOL    HW124935   0.153   1.585   5.284
 8012SOL    HW224936   0.129   1.527   5.435
 8013SOL     OW24937   3.082   2.184   2.790
 8013SOL    HW124938   3.081   2.161   2.888
 8013SOL    HW224939   3.173   2.167   2.753
 8014SOL     OW24940   2.186   1.337   2.357
 8014SOL    HW124941   2.199   1.338   2.456
 8014SOL    HW224942   2.228   1.418   2.316
 8015SOL     OW24943   3.341   6.896   5.682
 8015SOL    HW124944   3.360   6.800   5.661
 8015SOL    HW224945   3.242   6.912   5.677
 8016SOL     OW24946   3.570   1.834   4.925
 8016SOL    HW124947   3.480   1.797   4.947
 8016SOL    HW224948   3.631   1.760   4.896
 8017SOL     OW24949   6.193   6.244   1.256
 8017SOL    HW124950   6.123   6.184   1.217
 8017SOL    HW224951   6.169   6.266   1.350
 8018SOL     OW24952   3.952   1.766   6.937
 8018SOL    HW124953   3.917   1.842   6.992
 8018SOL    HW224954   4.050   1.756   6.952
 8019SOL     OW24955   2.635   3.909   1.316
 8019SOL    HW124956   2.590   3.992   1.282
 8019SOL    HW224957   2.631   3.838   1.245
 8020SOL     OW24958   0.474   0.825   5.514
 8020SOL    HW124959   0.414   0.902   5.494
 8020SOL    HW224960   0.447   0.747   5.457
 8021SOL     OW24961   1.358   2.139   1.353
 8021SOL    HW124962   1.416   2.137   1.272
 8021SOL    HW224963   1.356   2.231   1.391
 8022SOL     OW24964   4.883   1.758   2.309
 8022SOL    HW124965   4.847   1.752   2.216
 8022SOL    HW224966   4.840   1.834   2.357
 8023SOL     OW24967   4.791   5.509   2.852
 8023SOL    HW124968   4.873   5.453   2.863
 8023SOL    HW224969   4.752   5.494   2.761
 8024SOL     OW24970   2.275   0.973   6.739
 8024SOL    HW124971   2.175   0.977   6.743
 8024SOL    HW224972   2.314   1.047   6.794
 8025SOL     OW24973   1.381   6.043   0.955
 8025SOL    HW124974   1.312   5.974   0.977
 8025SOL    HW224975   1.471   5.999   0.949
 8026SOL     OW24976   0.651   5.378   6.579
 8026SOL    HW124977   0.620   5.314   6.650
 8026SOL    HW224978   0.748   5.399   6.594
 8027SOL     OW24979   3.421   6.980   7.021
 8027SOL    HW124980   3.341   6.947   0.046
 8027SOL    HW224981   3.443   6.917   6.947
 8028SOL     OW24982   3.085   5.505   5.431
 8028SOL    HW124983   3.062   5.484   5.336
 8028SOL    HW224984   3.180   5.481   5.449
 8029SOL     OW24985   6.944   0.032   0.308
 8029SOL    HW124986   6.995   0.078   0.235
 8029SOL    HW224987   6.851   0.012   0.276
 8030SOL     OW24988   1.070   3.876   0.827
 8030SOL    HW124989   1.129   3.957   0.833
 8030SOL    HW224990   0.982   3.896   0.870
 8031SOL     OW24991   0.044   0.759   3.346
 8031SOL    HW124992   0.144   0.759   3.341
 8031SOL    HW224993   0.015   0.807   3.429
 8032SOL     OW24994   5.913   2.993   1.174
 8032SOL    HW124995   5.916   2.894   1.167
 8032SOL    HW224996   5.989   3.026   1.230
 8033SOL     OW24997   5.305   3.515   0.563
 8033SOL    HW124998   5.275   3.516   0.468
 8033SOL    HW224999   5.228   3.535   0.623
 8034SOL     OW25000   6.103   0.206   5.721
 8034SOL    HW125001   6.184   0.201   5.779
 8034SOL    HW225002   6.129   0.185   5.626
 8035SOL     OW25003   5.594   1.858   2.796
 8035SOL    HW125004   5.647   1.942   2.808
 8035SOL    HW225005   5.508   1.865   2.847
 8036SOL     OW25006   6.315   2.464   3.521
 8036SOL    HW125007   6.352   2.399   3.455
 8036SOL    HW225008   6.238   2.513   3.481
 8037SOL     OW25009   0.947   2.144   6.011
 8037SOL    HW125010   0.868   2.205   6.002
 8037SOL    HW225011   0.930   2.060   5.960
 8038SOL     OW25012   6.976   5.091   2.311
 8038SOL    HW125013   6.981   5.175   2.364
 8038SOL    HW225014   6.895   5.039   2.339
 8039SOL     OW25015   1.306   2.377   5.401
 8039SOL    HW125016   1.298   2.334   5.491
 8039SOL    HW225017   1.310   2.476   5.412
 8040SOL     OW25018   2.243   5.357   6.571
 8040SOL    HW125019   2.151   5.344   6.608
 8040SOL    HW225020   2.257   5.295   6.494
 8041SOL     OW25021   3.971   1.354   3.559
 8041SOL    HW125022   3.930   1.381   3.473
 8041SOL    HW225023   4.049   1.413   3.579
 8042SOL     OW25024   4.174   4.273   5.528
 8042SOL    HW125025   4.097   4.289   5.590
 8042SOL    HW225026   4.230   4.198   5.563
 8043SOL     OW25027   5.456   5.264   6.655
 8043SOL    HW125028   5.417   5.356   6.653
 8043SOL    HW225029   5.412   5.207   6.585
 8044SOL     OW25030   2.759   3.644   1.684
 8044SOL    HW125031   2.662   3.630   1.666
 8044SOL    HW225032   2.812   3.575   1.635
 8045SOL     OW25033   0.314   1.866   3.072
 8045SOL    HW125034   0.247   1.929   3.033
 8045SOL    HW225035   0.359   1.814   2.999
 8046SOL     OW25036   6.947   4.971   1.822
 8046SOL    HW125037   6.945   5.005   1.916
 8046SOL    HW225038   6.883   4.894   1.812
 8047SOL     OW25039   3.556   6.267   6.576
 8047SOL    HW125040   3.529   6.206   6.502
 8047SOL    HW225041   3.583   6.356   6.538
 8048SOL     OW25042   3.665   2.650   6.527
 8048SOL    HW125043   3.695   2.638   6.432
 8048SOL    HW225044   3.666   2.747   6.550
 8049SOL     OW25045   1.314   1.423   0.310
 8049SOL    HW125046   1.254   1.502   0.299
 8049SOL    HW225047   1.317   1.396   0.406
 8050SOL     OW25048   0.107   4.739   5.595
 8050SOL    HW125049   0.008   4.735   5.610
 8050SOL    HW225050   0.125   4.744   5.497
 8051SOL     OW25051   4.239   5.960   3.819
 8051SOL    HW125052   4.306   5.928   3.886
 8051SOL    HW225053   4.187   6.036   3.857
 8052SOL     OW25054   2.395   2.728   2.371
 8052SOL    HW125055   2.495   2.730   2.372
 8052SOL    HW225056   2.365   2.633   2.359
 8053SOL     OW25057   2.097   2.701   6.334
 8053SOL    HW125058   2.096   2.644   6.252
 8053SOL    HW225059   2.102   2.643   6.415
 8054SOL     OW25060   4.688   3.407   5.406
 8054SOL    HW125061   4.685   3.472   5.330
 8054SOL    HW225062   4.660   3.317   5.373
 8055SOL     OW25063   6.231   0.451   6.787
 8055SOL    HW125064   6.184   0.504   6.716
 8055SOL    HW225065   6.303   0.507   6.828
 8056SOL     OW25066   1.983   1.541   4.863
 8056SOL    HW125067   1.896   1.506   4.829
 8056SOL    HW225068   2.057   1.479   4.837
 8057SOL     OW25069   2.762   2.104   2.008
 8057SOL    HW125070   2.812   2.031   2.054
 8057SOL    HW225071   2.808   2.191   2.024
 8058SOL     OW25072   3.547   6.404   2.760
 8058SOL    HW125073   3.451   6.412   2.735
 8058SOL    HW225074   3.587   6.325   2.714
 8059SOL     OW25075   2.621   2.975   6.409
 8059SOL    HW125076   2.687   3.047   6.388
 8059SOL    HW225077   2.529   3.010   6.399
 8060SOL     OW25078   6.051   0.296   5.234
 8060SOL    HW125079   6.120   0.351   5.189
 8060SOL    HW225080   6.000   0.352   5.299
 8061SOL     OW25081   6.911   0.526   2.376
 8061SOL    HW125082   6.916   0.441   2.323
 8061SOL    HW225083   6.949   0.509   2.468
 8062SOL     OW25084   4.388   5.483   5.861
 8062SOL    HW125085   4.354   5.544   5.789
 8062SOL    HW225086   4.485   5.465   5.847
 8063SOL     OW25087   3.546   5.457   3.211
 8063SOL    HW125088   3.616   5.488   3.146
 8063SOL    HW225089   3.577   5.373   3.256
 8064SOL     OW25090   5.980   1.672   1.014
 8064SOL    HW125091   6.036   1.615   0.953
 8064SOL    HW225092   5.922   1.613   1.070
 8065SOL     OW25093   3.926   5.379   6.269
 8065SOL    HW125094   3.903   5.321   6.348
 8065SOL    HW225095   3.911   5.475   6.293
 8066SOL     OW25096   0.581   6.942   5.081
 8066SOL    HW125097   0.528   7.018   5.043
 8066SOL    HW225098   0.523   6.890   5.144
 8067SOL     OW25099   5.447   3.116   4.058
 8067SOL    HW125100   5.433   3.018   4.048
 8067SOL    HW225101   5.545   3.136   4.055
 8068SOL     OW25102   6.248   4.283   1.216
 8068SOL    HW125103   6.321   4.280   1.284
 8068SOL    HW225104   6.162   4.258   1.259
 8069SOL     OW25105   2.558   4.861   2.554
 8069SOL    HW125106   2.618   4.790   2.519
 8069SOL    HW225107   2.599   4.903   2.635
 8070SOL     OW25108   4.717   4.864   0.263
 8070SOL    HW125109   4.699   4.938   0.328
 8070SOL    HW225110   4.801   4.816   0.289
 8071SOL     OW25111   2.989   6.423   5.569
 8071SOL    HW125112   3.080   6.440   5.531
 8071SOL    HW225113   2.996   6.402   5.666
 8072SOL     OW25114   1.245   2.237   5.644
 8072SOL    HW125115   1.295   2.160   5.606
 8072SOL    HW225116   1.219   2.217   5.739
 8073SOL     OW25117   3.878   0.455   6.958
 8073SOL    HW125118   3.794   0.401   6.950
 8073SOL    HW225119   3.884   0.518   6.880
 8074SOL     OW25120   1.401   1.013   6.692
 8074SOL    HW125121   1.402   1.084   6.762
 8074SOL    HW225122   1.438   1.051   6.606
 8075SOL     OW25123   0.563   6.685   0.800
 8075SOL    HW125124   0.564   6.785   0.793
 8075SOL    HW225125   0.586   6.659   0.894
 8076SOL     OW25126   0.182   6.003   0.637
 8076SOL    HW125127   0.109   5.967   0.579
 8076SOL    HW225128   0.249   5.931   0.655
 8077SOL     OW25129   4.576   4.850   0.922
 8077SOL    HW125130   4.641   4.778   0.946
 8077SOL    HW225131   4.605   4.937   0.963
 8078SOL     OW25132   0.551   0.424   2.368
 8078SOL    HW125133   0.593   0.509   2.338
 8078SOL    HW225134   0.514   0.436   2.461
 8079SOL     OW25135   1.329   2.042   5.491
 8079SOL    HW125136   1.306   1.958   5.540
 8079SOL    HW225137   1.249   2.073   5.439
 8080SOL     OW25138   1.393   2.841   3.206
 8080SOL    HW125139   1.302   2.831   3.244
 8080SOL    HW225140   1.421   2.937   3.209
 8081SOL     OW25141   6.421   6.329   4.507
 8081SOL    HW125142   6.486   6.305   4.434
 8081SOL    HW225143   6.388   6.422   4.493
 8082SOL     OW25144   3.898   1.823   2.127
 8082SOL    HW125145   3.958   1.805   2.205
 8082SOL    HW225146   3.872   1.920   2.127
 8083SOL     OW25147   5.753   2.493   4.749
 8083SOL    HW125148   5.740   2.406   4.795
 8083SOL    HW225149   5.687   2.560   4.783
 8084SOL     OW25150   3.294   1.038   5.815
 8084SOL    HW125151   3.356   1.070   5.744
 8084SOL    HW225152   3.242   1.116   5.851
 8085SOL     OW25153   1.765   6.196   4.456
 8085SOL    HW125154   1.667   6.203   4.475
 8085SOL    HW225155   1.783   6.226   4.362
 8086SOL     OW25156   6.883   0.992   1.907
 8086SOL    HW125157   6.953   1.011   1.977
 8086SOL    HW225158   6.795   1.027   1.938
 8087SOL     OW25159   1.162   0.726   0.745
 8087SOL    HW125160   1.187   0.714   0.841
 8087SOL    HW225161   1.156   0.824   0.724
 8088SOL     OW25162   6.576   0.128   4.735
 8088SOL    HW125163   6.671   0.141   4.704
 8088SOL    HW225164   6.546   0.036   4.712
 8089SOL     OW25165   5.355   2.826   6.184
 8089SOL    HW125166   5.312   2.878   6.110
 8089SOL    HW225167   5.324   2.862   6.272
 8090SOL     OW25168   4.028   2.012   5.325
 8090SOL    HW125169   4.053   1.987   5.232
 8090SOL    HW225170   3.928   2.006   5.335
 8091SOL     OW25171   1.806   4.688   4.582
 8091SOL    HW125172   1.903   4.711   4.589
 8091SOL    HW225173   1.752   4.757   4.630
 8092SOL     OW25174   4.904   1.962   5.657
 8092SOL    HW125175   4.808   1.940   5.669
 8092SOL    HW225176   4.932   2.031   5.724
 8093SOL     OW25177   4.178   6.369   2.311
 8093SOL    HW125178   4.132   6.307   2.248
 8093SOL    HW225179   4.228   6.317   2.380
 8094SOL     OW25180   1.649   3.955   3.539
 8094SOL    HW125181   1.630   4.042   3.586
 8094SOL    HW225182   1.626   3.879   3.600
 8095SOL     OW25183   1.207   4.785   5.755
 8095SOL    HW125184   1.301   4.771   5.722
 8095SOL    HW225185   1.143   4.765   5.681
 8096SOL     OW25186   1.073   5.862   1.843
 8096SOL    HW125187   1.164   5.903   1.832
 8096SOL    HW225188   1.063   5.786   1.780
 8097SOL     OW25189   3.553   5.717   5.243
 8097SOL    HW125190   3.615   5.727   5.321
 8097SOL    HW225191   3.541   5.620   5.222
 8098SOL     OW25192   1.531   5.591   4.887
 8098SOL    HW125193   1.450   5.588   4.945
 8098SOL    HW225194   1.557   5.686   4.871
 8099SOL     OW25195   2.358   5.769   3.388
 8099SOL    HW125196   2.354   5.727   3.298
 8099SOL    HW225197   2.316   5.708   3.455
 8100SOL     OW25198   0.138   0.414   6.888
 8100SOL    HW125199   0.171   0.508   6.873
 8100SOL    HW225200   0.184   0.353   6.824
 8101SOL     OW25201   2.617   6.073   2.089
 8101SOL    HW125202   2.581   6.030   2.006
 8101SOL    HW225203   2.541   6.106   2.145
 8102SOL     OW25204   1.413   3.381   5.366
 8102SOL    HW125205   1.399   3.298   5.421
 8102SOL    HW225206   1.435   3.355   5.272
 8103SOL     OW25207   3.397   1.482   2.109
 8103SOL    HW125208   3.402   1.395   2.158
 8103SOL    HW225209   3.365   1.553   2.172
 8104SOL     OW25210   2.125   6.569   0.102
 8104SOL    HW125211   2.192   6.528   0.041
 8104SOL    HW225212   2.172   6.621   0.174
 8105SOL     OW25213   7.003   0.819   3.091
 8105SOL    HW125214   0.007   0.789   3.182
 8105SOL    HW225215   0.058   0.828   3.032
 8106SOL     OW25216   2.692   6.387   5.469
 8106SOL    HW125217   2.634   6.433   5.402
 8106SOL    HW225218   2.786   6.422   5.462
 8107SOL     OW25219   1.917   5.816   5.904
 8107SOL    HW125220   1.893   5.899   5.855
 8107SOL    HW225221   1.999   5.832   5.959
 8108SOL     OW25222   0.427   1.466   6.484
 8108SOL    HW125223   0.373   1.386   6.456
 8108SOL    HW225224   0.502   1.480   6.420
 8109SOL     OW25225   6.782   2.950   0.747
 8109SOL    HW125226   6.855   2.924   0.810
 8109SOL    HW225227   6.706   2.885   0.755
 8110SOL     OW25228   4.252   5.046   0.843
 8110SOL    HW125229   4.248   5.146   0.849
 8110SOL    HW225230   4.339   5.018   0.802
 8111SOL     OW25231   5.819   1.766   3.306
 8111SOL    HW125232   5.894   1.749   3.243
 8111SOL    HW225233   5.848   1.743   3.399
 8112SOL     OW25234   0.884   3.578   5.917
 8112SOL    HW125235   0.884   3.511   5.991
 8112SOL    HW225236   0.964   3.563   5.858
 8113SOL     OW25237   5.677   3.023   0.027
 8113SOL    HW125238   5.705   3.049   0.119
 8113SOL    HW225239   5.732   2.945   7.021
 8114SOL     OW25240   2.012   4.322   1.500
 8114SOL    HW125241   2.111   4.335   1.513
 8114SOL    HW225242   1.985   4.234   1.539
 8115SOL     OW25243   2.051   1.168   6.502
 8115SOL    HW125244   1.976   1.187   6.439
 8115SOL    HW225245   2.016   1.161   6.595
 8116SOL     OW25246   3.272   4.090   1.425
 8116SOL    HW125247   3.356   4.102   1.478
 8116SOL    HW225248   3.256   3.992   1.410
 8117SOL     OW25249   3.026   0.078   2.782
 8117SOL    HW125250   3.082   0.161   2.786
 8117SOL    HW225251   3.010   0.053   2.687
 8118SOL     OW25252   6.586   2.888   0.474
 8118SOL    HW125253   6.507   2.947   0.457
 8118SOL    HW225254   6.657   2.908   0.406
 8119SOL     OW25255   6.120   6.092   6.628
 8119SOL    HW125256   6.106   6.190   6.637
 8119SOL    HW225257   6.185   6.061   6.697
 8120SOL     OW25258   2.210   6.065   1.441
 8120SOL    HW125259   2.259   6.052   1.355
 8120SOL    HW225260   2.268   6.113   1.506
 8121SOL     OW25261   1.014   2.976   2.574
 8121SOL    HW125262   1.079   2.948   2.645
 8121SOL    HW225263   1.049   3.056   2.526
 8122SOL     OW25264   0.721   4.127   2.222
 8122SOL    HW125265   0.668   4.044   2.242
 8122SOL    HW225266   0.660   4.199   2.189
 8123SOL     OW25267   0.094   1.841   5.592
 8123SOL    HW125268   0.186   1.854   5.555
 8123SOL    HW225269   0.061   1.750   5.568
 8124SOL     OW25270   5.408   4.874   4.555
 8124SOL    HW125271   5.410   4.803   4.485
 8124SOL    HW225272   5.495   4.876   4.604
 8125SOL     OW25273   1.554   6.451   2.617
 8125SOL    HW125274   1.596   6.368   2.654
 8125SOL    HW225275   1.481   6.482   2.679
 8126SOL     OW25276   3.730   4.868   4.376
 8126SOL    HW125277   3.788   4.928   4.322
 8126SOL    HW225278   3.783   4.788   4.406
 8127SOL     OW25279   3.547   2.750   0.108
 8127SOL    HW125280   3.470   2.736   0.170
 8127SOL    HW225281   3.632   2.723   0.154
 8128SOL     OW25282   3.482   2.773   1.842
 8128SOL    HW125283   3.434   2.793   1.928
 8128SOL    HW225284   3.416   2.747   1.772
 8129SOL     OW25285   1.102   2.925   1.198
 8129SOL    HW125286   1.065   2.858   1.263
 8129SOL    HW225287   1.030   2.951   1.134
 8130SOL     OW25288   1.215   5.028   6.703
 8130SOL    HW125289   1.195   4.988   6.614
 8130SOL    HW225290   1.295   5.087   6.697
 8131SOL     OW25291   2.029   3.513   0.786
 8131SOL    HW125292   2.029   3.413   0.796
 8131SOL    HW225293   2.020   3.555   0.876
 8132SOL     OW25294   0.498   6.724   4.930
 8132SOL    HW125295   0.523   6.631   4.957
 8132SOL    HW225296   0.550   6.790   4.985
 8133SOL     OW25297   3.357   5.427   0.966
 8133SOL    HW125298   3.350   5.350   0.902
 8133SOL    HW225299   3.373   5.511   0.914
 8134SOL     OW25300   6.009   1.002   5.080
 8134SOL    HW125301   6.108   1.003   5.097
 8134SOL    HW225302   5.986   0.919   5.030
 8135SOL     OW25303   2.371   6.881   1.577
 8135SOL    HW125304   2.468   6.895   1.558
 8135SOL    HW225305   2.360   6.814   1.650
 8136SOL     OW25306   4.419   5.078   2.275
 8136SOL    HW125307   4.393   5.033   2.361
 8136SOL    HW225308   4.445   5.173   2.294
 8137SOL     OW25309   3.815   1.889   4.402
 8137SOL    HW125310   3.907   1.851   4.404
 8137SOL    HW225311   3.770   1.873   4.490
 8138SOL     OW25312   4.641   1.042   1.420
 8138SOL    HW125313   4.690   1.090   1.348
 8138SOL    HW225314   4.571   1.102   1.459
 8139SOL     OW25315   0.875   1.760   3.099
 8139SOL    HW125316   0.881   1.835   3.164
 8139SOL    HW225317   0.803   1.779   3.033
 8140SOL     OW25318   3.736   0.904   3.683
 8140SOL    HW125319   3.795   0.885   3.762
 8140SOL    HW225320   3.781   0.970   3.623
 8141SOL     OW25321   4.120   5.040   4.718
 8141SOL    HW125322   4.181   5.014   4.643
 8141SOL    HW225323   4.123   4.971   4.789
 8142SOL     OW25324   6.224   5.531   0.338
 8142SOL    HW125325   6.173   5.558   0.420
 8142SOL    HW225326   6.318   5.509   0.363
 8143SOL     OW25327   6.170   4.192   5.284
 8143SOL    HW125328   6.155   4.250   5.365
 8143SOL    HW225329   6.233   4.118   5.308
 8144SOL     OW25330   5.950   6.522   6.595
 8144SOL    HW125331   5.997   6.446   6.641
 8144SOL    HW225332   5.920   6.589   6.663
 8145SOL     OW25333   5.943   5.967   2.197
 8145SOL    HW125334   5.934   6.046   2.137
 8145SOL    HW225335   6.029   5.920   2.177
 8146SOL     OW25336   3.274   1.215   5.031
 8146SOL    HW125337   3.324   1.214   5.117
 8146SOL    HW225338   3.322   1.274   4.965
 8147SOL     OW25339   4.779   1.726   3.927
 8147SOL    HW125340   4.793   1.766   3.837
 8147SOL    HW225341   4.694   1.674   3.929
 8148SOL     OW25342   5.699   3.543   3.047
 8148SOL    HW125343   5.696   3.481   3.125
 8148SOL    HW225344   5.608   3.578   3.028
 8149SOL     OW25345   4.063   5.079   3.345
 8149SOL    HW125346   4.021   5.021   3.415
 8149SOL    HW225347   4.043   5.175   3.366
 8150SOL     OW25348   0.280   5.649   6.634
 8150SOL    HW125349   0.368   5.678   6.671
 8150SOL    HW225350   0.266   5.552   6.652
 8151SOL     OW25351   1.104   1.824   5.388
 8151SOL    HW125352   1.185   1.781   5.348
 8151SOL    HW225353   1.047   1.754   5.431
 8152SOL     OW25354   1.476   0.670   2.907
 8152SOL    HW125355   1.413   0.677   2.829
 8152SOL    HW225356   1.535   0.750   2.909
 8153SOL     OW25357   2.079   6.333   0.455
 8153SOL    HW125358   2.097   6.369   0.547
 8153SOL    HW225359   2.102   6.236   0.451
 8154SOL     OW25360   1.780   6.693   3.785
 8154SOL    HW125361   1.774   6.721   3.880
 8154SOL    HW225362   1.776   6.593   3.779
 8155SOL     OW25363   2.965   3.316   3.296
 8155SOL    HW125364   2.938   3.383   3.228
 8155SOL    HW225365   2.940   3.349   3.387
 8156SOL     OW25366   6.370   0.285   6.127
 8156SOL    HW125367   6.294   0.244   6.178
 8156SOL    HW225368   6.336   0.364   6.075
 8157SOL     OW25369   6.312   3.647   6.558
 8157SOL    HW125370   6.338   3.743   6.548
 8157SOL    HW225371   6.264   3.635   6.646
 8158SOL     OW25372   1.527   5.201   1.925
 8158SOL    HW125373   1.478   5.276   1.969
 8158SOL    HW225374   1.577   5.149   1.994
 8159SOL     OW25375   1.752   6.022   2.294
 8159SOL    HW125376   1.730   6.107   2.342
 8159SOL    HW225377   1.700   6.016   2.210
 8160SOL     OW25378   4.324   2.486   1.780
 8160SOL    HW125379   4.380   2.457   1.857
 8160SOL    HW225380   4.238   2.435   1.779
 8161SOL     OW25381   5.288   1.465   0.712
 8161SOL    HW125382   5.344   1.528   0.657
 8161SOL    HW225383   5.197   1.459   0.672
 8162SOL     OW25384   5.637   0.432   1.613
 8162SOL    HW125385   5.604   0.484   1.533
 8162SOL    HW225386   5.640   0.493   1.692
 8163SOL     OW25387   2.188   4.160   5.206
 8163SOL    HW125388   2.231   4.118   5.126
 8163SOL    HW225389   2.244   4.236   5.238
 8164SOL     OW25390   4.560   2.617   2.356
 8164SOL    HW125391   4.578   2.631   2.259
 8164SOL    HW225392   4.580   2.701   2.406
 8165SOL     OW25393   2.116   4.830   1.673
 8165SOL    HW125394   2.212   4.857   1.683
 8165SOL    HW225395   2.062   4.874   1.745
 8166SOL     OW25396   2.895   6.792   2.144
 8166SOL    HW125397   2.894   6.692   2.155
 8166SOL    HW225398   2.858   6.816   2.054
 8167SOL     OW25399   6.094   2.458   3.962
 8167SOL    HW125400   6.120   2.515   4.040
 8167SOL    HW225401   6.049   2.514   3.893
 8168SOL     OW25402   3.386   1.402   3.155
 8168SOL    HW125403   3.418   1.376   3.246
 8168SOL    HW225404   3.367   1.320   3.101
 8169SOL     OW25405   4.414   3.489   6.517
 8169SOL    HW125406   4.382   3.464   6.425
 8169SOL    HW225407   4.337   3.484   6.581
 8170SOL     OW25408   0.776   5.435   3.797
 8170SOL    HW125409   0.862   5.418   3.845
 8170SOL    HW225410   0.718   5.354   3.802
 8171SOL     OW25411   0.403   1.997   5.970
 8171SOL    HW125412   0.323   2.035   6.017
 8171SOL    HW225413   0.377   1.913   5.923
 8172SOL     OW25414   0.092   6.496   0.868
 8172SOL    HW125415   0.049   6.513   0.780
 8172SOL    HW225416   0.177   6.444   0.855
 8173SOL     OW25417   4.219   2.264   6.725
 8173SOL    HW125418   4.248   2.222   6.639
 8173SOL    HW225419   4.120   2.263   6.731
 8174SOL     OW25420   5.778   0.518   2.132
 8174SOL    HW125421   5.873   0.509   2.162
 8174SOL    HW225422   5.717   0.488   2.205
 8175SOL     OW25423   0.986   3.033   6.565
 8175SOL    HW125424   0.889   3.031   6.541
 8175SOL    HW225425   1.040   2.991   6.492
 8176SOL     OW25426   2.817   5.579   2.478
 8176SOL    HW125427   2.791   5.594   2.574
 8176SOL    HW225428   2.818   5.666   2.430
 8177SOL     OW25429   0.443   6.371   5.478
 8177SOL    HW125430   0.436   6.469   5.496
 8177SOL    HW225431   0.538   6.341   5.493
 8178SOL     OW25432   2.231   6.398   6.559
 8178SOL    HW125433   2.264   6.452   6.482
 8178SOL    HW225434   2.139   6.427   6.584
 8179SOL     OW25435   3.170   1.644   0.358
 8179SOL    HW125436   3.177   1.613   0.263
 8179SOL    HW225437   3.182   1.566   0.420
 8180SOL     OW25438   5.873   5.995   5.555
 8180SOL    HW125439   5.798   5.929   5.544
 8180SOL    HW225440   5.841   6.086   5.528
 8181SOL     OW25441   2.614   2.424   2.775
 8181SOL    HW125442   2.670   2.377   2.706
 8181SOL    HW225443   2.659   2.418   2.864
 8182SOL     OW25444   3.583   2.641   5.340
 8182SOL    HW125445   3.541   2.552   5.361
 8182SOL    HW225446   3.678   2.640   5.372
 8183SOL     OW25447   1.519   3.519   4.946
 8183SOL    HW125448   1.490   3.590   5.010
 8183SOL    HW225449   1.530   3.559   4.855
 8184SOL     OW25450   6.026   5.759   5.658
 8184SOL    HW125451   5.996   5.854   5.655
 8184SOL    HW225452   5.947   5.698   5.649
 8185SOL     OW25453   2.383   1.648   2.609
 8185SOL    HW125454   2.447   1.663   2.534
 8185SOL    HW225455   2.384   1.728   2.669
 8186SOL     OW25456   3.573   5.183   5.832
 8186SOL    HW125457   3.656   5.209   5.882
 8186SOL    HW225458   3.492   5.208   5.885
 8187SOL     OW25459   1.206   2.058   5.229
 8187SOL    HW125460   1.247   2.118   5.159
 8187SOL    HW225461   1.257   1.973   5.234
 8188SOL     OW25462   5.180   3.475   3.109
 8188SOL    HW125463   5.101   3.513   3.062
 8188SOL    HW225464   5.184   3.512   3.202
 8189SOL     OW25465   6.204   4.099   2.424
 8189SOL    HW125466   6.147   4.029   2.383
 8189SOL    HW225467   6.250   4.062   2.505
 8190SOL     OW25468   4.972   3.546   2.909
 8190SOL    HW125469   4.942   3.517   2.818
 8190SOL    HW225470   4.926   3.491   2.978
 8191SOL     OW25471   0.556   5.069   3.517
 8191SOL    HW125472   0.615   5.049   3.439
 8191SOL    HW225473   0.517   5.160   3.508
 8192SOL     OW25474   1.762   4.419   1.424
 8192SOL    HW125475   1.836   4.395   1.487
 8192SOL    HW225476   1.784   4.386   1.333
 8193SOL     OW25477   3.886   0.032   5.947
 8193SOL    HW125478   3.902   0.039   5.849
 8193SOL    HW225479   3.795   7.019   5.963
 8194SOL     OW25480   1.106   0.157   0.564
 8194SOL    HW125481   1.161   0.122   0.640
 8194SOL    HW225482   1.130   0.252   0.545
 8195SOL     OW25483   6.649   6.931   0.490
 8195SOL    HW125484   6.612   6.953   0.580
 8195SOL    HW225485   6.645   7.012   0.431
 8196SOL     OW25486   2.445   0.090   6.262
 8196SOL    HW125487   2.445   0.124   6.169
 8196SOL    HW225488   2.532   0.114   6.307
 8197SOL     OW25489   0.595   0.032   6.557
 8197SOL    HW125490   0.676   0.038   6.615
 8197SOL    HW225491   0.604   6.978   6.495
 8198SOL     OW25492   3.718   6.149   2.871
 8198SOL    HW125493   3.627   6.163   2.911
 8198SOL    HW225494   3.712   6.160   2.772
 8199SOL     OW25495   6.144   3.618   0.257
 8199SOL    HW125496   6.223   3.609   0.317
 8199SOL    HW225497   6.060   3.604   0.311
 8200SOL     OW25498   5.338   3.938   1.220
 8200SOL    HW125499   5.286   3.874   1.276
 8200SOL    HW225500   5.376   3.889   1.141
 8201SOL     OW25501   6.140   0.642   4.305
 8201SOL    HW125502   6.198   0.633   4.386
 8201SOL    HW225503   6.059   0.695   4.328
 8202SOL     OW25504   1.726   4.388   3.391
 8202SOL    HW125505   1.660   4.455   3.425
 8202SOL    HW225506   1.712   4.375   3.293
 8203SOL     OW25507   5.547   3.377   0.913
 8203SOL    HW125508   5.473   3.311   0.924
 8203SOL    HW225509   5.631   3.331   0.885
 8204SOL     OW25510   3.397   0.087   1.676
 8204SOL    HW125511   3.391   0.015   1.607
 8204SOL    HW225512   3.322   0.151   1.664
 8205SOL     OW25513   6.052   5.194   3.289
 8205SOL    HW125514   6.051   5.225   3.194
 8205SOL    HW225515   5.988   5.118   3.300
 8206SOL     OW25516   4.804   2.085   3.994
 8206SOL    HW125517   4.858   2.119   4.071
 8206SOL    HW225518   4.860   2.023   3.939
 8207SOL     OW25519   2.775   6.233   6.934
 8207SOL    HW125520   2.760   6.326   6.970
 8207SOL    HW225521   2.721   6.221   6.851
 8208SOL     OW25522   1.342   4.591   6.222
 8208SOL    HW125523   1.439   4.566   6.216
 8208SOL    HW225524   1.304   4.599   6.130
 8209SOL     OW25525   0.347   6.628   5.440
 8209SOL    HW125526   0.389   6.674   5.362
 8209SOL    HW225527   0.263   6.676   5.466
 8210SOL     OW25528   2.866   2.114   6.857
 8210SOL    HW125529   2.904   2.021   6.853
 8210SOL    HW225530   2.915   2.167   6.926
 8211SOL     OW25531   3.134   3.616   4.555
 8211SOL    HW125532   3.183   3.538   4.594
 8211SOL    HW225533   3.038   3.614   4.585
 8212SOL     OW25534   3.495   6.971   0.720
 8212SOL    HW125535   3.408   6.984   0.768
 8212SOL    HW225536   3.550   6.902   0.767
 8213SOL     OW25537   4.282   4.147   1.666
 8213SOL    HW125538   4.224   4.221   1.631
 8213SOL    HW225539   4.341   4.183   1.738
 8214SOL     OW25540   4.092   5.432   4.380
 8214SOL    HW125541   4.087   5.497   4.456
 8214SOL    HW225542   4.022   5.456   4.312
 8215SOL     OW25543   3.669   6.200   7.024
 8215SOL    HW125544   3.624   6.280   6.985
 8215SOL    HW225545   3.701   6.141   6.950
 8216SOL     OW25546   5.965   4.556   1.595
 8216SOL    HW125547   5.880   4.586   1.552
 8216SOL    HW225548   6.038   4.619   1.571
 8217SOL     OW25549   2.986   6.476   3.976
 8217SOL    HW125550   3.083   6.499   3.964
 8217SOL    HW225551   2.939   6.484   3.888
 8218SOL     OW25552   2.816   6.886   4.734
 8218SOL    HW125553   2.872   6.803   4.727
 8218SOL    HW225554   2.771   6.889   4.823
 8219SOL     OW25555   3.845   2.879   1.139
 8219SOL    HW125556   3.862   2.968   1.096
 8219SOL    HW225557   3.887   2.807   1.085
 8220SOL     OW25558   3.976   3.734   4.339
 8220SOL    HW125559   4.020   3.788   4.267
 8220SOL    HW225560   3.878   3.725   4.318
 8221SOL     OW25561   5.612   3.944   3.139
 8221SOL    HW125562   5.685   3.920   3.075
 8221SOL    HW225563   5.524   3.920   3.098
 8222SOL     OW25564   6.974   2.934   0.349
 8222SOL    HW125565   6.879   2.959   0.367
 8222SOL    HW225566   7.014   2.894   0.432
 8223SOL     OW25567   1.915   6.071   5.545
 8223SOL    HW125568   1.944   6.048   5.452
 8223SOL    HW225569   1.987   6.124   5.590
 8224SOL     OW25570   5.177   1.701   0.538
 8224SOL    HW125571   5.227   1.761   0.600
 8224SOL    HW225572   5.155   1.750   0.453
 8225SOL     OW25573   5.112   1.846   0.321
 8225SOL    HW125574   5.026   1.880   0.357
 8225SOL    HW225575   5.166   1.922   0.285
 8226SOL     OW25576   4.166   0.357   0.572
 8226SOL    HW125577   4.086   0.306   0.604
 8226SOL    HW225578   4.166   0.358   0.472
 8227SOL     OW25579   4.703   2.449   3.028
 8227SOL    HW125580   4.659   2.528   3.070
 8227SOL    HW225581   4.709   2.374   3.095
 8228SOL     OW25582   2.272   0.102   4.865
 8228SOL    HW125583   2.346   0.048   4.825
 8228SOL    HW225584   2.210   0.132   4.793
 8229SOL     OW25585   4.522   4.599   0.726
 8229SOL    HW125586   4.606   4.640   0.690
 8229SOL    HW225587   4.534   4.579   0.823
 8230SOL     OW25588   5.593   0.778   6.408
 8230SOL    HW125589   5.576   0.833   6.489
 8230SOL    HW225590   5.540   0.693   6.413
 8231SOL     OW25591   2.311   2.028   2.478
 8231SOL    HW125592   2.377   2.035   2.404
 8231SOL    HW225593   2.270   2.117   2.495
 8232SOL     OW25594   3.323   5.604   3.334
 8232SOL    HW125595   3.411   5.561   3.315
 8232SOL    HW225596   3.319   5.694   3.289
 8233SOL     OW25597   0.431   1.140   6.024
 8233SOL    HW125598   0.385   1.218   5.980
 8233SOL    HW225599   0.425   1.150   6.123
 8234SOL     OW25600   0.827   1.965   0.704
 8234SOL    HW125601   0.808   2.057   0.671
 8234SOL    HW225602   0.761   1.901   0.665
 8235SOL     OW25603   0.676   6.796   1.467
 8235SOL    HW125604   0.578   6.802   1.482
 8235SOL    HW225605   0.722   6.868   1.520
 8236SOL     OW25606   0.741   6.585   1.623
 8236SOL    HW125607   0.757   6.622   1.714
 8236SOL    HW225608   0.713   6.659   1.561
 8237SOL     OW25609   4.528   5.088   6.256
 8237SOL    HW125610   4.559   5.035   6.335
 8237SOL    HW225611   4.571   5.179   6.259
 8238SOL     OW25612   0.519   4.753   0.230
 8238SOL    HW125613   0.496   4.816   0.304
 8238SOL    HW225614   0.553   4.667   0.269
 8239SOL     OW25615   1.642   1.754   5.590
 8239SOL    HW125616   1.662   1.658   5.573
 8239SOL    HW225617   1.716   1.810   5.554
 8240SOL     OW25618   3.198   3.587   4.876
 8240SOL    HW125619   3.163   3.510   4.929
 8240SOL    HW225620   3.123   3.630   4.826
 8241SOL     OW25621   1.966   4.543   5.567
 8241SOL    HW125622   2.062   4.566   5.557
 8241SOL    HW225623   1.916   4.570   5.485
 8242SOL     OW25624   0.571   2.885   2.932
 8242SOL    HW125625   0.576   2.943   3.013
 8242SOL    HW225626   0.663   2.865   2.900
 8243SOL     OW25627   1.934   5.854   4.214
 8243SOL    HW125628   1.967   5.760   4.224
 8243SOL    HW225629   1.962   5.890   4.126
 8244SOL     OW25630   0.168   1.491   4.092
 8244SOL    HW125631   0.202   1.585   4.088
 8244SOL    HW225632   0.121   1.469   4.006
 8245SOL     OW25633   5.371   1.822   2.944
 8245SOL    HW125634   5.302   1.890   2.972
 8245SOL    HW225635   5.325   1.736   2.924
 8246SOL     OW25636   1.822   4.775   6.259
 8246SOL    HW125637   1.806   4.864   6.301
 8246SOL    HW225638   1.875   4.717   6.320
 8247SOL     OW25639   3.059   6.007   3.133
 8247SOL    HW125640   3.007   6.063   3.198
 8247SOL    HW225641   3.048   5.910   3.157
 8248SOL     OW25642   6.858   5.555   2.805
 8248SOL    HW125643   6.874   5.457   2.820
 8248SOL    HW225644   6.834   5.570   2.709
 8249SOL     OW25645   3.142   1.246   7.024
 8249SOL    HW125646   3.082   1.283   6.954
 8249SOL    HW225647   3.191   1.321   0.045
 8250SOL     OW25648   1.009   1.596   7.012
 8250SOL    HW125649   0.922   1.620   0.030
 8250SOL    HW225650   1.049   1.677   6.970
 8251SOL     OW25651   1.153   2.737   5.214
 8251SOL    HW125652   1.132   2.830   5.184
 8251SOL    HW225653   1.214   2.693   5.148
 8252SOL     OW25654   1.176   2.256   6.414
 8252SOL    HW125655   1.164   2.176   6.355
 8252SOL    HW225656   1.087   2.291   6.444
 8253SOL     OW25657   4.266   5.680   0.219
 8253SOL    HW125658   4.198   5.748   0.192
 8253SOL    HW225659   4.235   5.589   0.192
 8254SOL     OW25660   5.378   5.277   6.921
 8254SOL    HW125661   5.394   5.257   6.824
 8254SOL    HW225662   5.391   5.375   6.936
 8255SOL     OW25663   2.192   0.956   5.803
 8255SOL    HW125664   2.158   0.899   5.877
 8255SOL    HW225665   2.292   0.951   5.800
 8256SOL     OW25666   1.511   5.220   5.146
 8256SOL    HW125667   1.523   5.153   5.219
 8256SOL    HW225668   1.588   5.214   5.083
 8257SOL     OW25669   5.023   4.077   2.706
 8257SOL    HW125670   5.114   4.070   2.747
 8257SOL    HW225671   5.031   4.070   2.607
 8258SOL     OW25672   0.015   3.435   1.943
 8258SOL    HW125673   6.973   3.405   1.875
 8258SOL    HW225674   0.030   3.534   1.935
 8259SOL     OW25675   5.516   1.513   3.753
 8259SOL    HW125676   5.597   1.484   3.803
 8259SOL    HW225677   5.486   1.602   3.787
 8260SOL     OW25678   4.141   2.382   1.015
 8260SOL    HW125679   4.123   2.459   0.954
 8260SOL    HW225680   4.234   2.388   1.052
 8261SOL     OW25681   5.651   1.278   2.755
 8261SOL    HW125682   5.554   1.287   2.777
 8261SOL    HW225683   5.682   1.361   2.708
 8262SOL     OW25684   5.701   3.570   1.610
 8262SOL    HW125685   5.627   3.620   1.565
 8262SOL    HW225686   5.668   3.532   1.697
 8263SOL     OW25687   6.541   2.020   5.766
 8263SOL    HW125688   6.515   1.959   5.691
 8263SOL    HW225689   6.471   2.091   5.777
 8264SOL     OW25690   3.285   0.200   2.760
 8264SOL    HW125691   3.293   0.256   2.678
 8264SOL    HW225692   3.357   0.130   2.760
 8265SOL     OW25693   4.666   6.599   0.769
 8265SOL    HW125694   4.594   6.654   0.811
 8265SOL    HW225695   4.709   6.651   0.696
 8266SOL     OW25696   3.171   0.851   3.646
 8266SOL    HW125697   3.132   0.919   3.708
 8266SOL    HW225698   3.105   0.828   3.575
 8267SOL     OW25699   1.814   3.579   2.585
 8267SOL    HW125700   1.905   3.554   2.552
 8267SOL    HW225701   1.777   3.652   2.529
 8268SOL     OW25702   3.001   4.556   6.489
 8268SOL    HW125703   3.040   4.636   6.446
 8268SOL    HW225704   2.986   4.485   6.420
 8269SOL     OW25705   6.271   3.264   4.411
 8269SOL    HW125706   6.255   3.363   4.407
 8269SOL    HW225707   6.194   3.219   4.456
 8270SOL     OW25708   3.876   6.455   6.866
 8270SOL    HW125709   3.847   6.545   6.896
 8270SOL    HW225710   3.944   6.464   6.792
 8271SOL     OW25711   3.742   6.157   5.986
 8271SOL    HW125712   3.747   6.190   6.080
 8271SOL    HW225713   3.698   6.067   5.985
 8272SOL     OW25714   0.585   0.226   2.196
 8272SOL    HW125715   0.566   0.299   2.261
 8272SOL    HW225716   0.615   0.265   2.109
 8273SOL     OW25717   4.152   0.638   0.232
 8273SOL    HW125718   4.080   0.645   0.302
 8273SOL    HW225719   4.190   0.728   0.214
 8274SOL     OW25720   5.235   6.213   5.340
 8274SOL    HW125721   5.191   6.191   5.427
 8274SOL    HW225722   5.329   6.178   5.341
 8275SOL     OW25723   5.223   0.162   3.931
 8275SOL    HW125724   5.222   0.181   4.029
 8275SOL    HW225725   5.196   0.243   3.880
 8276SOL     OW25726   6.625   1.735   0.015
 8276SOL    HW125727   6.658   1.769   0.102
 8276SOL    HW225728   6.644   1.801   6.968
 8277SOL     OW25729   1.266   7.018   0.004
 8277SOL    HW125730   1.205   7.020   0.083
 8277SOL    HW225731   1.231   0.056   6.959
 8278SOL     OW25732   2.887   1.476   1.118
 8278SOL    HW125733   2.910   1.475   1.215
 8278SOL    HW225734   2.882   1.571   1.086
 8279SOL     OW25735   3.573   6.002   5.201
 8279SOL    HW125736   3.533   5.911   5.213
 8279SOL    HW225737   3.623   6.027   5.284
 8280SOL     OW25738   5.546   3.935   0.126
 8280SOL    HW125739   5.604   4.002   0.078
 8280SOL    HW225740   5.578   3.842   0.104
 8281SOL     OW25741   2.822   5.407   0.204
 8281SOL    HW125742   2.885   5.331   0.190
 8281SOL    HW225743   2.734   5.372   0.238
 8282SOL     OW25744   2.930   2.911   1.619
 8282SOL    HW125745   2.928   2.817   1.585
 8282SOL    HW225746   2.987   2.916   1.701
 8283SOL     OW25747   0.461   6.740   3.968
 8283SOL    HW125748   0.432   6.835   3.970
 8283SOL    HW225749   0.548   6.730   4.016
 8284SOL     OW25750   3.326   1.658   2.281
 8284SOL    HW125751   3.298   1.630   2.373
 8284SOL    HW225752   3.366   1.750   2.284
 8285SOL     OW25753   2.149   4.468   0.231
 8285SOL    HW125754   2.149   4.509   0.140
 8285SOL    HW225755   2.055   4.448   0.258
 8286SOL     OW25756   5.524   2.367   5.219
 8286SOL    HW125757   5.469   2.417   5.152
 8286SOL    HW225758   5.472   2.290   5.255
 8287SOL     OW25759   1.572   6.882   4.119
 8287SOL    HW125760   1.480   6.918   4.098
 8287SOL    HW225761   1.570   6.782   4.116
 8288SOL     OW25762   2.086   0.084   2.727
 8288SOL    HW125763   2.004   0.027   2.717
 8288SOL    HW225764   2.082   0.159   2.661
 8289SOL     OW25765   6.575   1.181   6.295
 8289SOL    HW125766   6.658   1.204   6.243
 8289SOL    HW225767   6.601   1.143   6.383
 8290SOL     OW25768   4.559   2.885   1.670
 8290SOL    HW125769   4.470   2.844   1.692
 8290SOL    HW225770   4.581   2.955   1.738
 8291SOL     OW25771   4.220   5.655   6.447
 8291SOL    HW125772   4.319   5.645   6.451
 8291SOL    HW225773   4.176   5.576   6.488
 8292SOL     OW25774   0.595   3.500   4.656
 8292SOL    HW125775   0.654   3.423   4.630
 8292SOL    HW225776   0.557   3.483   4.747
 8293SOL     OW25777   3.048   5.120   3.382
 8293SOL    HW125778   3.103   5.179   3.441
 8293SOL    HW225779   3.102   5.040   3.356
 8294SOL     OW25780   4.452   3.575   6.045
 8294SOL    HW125781   4.400   3.641   5.990
 8294SOL    HW225782   4.458   3.607   6.139
 8295SOL     OW25783   5.266   5.034   2.366
 8295SOL    HW125784   5.180   5.085   2.367
 8295SOL    HW225785   5.256   4.951   2.420
 8296SOL     OW25786   4.084   6.859   1.851
 8296SOL    HW125787   4.166   6.810   1.821
 8296SOL    HW225788   4.085   6.951   1.813
 8297SOL     OW25789   5.563   4.400   3.763
 8297SOL    HW125790   5.552   4.303   3.741
 8297SOL    HW225791   5.654   4.430   3.736
 8298SOL     OW25792   7.024   6.874   6.996
 8298SOL    HW125793   0.038   6.831   6.915
 8298SOL    HW225794   6.999   6.804   0.038
 8299SOL     OW25795   0.936   3.718   1.204
 8299SOL    HW125796   1.002   3.758   1.141
 8299SOL    HW225797   0.949   3.756   1.296
 8300SOL     OW25798   5.966   4.905   3.550
 8300SOL    HW125799   5.925   4.996   3.544
 8300SOL    HW225800   6.041   4.907   3.617
 8301SOL     OW25801   5.371   6.914   0.309
 8301SOL    HW125802   5.300   6.867   0.256
 8301SOL    HW225803   5.434   6.847   0.348
 8302SOL     OW25804   3.537   7.017   5.538
 8302SOL    HW125805   3.454   6.994   5.588
 8302SOL    HW225806   3.518   7.015   5.440
 8303SOL     OW25807   0.201   5.182   2.846
 8303SOL    HW125808   0.266   5.115   2.882
 8303SOL    HW225809   0.141   5.138   2.779
 8304SOL     OW25810   6.190   4.873   3.175
 8304SOL    HW125811   6.253   4.918   3.238
 8304SOL    HW225812   6.096   4.899   3.198
 8305SOL     OW25813   5.373   6.525   4.907
 8305SOL    HW125814   5.424   6.601   4.867
 8305SOL    HW225815   5.437   6.458   4.944
 8306SOL     OW25816   6.596   1.879   2.719
 8306SOL    HW125817   6.589   1.974   2.687
 8306SOL    HW225818   6.673   1.871   2.782
 8307SOL     OW25819   1.495   3.235   2.375
 8307SOL    HW125820   1.548   3.280   2.303
 8307SOL    HW225821   1.433   3.301   2.417
 8308SOL     OW25822   1.121   4.930   1.257
 8308SOL    HW125823   1.093   4.910   1.163
 8308SOL    HW225824   1.130   4.845   1.308
 8309SOL     OW25825   6.969   4.716   4.363
 8309SOL    HW125826   7.016   4.800   4.389
 8309SOL    HW225827   7.000   4.640   4.420
 8310SOL     OW25828   1.668   0.190   0.792
 8310SOL    HW125829   1.608   0.135   0.735
 8310SOL    HW225830   1.703   0.268   0.739
 8311SOL     OW25831   5.580   5.675   3.118
 8311SOL    HW125832   5.655   5.655   3.181
 8311SOL    HW225833   5.597   5.763   3.074
 8312SOL     OW25834   5.609   1.586   0.276
 8312SOL    HW125835   5.671   1.547   0.343
 8312SOL    HW225836   5.607   1.527   0.195
 8313SOL     OW25837   5.646   2.856   5.418
 8313SOL    HW125838   5.641   2.862   5.518
 8313SOL    HW225839   5.686   2.768   5.392
 8314SOL     OW25840   4.385   5.787   4.034
 8314SOL    HW125841   4.395   5.732   3.951
 8314SOL    HW225842   4.308   5.752   4.088
 8315SOL     OW25843   3.232   3.814   4.345
 8315SOL    HW125844   3.247   3.757   4.425
 8315SOL    HW225845   3.189   3.900   4.373
 8316SOL     OW25846   2.412   2.020   5.418
 8316SOL    HW125847   2.413   2.007   5.319
 8316SOL    HW225848   2.335   2.080   5.443
 8317SOL     OW25849   1.014   2.350   3.735
 8317SOL    HW125850   1.020   2.326   3.638
 8317SOL    HW225851   1.097   2.400   3.761
 8318SOL     OW25852   4.677   6.877   6.309
 8318SOL    HW125853   4.642   6.970   6.297
 8318SOL    HW225854   4.655   6.823   6.227
 8319SOL     OW25855   2.069   5.731   6.393
 8319SOL    HW125856   1.988   5.680   6.364
 8319SOL    HW225857   2.114   5.682   6.468
 8320SOL     OW25858   3.379   3.305   5.165
 8320SOL    HW125859   3.373   3.327   5.067
 8320SOL    HW225860   3.323   3.369   5.217
 8321SOL     OW25861   0.120   6.817   0.822
 8321SOL    HW125862   0.032   6.810   0.774
 8321SOL    HW225863   0.190   6.769   0.769
 8322SOL     OW25864   0.675   6.430   0.126
 8322SOL    HW125865   0.632   6.517   0.151
 8322SOL    HW225866   0.707   6.435   0.031
 8323SOL     OW25867   5.436   4.324   0.473
 8323SOL    HW125868   5.423   4.343   0.375
 8323SOL    HW225869   5.407   4.403   0.527
 8324SOL     OW25870   4.765   5.952   6.726
 8324SOL    HW125871   4.666   5.941   6.735
 8324SOL    HW225872   4.790   5.955   6.630
 8325SOL     OW25873   1.604   6.287   6.200
 8325SOL    HW125874   1.619   6.289   6.101
 8325SOL    HW225875   1.510   6.258   6.219
 8326SOL     OW25876   1.580   3.085   6.488
 8326SOL    HW125877   1.495   3.036   6.469
 8326SOL    HW225878   1.559   3.180   6.512
 8327SOL     OW25879   1.543   5.871   4.827
 8327SOL    HW125880   1.526   5.863   4.728
 8327SOL    HW225881   1.611   5.943   4.843
 8328SOL     OW25882   0.859   5.908   0.059
 8328SOL    HW125883   0.837   5.867   6.996
 8328SOL    HW225884   0.887   6.003   0.045
 8329SOL     OW25885   1.502   3.291   5.122
 8329SOL    HW125886   1.591   3.245   5.126
 8329SOL    HW225887   1.504   3.361   5.050
 8330SOL     OW25888   3.347   1.177   0.228
 8330SOL    HW125889   3.373   1.258   0.175
 8330SOL    HW225890   3.248   1.162   0.221
 8331SOL     OW25891   1.639   2.558   5.482
 8331SOL    HW125892   1.578   2.614   5.538
 8331SOL    HW225893   1.610   2.462   5.488
 8332SOL     OW25894   6.163   4.733   1.496
 8332SOL    HW125895   6.256   4.706   1.474
 8332SOL    HW225896   6.124   4.785   1.420
 8333SOL     OW25897   2.113   4.002   0.298
 8333SOL    HW125898   2.136   4.051   0.214
 8333SOL    HW225899   2.063   4.063   0.359
 8334SOL     OW25900   3.024   2.345   6.009
 8334SOL    HW125901   3.040   2.437   6.046
 8334SOL    HW225902   3.110   2.296   6.002
 8335SOL     OW25903   5.405   4.936   6.370
 8335SOL    HW125904   5.333   4.867   6.367
 8335SOL    HW225905   5.465   4.918   6.449
 8336SOL     OW25906   1.034   4.291   3.576
 8336SOL    HW125907   1.057   4.327   3.666
 8336SOL    HW225908   0.939   4.260   3.575
 8337SOL     OW25909   0.393   1.292   4.312
 8337SOL    HW125910   0.415   1.232   4.235
 8337SOL    HW225911   0.420   1.249   4.397
 8338SOL     OW25912   3.383   5.401   1.442
 8338SOL    HW125913   3.475   5.421   1.408
 8338SOL    HW225914   3.317   5.404   1.367
 8339SOL     OW25915   5.885   0.557   1.390
 8339SOL    HW125916   5.834   0.471   1.388
 8339SOL    HW225917   5.823   0.632   1.366
 8340SOL     OW25918   5.982   1.873   6.626
 8340SOL    HW125919   5.973   1.905   6.531
 8340SOL    HW225920   5.896   1.829   6.654
 8341SOL     OW25921   3.501   1.096   1.243
 8341SOL    HW125922   3.431   1.095   1.315
 8341SOL    HW225923   3.465   1.053   1.161
 8342SOL     OW25924   4.484   0.492   0.314
 8342SOL    HW125925   4.435   0.503   0.401
 8342SOL    HW225926   4.476   0.577   0.261
 8343SOL     OW25927   5.472   4.138   3.679
 8343SOL    HW125928   5.386   4.105   3.717
 8343SOL    HW225929   5.500   4.078   3.604
 8344SOL     OW25930   0.729   5.331   5.751
 8344SOL    HW125931   0.777   5.259   5.802
 8344SOL    HW225932   0.774   5.419   5.767
 8345SOL     OW25933   5.151   0.666   3.666
 8345SOL    HW125934   5.167   0.656   3.568
 8345SOL    HW225935   5.237   0.693   3.711
 8346SOL     OW25936   5.847   3.298   4.627
 8346SOL    HW125937   5.758   3.257   4.646
 8346SOL    HW225938   5.858   3.382   4.680
 8347SOL     OW25939   2.391   1.196   6.868
 8347SOL    HW125940   2.357   1.239   6.784
 8347SOL    HW225941   2.490   1.179   6.859
 8348SOL     OW25942   3.291   6.240   2.304
 8348SOL    HW125943   3.208   6.214   2.352
 8348SOL    HW225944   3.369   6.191   2.343
 8349SOL     OW25945   6.181   6.191   2.321
 8349SOL    HW125946   6.129   6.107   2.304
 8349SOL    HW225947   6.279   6.170   2.320
 8350SOL     OW25948   1.979   0.852   0.060
 8350SOL    HW125949   1.945   0.777   0.003
 8350SOL    HW225950   2.077   0.841   0.074
 8351SOL     OW25951   0.064   3.730   3.061
 8351SOL    HW125952   6.996   3.698   3.080
 8351SOL    HW225953   0.104   3.767   3.145
 8352SOL     OW25954   2.908   5.828   0.816
 8352SOL    HW125955   2.967   5.898   0.856
 8352SOL    HW225956   2.917   5.743   0.869
 8353SOL     OW25957   1.410   4.866   1.681
 8353SOL    HW125958   1.478   4.939   1.674
 8353SOL    HW225959   1.429   4.795   1.613
 8354SOL     OW25960   3.406   0.373   3.221
 8354SOL    HW125961   3.486   0.318   3.198
 8354SOL    HW225962   3.339   0.367   3.147
 8355SOL     OW25963   2.818   6.612   6.416
 8355SOL    HW125964   2.790   6.530   6.466
 8355SOL    HW225965   2.813   6.594   6.318
 8356SOL     OW25966   1.616   5.273   0.763
 8356SOL    HW125967   1.607   5.367   0.794
 8356SOL    HW225968   1.559   5.258   0.682
 8357SOL     OW25969   4.784   6.737   5.655
 8357SOL    HW125970   4.702   6.795   5.649
 8357SOL    HW225971   4.814   6.732   5.750
 8358SOL     OW25972   1.143   1.011   4.894
 8358SOL    HW125973   1.237   1.031   4.867
 8358SOL    HW225974   1.126   1.046   4.986
 8359SOL     OW25975   3.878   2.018   6.064
 8359SOL    HW125976   3.900   2.085   6.135
 8359SOL    HW225977   3.798   2.050   6.013
 8360SOL     OW25978   4.838   0.380   0.945
 8360SOL    HW125979   4.921   0.352   0.994
 8360SOL    HW225980   4.850   0.363   0.847
 8361SOL     OW25981   3.985   1.078   6.926
 8361SOL    HW125982   4.024   1.160   6.967
 8361SOL    HW225983   3.886   1.088   6.920
 8362SOL     OW25984   6.924   4.467   1.433
 8362SOL    HW125985   7.001   4.530   1.444
 8362SOL    HW225986   6.843   4.507   1.475
 8363SOL     OW25987   1.618   2.971   1.025
 8363SOL    HW125988   1.523   2.944   1.036
 8363SOL    HW225989   1.639   2.982   0.928
 8364SOL     OW25990   0.231   3.586   4.537
 8364SOL    HW125991   0.323   3.566   4.504
 8364SOL    HW225992   0.236   3.624   4.630
 8365SOL     OW25993   1.167   2.187   2.060
 8365SOL    HW125994   1.126   2.104   2.024
 8365SOL    HW225995   1.250   2.164   2.111
 8366SOL     OW25996   5.418   5.279   2.372
 8366SOL    HW125997   5.366   5.300   2.454
 8366SOL    HW225998   5.385   5.193   2.332
 8367SOL     OW25999   2.736   5.508   3.940
 8367SOL    HW126000   2.730   5.607   3.954
 8367SOL    HW226001   2.763   5.463   4.025
 8368SOL     OW26002   6.009   6.497   6.001
 8368SOL    HW126003   6.084   6.478   5.938
 8368SOL    HW226004   5.976   6.590   5.986
 8369SOL     OW26005   2.456   6.578   1.265
 8369SOL    HW126006   2.531   6.587   1.200
 8369SOL    HW226007   2.403   6.663   1.267
 8370SOL     OW26008   3.089   4.009   6.778
 8370SOL    HW126009   3.149   3.944   6.733
 8370SOL    HW226010   3.083   3.986   6.875
 8371SOL     OW26011   1.914   4.512   4.981
 8371SOL    HW126012   1.915   4.425   5.031
 8371SOL    HW226013   1.946   4.585   5.041
 8372SOL     OW26014   1.807   6.310   2.019
 8372SOL    HW126015   1.788   6.382   2.085
 8372SOL    HW226016   1.756   6.228   2.043
 8373SOL     OW26017   6.618   1.707   4.072
 8373SOL    HW126018   6.641   1.749   3.984
 8373SOL    HW226019   6.570   1.621   4.056
 8374SOL     OW26020   7.009   1.438   4.276
 8374SOL    HW126021   6.942   1.368   4.251
 8374SOL    HW226022   0.038   1.463   4.195
 8375SOL     OW26023   3.588   0.705   4.613
 8375SOL    HW126024   3.650   0.658   4.676
 8375SOL    HW226025   3.627   0.794   4.588
 8376SOL     OW26026   2.082   0.828   3.130
 8376SOL    HW126027   2.111   0.901   3.068
 8376SOL    HW226028   1.991   0.849   3.166
 8377SOL     OW26029   5.045   5.322   0.436
 8377SOL    HW126030   4.976   5.388   0.406
 8377SOL    HW226031   5.127   5.332   0.380
 8378SOL     OW26032   5.118   5.794   4.490
 8378SOL    HW126033   5.189   5.848   4.444
 8378SOL    HW226034   5.161   5.724   4.547
 8379SOL     OW26035   5.495   1.458   1.378
 8379SOL    HW126036   5.467   1.403   1.456
 8379SOL    HW226037   5.593   1.445   1.362
 8380SOL     OW26038   6.529   5.925   0.810
 8380SOL    HW126039   6.559   5.974   0.892
 8380SOL    HW226040   6.536   5.985   0.730
 8381SOL     OW26041   0.335   1.388   2.750
 8381SOL    HW126042   0.344   1.470   2.807
 8381SOL    HW226043   0.413   1.383   2.687
 8382SOL     OW26044   1.846   0.681   0.856
 8382SOL    HW126045   1.927   0.707   0.910
 8382SOL    HW226046   1.766   0.678   0.915
 8383SOL     OW26047   3.024   6.710   6.725
 8383SOL    HW126048   3.019   6.685   6.822
 8383SOL    HW226049   3.018   6.809   6.717
 8384SOL     OW26050   0.444   2.799   2.650
 8384SOL    HW126051   0.488   2.884   2.680
 8384SOL    HW226052   0.511   2.725   2.650
 8385SOL     OW26053   4.224   2.902   1.389
 8385SOL    HW126054   4.152   2.842   1.354
 8385SOL    HW226055   4.216   2.908   1.489
 8386SOL     OW26056   2.263   5.912   1.961
 8386SOL    HW126057   2.293   5.817   1.952
 8386SOL    HW226058   2.170   5.921   1.924
 8387SOL     OW26059   1.455   0.769   2.464
 8387SOL    HW126060   1.468   0.867   2.482
 8387SOL    HW226061   1.525   0.738   2.399
 8388SOL     OW26062   4.392   6.299   1.485
 8388SOL    HW126063   4.465   6.320   1.421
 8388SOL    HW226064   4.311   6.268   1.435
 8389SOL     OW26065   0.202   2.600   3.677
 8389SOL    HW126066   0.189   2.681   3.734
 8389SOL    HW226067   0.191   2.623   3.581
 8390SOL     OW26068   3.218   0.146   5.371
 8390SOL    HW126069   3.217   0.051   5.339
 8390SOL    HW226070   3.240   0.207   5.294
 8391SOL     OW26071   5.166   5.844   1.245
 8391SOL    HW126072   5.129   5.936   1.245
 8391SOL    HW226073   5.111   5.786   1.185
 8392SOL     OW26074   6.147   6.628   5.535
 8392SOL    HW126075   6.210   6.602   5.608
 8392SOL    HW226076   6.053   6.606   5.563
 8393SOL     OW26077   6.638   5.904   3.101
 8393SOL    HW126078   6.650   5.964   3.181
 8393SOL    HW226079   6.710   5.923   3.035
 8394SOL     OW26080   0.904   1.840   2.713
 8394SOL    HW126081   0.909   1.913   2.780
 8394SOL    HW226082   0.828   1.856   2.650
 8395SOL     OW26083   0.411   6.302   5.834
 8395SOL    HW126084   0.447   6.210   5.822
 8395SOL    HW226085   0.478   6.369   5.799
 8396SOL     OW26086   5.119   3.684   1.251
 8396SOL    HW126087   5.167   3.628   1.182
 8396SOL    HW226088   5.065   3.754   1.205
 8397SOL     OW26089   1.893   5.356   3.038
 8397SOL    HW126090   1.883   5.336   3.135
 8397SOL    HW226091   1.980   5.320   3.005
 8398SOL     OW26092   4.613   1.910   0.315
 8398SOL    HW126093   4.602   1.961   0.230
 8398SOL    HW226094   4.549   1.945   0.383
 8399SOL     OW26095   5.502   6.097   0.381
 8399SOL    HW126096   5.594   6.100   0.341
 8399SOL    HW226097   5.507   6.058   0.473
 8400SOL     OW26098   6.247   0.363   4.236
 8400SOL    HW126099   6.237   0.462   4.250
 8400SOL    HW226100   6.227   0.340   4.141
 8401SOL     OW26101   3.001   4.707   6.756
 8401SOL    HW126102   2.973   4.691   6.661
 8401SOL    HW226103   3.033   4.622   6.796
 8402SOL     OW26104   4.083   1.808   0.566
 8402SOL    HW126105   4.018   1.811   0.642
 8402SOL    HW226106   4.032   1.799   0.480
 8403SOL     OW26107   1.214   2.041   4.479
 8403SOL    HW126108   1.210   2.005   4.572
 8403SOL    HW226109   1.180   1.971   4.415
 8404SOL     OW26110   4.424   4.823   5.529
 8404SOL    HW126111   4.325   4.831   5.543
 8404SOL    HW226112   4.469   4.904   5.568
 8405SOL     OW26113   0.207   3.042   5.038
 8405SOL    HW126114   0.276   3.098   5.085
 8405SOL    HW226115   0.144   3.004   5.105
 8406SOL     OW26116   5.364   3.619   1.558
 8406SOL    HW126117   5.413   3.641   1.473
 8406SOL    HW226118   5.298   3.691   1.577
 8407SOL     OW26119   5.167   4.250   2.422
 8407SOL    HW126120   5.245   4.237   2.361
 8407SOL    HW226121   5.181   4.331   2.479
 8408SOL     OW26122   4.417   2.478   3.990
 8408SOL    HW126123   4.343   2.455   3.927
 8408SOL    HW226124   4.500   2.429   3.963
 8409SOL     OW26125   0.718   2.748   4.266
 8409SOL    HW126126   0.711   2.653   4.235
 8409SOL    HW226127   0.792   2.794   4.217
 8410SOL     OW26128   3.965   6.533   2.205
 8410SOL    HW126129   3.986   6.543   2.108
 8410SOL    HW226130   4.026   6.464   2.245
 8411SOL     OW26131   1.846   2.773   3.726
 8411SOL    HW126132   1.940   2.741   3.742
 8411SOL    HW226133   1.842   2.872   3.738
 8412SOL     OW26134   6.207   2.627   2.906
 8412SOL    HW126135   6.157   2.546   2.936
 8412SOL    HW226136   6.270   2.657   2.978
 8413SOL     OW26137   3.004   4.172   0.824
 8413SOL    HW126138   3.023   4.248   0.762
 8413SOL    HW226139   2.940   4.109   0.781
 8414SOL     OW26140   4.363   6.297   2.995
 8414SOL    HW126141   4.458   6.311   2.968
 8414SOL    HW226142   4.360   6.254   3.086
 8415SOL     OW26143   6.258   3.407   2.428
 8415SOL    HW126144   6.279   3.310   2.443
 8415SOL    HW226145   6.271   3.457   2.513
 8416SOL     OW26146   5.146   3.976   2.441
 8416SOL    HW126147   5.182   3.937   2.356
 8416SOL    HW226148   5.116   4.070   2.424
 8417SOL     OW26149   2.697   6.133   5.913
 8417SOL    HW126150   2.642   6.053   5.937
 8417SOL    HW226151   2.682   6.157   5.817
 8418SOL     OW26152   5.720   5.832   2.486
 8418SOL    HW126153   5.713   5.842   2.585
 8418SOL    HW226154   5.634   5.796   2.450
 8419SOL     OW26155   4.441   0.166   3.962
 8419SOL    HW126156   4.529   0.127   3.937
 8419SOL    HW226157   4.437   0.262   3.933
 8420SOL     OW26158   3.870   1.559   6.256
 8420SOL    HW126159   3.907   1.612   6.333
 8420SOL    HW226160   3.776   1.533   6.276
 8421SOL     OW26161   2.464   6.530   2.031
 8421SOL    HW126162   2.526   6.456   2.006
 8421SOL    HW226163   2.461   6.598   1.958
 8422SOL     OW26164   3.426   6.993   1.149
 8422SOL    HW126165   3.516   6.968   1.113
 8422SOL    HW226166   3.358   6.929   1.115
 8423SOL     OW26167   3.142   4.380   1.465
 8423SOL    HW126168   3.210   4.312   1.439
 8423SOL    HW226169   3.051   4.344   1.448
 8424SOL     OW26170   2.865   2.083   2.625
 8424SOL    HW126171   2.833   2.178   2.631
 8424SOL    HW226172   2.964   2.081   2.640
 8425SOL     OW26173   5.433   5.273   0.209
 8425SOL    HW126174   5.494   5.291   0.132
 8425SOL    HW226175   5.473   5.201   0.266
 8426SOL     OW26176   3.798   3.372   2.686
 8426SOL    HW126177   3.894   3.350   2.671
 8426SOL    HW226178   3.753   3.388   2.598
 8427SOL     OW26179   2.257   3.685   6.023
 8427SOL    HW126180   2.180   3.719   6.078
 8427SOL    HW226181   2.242   3.589   5.999
 8428SOL     OW26182   6.165   4.512   2.272
 8428SOL    HW126183   6.140   4.607   2.256
 8428SOL    HW226184   6.099   4.469   2.333
 8429SOL     OW26185   1.726   6.262   2.406
 8429SOL    HW126186   1.776   6.299   2.485
 8429SOL    HW226187   1.669   6.335   2.367
 8430SOL     OW26188   4.702   4.528   3.109
 8430SOL    HW126189   4.706   4.431   3.134
 8430SOL    HW226190   4.651   4.538   3.024
 8431SOL     OW26191   3.475   4.261   1.167
 8431SOL    HW126192   3.463   4.234   1.072
 8431SOL    HW226193   3.516   4.186   1.219
 8432SOL     OW26194   4.143   6.160   6.619
 8432SOL    HW126195   4.150   6.121   6.711
 8432SOL    HW226196   4.221   6.129   6.565
 8433SOL     OW26197   0.829   1.399   5.423
 8433SOL    HW126198   0.856   1.393   5.326
 8433SOL    HW226199   0.770   1.322   5.445
 8434SOL     OW26200   5.328   6.520   5.394
 8434SOL    HW126201   5.319   6.427   5.360
 8434SOL    HW226202   5.375   6.577   5.326
 8435SOL     OW26203   4.582   2.389   1.581
 8435SOL    HW126204   4.559   2.337   1.499
 8435SOL    HW226205   4.519   2.467   1.590
 8436SOL     OW26206   3.747   4.616   1.489
 8436SOL    HW126207   3.684   4.560   1.436
 8436SOL    HW226208   3.841   4.595   1.461
 8437SOL     OW26209   0.035   0.917   1.289
 8437SOL    HW126210   0.058   0.820   1.286
 8437SOL    HW226211   0.108   0.966   1.336
 8438SOL     OW26212   1.847   6.782   1.543
 8438SOL    HW126213   1.904   6.859   1.574
 8438SOL    HW226214   1.760   6.817   1.509
 8439SOL     OW26215   6.798   5.877   1.812
 8439SOL    HW126216   6.774   5.870   1.909
 8439SOL    HW226217   6.794   5.973   1.784
 8440SOL     OW26218   0.379   1.778   3.843
 8440SOL    HW126219   0.318   1.790   3.921
 8440SOL    HW226220   0.381   1.682   3.817
 8441SOL     OW26221   4.618   5.451   0.608
 8441SOL    HW126222   4.596   5.524   0.673
 8441SOL    HW226223   4.534   5.413   0.571
 8442SOL     OW26224   2.210   4.085   7.008
 8442SOL    HW126225   2.259   3.998   7.001
 8442SOL    HW226226   2.259   4.146   0.045
 8443SOL     OW26227   2.005   0.905   2.373
 8443SOL    HW126228   2.069   0.977   2.346
 8443SOL    HW226229   2.056   0.831   2.418
 8444SOL     OW26230   4.055   0.019   3.124
 8444SOL    HW126231   4.121   0.045   3.195
 8444SOL    HW226232   4.093   6.969   3.070
 8445SOL     OW26233   3.993   4.851   1.990
 8445SOL    HW126234   3.977   4.777   1.925
 8445SOL    HW226235   3.926   4.924   1.975
 8446SOL     OW26236   6.649   5.287   3.326
 8446SOL    HW126237   6.596   5.226   3.267
 8446SOL    HW226238   6.722   5.235   3.371
 8447SOL     OW26239   5.030   3.264   1.659
 8447SOL    HW126240   4.930   3.268   1.663
 8447SOL    HW226241   5.068   3.354   1.678
 8448SOL     OW26242   1.000   2.738   6.539
 8448SOL    HW126243   1.100   2.740   6.536
 8448SOL    HW226244   0.964   2.733   6.446
 8449SOL     OW26245   1.839   2.514   5.311
 8449SOL    HW126246   1.848   2.568   5.227
 8449SOL    HW226247   1.757   2.544   5.361
 8450SOL     OW26248   2.177   5.105   2.337
 8450SOL    HW126249   2.215   5.155   2.415
 8450SOL    HW226250   2.247   5.047   2.296
 8451SOL     OW26251   3.350   3.106   0.567
 8451SOL    HW126252   3.281   3.036   0.582
 8451SOL    HW226253   3.386   3.099   0.473
 8452SOL     OW26254   6.895   5.808   0.790
 8452SOL    HW126255   6.971   5.751   0.824
 8452SOL    HW226256   6.910   5.903   0.819
 8453SOL     OW26257   0.047   4.691   6.141
 8453SOL    HW126258   7.024   4.712   6.226
 8453SOL    HW226259   0.056   4.774   6.086
 8454SOL     OW26260   1.716   6.776   4.554
 8454SOL    HW126261   1.812   6.802   4.562
 8454SOL    HW226262   1.658   6.845   4.598
 8455SOL     OW26263   5.491   1.799   1.452
 8455SOL    HW126264   5.564   1.867   1.443
 8455SOL    HW226265   5.530   1.713   1.484
 8456SOL     OW26266   5.271   5.720   2.913
 8456SOL    HW126267   5.229   5.755   2.829
 8456SOL    HW226268   5.346   5.659   2.890
 8457SOL     OW26269   0.347   6.456   6.644
 8457SOL    HW126270   0.331   6.554   6.652
 8457SOL    HW226271   0.259   6.408   6.641
 8458SOL     OW26272   1.124   1.332   1.369
 8458SOL    HW126273   1.192   1.357   1.300
 8458SOL    HW226274   1.039   1.303   1.324
 8459SOL     OW26275   2.584   5.458   2.397
 8459SOL    HW126276   2.508   5.509   2.359
 8459SOL    HW226277   2.664   5.517   2.404
 8460SOL     OW26278   4.468   0.943   0.669
 8460SOL    HW126279   4.370   0.931   0.659
 8460SOL    HW226280   4.508   0.965   0.580
 8461SOL     OW26281   5.640   4.302   2.251
 8461SOL    HW126282   5.698   4.313   2.332
 8461SOL    HW226283   5.698   4.297   2.170
 8462SOL     OW26284   2.503   5.015   0.119
 8462SOL    HW126285   2.547   4.992   0.206
 8462SOL    HW226286   2.502   4.934   0.060
 8463SOL     OW26287   6.587   1.326   0.531
 8463SOL    HW126288   6.505   1.351   0.582
 8463SOL    HW226289   6.588   1.227   0.517
 8464SOL     OW26290   1.068   3.498   6.611
 8464SOL    HW126291   1.075   3.597   6.620
 8464SOL    HW226292   1.016   3.461   6.688
 8465SOL     OW26293   4.741   3.261   1.015
 8465SOL    HW126294   4.737   3.348   1.065
 8465SOL    HW226295   4.738   3.279   0.917
 8466SOL     OW26296   6.169   1.462   5.579
 8466SOL    HW126297   6.183   1.550   5.535
 8466SOL    HW226298   6.148   1.393   5.510
 8467SOL     OW26299   3.378   0.788   1.328
 8467SOL    HW126300   3.416   0.805   1.237
 8467SOL    HW226301   3.300   0.726   1.320
 8468SOL     OW26302   5.966   3.076   0.266
 8468SOL    HW126303   6.014   3.028   0.193
 8468SOL    HW226304   5.975   3.025   0.352
 8469SOL     OW26305   4.648   2.935   6.334
 8469SOL    HW126306   4.603   2.867   6.276
 8469SOL    HW226307   4.582   3.007   6.358
 8470SOL     OW26308   1.728   4.971   1.456
 8470SOL    HW126309   1.767   4.994   1.545
 8470SOL    HW226310   1.772   4.888   1.421
 8471SOL     OW26311   3.550   2.095   4.493
 8471SOL    HW126312   3.624   2.105   4.426
 8471SOL    HW226313   3.589   2.087   4.584
 8472SOL     OW26314   5.928   1.116   5.671
 8472SOL    HW126315   5.926   1.057   5.590
 8472SOL    HW226316   5.873   1.198   5.653
 8473SOL     OW26317   4.643   4.472   6.739
 8473SOL    HW126318   4.672   4.384   6.700
 8473SOL    HW226319   4.711   4.503   6.805
 8474SOL     OW26320   3.340   4.026   2.951
 8474SOL    HW126321   3.349   3.940   3.000
 8474SOL    HW226322   3.255   4.072   2.979
 8475SOL     OW26323   0.313   2.481   2.130
 8475SOL    HW126324   0.280   2.415   2.062
 8475SOL    HW226325   0.411   2.497   2.117
 8476SOL     OW26326   6.463   0.187   2.021
 8476SOL    HW126327   6.499   0.279   2.012
 8476SOL    HW226328   6.365   0.191   2.043
 8477SOL     OW26329   5.420   6.981   2.120
 8477SOL    HW126330   5.398   0.010   2.201
 8477SOL    HW226331   5.484   6.909   2.145
 8478SOL     OW26332   6.644   0.542   6.189
 8478SOL    HW126333   6.673   0.480   6.263
 8478SOL    HW226334   6.704   0.622   6.189
 8479SOL     OW26335   1.019   2.348   0.770
 8479SOL    HW126336   0.957   2.280   0.809
 8479SOL    HW226337   1.111   2.311   0.766
 8480SOL     OW26338   4.467   3.716   0.301
 8480SOL    HW126339   4.384   3.761   0.333
 8480SOL    HW226340   4.543   3.781   0.303
 8481SOL     OW26341   4.384   1.435   3.349
 8481SOL    HW126342   4.393   1.339   3.377
 8481SOL    HW226343   4.415   1.445   3.254
 8482SOL     OW26344   4.695   0.902   0.804
 8482SOL    HW126345   4.654   0.902   0.895
 8482SOL    HW226346   4.623   0.906   0.735
 8483SOL     OW26347   3.159   5.360   3.250
 8483SOL    HW126348   3.221   5.424   3.296
 8483SOL    HW226349   3.084   5.336   3.312
 8484SOL     OW26350   4.927   6.002   4.374
 8484SOL    HW126351   4.870   5.954   4.308
 8484SOL    HW226352   4.949   5.941   4.450
 8485SOL     OW26353   3.048   3.015   0.212
 8485SOL    HW126354   3.109   3.082   0.168
 8485SOL    HW226355   2.957   3.055   0.222
 8486SOL     OW26356   0.614   1.803   2.987
 8486SOL    HW126357   0.639   1.893   2.952
 8486SOL    HW226358   0.582   1.813   3.082
 8487SOL     OW26359   5.982   1.643   5.911
 8487SOL    HW126360   5.893   1.628   5.868
 8487SOL    HW226361   6.006   1.564   5.967
 8488SOL     OW26362   4.381   4.861   1.298
 8488SOL    HW126363   4.464   4.916   1.299
 8488SOL    HW226364   4.307   4.913   1.256
 8489SOL     OW26365   5.515   1.242   2.038
 8489SOL    HW126366   5.421   1.240   2.072
 8489SOL    HW226367   5.530   1.325   1.985
 8490SOL     OW26368   2.672   0.119   6.698
 8490SOL    HW126369   2.730   0.165   6.765
 8490SOL    HW226370   2.727   0.053   6.647
 8491SOL     OW26371   3.309   5.569   2.259
 8491SOL    HW126372   3.255   5.605   2.182
 8491SOL    HW226373   3.256   5.577   2.343
 8492SOL     OW26374   0.100   6.423   4.251
 8492SOL    HW126375   0.149   6.338   4.268
 8492SOL    HW226376   0.125   6.458   4.160
 8493SOL     OW26377   4.150   0.883   6.961
 8493SOL    HW126378   4.186   0.882   0.029
 8493SOL    HW226379   4.080   0.954   6.953
 8494SOL     OW26380   6.551   5.043   2.200
 8494SOL    HW126381   6.648   5.030   2.177
 8494SOL    HW226382   6.540   5.049   2.299
 8495SOL     OW26383   6.581   5.598   0.155
 8495SOL    HW126384   6.547   5.564   0.242
 8495SOL    HW226385   6.680   5.612   0.160
 8496SOL     OW26386   5.385   2.752   2.006
 8496SOL    HW126387   5.350   2.762   2.099
 8496SOL    HW226388   5.381   2.656   1.979
 8497SOL     OW26389   6.968   0.687   3.793
 8497SOL    HW126390   6.992   0.666   3.887
 8497SOL    HW226391   6.872   0.711   3.787
 8498SOL     OW26392   4.569   0.666   3.853
 8498SOL    HW126393   4.584   0.593   3.786
 8498SOL    HW226394   4.474   0.699   3.846
 8499SOL     OW26395   6.200   6.695   6.093
 8499SOL    HW126396   6.172   6.622   6.155
 8499SOL    HW226397   6.271   6.661   6.030
 8500SOL     OW26398   1.198   0.308   4.842
 8500SOL    HW126399   1.142   0.301   4.760
 8500SOL    HW226400   1.294   0.295   4.818
 8501SOL     OW26401   0.837   2.173   6.289
 8501SOL    HW126402   0.907   2.126   6.236
 8501SOL    HW226403   0.747   2.161   6.246
 8502SOL     OW26404   1.096   3.117   6.982
 8502SOL    HW126405   1.174   3.065   6.947
 8502SOL    HW226406   1.059   3.174   6.908
 8503SOL     OW26407   5.646   1.160   4.673
 8503SOL    HW126408   5.547   1.158   4.664
 8503SOL    HW226409   5.672   1.214   4.753
 8504SOL     OW26410   1.252   6.068   1.863
 8504SOL    HW126411   1.183   6.122   1.815
 8504SOL    HW226412   1.217   6.040   1.952
 8505SOL     OW26413   4.876   3.277   3.437
 8505SOL    HW126414   4.843   3.213   3.368
 8505SOL    HW226415   4.869   3.370   3.402
 8506SOL     OW26416   2.155   0.307   6.796
 8506SOL    HW126417   2.250   0.276   6.790
 8506SOL    HW226418   2.094   0.228   6.787
 8507SOL     OW26419   3.986   5.761   5.397
 8507SOL    HW126420   4.012   5.665   5.386
 8507SOL    HW226421   3.888   5.771   5.383
 8508SOL     OW26422   3.226   1.678   6.733
 8508SOL    HW126423   3.245   1.679   6.831
 8508SOL    HW226424   3.275   1.754   6.689
 8509SOL     OW26425   5.673   1.996   3.303
 8509SOL    HW126426   5.716   1.916   3.346
 8509SOL    HW226427   5.584   2.014   3.346
 8510SOL     OW26428   6.702   2.041   4.386
 8510SOL    HW126429   6.649   2.100   4.324
 8510SOL    HW226430   6.760   1.980   4.332
 8511SOL     OW26431   5.798   2.524   2.153
 8511SOL    HW126432   5.738   2.481   2.220
 8511SOL    HW226433   5.765   2.504   2.061
 8512SOL     OW26434   2.435   0.046   5.575
 8512SOL    HW126435   2.447   0.041   5.476
 8512SOL    HW226436   2.463   6.984   5.616
 8513SOL     OW26437   5.117   6.395   6.221
 8513SOL    HW126438   5.151   6.324   6.283
 8513SOL    HW226439   5.026   6.424   6.253
 8514SOL     OW26440   2.684   6.353   3.810
 8514SOL    HW126441   2.651   6.296   3.885
 8514SOL    HW226442   2.743   6.425   3.846
 8515SOL     OW26443   5.524   1.610   0.630
 8515SOL    HW126444   5.589   1.603   0.706
 8515SOL    HW226445   5.531   1.529   0.572
 8516SOL     OW26446   6.896   2.328   2.582
 8516SOL    HW126447   6.878   2.414   2.630
 8516SOL    HW226448   6.994   2.308   2.584
 8517SOL     OW26449   1.450   3.816   6.943
 8517SOL    HW126450   1.388   3.787   7.017
 8517SOL    HW226451   1.415   3.900   6.902
 8518SOL     OW26452   3.365   5.683   0.899
 8518SOL    HW126453   3.369   5.769   0.951
 8518SOL    HW226454   3.427   5.689   0.821
 8519SOL     OW26455   1.428   4.713   2.724
 8519SOL    HW126456   1.336   4.717   2.761
 8519SOL    HW226457   1.460   4.806   2.703
 8520SOL     OW26458   3.115   0.493   0.224
 8520SOL    HW126459   3.176   0.436   0.279
 8520SOL    HW226460   3.067   0.558   0.282
 8521SOL     OW26461   1.078   6.985   6.515
 8521SOL    HW126462   1.144   6.936   6.458
 8521SOL    HW226463   1.048   6.926   6.590
 8522SOL     OW26464   1.749   6.047   5.121
 8522SOL    HW126465   1.720   6.132   5.165
 8522SOL    HW226466   1.743   6.058   5.021
 8523SOL     OW26467   1.617   0.307   6.918
 8523SOL    HW126468   1.522   0.285   6.897
 8523SOL    HW226469   1.639   0.276   7.010
 8524SOL     OW26470   1.444   2.664   5.939
 8524SOL    HW126471   1.348   2.644   5.920
 8524SOL    HW226472   1.496   2.578   5.943
 8525SOL     OW26473   5.207   2.894   2.863
 8525SOL    HW126474   5.165   2.874   2.951
 8525SOL    HW226475   5.143   2.869   2.790
 8526SOL     OW26476   2.274   2.866   1.968
 8526SOL    HW126477   2.331   2.838   1.890
 8526SOL    HW226478   2.230   2.953   1.946
 8527SOL     OW26479   4.272   0.185   4.164
 8527SOL    HW126480   4.317   0.134   4.237
 8527SOL    HW226481   4.328   0.182   4.081
 8528SOL     OW26482   5.090   2.683   6.835
 8528SOL    HW126483   5.094   2.751   6.908
 8528SOL    HW226484   5.063   2.595   6.873
 8529SOL     OW26485   0.362   4.378   6.964
 8529SOL    HW126486   0.389   4.471   6.991
 8529SOL    HW226487   0.405   4.312   7.024
 8530SOL     OW26488   1.269   3.288   5.637
 8530SOL    HW126489   1.187   3.337   5.669
 8530SOL    HW226490   1.351   3.338   5.666
 8531SOL     OW26491   4.504   4.940   2.728
 8531SOL    HW126492   4.527   4.893   2.813
 8531SOL    HW226493   4.537   4.887   2.650
 8532SOL     OW26494   1.340   4.240   5.747
 8532SOL    HW126495   1.436   4.221   5.728
 8532SOL    HW226496   1.315   4.198   5.834
 8533SOL     OW26497   3.385   0.339   6.146
 8533SOL    HW126498   3.339   0.402   6.208
 8533SOL    HW226499   3.456   0.288   6.195
 8534SOL     OW26500   1.776   2.673   2.989
 8534SOL    HW126501   1.851   2.649   3.051
 8534SOL    HW226502   1.800   2.647   2.896
 8535SOL     OW26503   7.020   2.852   4.006
 8535SOL    HW126504   7.024   2.843   4.106
 8535SOL    HW226505   6.977   2.770   3.967
 8536SOL     OW26506   0.376   1.618   5.096
 8536SOL    HW126507   0.469   1.613   5.131
 8536SOL    HW226508   0.367   1.698   5.037
 8537SOL     OW26509   6.073   0.490   1.736
 8537SOL    HW126510   6.104   0.475   1.830
 8537SOL    HW226511   6.150   0.477   1.674
 8538SOL     OW26512   6.246   1.597   4.944
 8538SOL    HW126513   6.247   1.682   4.893
 8538SOL    HW226514   6.213   1.523   4.885
 8539SOL     OW26515   6.777   2.884   2.276
 8539SOL    HW126516   6.795   2.912   2.370
 8539SOL    HW226517   6.814   2.793   2.260
 8540SOL     OW26518   4.263   0.110   0.313
 8540SOL    HW126519   4.205   0.190   0.330
 8540SOL    HW226520   4.357   0.140   0.294
 8541SOL     OW26521   3.579   6.714   5.421
 8541SOL    HW126522   3.482   6.691   5.431
 8541SOL    HW226523   3.611   6.688   5.330
 8542SOL     OW26524   0.931   4.938   6.195
 8542SOL    HW126525   0.931   5.027   6.149
 8542SOL    HW226526   0.933   4.866   6.126
 8543SOL     OW26527   2.417   2.195   5.816
 8543SOL    HW126528   2.431   2.234   5.725
 8543SOL    HW226529   2.504   2.168   5.855
 8544SOL     OW26530   5.674   4.430   5.538
 8544SOL    HW126531   5.700   4.380   5.620
 8544SOL    HW226532   5.618   4.509   5.564
 8545SOL     OW26533   2.953   0.724   6.459
 8545SOL    HW126534   2.878   0.750   6.519
 8545SOL    HW226535   2.944   0.627   6.435
 8546SOL     OW26536   5.144   1.007   2.148
 8546SOL    HW126537   5.066   0.967   2.100
 8546SOL    HW226538   5.229   0.970   2.110
 8547SOL     OW26539   5.711   5.741   5.531
 8547SOL    HW126540   5.670   5.688   5.606
 8547SOL    HW226541   5.729   5.680   5.453
 8548SOL     OW26542   0.627   3.637   5.498
 8548SOL    HW126543   0.600   3.586   5.580
 8548SOL    HW226544   0.624   3.735   5.517
 8549SOL     OW26545   2.041   6.947   4.024
 8549SOL    HW126546   2.130   6.936   3.980
 8549SOL    HW226547   1.991   7.021   3.980
 8550SOL     OW26548   6.614   4.178   6.429
 8550SOL    HW126549   6.633   4.086   6.463
 8550SOL    HW226550   6.676   4.244   6.472
 8551SOL     OW26551   1.783   0.948   6.275
 8551SOL    HW126552   1.743   0.936   6.184
 8551SOL    HW226553   1.852   0.878   6.291
 8552SOL     OW26554   3.084   1.959   3.233
 8552SOL    HW126555   3.067   1.927   3.327
 8552SOL    HW226556   3.142   1.893   3.186
 8553SOL     OW26557   5.078   4.206   0.071
 8553SOL    HW126558   5.174   4.183   0.085
 8553SOL    HW226559   5.069   4.264   7.015
 8554SOL     OW26560   2.552   1.171   0.965
 8554SOL    HW126561   2.465   1.216   0.942
 8554SOL    HW226562   2.588   1.211   1.049
 8555SOL     OW26563   3.928   1.307   3.942
 8555SOL    HW126564   3.902   1.262   4.027
 8555SOL    HW226565   4.027   1.324   3.943
 8556SOL     OW26566   1.901   5.838   0.252
 8556SOL    HW126567   2.001   5.837   0.248
 8556SOL    HW226568   1.867   5.745   0.265
 8557SOL     OW26569   6.892   0.881   6.461
 8557SOL    HW126570   6.847   0.825   6.530
 8557SOL    HW226571   6.955   0.825   6.408
 8558SOL     OW26572   3.228   5.969   4.419
 8558SOL    HW126573   3.137   6.006   4.433
 8558SOL    HW226574   3.223   5.870   4.409
 8559SOL     OW26575   1.717   4.612   2.703
 8559SOL    HW126576   1.790   4.672   2.734
 8559SOL    HW226577   1.630   4.644   2.740
 8560SOL     OW26578   2.827   4.823   1.023
 8560SOL    HW126579   2.758   4.756   1.053
 8560SOL    HW226580   2.896   4.833   1.095
 8561SOL     OW26581   4.831   0.989   2.457
 8561SOL    HW126582   4.783   1.021   2.375
 8561SOL    HW226583   4.927   1.019   2.453
 8562SOL     OW26584   5.091   1.974   6.707
 8562SOL    HW126585   4.999   2.001   6.735
 8562SOL    HW226586   5.097   1.977   6.607
 8563SOL     OW26587   2.450   5.262   2.199
 8563SOL    HW126588   2.488   5.171   2.182
 8563SOL    HW226589   2.393   5.259   2.282
 8564SOL     OW26590   4.044   6.998   0.180
 8564SOL    HW126591   4.065   6.979   0.084
 8564SOL    HW226592   4.128   7.018   0.229
 8565SOL     OW26593   1.856   4.879   0.888
 8565SOL    HW126594   1.824   4.855   0.797
 8565SOL    HW226595   1.953   4.854   0.898
 8566SOL     OW26596   3.397   1.215   2.227
 8566SOL    HW126597   3.468   1.147   2.241
 8566SOL    HW226598   3.355   1.238   2.315
 8567SOL     OW26599   1.682   3.104   1.747
 8567SOL    HW126600   1.588   3.120   1.715
 8567SOL    HW226601   1.715   3.017   1.712
 8568SOL     OW26602   6.036   0.591   6.644
 8568SOL    HW126603   6.004   0.609   6.737
 8568SOL    HW226604   5.987   0.650   6.579
 8569SOL     OW26605   3.895   2.193   6.286
 8569SOL    HW126606   3.921   2.236   6.372
 8569SOL    HW226607   3.846   2.260   6.229
 8570SOL     OW26608   1.895   2.441   2.054
 8570SOL    HW126609   1.888   2.352   2.010
 8570SOL    HW226610   1.811   2.493   2.037
 8571SOL     OW26611   1.600   0.921   3.006
 8571SOL    HW126612   1.569   0.971   3.087
 8571SOL    HW226613   1.637   0.985   2.938
 8572SOL     OW26614   2.461   4.553   5.929
 8572SOL    HW126615   2.538   4.592   5.878
 8572SOL    HW226616   2.424   4.621   5.991
 8573SOL     OW26617   3.793   6.287   0.226
 8573SOL    HW126618   3.731   6.360   0.255
 8573SOL    HW226619   3.778   6.268   0.129
 8574SOL     OW26620   5.467   0.629   5.111
 8574SOL    HW126621   5.483   0.530   5.103
 8574SOL    HW226622   5.517   0.676   5.038
 8575SOL     OW26623   3.038   6.067   3.647
 8575SOL    HW126624   2.991   5.997   3.593
 8575SOL    HW226625   2.994   6.155   3.633
 8576SOL     OW26626   1.304   4.853   3.400
 8576SOL    HW126627   1.237   4.782   3.379
 8576SOL    HW226628   1.394   4.825   3.367
 8577SOL     OW26629   1.633   1.831   0.219
 8577SOL    HW126630   1.594   1.915   0.256
 8577SOL    HW226631   1.638   1.838   0.120
 8578SOL     OW26632   6.865   6.630   6.666
 8578SOL    HW126633   6.832   6.577   6.588
 8578SOL    HW226634   6.798   6.699   6.692
 8579SOL     OW26635   2.740   6.472   2.401
 8579SOL    HW126636   2.769   6.565   2.424
 8579SOL    HW226637   2.804   6.407   2.442
 8580SOL     OW26638   2.155   0.538   1.172
 8580SOL    HW126639   2.216   0.477   1.123
 8580SOL    HW226640   2.060   0.518   1.146
 8581SOL     OW26641   3.540   4.872   1.574
 8581SOL    HW126642   3.489   4.850   1.657
 8581SOL    HW226643   3.516   4.964   1.544
 8582SOL     OW26644   3.197   4.707   5.998
 8582SOL    HW126645   3.180   4.804   5.981
 8582SOL    HW226646   3.148   4.652   5.930
 8583SOL     OW26647   4.403   0.902   2.788
 8583SOL    HW126648   4.371   0.825   2.842
 8583SOL    HW226649   4.343   0.915   2.709
 8584SOL     OW26650   0.047   1.679   5.183
 8584SOL    HW126651   0.101   1.688   5.099
 8584SOL    HW226652   7.014   1.760   5.193
 8585SOL     OW26653   5.320   2.829   2.278
 8585SOL    HW126654   5.356   2.922   2.280
 8585SOL    HW226655   5.312   2.794   2.371
 8586SOL     OW26656   6.773   5.973   0.510
 8586SOL    HW126657   6.820   6.058   0.534
 8586SOL    HW226658   6.840   5.899   0.504
 8587SOL     OW26659   0.686   1.730   6.867
 8587SOL    HW126660   0.759   1.795   6.889
 8587SOL    HW226661   0.712   1.677   6.787
 8588SOL     OW26662   2.932   1.942   6.215
 8588SOL    HW126663   2.919   1.952   6.313
 8588SOL    HW226664   2.925   2.032   6.171
 8589SOL     OW26665   6.477   2.667   6.851
 8589SOL    HW126666   6.461   2.763   6.876
 8589SOL    HW226667   6.492   2.613   6.934
 8590SOL     OW26668   1.321   0.534   4.524
 8590SOL    HW126669   1.407   0.584   4.536
 8590SOL    HW226670   1.327   0.444   4.566
 8591SOL     OW26671   0.018   3.983   6.546
 8591SOL    HW126672   0.010   3.954   6.450
 8591SOL    HW226673   6.951   3.988   6.586
 8592SOL     OW26674   0.385   1.894   5.198
 8592SOL    HW126675   0.401   1.805   5.240
 8592SOL    HW226676   0.290   1.899   5.166
 8593SOL     OW26677   4.257   1.470   0.145
 8593SOL    HW126678   4.175   1.437   0.192
 8593SOL    HW226679   4.287   1.556   0.186
 8594SOL     OW26680   6.606   2.737   5.984
 8594SOL    HW126681   6.527   2.765   6.038
 8594SOL    HW226682   6.602   2.780   5.893
 8595SOL     OW26683   6.198   6.941   3.393
 8595SOL    HW126684   6.203   6.841   3.391
 8595SOL    HW226685   6.154   6.971   3.478
 8596SOL     OW26686   0.908   1.303   4.128
 8596SOL    HW126687   0.943   1.317   4.036
 8596SOL    HW226688   0.906   1.391   4.177
 8597SOL     OW26689   5.369   3.539   7.008
 8597SOL    HW126690   5.307   3.512   6.934
 8597SOL    HW226691   5.326   3.610   0.039
 8598SOL     OW26692   5.834   6.391   4.738
 8598SOL    HW126693   5.910   6.429   4.790
 8598SOL    HW226694   5.806   6.456   4.667
 8599SOL     OW26695   6.919   3.596   4.161
 8599SOL    HW126696   6.905   3.516   4.103
 8599SOL    HW226697   7.012   3.595   4.197
 8600SOL     OW26698   4.549   1.532   0.941
 8600SOL    HW126699   4.554   1.587   1.024
 8600SOL    HW226700   4.506   1.584   0.868
 8601SOL     OW26701   0.680   6.092   3.908
 8601SOL    HW126702   0.662   6.024   3.836
 8601SOL    HW226703   0.672   6.048   3.997
 8602SOL     OW26704   2.500   6.266   4.940
 8602SOL    HW126705   2.543   6.249   5.028
 8602SOL    HW226706   2.400   6.265   4.951
 8603SOL     OW26707   0.199   0.193   0.285
 8603SOL    HW126708   0.259   0.237   0.352
 8603SOL    HW226709   0.168   0.261   0.219
 8604SOL     OW26710   0.059   4.402   6.601
 8604SOL    HW126711   0.043   4.420   6.504
 8604SOL    HW226712   0.142   4.448   6.630
 8605SOL     OW26713   6.428   4.931   4.697
 8605SOL    HW126714   6.387   5.012   4.656
 8605SOL    HW226715   6.527   4.938   4.694
 8606SOL     OW26716   1.870   2.321   0.603
 8606SOL    HW126717   1.773   2.344   0.588
 8606SOL    HW226718   1.882   2.222   0.590
 8607SOL     OW26719   2.853   4.353   1.397
 8607SOL    HW126720   2.855   4.438   1.345
 8607SOL    HW226721   2.812   4.370   1.487
 8608SOL     OW26722   1.875   4.965   2.563
 8608SOL    HW126723   1.885   4.936   2.468
 8608SOL    HW226724   1.955   5.019   2.590
 8609SOL     OW26725   4.285   1.977   4.293
 8609SOL    HW126726   4.313   1.938   4.206
 8609SOL    HW226727   4.185   1.987   4.295
 8610SOL     OW26728   6.853   6.293   3.326
 8610SOL    HW126729   6.908   6.309   3.408
 8610SOL    HW226730   6.902   6.230   3.265
 8611SOL     OW26731   3.010   1.586   5.195
 8611SOL    HW126732   3.110   1.582   5.186
 8611SOL    HW226733   2.983   1.674   5.233
 8612SOL     OW26734   3.531   4.171   3.869
 8612SOL    HW126735   3.497   4.089   3.915
 8612SOL    HW226736   3.502   4.253   3.919
 8613SOL     OW26737   4.027   3.093   1.978
 8613SOL    HW126738   3.935   3.111   2.013
 8613SOL    HW226739   4.067   3.178   1.945
 8614SOL     OW26740   1.726   1.264   3.057
 8614SOL    HW126741   1.824   1.282   3.048
 8614SOL    HW226742   1.679   1.291   2.973
 8615SOL     OW26743   4.046   1.416   4.308
 8615SOL    HW126744   4.072   1.479   4.234
 8615SOL    HW226745   4.009   1.469   4.385
 8616SOL     OW26746   5.402   4.451   3.049
 8616SOL    HW126747   5.355   4.496   3.124
 8616SOL    HW226748   5.498   4.479   3.047
 8617SOL     OW26749   2.935   0.452   3.583
 8617SOL    HW126750   2.887   0.481   3.666
 8617SOL    HW226751   3.000   0.379   3.606
 8618SOL     OW26752   5.250   4.491   0.920
 8618SOL    HW126753   5.208   4.494   0.829
 8618SOL    HW226754   5.280   4.583   0.946
 8619SOL     OW26755   4.790   5.233   0.602
 8619SOL    HW126756   4.721   5.299   0.634
 8619SOL    HW226757   4.843   5.274   0.529
 8620SOL     OW26758   2.439   0.743   4.529
 8620SOL    HW126759   2.491   0.658   4.529
 8620SOL    HW226760   2.404   0.760   4.621
 8621SOL     OW26761   5.758   3.078   1.767
 8621SOL    HW126762   5.722   3.091   1.675
 8621SOL    HW226763   5.723   2.993   1.805
 8622SOL     OW26764   6.739   5.180   2.727
 8622SOL    HW126765   6.803   5.236   2.780
 8622SOL    HW226766   6.714   5.228   2.643
 8623SOL     OW26767   0.872   3.601   4.084
 8623SOL    HW126768   0.872   3.700   4.096
 8623SOL    HW226769   0.904   3.578   3.992
 8624SOL     OW26770   3.007   4.031   4.912
 8624SOL    HW126771   3.103   4.023   4.940
 8624SOL    HW226772   2.984   4.128   4.899
 8625SOL     OW26773   4.232   2.680   5.922
 8625SOL    HW126774   4.221   2.775   5.894
 8625SOL    HW226775   4.329   2.655   5.918
 8626SOL     OW26776   3.494   3.848   0.799
 8626SOL    HW126777   3.489   3.806   0.890
 8626SOL    HW226778   3.414   3.821   0.746
 8627SOL     OW26779   1.833   0.641   1.823
 8627SOL    HW126780   1.809   0.558   1.873
 8627SOL    HW226781   1.750   0.692   1.802
 8628SOL     OW26782   0.507   6.422   1.098
 8628SOL    HW126783   0.588   6.477   1.075
 8628SOL    HW226784   0.536   6.333   1.132
 8629SOL     OW26785   0.128   6.595   5.770
 8629SOL    HW126786   0.072   6.589   5.852
 8629SOL    HW226787   0.103   6.677   5.719
 8630SOL     OW26788   4.896   3.358   2.426
 8630SOL    HW126789   4.896   3.276   2.370
 8630SOL    HW226790   4.915   3.438   2.369
 8631SOL     OW26791   2.258   6.844   6.985
 8631SOL    HW126792   2.212   6.845   6.896
 8631SOL    HW226793   2.322   6.768   6.989
 8632SOL     OW26794   5.292   5.194   5.689
 8632SOL    HW126795   5.277   5.186   5.787
 8632SOL    HW226796   5.366   5.259   5.672
 8633SOL     OW26797   5.771   4.544   6.103
 8633SOL    HW126798   5.817   4.464   6.063
 8633SOL    HW226799   5.693   4.570   6.046
 8634SOL     OW26800   4.369   2.626   0.617
 8634SOL    HW126801   4.454   2.677   0.627
 8634SOL    HW226802   4.385   2.529   0.639
 8635SOL     OW26803   5.461   2.621   5.733
 8635SOL    HW126804   5.462   2.560   5.654
 8635SOL    HW226805   5.376   2.675   5.733
 8636SOL     OW26806   4.620   0.132   2.073
 8636SOL    HW126807   4.609   0.033   2.082
 8636SOL    HW226808   4.638   0.173   2.162
 8637SOL     OW26809   1.251   2.109   0.003
 8637SOL    HW126810   1.251   2.104   6.928
 8637SOL    HW226811   1.317   2.177   0.034
 8638SOL     OW26812   5.111   2.408   4.138
 8638SOL    HW126813   5.111   2.482   4.071
 8638SOL    HW226814   5.016   2.385   4.162
 8639SOL     OW26815   3.485   3.849   0.072
 8639SOL    HW126816   3.511   3.780   0.140
 8639SOL    HW226817   3.400   3.822   0.028
 8640SOL     OW26818   2.852   3.224   0.691
 8640SOL    HW126819   2.778   3.232   0.625
 8640SOL    HW226820   2.814   3.198   0.780
 8641SOL     OW26821   4.545   5.875   2.058
 8641SOL    HW126822   4.625   5.829   2.019
 8641SOL    HW226823   4.511   5.822   2.135
 8642SOL     OW26824   0.804   5.767   3.479
 8642SOL    HW126825   0.870   5.712   3.428
 8642SOL    HW226826   0.780   5.720   3.564
 8643SOL     OW26827   3.921   6.444   1.132
 8643SOL    HW126828   3.884   6.517   1.075
 8643SOL    HW226829   3.849   6.408   1.191
 8644SOL     OW26830   6.332   2.042   6.238
 8644SOL    HW126831   6.353   1.996   6.152
 8644SOL    HW226832   6.411   2.097   6.266
 8645SOL     OW26833   5.838   4.196   2.861
 8645SOL    HW126834   5.740   4.179   2.857
 8645SOL    HW226835   5.865   4.255   2.784
 8646SOL     OW26836   6.596   1.927   5.244
 8646SOL    HW126837   6.541   1.972   5.174
 8646SOL    HW226838   6.536   1.893   5.317
 8647SOL     OW26839   2.158   5.514   1.961
 8647SOL    HW126840   2.087   5.574   1.996
 8647SOL    HW226841   2.117   5.437   1.912
 8648SOL     OW26842   5.141   4.907   0.839
 8648SOL    HW126843   5.104   4.997   0.862
 8648SOL    HW226844   5.194   4.871   0.915
 8649SOL     OW26845   5.151   0.209   0.806
 8649SOL    HW126846   5.065   0.250   0.777
 8649SOL    HW226847   5.224   0.236   0.743
 8650SOL     OW26848   2.245   6.398   4.734
 8650SOL    HW126849   2.316   6.454   4.692
 8650SOL    HW226850   2.278   6.304   4.743
 8651SOL     OW26851   3.187   1.713   1.200
 8651SOL    HW126852   3.203   1.692   1.104
 8651SOL    HW226853   3.159   1.808   1.210
 8652SOL     OW26854   1.341   2.615   3.410
 8652SOL    HW126855   1.415   2.586   3.471
 8652SOL    HW226856   1.328   2.547   3.339
 8653SOL     OW26857   6.542   1.608   6.669
 8653SOL    HW126858   6.564   1.597   6.572
 8653SOL    HW226859   6.589   1.688   6.705
 8654SOL     OW26860   0.203   4.640   2.049
 8654SOL    HW126861   0.249   4.555   2.021
 8654SOL    HW226862   0.219   4.655   2.147
 8655SOL     OW26863   0.248   0.454   4.677
 8655SOL    HW126864   0.208   0.546   4.679
 8655SOL    HW226865   0.281   0.431   4.768
 8656SOL     OW26866   5.301   0.164   1.085
 8656SOL    HW126867   5.243   0.089   1.053
 8656SOL    HW226868   5.337   0.214   1.007
 8657SOL     OW26869   4.538   1.264   3.143
 8657SOL    HW126870   4.492   1.215   3.217
 8657SOL    HW226871   4.500   1.235   3.056
 8658SOL     OW26872   6.416   4.197   1.023
 8658SOL    HW126873   6.342   4.220   1.087
 8658SOL    HW226874   6.436   4.276   0.966
 8659SOL     OW26875   3.576   1.418   2.834
 8659SOL    HW126876   3.639   1.358   2.884
 8659SOL    HW226877   3.492   1.367   2.813
 8660SOL     OW26878   6.826   3.802   1.847
 8660SOL    HW126879   6.808   3.855   1.930
 8660SOL    HW226880   6.772   3.718   1.848
 8661SOL     OW26881   6.651   3.902   2.841
 8661SOL    HW126882   6.598   3.976   2.801
 8661SOL    HW226883   6.745   3.904   2.805
 8662SOL     OW26884   2.255   4.090   3.097
 8662SOL    HW126885   2.222   4.173   3.051
 8662SOL    HW226886   2.338   4.112   3.149
 8663SOL     OW26887   4.227   5.780   2.654
 8663SOL    HW126888   4.320   5.812   2.633
 8663SOL    HW226889   4.228   5.681   2.667
 8664SOL     OW26890   3.389   5.918   3.946
 8664SOL    HW126891   3.356   5.970   3.867
 8664SOL    HW226892   3.428   5.981   4.013
 8665SOL     OW26893   5.225   3.430   6.810
 8665SOL    HW126894   5.200   3.413   6.715
 8665SOL    HW226895   5.235   3.343   6.858
 8666SOL     OW26896   4.431   6.858   2.487
 8666SOL    HW126897   4.372   6.783   2.458
 8666SOL    HW226898   4.444   6.854   2.587
 8667SOL     OW26899   4.893   2.206   2.944
 8667SOL    HW126900   4.967   2.140   2.960
 8667SOL    HW226901   4.806   2.158   2.942
 8668SOL     OW26902   5.106   2.699   4.794
 8668SOL    HW126903   5.183   2.683   4.732
 8668SOL    HW226904   5.101   2.625   4.862
 8669SOL     OW26905   6.434   5.962   6.244
 8669SOL    HW126906   6.370   5.958   6.321
 8669SOL    HW226907   6.455   5.870   6.213
 8670SOL     OW26908   6.385   4.232   6.255
 8670SOL    HW126909   6.400   4.319   6.208
 8670SOL    HW226910   6.458   4.217   6.322
 8671SOL     OW26911   0.277   2.854   2.861
 8671SOL    HW126912   0.193   2.843   2.809
 8671SOL    HW226913   0.354   2.864   2.798
 8672SOL     OW26914   0.564   0.917   3.104
 8672SOL    HW126915   0.580   0.972   3.022
 8672SOL    HW226916   0.577   0.974   3.186
 8673SOL     OW26917   0.498   1.790   1.612
 8673SOL    HW126918   0.553   1.707   1.616
 8673SOL    HW226919   0.404   1.769   1.637
 8674SOL     OW26920   6.905   3.890   3.920
 8674SOL    HW126921   6.845   3.820   3.958
 8674SOL    HW226922   6.970   3.847   3.858
 8675SOL     OW26923   3.281   2.185   5.341
 8675SOL    HW126924   3.349   2.139   5.284
 8675SOL    HW226925   3.265   2.277   5.306
 8676SOL     OW26926   5.514   1.258   0.860
 8676SOL    HW126927   5.600   1.262   0.809
 8676SOL    HW226928   5.440   1.229   0.800
 8677SOL     OW26929   2.811   6.562   6.143
 8677SOL    HW126930   2.810   6.463   6.128
 8677SOL    HW226931   2.816   6.609   6.055
 8678SOL     OW26932   1.382   2.021   0.667
 8678SOL    HW126933   1.475   1.984   0.673
 8678SOL    HW226934   1.362   2.044   0.572
 8679SOL     OW26935   1.322   1.796   5.632
 8679SOL    HW126936   1.299   1.725   5.565
 8679SOL    HW226937   1.407   1.772   5.678
 8680SOL     OW26938   6.770   0.917   0.389
 8680SOL    HW126939   6.807   0.829   0.361
 8680SOL    HW226940   6.782   0.983   0.315
 8681SOL     OW26941   5.432   6.552   1.605
 8681SOL    HW126942   5.382   6.466   1.597
 8681SOL    HW226943   5.378   6.625   1.563
 8682SOL     OW26944   1.709   0.595   1.136
 8682SOL    HW126945   1.614   0.574   1.157
 8682SOL    HW226946   1.731   0.686   1.170
 8683SOL     OW26947   1.557   4.224   4.291
 8683SOL    HW126948   1.490   4.278   4.240
 8683SOL    HW226949   1.528   4.216   4.386
 8684SOL     OW26950   1.340   3.891   4.200
 8684SOL    HW126951   1.271   3.925   4.264
 8684SOL    HW226952   1.308   3.807   4.156
 8685SOL     OW26953   5.010   2.062   4.827
 8685SOL    HW126954   4.933   2.089   4.885
 8685SOL    HW226955   4.977   2.044   4.735
 8686SOL     OW26956   1.296   5.615   2.758
 8686SOL    HW126957   1.203   5.604   2.794
 8686SOL    HW226958   1.349   5.671   2.822
 8687SOL     OW26959   4.977   4.459   5.791
 8687SOL    HW126960   4.921   4.542   5.785
 8687SOL    HW226961   5.058   4.470   5.734
 8688SOL     OW26962   0.366   3.895   5.530
 8688SOL    HW126963   0.299   3.968   5.543
 8688SOL    HW226964   0.370   3.872   5.433
 8689SOL     OW26965   3.677   3.571   6.993
 8689SOL    HW126966   3.719   3.627   6.921
 8689SOL    HW226967   3.689   3.616   0.056
 8690SOL     OW26968   1.557   2.506   3.213
 8690SOL    HW126969   1.535   2.602   3.229
 8690SOL    HW226970   1.657   2.495   3.214
 8691SOL     OW26971   3.300   2.616   5.365
 8691SOL    HW126972   3.289   2.531   5.314
 8691SOL    HW226973   3.370   2.672   5.322
 8692SOL     OW26974   4.317   1.816   5.255
 8692SOL    HW126975   4.294   1.720   5.241
 8692SOL    HW226976   4.403   1.837   5.208
 8693SOL     OW26977   6.306   6.950   6.081
 8693SOL    HW126978   6.269   6.867   6.121
 8693SOL    HW226979   6.236   7.021   6.080
 8694SOL     OW26980   5.843   3.523   4.773
 8694SOL    HW126981   5.851   3.607   4.719
 8694SOL    HW226982   5.806   3.544   4.863
 8695SOL     OW26983   3.731   4.499   6.341
 8695SOL    HW126984   3.822   4.500   6.299
 8695SOL    HW226985   3.719   4.582   6.396
 8696SOL     OW26986   2.734   4.608   6.049
 8696SOL    HW126987   2.661   4.591   6.115
 8696SOL    HW226988   2.739   4.532   5.985
 8697SOL     OW26989   1.866   3.887   5.552
 8697SOL    HW126990   1.892   3.911   5.645
 8697SOL    HW226991   1.936   3.920   5.488
 8698SOL     OW26992   5.531   5.342   5.659
 8698SOL    HW126993   5.573   5.309   5.574
 8698SOL    HW226994   5.569   5.291   5.736
 8699SOL     OW26995   1.365   2.918   6.503
 8699SOL    HW126996   1.356   2.824   6.470
 8699SOL    HW226997   1.321   2.926   6.593
 8700SOL     OW26998   1.144   0.227   4.160
 8700SOL    HW126999   1.106   0.262   4.245
 8700SOL    HW227000   1.078   0.165   4.116
 8701SOL     OW27001   0.451   2.591   0.452
 8701SOL    HW127002   0.369   2.547   0.489
 8701SOL    HW227003   0.467   2.559   0.359
 8702SOL     OW27004   5.221   4.966   1.848
 8702SOL    HW127005   5.304   5.008   1.811
 8702SOL    HW227006   5.166   4.928   1.774
 8703SOL     OW27007   2.178   5.760   1.165
 8703SOL    HW127008   2.220   5.746   1.075
 8703SOL    HW227009   2.098   5.818   1.156
 8704SOL     OW27010   1.142   0.367   5.101
 8704SOL    HW127011   1.074   0.441   5.095
 8704SOL    HW227012   1.166   0.336   5.009
 8705SOL     OW27013   3.999   2.490   6.778
 8705SOL    HW127014   3.937   2.459   6.851
 8705SOL    HW227015   3.945   2.511   6.696
 8706SOL     OW27016   4.477   3.169   6.418
 8706SOL    HW127017   4.460   3.236   6.346
 8706SOL    HW227018   4.527   3.213   6.493
 8707SOL     OW27019   1.575   1.910   5.337
 8707SOL    HW127020   1.499   1.949   5.388
 8707SOL    HW227021   1.657   1.911   5.394
 8708SOL     OW27022   6.094   2.933   0.093
 8708SOL    HW127023   6.126   2.913   0.000
 8708SOL    HW227024   6.123   2.860   0.155
 8709SOL     OW27025   6.047   6.891   5.715
 8709SOL    HW127026   6.134   6.850   5.742
 8709SOL    HW227027   5.981   6.883   5.790
 8710SOL     OW27028   2.366   1.059   3.372
 8710SOL    HW127029   2.289   1.103   3.419
 8710SOL    HW227030   2.447   1.118   3.378
 8711SOL     OW27031   1.540   1.001   1.555
 8711SOL    HW127032   1.441   0.995   1.547
 8711SOL    HW227033   1.564   1.082   1.610
 8712SOL     OW27034   1.955   4.136   5.878
 8712SOL    HW127035   1.977   4.219   5.826
 8712SOL    HW227036   1.989   4.057   5.827
 8713SOL     OW27037   0.012   4.088   1.675
 8713SOL    HW127038   6.987   4.024   1.617
 8713SOL    HW227039   7.004   4.081   1.769
 8714SOL     OW27040   0.062   5.819   6.637
 8714SOL    HW127041   0.154   5.779   6.638
 8714SOL    HW227042   0.067   5.913   6.672
 8715SOL     OW27043   2.124   3.376   1.445
 8715SOL    HW127044   2.199   3.331   1.395
 8715SOL    HW227045   2.037   3.332   1.420
 8716SOL     OW27046   6.858   6.875   2.209
 8716SOL    HW127047   6.798   6.935   2.157
 8716SOL    HW227048   6.840   6.780   2.184
 8717SOL     OW27049   2.851   3.944   0.677
 8717SOL    HW127050   2.795   3.958   0.596
 8717SOL    HW227051   2.921   3.875   0.659
 8718SOL     OW27052   2.245   4.581   6.241
 8718SOL    HW127053   2.330   4.568   6.292
 8718SOL    HW227054   2.217   4.677   6.249
 8719SOL     OW27055   3.608   0.569   5.781
 8719SOL    HW127056   3.526   0.625   5.771
 8719SOL    HW227057   3.653   0.559   5.692
 8720SOL     OW27058   6.819   5.272   4.948
 8720SOL    HW127059   6.747   5.224   4.999
 8720SOL    HW227060   6.908   5.234   4.974
 8721SOL     OW27061   0.283   0.289   6.714
 8721SOL    HW127062   0.380   0.295   6.690
 8721SOL    HW227063   0.232   0.254   6.636
 8722SOL     OW27064   3.317   1.150   1.441
 8722SOL    HW127065   3.298   1.105   1.528
 8722SOL    HW227066   3.233   1.152   1.386
 8723SOL     OW27067   4.252   0.231   2.808
 8723SOL    HW127068   4.305   0.273   2.883
 8723SOL    HW227069   4.302   0.243   2.722
 8724SOL     OW27070   4.028   1.092   4.383
 8724SOL    HW127071   3.944   1.138   4.412
 8724SOL    HW227072   4.012   1.042   4.298
 8725SOL     OW27073   0.217   6.780   3.591
 8725SOL    HW127074   0.288   6.715   3.616
 8725SOL    HW227075   0.137   6.730   3.558
 8726SOL     OW27076   0.060   0.707   0.922
 8726SOL    HW127077   0.139   0.761   0.950
 8726SOL    HW227078   0.090   0.627   0.871
 8727SOL     OW27079   4.556   6.407   5.913
 8727SOL    HW127080   4.608   6.322   5.900
 8727SOL    HW227081   4.523   6.440   5.825
 8728SOL     OW27082   6.610   0.156   3.878
 8728SOL    HW127083   6.650   0.212   3.950
 8728SOL    HW227084   6.673   0.151   3.801
 8729SOL     OW27085   4.235   5.898   6.303
 8729SOL    HW127086   4.207   5.807   6.333
 8729SOL    HW227087   4.155   5.957   6.293
 8730SOL     OW27088   4.701   5.270   1.372
 8730SOL    HW127089   4.664   5.330   1.302
 8730SOL    HW227090   4.694   5.174   1.343
 8731SOL     OW27091   0.258   1.575   3.481
 8731SOL    HW127092   0.232   1.600   3.388
 8731SOL    HW227093   0.270   1.476   3.487
 8732SOL     OW27094   5.805   6.980   0.149
 8732SOL    HW127095   5.825   6.927   0.231
 8732SOL    HW227096   5.706   6.985   0.135
 8733SOL     OW27097   6.060   5.332   2.123
 8733SOL    HW127098   6.133   5.399   2.111
 8733SOL    HW227099   5.996   5.337   2.046
 8734SOL     OW27100   6.846   3.863   2.609
 8734SOL    HW127101   6.944   3.871   2.623
 8734SOL    HW227102   6.826   3.777   2.562
 8735SOL     OW27103   0.154   3.639   5.340
 8735SOL    HW127104   0.176   3.649   5.437
 8735SOL    HW227105   0.057   3.618   5.330
 8736SOL     OW27106   1.330   6.141   4.006
 8736SOL    HW127107   1.284   6.103   4.086
 8736SOL    HW227108   1.419   6.098   3.995
 8737SOL     OW27109   1.701   6.540   6.861
 8737SOL    HW127110   1.765   6.604   6.904
 8737SOL    HW227111   1.687   6.461   6.920
 8738SOL     OW27112   1.611   2.773   3.354
 8738SOL    HW127113   1.528   2.793   3.301
 8738SOL    HW227114   1.675   2.850   3.346
 8739SOL     OW27115   4.981   4.138   5.859
 8739SOL    HW127116   4.957   4.235   5.860
 8739SOL    HW227117   4.996   4.107   5.952
 8740SOL     OW27118   2.945   0.522   4.881
 8740SOL    HW127119   2.873   0.461   4.847
 8740SOL    HW227120   2.979   0.488   4.969
 8741SOL     OW27121   0.867   0.270   2.794
 8741SOL    HW127122   0.913   0.215   2.863
 8741SOL    HW227123   0.883   0.367   2.811
 8742SOL     OW27124   2.936   1.593   2.310
 8742SOL    HW127125   2.893   1.592   2.400
 8742SOL    HW227126   2.996   1.673   2.303
 8743SOL     OW27127   0.361   2.240   1.422
 8743SOL    HW127128   0.370   2.337   1.447
 8743SOL    HW227129   0.451   2.197   1.421
 8744SOL     OW27130   3.184   4.388   5.703
 8744SOL    HW127131   3.168   4.332   5.784
 8744SOL    HW227132   3.138   4.347   5.624
 8745SOL     OW27133   5.518   0.917   6.188
 8745SOL    HW127134   5.584   0.991   6.174
 8745SOL    HW227135   5.547   0.860   6.266
 8746SOL     OW27136   4.952   5.460   5.055
 8746SOL    HW127137   4.962   5.476   5.153
 8746SOL    HW227138   4.855   5.460   5.031
 8747SOL     OW27139   0.258   0.414   2.200
 8747SOL    HW127140   0.176   0.437   2.148
 8747SOL    HW227141   0.324   0.368   2.140
 8748SOL     OW27142   6.411   1.986   3.614
 8748SOL    HW127143   6.429   2.040   3.696
 8748SOL    HW227144   6.497   1.960   3.571
 8749SOL     OW27145   3.048   1.367   3.714
 8749SOL    HW127146   3.051   1.367   3.814
 8749SOL    HW227147   2.989   1.442   3.683
 8750SOL     OW27148   4.006   3.692   0.071
 8750SOL    HW127149   4.058   3.687   0.156
 8750SOL    HW227150   3.925   3.749   0.085
 8751SOL     OW27151   1.729   6.350   0.777
 8751SOL    HW127152   1.780   6.275   0.737
 8751SOL    HW227153   1.631   6.329   0.775
 8752SOL     OW27154   6.186   2.996   5.945
 8752SOL    HW127155   6.130   3.011   5.863
 8752SOL    HW227156   6.245   3.076   5.959
 8753SOL     OW27157   2.640   2.449   0.799
 8753SOL    HW127158   2.720   2.394   0.824
 8753SOL    HW227159   2.590   2.476   0.882
 8754SOL     OW27160   1.714   4.916   6.704
 8754SOL    HW127161   1.733   4.819   6.684
 8754SOL    HW227162   1.631   4.944   6.657
 8755SOL     OW27163   6.971   2.686   1.693
 8755SOL    HW127164   6.890   2.657   1.744
 8755SOL    HW227165   0.003   2.744   1.751
 8756SOL     OW27166   2.187   1.708   1.500
 8756SOL    HW127167   2.271   1.763   1.502
 8756SOL    HW227168   2.175   1.661   1.587
 8757SOL     OW27169   5.416   5.876   5.432
 8757SOL    HW127170   5.498   5.819   5.430
 8757SOL    HW227171   5.401   5.910   5.525
 8758SOL     OW27172   3.571   5.262   4.931
 8758SOL    HW127173   3.502   5.327   4.961
 8758SOL    HW227174   3.635   5.245   5.007
 8759SOL     OW27175   5.906   0.690   0.642
 8759SOL    HW127176   5.839   0.756   0.675
 8759SOL    HW227177   5.973   0.737   0.583
 8760SOL     OW27178   2.828   2.332   4.008
 8760SOL    HW127179   2.912   2.288   4.037
 8760SOL    HW227180   2.817   2.322   3.909
 8761SOL     OW27181   5.782   1.452   2.397
 8761SOL    HW127182   5.879   1.447   2.372
 8761SOL    HW227183   5.769   1.524   2.465
 8762SOL     OW27184   2.360   5.213   3.092
 8762SOL    HW127185   2.418   5.135   3.069
 8762SOL    HW227186   2.411   5.298   3.075
 8763SOL     OW27187   0.618   0.745   6.946
 8763SOL    HW127188   0.638   0.838   6.978
 8763SOL    HW227189   0.695   0.685   6.966
 8764SOL     OW27190   2.838   4.913   5.211
 8764SOL    HW127191   2.776   4.887   5.137
 8764SOL    HW227192   2.894   4.990   5.181
 8765SOL     OW27193   4.869   0.175   4.462
 8765SOL    HW127194   4.885   0.142   4.369
 8765SOL    HW227195   4.805   0.253   4.459
 8766SOL     OW27196   4.687   6.176   5.861
 8766SOL    HW127197   4.769   6.147   5.911
 8766SOL    HW227198   4.672   6.115   5.784
 8767SOL     OW27199   2.121   1.570   4.075
 8767SOL    HW127200   2.057   1.583   4.151
 8767SOL    HW227201   2.173   1.654   4.060
 8768SOL     OW27202   6.318   1.736   6.820
 8768SOL    HW127203   6.248   1.667   6.801
 8768SOL    HW227204   6.403   1.709   6.777
 8769SOL     OW27205   6.692   6.946   0.152
 8769SOL    HW127206   6.657   0.002   0.200
 8769SOL    HW227207   6.696   6.965   0.054
 8770SOL     OW27208   5.372   3.254   0.651
 8770SOL    HW127209   5.346   3.229   0.745
 8770SOL    HW227210   5.360   3.352   0.639
 8771SOL     OW27211   0.746   3.174   0.434
 8771SOL    HW127212   0.765   3.168   0.336
 8771SOL    HW227213   0.822   3.134   0.485
 8772SOL     OW27214   6.840   6.760   4.257
 8772SOL    HW127215   6.883   6.685   4.307
 8772SOL    HW227216   6.844   6.740   4.159
 8773SOL     OW27217   0.078   1.053   4.428
 8773SOL    HW127218   0.093   1.133   4.370
 8773SOL    HW227219   0.024   0.985   4.379
 8774SOL     OW27220   1.526   1.621   0.372
 8774SOL    HW127221   1.577   1.670   0.301
 8774SOL    HW227222   1.432   1.655   0.374
 8775SOL     OW27223   5.737   2.499   4.228
 8775SOL    HW127224   5.660   2.551   4.190
 8775SOL    HW227225   5.811   2.562   4.251
 8776SOL     OW27226   4.179   2.683   0.371
 8776SOL    HW127227   4.160   2.780   0.354
 8776SOL    HW227228   4.244   2.674   0.446
 8777SOL     OW27229   6.813   1.901   2.886
 8777SOL    HW127230   6.858   1.812   2.881
 8777SOL    HW227231   6.814   1.934   2.980
 8778SOL     OW27232   3.127   4.918   6.932
 8778SOL    HW127233   3.036   4.933   6.971
 8778SOL    HW227234   3.122   4.851   6.858
 8779SOL     OW27235   4.291   4.962   3.472
 8779SOL    HW127236   4.350   4.917   3.404
 8779SOL    HW227237   4.217   5.010   3.425
 8780SOL     OW27238   6.604   4.693   4.151
 8780SOL    HW127239   6.564   4.744   4.076
 8780SOL    HW227240   6.594   4.595   4.134
 8781SOL     OW27241   3.351   0.568   1.956
 8781SOL    HW127242   3.424   0.635   1.948
 8781SOL    HW227243   3.307   0.557   1.867
 8782SOL     OW27244   4.725   1.879   0.836
 8782SOL    HW127245   4.801   1.820   0.809
 8782SOL    HW227246   4.686   1.922   0.754
 8783SOL     OW27247   5.154   3.668   4.632
 8783SOL    HW127248   5.179   3.764   4.619
 8783SOL    HW227249   5.082   3.643   4.567
 8784SOL     OW27250   5.384   1.281   1.607
 8784SOL    HW127251   5.323   1.202   1.598
 8784SOL    HW227252   5.336   1.356   1.652
 8785SOL     OW27253   0.307   5.507   5.503
 8785SOL    HW127254   0.287   5.451   5.422
 8785SOL    HW227255   0.383   5.568   5.483
 8786SOL     OW27256   4.542   1.815   3.141
 8786SOL    HW127257   4.493   1.854   3.062
 8786SOL    HW227258   4.517   1.867   3.223
 8787SOL     OW27259   3.651   6.381   0.958
 8787SOL    HW127260   3.702   6.467   0.953
 8787SOL    HW227261   3.714   6.305   0.968
 8788SOL     OW27262   0.758   0.128   3.630
 8788SOL    HW127263   0.681   0.132   3.694
 8788SOL    HW227264   0.772   0.218   3.588
 8789SOL     OW27265   6.907   2.721   6.532
 8789SOL    HW127266   6.818   2.729   6.577
 8789SOL    HW227267   6.909   2.639   6.475
 8790SOL     OW27268   4.979   3.399   5.580
 8790SOL    HW127269   4.898   3.422   5.526
 8790SOL    HW227270   4.951   3.347   5.661
 8791SOL     OW27271   3.739   5.780   5.043
 8791SOL    HW127272   3.661   5.768   5.104
 8791SOL    HW227273   3.781   5.869   5.061
 8792SOL     OW27274   4.957   4.802   1.766
 8792SOL    HW127275   5.008   4.720   1.793
 8792SOL    HW227276   4.890   4.825   1.836
 8793SOL     OW27277   0.032   5.698   4.412
 8793SOL    HW127278   0.117   5.650   4.435
 8793SOL    HW227279   7.020   5.662   4.327
 8794SOL     OW27280   7.017   0.947   2.476
 8794SOL    HW127281   0.006   0.857   2.433
 8794SOL    HW227282   0.050   1.014   2.430
 8795SOL     OW27283   1.211   6.001   6.566
 8795SOL    HW127284   1.202   5.930   6.636
 8795SOL    HW227285   1.263   6.078   6.603
 8796SOL     OW27286   6.736   3.658   3.684
 8796SOL    HW127287   6.676   3.579   3.669
 8796SOL    HW227288   6.686   3.728   3.735
 8797SOL     OW27289   4.707   0.097   3.902
 8797SOL    HW127290   4.779   0.165   3.910
 8797SOL    HW227291   4.748   0.006   3.891
 8798SOL     OW27292   3.196   0.046   6.021
 8798SOL    HW127293   3.217   0.118   5.954
 8798SOL    HW227294   3.155   6.993   5.975
 8799SOL     OW27295   0.820   4.452   1.973
 8799SOL    HW127296   0.780   4.542   1.954
 8799SOL    HW227297   0.907   4.463   2.021
 8800SOL     OW27298   0.008   5.478   5.027
 8800SOL    HW127299   7.015   5.576   5.031
 8800SOL    HW227300   0.074   5.452   5.098
 8801SOL     OW27301   5.699   3.102   5.336
 8801SOL    HW127302   5.614   3.154   5.344
 8801SOL    HW227303   5.688   3.013   5.381
 8802SOL     OW27304   1.302   6.854   6.376
 8802SOL    HW127305   1.297   6.796   6.457
 8802SOL    HW227306   1.338   6.801   6.300
 8803SOL     OW27307   6.395   6.600   6.561
 8803SOL    HW127308   6.439   6.566   6.645
 8803SOL    HW227309   6.358   6.523   6.510
 8804SOL     OW27310   1.917   6.342   2.661
 8804SOL    HW127311   1.875   6.293   2.737
 8804SOL    HW227312   2.008   6.373   2.688
 8805SOL     OW27313   5.568   5.028   3.627
 8805SOL    HW127314   5.548   4.947   3.681
 8805SOL    HW227315   5.614   5.096   3.683
 8806SOL     OW27316   1.910   0.223   0.990
 8806SOL    HW127317   1.917   0.298   1.055
 8806SOL    HW227318   1.816   0.218   0.954
 8807SOL     OW27319   4.817   3.052   1.266
 8807SOL    HW127320   4.771   2.980   1.319
 8807SOL    HW227321   4.772   3.063   1.178
 8808SOL     OW27322   1.856   2.655   6.970
 8808SOL    HW127323   1.820   2.562   6.963
 8808SOL    HW227324   1.834   2.706   6.887
 8809SOL     OW27325   0.359   4.042   3.223
 8809SOL    HW127326   0.272   4.091   3.224
 8809SOL    HW227327   0.423   4.086   3.160
 8810SOL     OW27328   0.887   0.948   5.270
 8810SOL    HW127329   0.987   0.957   5.270
 8810SOL    HW227330   0.862   0.852   5.282
 8811SOL     OW27331   3.929   5.499   2.335
 8811SOL    HW127332   3.964   5.436   2.266
 8811SOL    HW227333   3.835   5.474   2.358
 8812SOL     OW27334   4.227   1.352   6.419
 8812SOL    HW127335   4.289   1.429   6.406
 8812SOL    HW227336   4.213   1.306   6.331
 8813SOL     OW27337   2.166   3.858   3.415
 8813SOL    HW127338   2.106   3.778   3.413
 8813SOL    HW227339   2.206   3.872   3.325
 8814SOL     OW27340   5.261   0.998   5.812
 8814SOL    HW127341   5.340   0.937   5.811
 8814SOL    HW227342   5.192   0.963   5.875
 8815SOL     OW27343   5.469   1.142   0.232
 8815SOL    HW127344   5.474   1.053   0.187
 8815SOL    HW227345   5.374   1.163   0.255
 8816SOL     OW27346   1.173   5.801   4.666
 8816SOL    HW127347   1.117   5.849   4.733
 8816SOL    HW227348   1.169   5.702   4.684
 8817SOL     OW27349   1.866   2.610   3.406
 8817SOL    HW127350   1.926   2.678   3.447
 8817SOL    HW227351   1.772   2.643   3.406
 8818SOL     OW27352   1.236   0.500   5.332
 8818SOL    HW127353   1.178   0.457   5.263
 8818SOL    HW227354   1.248   0.597   5.310
 8819SOL     OW27355   5.200   4.746   6.315
 8819SOL    HW127356   5.110   4.790   6.318
 8819SOL    HW227357   5.201   4.678   6.241
 8820SOL     OW27358   3.281   0.448   5.260
 8820SOL    HW127359   3.291   0.448   5.359
 8820SOL    HW227360   3.296   0.541   5.225
 8821SOL     OW27361   6.562   4.567   6.759
 8821SOL    HW127362   6.521   4.480   6.785
 8821SOL    HW227363   6.535   4.590   6.665
 8822SOL     OW27364   6.710   0.545   4.073
 8822SOL    HW127365   6.617   0.569   4.045
 8822SOL    HW227366   6.718   0.445   4.079
 8823SOL     OW27367   4.179   1.536   2.739
 8823SOL    HW127368   4.103   1.601   2.743
 8823SOL    HW227369   4.183   1.485   2.824
 8824SOL     OW27370   1.594   0.748   1.715
 8824SOL    HW127371   1.514   0.784   1.763
 8824SOL    HW227372   1.625   0.813   1.646
 8825SOL     OW27373   0.215   6.118   0.228
 8825SOL    HW127374   0.273   6.112   0.147
 8825SOL    HW227375   0.144   6.048   0.223
 8826SOL     OW27376   1.554   4.034   0.924
 8826SOL    HW127377   1.501   3.956   0.891
 8826SOL    HW227378   1.518   4.063   1.013
 8827SOL     OW27379   4.843   0.407   2.887
 8827SOL    HW127380   4.823   0.394   2.790
 8827SOL    HW227381   4.813   0.327   2.938
 8828SOL     OW27382   3.641   2.082   5.934
 8828SOL    HW127383   3.622   2.173   5.895
 8828SOL    HW227384   3.601   2.076   6.025
 8829SOL     OW27385   6.598   1.069   1.895
 8829SOL    HW127386   6.568   1.161   1.916
 8829SOL    HW227387   6.520   1.006   1.899
 8830SOL     OW27388   2.603   0.619   3.299
 8830SOL    HW127389   2.660   0.543   3.267
 8830SOL    HW227390   2.560   0.664   3.220
 8831SOL     OW27391   0.400   2.805   1.890
 8831SOL    HW127392   0.340   2.760   1.955
 8831SOL    HW227393   0.345   2.852   1.821
 8832SOL     OW27394   5.933   0.835   4.861
 8832SOL    HW127395   6.022   0.793   4.840
 8832SOL    HW227396   5.886   0.857   4.775
 8833SOL     OW27397   4.909   2.715   1.221
 8833SOL    HW127398   4.904   2.618   1.246
 8833SOL    HW227399   4.880   2.726   1.126
 8834SOL     OW27400   5.246   4.180   5.684
 8834SOL    HW127401   5.317   4.239   5.724
 8834SOL    HW227402   5.175   4.163   5.753
 8835SOL     OW27403   0.389   0.481   6.375
 8835SOL    HW127404   0.314   0.422   6.404
 8835SOL    HW227405   0.475   0.449   6.416
 8836SOL     OW27406   4.812   2.165   1.492
 8836SOL    HW127407   4.775   2.103   1.562
 8836SOL    HW227408   4.802   2.260   1.524
 8837SOL     OW27409   4.038   6.803   0.375
 8837SOL    HW127410   4.021   6.875   0.308
 8837SOL    HW227411   4.136   6.799   0.396
 8838SOL     OW27412   1.369   3.948   3.398
 8838SOL    HW127413   1.335   3.856   3.417
 8838SOL    HW227414   1.465   3.942   3.371
 8839SOL     OW27415   5.102   5.584   3.057
 8839SOL    HW127416   5.153   5.590   3.143
 8839SOL    HW227417   5.148   5.639   2.987
 8840SOL     OW27418   0.028   0.637   1.307
 8840SOL    HW127419   7.000   0.624   1.223
 8840SOL    HW227420   6.992   0.637   1.386
 8841SOL     OW27421   3.656   0.311   1.063
 8841SOL    HW127422   3.682   0.398   1.104
 8841SOL    HW227423   3.624   0.326   0.970
 8842SOL     OW27424   4.099   3.401   4.675
 8842SOL    HW127425   4.129   3.444   4.590
 8842SOL    HW227426   4.032   3.329   4.654
 8843SOL     OW27427   2.809   5.877   6.613
 8843SOL    HW127428   2.840   5.851   6.704
 8843SOL    HW227429   2.750   5.804   6.576
 8844SOL     OW27430   3.497   2.361   6.413
 8844SOL    HW127431   3.531   2.396   6.500
 8844SOL    HW227432   3.467   2.436   6.356
 8845SOL     OW27433   6.417   3.911   1.927
 8845SOL    HW127434   6.369   3.971   1.990
 8845SOL    HW227435   6.438   3.824   1.971
 8846SOL     OW27436   5.871   4.423   5.035
 8846SOL    HW127437   5.815   4.426   5.119
 8846SOL    HW227438   5.962   4.390   5.057
 8847SOL     OW27439   2.474   1.314   4.010
 8847SOL    HW127440   2.416   1.278   4.083
 8847SOL    HW227441   2.436   1.400   3.977
 8848SOL     OW27442   4.177   1.612   0.827
 8848SOL    HW127443   4.110   1.547   0.791
 8848SOL    HW227444   4.233   1.647   0.752
 8849SOL     OW27445   2.932   4.893   4.435
 8849SOL    HW127446   2.966   4.970   4.381
 8849SOL    HW227447   2.979   4.891   4.523
 8850SOL     OW27448   3.251   0.917   1.563
 8850SOL    HW127449   3.319   0.916   1.636
 8850SOL    HW227450   3.293   0.889   1.477
 8851SOL     OW27451   6.911   5.135   2.041
 8851SOL    HW127452   6.944   5.125   2.135
 8851SOL    HW227453   6.825   5.186   2.041
 8852SOL     OW27454   4.538   2.562   4.282
 8852SOL    HW127455   4.592   2.486   4.317
 8852SOL    HW227456   4.442   2.534   4.276
 8853SOL     OW27457   4.167   1.767   5.715
 8853SOL    HW127458   4.194   1.812   5.629
 8853SOL    HW227459   4.245   1.715   5.750
 8854SOL     OW27460   1.160   1.796   6.889
 8854SOL    HW127461   1.114   1.844   6.814
 8854SOL    HW227462   1.168   1.857   6.967
 8855SOL     OW27463   6.378   5.528   6.989
 8855SOL    HW127464   6.454   5.567   0.015
 8855SOL    HW227465   6.301   5.511   0.025
 8856SOL     OW27466   5.860   1.170   4.435
 8856SOL    HW127467   5.863   1.092   4.374
 8856SOL    HW227468   5.789   1.156   4.504
 8857SOL     OW27469   0.110   2.824   4.887
 8857SOL    HW127470   0.149   2.901   4.938
 8857SOL    HW227471   0.168   2.803   4.808
 8858SOL     OW27472   0.130   3.673   6.647
 8858SOL    HW127473   0.157   3.765   6.619
 8858SOL    HW227474   0.073   3.631   6.576
 8859SOL     OW27475   2.922   5.085   5.582
 8859SOL    HW127476   2.996   5.042   5.530
 8859SOL    HW227477   2.845   5.103   5.522
 8860SOL     OW27478   1.191   2.518   1.646
 8860SOL    HW127479   1.260   2.506   1.575
 8860SOL    HW227480   1.185   2.434   1.701
 8861SOL     OW27481   3.198   3.577   0.080
 8861SOL    HW127482   3.213   3.485   0.116
 8861SOL    HW227483   3.270   3.600   0.015
 8862SOL     OW27484   6.632   2.386   4.522
 8862SOL    HW127485   6.602   2.362   4.430
 8862SOL    HW227486   6.729   2.412   4.520
 8863SOL     OW27487   2.263   5.232   4.968
 8863SOL    HW127488   2.273   5.156   4.903
 8863SOL    HW227489   2.293   5.317   4.924
 8864SOL     OW27490   0.877   2.469   6.290
 8864SOL    HW127491   0.799   2.495   6.347
 8864SOL    HW227492   0.879   2.369   6.281
 8865SOL     OW27493   3.055   2.561   6.245
 8865SOL    HW127494   3.104   2.552   6.331
 8865SOL    HW227495   3.098   2.633   6.190
 8866SOL     OW27496   4.077   6.901   4.289
 8866SOL    HW127497   4.052   6.865   4.200
 8866SOL    HW227498   4.038   6.993   4.300
 8867SOL     OW27499   0.428   3.399   3.663
 8867SOL    HW127500   0.415   3.490   3.624
 8867SOL    HW227501   0.350   3.376   3.721
 8868SOL     OW27502   4.086   3.596   0.580
 8868SOL    HW127503   4.043   3.524   0.633
 8868SOL    HW227504   4.171   3.625   0.625
 8869SOL     OW27505   5.996   2.910   4.135
 8869SOL    HW127506   6.044   2.944   4.216
 8869SOL    HW227507   5.992   2.810   4.139
 8870SOL     OW27508   4.450   1.299   1.167
 8870SOL    HW127509   4.545   1.272   1.181
 8870SOL    HW227510   4.391   1.219   1.176
 8871SOL     OW27511   1.725   2.356   4.952
 8871SOL    HW127512   1.753   2.360   4.856
 8871SOL    HW227513   1.805   2.356   5.011
 8872SOL     OW27514   1.617   3.459   3.936
 8872SOL    HW127515   1.639   3.362   3.943
 8872SOL    HW227516   1.522   3.474   3.961
 8873SOL     OW27517   0.169   6.058   5.052
 8873SOL    HW127518   0.157   6.144   5.102
 8873SOL    HW227519   0.115   6.060   4.968
 8874SOL     OW27520   2.543   1.116   0.514
 8874SOL    HW127521   2.468   1.049   0.518
 8874SOL    HW227522   2.579   1.131   0.606
 8875SOL     OW27523   1.646   2.379   4.446
 8875SOL    HW127524   1.587   2.453   4.480
 8875SOL    HW227525   1.594   2.321   4.383
 8876SOL     OW27526   1.519   0.086   4.434
 8876SOL    HW127527   1.588   0.070   4.363
 8876SOL    HW227528   1.434   0.042   4.408
 8877SOL     OW27529   2.651   6.869   4.974
 8877SOL    HW127530   2.578   6.897   4.911
 8877SOL    HW227531   2.646   6.770   4.989
 8878SOL     OW27532   6.033   4.265   6.713
 8878SOL    HW127533   6.007   4.361   6.714
 8878SOL    HW227534   6.086   4.245   6.631
 8879SOL     OW27535   4.484   6.006   4.415
 8879SOL    HW127536   4.535   5.923   4.439
 8879SOL    HW227537   4.533   6.086   4.449
 8880SOL     OW27538   0.339   5.286   5.261
 8880SOL    HW127539   0.385   5.199   5.279
 8880SOL    HW227540   0.354   5.313   5.166
 8881SOL     OW27541   6.643   0.535   1.700
 8881SOL    HW127542   6.641   0.464   1.630
 8881SOL    HW227543   6.633   0.625   1.657
 8882SOL     OW27544   5.572   2.032   6.754
 8882SOL    HW127545   5.485   1.983   6.763
 8882SOL    HW227546   5.635   2.001   6.826
 8883SOL     OW27547   6.755   1.184   5.771
 8883SOL    HW127548   6.806   1.233   5.842
 8883SOL    HW227549   6.690   1.121   5.814
 8884SOL     OW27550   6.599   0.447   5.914
 8884SOL    HW127551   6.505   0.460   5.884
 8884SOL    HW227552   6.605   0.462   6.013
 8885SOL     OW27553   5.271   4.296   1.586
 8885SOL    HW127554   5.288   4.354   1.506
 8885SOL    HW227555   5.178   4.259   1.581
 8886SOL     OW27556   3.115   6.918   6.965
 8886SOL    HW127557   3.079   6.982   0.008
 8886SOL    HW227558   3.162   6.968   6.893
 8887SOL     OW27559   2.518   0.980   1.286
 8887SOL    HW127560   2.595   0.996   1.225
 8887SOL    HW227561   2.521   0.885   1.319
 8888SOL     OW27562   2.744   1.498   2.566
 8888SOL    HW127563   2.739   1.402   2.538
 8888SOL    HW227564   2.665   1.521   2.622
 8889SOL     OW27565   4.131   0.647   5.404
 8889SOL    HW127566   4.175   0.635   5.315
 8889SOL    HW227567   4.046   0.596   5.405
 8890SOL     OW27568   0.971   4.927   4.237
 8890SOL    HW127569   0.934   4.901   4.326
 8890SOL    HW227570   1.070   4.938   4.244
 8891SOL     OW27571   3.731   1.872   6.752
 8891SOL    HW127572   3.781   1.838   6.832
 8891SOL    HW227573   3.676   1.951   6.778
 8892SOL     OW27574   1.033   5.727   2.525
 8892SOL    HW127575   0.981   5.775   2.597
 8892SOL    HW227576   1.127   5.761   2.525
 8893SOL     OW27577   0.680   1.122   1.201
 8893SOL    HW127578   0.606   1.179   1.165
 8893SOL    HW227579   0.681   1.034   1.152
 8894SOL     OW27580   4.075   2.819   6.350
 8894SOL    HW127581   4.071   2.780   6.443
 8894SOL    HW227582   4.085   2.745   6.284
 8895SOL     OW27583   0.531   6.168   2.588
 8895SOL    HW127584   0.524   6.077   2.628
 8895SOL    HW227585   0.619   6.177   2.542
 8896SOL     OW27586   1.694   3.908   5.046
 8896SOL    HW127587   1.727   3.964   4.971
 8896SOL    HW227588   1.762   3.838   5.069
 8897SOL     OW27589   1.550   2.376   1.235
 8897SOL    HW127590   1.593   2.384   1.145
 8897SOL    HW227591   1.451   2.378   1.225
 8898SOL     OW27592   5.711   4.249   4.671
 8898SOL    HW127593   5.638   4.230   4.736
 8898SOL    HW227594   5.784   4.299   4.717
 8899SOL     OW27595   1.993   4.205   6.848
 8899SOL    HW127596   2.079   4.213   6.899
 8899SOL    HW227597   1.970   4.108   6.837
 8900SOL     OW27598   5.433   2.266   3.301
 8900SOL    HW127599   5.395   2.336   3.241
 8900SOL    HW227600   5.528   2.247   3.274
 8901SOL     OW27601   1.824   6.973   2.998
 8901SOL    HW127602   1.805   0.042   3.026
 8901SOL    HW227603   1.832   6.914   3.079
 8902SOL     OW27604   1.655   5.449   6.037
 8902SOL    HW127605   1.620   5.403   6.119
 8902SOL    HW227606   1.750   5.423   6.021
 8903SOL     OW27607   1.484   1.165   3.145
 8903SOL    HW127608   1.574   1.207   3.130
 8903SOL    HW227609   1.470   1.150   3.243
 8904SOL     OW27610   1.557   6.377   2.986
 8904SOL    HW127611   1.484   6.343   3.046
 8904SOL    HW227612   1.519   6.444   2.922
 8905SOL     OW27613   2.674   4.128   5.321
 8905SOL    HW127614   2.687   4.191   5.397
 8905SOL    HW227615   2.591   4.074   5.335
 8906SOL     OW27616   0.644   5.866   5.817
 8906SOL    HW127617   0.617   5.929   5.743
 8906SOL    HW227618   0.606   5.776   5.799
 8907SOL     OW27619   3.347   2.776   5.600
 8907SOL    HW127620   3.308   2.706   5.541
 8907SOL    HW227621   3.437   2.746   5.633
 8908SOL     OW27622   0.489   2.591   0.848
 8908SOL    HW127623   0.393   2.619   0.851
 8908SOL    HW227624   0.497   2.498   0.883
 8909SOL     OW27625   2.675   0.312   6.486
 8909SOL    HW127626   2.667   0.263   6.573
 8909SOL    HW227627   2.689   0.246   6.412
 8910SOL     OW27628   3.716   4.194   6.918
 8910SOL    HW127629   3.674   4.282   6.942
 8910SOL    HW227630   3.807   4.189   6.958
 8911SOL     OW27631   3.354   2.114   3.742
 8911SOL    HW127632   3.275   2.122   3.803
 8911SOL    HW227633   3.397   2.025   3.754
 8912SOL     OW27634   5.309   2.879   5.799
 8912SOL    HW127635   5.338   2.945   5.868
 8912SOL    HW227636   5.218   2.844   5.821
 8913SOL     OW27637   5.229   3.918   0.745
 8913SOL    HW127638   5.286   3.991   0.708
 8913SOL    HW227639   5.158   3.959   0.803
 8914SOL     OW27640   4.087   2.160   4.679
 8914SOL    HW127641   4.137   2.210   4.608
 8914SOL    HW227642   3.991   2.154   4.655
 8915SOL     OW27643   1.234   4.787   2.161
 8915SOL    HW127644   1.140   4.818   2.169
 8915SOL    HW227645   1.288   4.823   2.237
 8916SOL     OW27646   6.670   3.472   2.143
 8916SOL    HW127647   6.748   3.413   2.168
 8916SOL    HW227648   6.591   3.414   2.122
 8917SOL     OW27649   6.006   5.371   6.463
 8917SOL    HW127650   5.969   5.320   6.386
 8917SOL    HW227651   5.930   5.404   6.520
 8918SOL     OW27652   4.779   5.408   6.263
 8918SOL    HW127653   4.686   5.383   6.290
 8918SOL    HW227654   4.816   5.476   6.326
 8919SOL     OW27655   2.400   4.676   0.808
 8919SOL    HW127656   2.397   4.675   0.908
 8919SOL    HW227657   2.441   4.591   0.774
 8920SOL     OW27658   6.215   5.780   5.862
 8920SOL    HW127659   6.168   5.794   5.775
 8920SOL    HW227660   6.312   5.798   5.851
 8921SOL     OW27661   1.564   0.170   3.624
 8921SOL    HW127662   1.626   0.219   3.685
 8921SOL    HW227663   1.589   0.073   3.621
 8922SOL     OW27664   6.807   4.030   6.732
 8922SOL    HW127665   6.873   4.017   6.805
 8922SOL    HW227666   6.768   4.122   6.737
 8923SOL     OW27667   2.428   4.454   5.609
 8923SOL    HW127668   2.518   4.497   5.619
 8923SOL    HW227669   2.420   4.379   5.674
 8924SOL     OW27670   2.781   5.087   5.813
 8924SOL    HW127671   2.811   5.162   5.871
 8924SOL    HW227672   2.844   5.077   5.736
 8925SOL     OW27673   6.527   6.446   2.046
 8925SOL    HW127674   6.502   6.512   1.976
 8925SOL    HW227675   6.477   6.466   2.130
 8926SOL     OW27676   5.788   1.507   1.122
 8926SOL    HW127677   5.738   1.540   1.202
 8926SOL    HW227678   5.769   1.410   1.109
 8927SOL     OW27679   2.233   1.766   5.256
 8927SOL    HW127680   2.209   1.671   5.277
 8927SOL    HW227681   2.255   1.774   5.159
 8928SOL     OW27682   0.081   6.942   5.193
 8928SOL    HW127683   0.123   6.874   5.133
 8928SOL    HW227684   0.136   0.000   5.194
 8929SOL     OW27685   5.984   4.082   3.620
 8929SOL    HW127686   6.061   4.126   3.666
 8929SOL    HW227687   5.907   4.074   3.683
 8930SOL     OW27688   0.701   4.754   4.813
 8930SOL    HW127689   0.622   4.744   4.753
 8930SOL    HW227690   0.670   4.774   4.906
 8931SOL     OW27691   5.159   0.785   0.657
 8931SOL    HW127692   5.112   0.857   0.709
 8931SOL    HW227693   5.187   0.822   0.569
 8932SOL     OW27694   6.872   0.760   6.773
 8932SOL    HW127695   6.912   0.684   6.721
 8932SOL    HW227696   6.902   0.755   6.868
 8933SOL     OW27697   1.452   6.528   5.611
 8933SOL    HW127698   1.411   6.616   5.587
 8933SOL    HW227699   1.551   6.534   5.604
 8934SOL     OW27700   4.117   6.586   3.136
 8934SOL    HW127701   4.175   6.663   3.161
 8934SOL    HW227702   4.022   6.617   3.126
 8935SOL     OW27703   5.551   2.650   3.109
 8935SOL    HW127704   5.513   2.742   3.106
 8935SOL    HW227705   5.476   2.583   3.104
 8936SOL     OW27706   1.539   4.605   2.168
 8936SOL    HW127707   1.497   4.530   2.218
 8936SOL    HW227708   1.486   4.623   2.085
 8937SOL     OW27709   5.147   6.781   5.302
 8937SOL    HW127710   5.134   6.702   5.362
 8937SOL    HW227711   5.184   6.750   5.214
 8938SOL     OW27712   6.049   0.340   1.266
 8938SOL    HW127713   5.970   0.288   1.236
 8938SOL    HW227714   6.039   0.436   1.239
 8939SOL     OW27715   0.244   3.519   3.854
 8939SOL    HW127716   0.149   3.517   3.823
 8939SOL    HW227717   0.260   3.602   3.907
 8940SOL     OW27718   6.046   2.596   0.498
 8940SOL    HW127719   6.085   2.509   0.467
 8940SOL    HW227720   5.966   2.578   0.555
 8941SOL     OW27721   4.173   2.945   1.731
 8941SOL    HW127722   4.211   2.853   1.718
 8941SOL    HW227723   4.115   2.946   1.812
 8942SOL     OW27724   5.806   4.187   4.413
 8942SOL    HW127725   5.750   4.175   4.331
 8942SOL    HW227726   5.747   4.214   4.489
 8943SOL     OW27727   4.600   4.286   0.296
 8943SOL    HW127728   4.621   4.332   0.382
 8943SOL    HW227729   4.635   4.341   0.220
 8944SOL     OW27730   5.703   5.452   4.603
 8944SOL    HW127731   5.801   5.451   4.622
 8944SOL    HW227732   5.661   5.369   4.641
 8945SOL     OW27733   5.583   4.423   4.052
 8945SOL    HW127734   5.573   4.438   3.954
 8945SOL    HW227735   5.498   4.448   4.098
 8946SOL     OW27736   4.910   1.066   5.332
 8946SOL    HW127737   4.858   0.986   5.302
 8946SOL    HW227738   4.999   1.067   5.287
 8947SOL     OW27739   2.150   5.309   6.855
 8947SOL    HW127740   2.247   5.316   6.880
 8947SOL    HW227741   2.135   5.224   6.805
 8948SOL     OW27742   5.733   1.004   2.621
 8948SOL    HW127743   5.747   1.085   2.676
 8948SOL    HW227744   5.677   0.938   2.671
 8949SOL     OW27745   3.556   6.320   0.690
 8949SOL    HW127746   3.550   6.317   0.790
 8949SOL    HW227747   3.537   6.229   0.653
 8950SOL     OW27748   3.615   3.346   0.632
 8950SOL    HW127749   3.641   3.442   0.644
 8950SOL    HW227750   3.547   3.322   0.702
 8951SOL     OW27751   1.920   1.584   4.272
 8951SOL    HW127752   1.860   1.619   4.344
 8951SOL    HW227753   1.946   1.490   4.292
 8952SOL     OW27754   2.010   3.860   4.358
 8952SOL    HW127755   2.067   3.808   4.295
 8952SOL    HW227756   1.929   3.894   4.309
 8953SOL     OW27757   1.092   4.273   1.339
 8953SOL    HW127758   1.048   4.208   1.277
 8953SOL    HW227759   1.056   4.365   1.322
 8954SOL     OW27760   2.293   5.113   5.546
 8954SOL    HW127761   2.350   5.194   5.537
 8954SOL    HW227762   2.334   5.037   5.496
 8955SOL     OW27763   6.143   2.397   4.366
 8955SOL    HW127764   6.070   2.402   4.434
 8955SOL    HW227765   6.210   2.470   4.383
 8956SOL     OW27766   0.560   5.574   6.896
 8956SOL    HW127767   0.553   5.478   6.869
 8956SOL    HW227768   0.468   5.614   6.898
 8957SOL     OW27769   6.971   6.114   3.129
 8957SOL    HW127770   0.021   6.063   3.172
 8957SOL    HW227771   6.932   6.060   3.055
 8958SOL     OW27772   1.696   2.885   5.027
 8958SOL    HW127773   1.791   2.907   5.002
 8958SOL    HW227774   1.666   2.805   4.974
 8959SOL     OW27775   6.848   2.583   2.666
 8959SOL    HW127776   6.867   2.593   2.764
 8959SOL    HW227777   6.770   2.640   2.641
 8960SOL     OW27778   5.532   4.501   3.412
 8960SOL    HW127779   5.609   4.563   3.426
 8960SOL    HW227780   5.454   4.552   3.377
 8961SOL     OW27781   1.718   1.162   5.349
 8961SOL    HW127782   1.802   1.126   5.307
 8961SOL    HW227783   1.691   1.103   5.424
 8962SOL     OW27784   6.795   5.595   2.550
 8962SOL    HW127785   6.760   5.677   2.503
 8962SOL    HW227786   6.763   5.513   2.502
 8963SOL     OW27787   4.877   6.869   5.200
 8963SOL    HW127788   4.911   6.956   5.167
 8963SOL    HW227789   4.950   6.820   5.248
 8964SOL     OW27790   1.227   3.143   4.381
 8964SOL    HW127791   1.246   3.070   4.447
 8964SOL    HW227792   1.185   3.220   4.428
 8965SOL     OW27793   4.151   5.629   6.077
 8965SOL    HW127794   4.157   5.574   5.994
 8965SOL    HW227795   4.073   5.598   6.132
 8966SOL     OW27796   4.008   5.481   5.371
 8966SOL    HW127797   3.982   5.391   5.405
 8966SOL    HW227798   4.059   5.471   5.285
 8967SOL     OW27799   2.858   7.002   4.004
 8967SOL    HW127800   2.852   0.039   3.926
 8967SOL    HW227801   2.924   6.929   3.984
 8968SOL     OW27802   3.664   5.381   2.341
 8968SOL    HW127803   3.618   5.414   2.423
 8968SOL    HW227804   3.621   5.422   2.260
 8969SOL     OW27805   0.964   0.829   2.658
 8969SOL    HW127806   1.006   0.899   2.714
 8969SOL    HW227807   1.023   0.748   2.654
 8970SOL     OW27808   1.670   0.444   4.089
 8970SOL    HW127809   1.654   0.363   4.033
 8970SOL    HW227810   1.647   0.526   4.037
 8971SOL     OW27811   3.376   4.670   0.449
 8971SOL    HW127812   3.342   4.680   0.356
 8971SOL    HW227813   3.421   4.754   0.477
 8972SOL     OW27814   6.360   3.634   6.938
 8972SOL    HW127815   6.353   3.704   7.009
 8972SOL    HW227816   6.279   3.639   6.879
 8973SOL     OW27817   1.505   2.133   3.300
 8973SOL    HW127818   1.510   2.151   3.398
 8973SOL    HW227819   1.556   2.203   3.251
 8974SOL     OW27820   2.111   4.422   4.752
 8974SOL    HW127821   2.168   4.393   4.829
 8974SOL    HW227822   2.061   4.505   4.777
 8975SOL     OW27823   0.021   5.639   5.972
 8975SOL    HW127824   6.955   5.630   5.930
 8975SOL    HW227825   0.016   5.707   6.045
 8976SOL     OW27826   6.066   6.780   2.181
 8976SOL    HW127827   6.087   6.685   2.160
 8976SOL    HW227828   5.979   6.785   2.229
 8977SOL     OW27829   6.686   4.824   5.875
 8977SOL    HW127830   6.733   4.738   5.855
 8977SOL    HW227831   6.588   4.814   5.853
 8978SOL     OW27832   5.810   6.065   6.208
 8978SOL    HW127833   5.744   6.123   6.161
 8978SOL    HW227834   5.855   6.117   6.281
 8979SOL     OW27835   1.526   5.054   4.837
 8979SOL    HW127836   1.612   5.101   4.856
 8979SOL    HW227837   1.461   5.118   4.797
 8980SOL     OW27838   3.469   0.244   0.227
 8980SOL    HW127839   3.416   0.175   0.277
 8980SOL    HW227840   3.419   0.271   0.145
 8981SOL     OW27841   4.671   3.352   6.676
 8981SOL    HW127842   4.631   3.440   6.651
 8981SOL    HW227843   4.610   3.303   6.738
 8982SOL     OW27844   0.416   1.965   1.858
 8982SOL    HW127845   0.497   1.924   1.900
 8982SOL    HW227846   0.405   1.930   1.765
 8983SOL     OW27847   1.529   6.643   2.042
 8983SOL    HW127848   1.460   6.628   1.971
 8983SOL    HW227849   1.620   6.625   2.005
 8984SOL     OW27850   0.023   0.644   4.054
 8984SOL    HW127851   6.997   0.598   4.126
 8984SOL    HW227852   0.108   0.595   4.037
 8985SOL     OW27853   5.127   2.047   1.081
 8985SOL    HW127854   5.064   1.975   1.049
 8985SOL    HW227855   5.094   2.082   1.168
 8986SOL     OW27856   6.777   4.907   0.495
 8986SOL    HW127857   6.780   4.918   0.395
 8986SOL    HW227858   6.740   4.990   0.536
 8987SOL     OW27859   2.145   6.995   1.873
 8987SOL    HW127860   2.132   6.928   1.946
 8987SOL    HW227861   2.242   7.019   1.867
 8988SOL     OW27862   1.996   5.994   1.845
 8988SOL    HW127863   1.919   5.978   1.783
 8988SOL    HW227864   1.988   6.085   1.885
 8989SOL     OW27865   5.176   2.054   3.010
 8989SOL    HW127866   5.143   2.006   2.928
 8989SOL    HW227867   5.260   2.103   2.988
 8990SOL     OW27868   3.419   0.792   2.180
 8990SOL    HW127869   3.337   0.813   2.126
 8990SOL    HW227870   3.400   0.808   2.277
 8991SOL     OW27871   1.526   1.414   0.787
 8991SOL    HW127872   1.573   1.423   0.699
 8991SOL    HW227873   1.567   1.339   0.839
 8992SOL     OW27874   1.182   4.082   6.462
 8992SOL    HW127875   1.196   4.179   6.444
 8992SOL    HW227876   1.096   4.052   6.422
 8993SOL     OW27877   5.997   3.589   4.269
 8993SOL    HW127878   6.013   3.686   4.252
 8993SOL    HW227879   5.984   3.541   4.182
 8994SOL     OW27880   0.968   5.343   2.757
 8994SOL    HW127881   1.001   5.424   2.805
 8994SOL    HW227882   0.922   5.371   2.672
 8995SOL     OW27883   2.124   3.858   4.892
 8995SOL    HW127884   2.200   3.914   4.925
 8995SOL    HW227885   2.130   3.847   4.793
 8996SOL     OW27886   1.098   3.678   2.062
 8996SOL    HW127887   1.005   3.653   2.036
 8996SOL    HW227888   1.155   3.596   2.065
 8997SOL     OW27889   4.095   2.216   5.513
 8997SOL    HW127890   4.043   2.206   5.598
 8997SOL    HW227891   4.068   2.145   5.448
 8998SOL     OW27892   0.609   1.540   6.031
 8998SOL    HW127893   0.648   1.626   6.064
 8998SOL    HW227894   0.683   1.474   6.015
 8999SOL     OW27895   6.289   0.854   5.227
 8999SOL    HW127896   6.378   0.866   5.271
 8999SOL    HW227897   6.269   0.756   5.219
 9000SOL     OW27898   2.671   4.255   0.565
 9000SOL    HW127899   2.689   4.235   0.661
 9000SOL    HW227900   2.756   4.252   0.513
 9001SOL     OW27901   1.548   4.583   3.449
 9001SOL    HW127902   1.525   4.613   3.356
 9001SOL    HW227903   1.594   4.657   3.497
 9002SOL     OW27904   5.106   4.553   6.139
 9002SOL    HW127905   5.148   4.582   6.053
 9002SOL    HW227906   5.011   4.585   6.142
 9003SOL     OW27907   5.601   2.858   5.683
 9003SOL    HW127908   5.587   2.941   5.736
 9003SOL    HW227909   5.552   2.782   5.725
 9004SOL     OW27910   4.266   5.666   0.601
 9004SOL    HW127911   4.224   5.594   0.546
 9004SOL    HW227912   4.284   5.746   0.544
 9005SOL     OW27913   4.692   1.817   3.450
 9005SOL    HW127914   4.621   1.887   3.443
 9005SOL    HW227915   4.650   1.726   3.451
 9006SOL     OW27916   1.886   6.527   0.615
 9006SOL    HW127917   1.866   6.462   0.541
 9006SOL    HW227918   1.837   6.500   0.698
 9007SOL     OW27919   2.968   6.565   4.961
 9007SOL    HW127920   2.992   6.469   4.947
 9007SOL    HW227921   3.038   6.610   5.016
 9008SOL     OW27922   6.634   4.478   2.637
 9008SOL    HW127923   6.588   4.512   2.719
 9008SOL    HW227924   6.613   4.381   2.625
 9009SOL     OW27925   3.783   6.323   1.361
 9009SOL    HW127926   3.856   6.266   1.399
 9009SOL    HW227927   3.779   6.410   1.411
 9010SOL     OW27928   1.289   6.088   5.248
 9010SOL    HW127929   1.336   6.071   5.162
 9010SOL    HW227930   1.337   6.160   5.298
 9011SOL     OW27931   3.939   1.972   1.398
 9011SOL    HW127932   3.973   1.956   1.305
 9011SOL    HW227933   3.844   1.941   1.404
 9012SOL     OW27934   6.565   5.573   1.312
 9012SOL    HW127935   6.660   5.546   1.301
 9012SOL    HW227936   6.554   5.622   1.399
 9013SOL     OW27937   5.007   6.066   3.835
 9013SOL    HW127938   5.050   6.024   3.756
 9013SOL    HW227939   4.997   6.164   3.819
 9014SOL     OW27940   3.492   1.191   0.808
 9014SOL    HW127941   3.515   1.183   0.711
 9014SOL    HW227942   3.416   1.129   0.829
 9015SOL     OW27943   6.597   1.208   5.539
 9015SOL    HW127944   6.660   1.204   5.617
 9015SOL    HW227945   6.594   1.302   5.504
 9016SOL     OW27946   6.994   6.462   6.092
 9016SOL    HW127947   0.059   6.434   6.059
 9016SOL    HW227948   6.992   6.562   6.101
 9017SOL     OW27949   0.332   4.105   3.677
 9017SOL    HW127950   0.414   4.108   3.734
 9017SOL    HW227951   0.252   4.128   3.733
 9018SOL     OW27952   3.537   2.410   5.495
 9018SOL    HW127953   3.614   2.364   5.452
 9018SOL    HW227954   3.481   2.343   5.544
 9019SOL     OW27955   1.848   6.930   0.342
 9019SOL    HW127956   1.893   6.972   0.420
 9019SOL    HW227957   1.917   6.900   0.276
 9020SOL     OW27958   0.400   5.004   2.938
 9020SOL    HW127959   0.447   5.081   2.980
 9020SOL    HW227960   0.384   4.933   3.007
 9021SOL     OW27961   6.495   5.976   5.434
 9021SOL    HW127962   6.409   5.983   5.484
 9021SOL    HW227963   6.511   6.059   5.381
 9022SOL     OW27964   3.147   0.973   6.659
 9022SOL    HW127965   3.188   0.900   6.715
 9022SOL    HW227966   3.195   0.978   6.571
 9023SOL     OW27967   3.569   2.958   3.110
 9023SOL    HW127968   3.491   2.901   3.081
 9023SOL    HW227969   3.594   3.019   3.035
 9024SOL     OW27970   1.794   6.978   6.756
 9024SOL    HW127971   1.833   6.944   6.670
 9024SOL    HW227972   1.708   6.931   6.774
 9025SOL     OW27973   6.280   4.470   1.025
 9025SOL    HW127974   6.203   4.478   0.962
 9025SOL    HW227975   6.251   4.422   1.108
 9026SOL     OW27976   3.355   3.052   5.500
 9026SOL    HW127977   3.262   3.085   5.485
 9026SOL    HW227978   3.355   2.952   5.499
 9027SOL     OW27979   2.357   2.732   2.976
 9027SOL    HW127980   2.339   2.767   3.068
 9027SOL    HW227981   2.374   2.808   2.914
 9028SOL     OW27982   2.718   4.654   4.794
 9028SOL    HW127983   2.785   4.609   4.735
 9028SOL    HW227984   2.761   4.676   4.882
 9029SOL     OW27985   5.048   5.336   3.719
 9029SOL    HW127986   5.091   5.354   3.631
 9029SOL    HW227987   4.953   5.369   3.718
 9030SOL     OW27988   3.056   1.733   1.773
 9030SOL    HW127989   3.076   1.744   1.676
 9030SOL    HW227990   3.129   1.679   1.816
 9031SOL     OW27991   2.252   0.728   0.354
 9031SOL    HW127992   2.212   0.670   0.426
 9031SOL    HW227993   2.335   0.684   0.319
 9032SOL     OW27994   1.436   1.519   2.022
 9032SOL    HW127995   1.391   1.518   2.111
 9032SOL    HW227996   1.377   1.564   1.955
 9033SOL     OW27997   0.515   3.073   2.569
 9033SOL    HW127998   0.509   3.028   2.480
 9033SOL    HW227999   0.607   3.064   2.606
 9034SOL     OW28000   2.804   0.390   5.906
 9034SOL    HW128001   2.709   0.421   5.906
 9034SOL    HW228002   2.860   0.454   5.852
 9035SOL     OW28003   6.895   1.279   4.622
 9035SOL    HW128004   6.962   1.207   4.638
 9035SOL    HW228005   6.835   1.288   4.701
 9036SOL     OW28006   1.386   2.170   4.857
 9036SOL    HW128007   1.397   2.079   4.898
 9036SOL    HW228008   1.340   2.231   4.922
 9037SOL     OW28009   2.064   3.915   5.755
 9037SOL    HW128010   2.028   3.839   5.810
 9037SOL    HW228011   2.127   3.880   5.686
 9038SOL     OW28012   5.580   6.737   5.245
 9038SOL    HW128013   5.558   6.652   5.198
 9038SOL    HW228014   5.675   6.761   5.227
 9039SOL     OW28015   2.254   5.627   6.020
 9039SOL    HW128016   2.269   5.540   5.971
 9039SOL    HW228017   2.332   5.644   6.081
 9040SOL     OW28018   1.854   0.931   1.761
 9040SOL    HW128019   1.891   0.846   1.799
 9040SOL    HW228020   1.832   0.918   1.665
 9041SOL     OW28021   1.680   3.286   0.247
 9041SOL    HW128022   1.653   3.339   0.166
 9041SOL    HW228023   1.731   3.345   0.310
 9042SOL     OW28024   2.804   5.357   3.730
 9042SOL    HW128025   2.797   5.412   3.813
 9042SOL    HW228026   2.728   5.292   3.727
 9043SOL     OW28027   6.472   2.000   6.694
 9043SOL    HW128028   6.491   2.094   6.665
 9043SOL    HW228029   6.373   1.986   6.699
 9044SOL     OW28030   6.117   5.253   0.002
 9044SOL    HW128031   6.180   5.205   6.966
 9044SOL    HW228032   6.135   5.226   0.096
 9045SOL     OW28033   3.374   6.277   3.965
 9045SOL    HW128034   3.338   6.205   3.906
 9045SOL    HW228035   3.468   6.254   3.993
 9046SOL     OW28036   3.043   3.825   5.620
 9046SOL    HW128037   3.080   3.734   5.600
 9046SOL    HW228038   2.945   3.826   5.603
 9047SOL     OW28039   1.171   4.510   4.797
 9047SOL    HW128040   1.090   4.567   4.811
 9047SOL    HW228041   1.168   4.469   4.706
 9048SOL     OW28042   1.587   3.307   4.658
 9048SOL    HW128043   1.507   3.367   4.652
 9048SOL    HW228044   1.598   3.257   4.572
 9049SOL     OW28045   5.244   5.948   6.178
 9049SOL    HW128046   5.322   6.009   6.162
 9049SOL    HW228047   5.218   5.905   6.092
 9050SOL     OW28048   0.081   5.928   5.647
 9050SOL    HW128049   0.079   5.828   5.653
 9050SOL    HW228050   0.033   5.958   5.565
 9051SOL     OW28051   5.309   6.560   5.937
 9051SOL    HW128052   5.293   6.467   5.904
 9051SOL    HW228053   5.313   6.622   5.859
 9052SOL     OW28054   2.715   5.566   4.404
 9052SOL    HW128055   2.662   5.481   4.407
 9052SOL    HW228056   2.691   5.617   4.321
 9053SOL     OW28057   2.829   1.480   3.652
 9053SOL    HW128058   2.828   1.442   3.560
 9053SOL    HW228059   2.738   1.515   3.674
 9054SOL     OW28060   3.582   0.253   1.612
 9054SOL    HW128061   3.546   0.164   1.641
 9054SOL    HW228062   3.555   0.271   1.518
 9055SOL     OW28063   1.302   1.599   4.074
 9055SOL    HW128064   1.361   1.530   4.032
 9055SOL    HW228065   1.208   1.566   4.075
 9056SOL     OW28066   5.766   1.126   2.944
 9056SOL    HW128067   5.753   1.164   3.035
 9056SOL    HW228068   5.728   1.189   2.876
 9057SOL     OW28069   4.619   6.402   6.901
 9057SOL    HW128070   4.630   6.492   6.944
 9057SOL    HW228071   4.522   6.382   6.889
 9058SOL     OW28072   1.707   2.767   5.277
 9058SOL    HW128073   1.707   2.809   5.186
 9058SOL    HW228074   1.798   2.774   5.317
 9059SOL     OW28075   0.049   1.193   3.324
 9059SOL    HW128076   0.126   1.165   3.267
 9059SOL    HW228077   0.012   1.113   3.372
 9060SOL     OW28078   0.605   5.051   1.664
 9060SOL    HW128079   0.656   5.120   1.613
 9060SOL    HW228080   0.508   5.060   1.645
 9061SOL     OW28081   5.823   4.342   2.488
 9061SOL    HW128082   5.796   4.255   2.528
 9061SOL    HW228083   5.916   4.365   2.518
 9062SOL     OW28084   0.575   5.544   3.015
 9062SOL    HW128085   0.590   5.520   2.919
 9062SOL    HW228086   0.651   5.508   3.070
 9063SOL     OW28087   4.551   1.646   2.030
 9063SOL    HW128088   4.480   1.579   2.053
 9063SOL    HW228089   4.515   1.738   2.044
 9064SOL     OW28090   1.259   5.466   3.309
 9064SOL    HW128091   1.243   5.478   3.211
 9064SOL    HW228092   1.344   5.512   3.335
 9065SOL     OW28093   2.709   4.465   5.298
 9065SOL    HW128094   2.717   4.370   5.327
 9065SOL    HW228095   2.798   4.497   5.263
 9066SOL     OW28096   4.854   5.063   4.695
 9066SOL    HW128097   4.867   5.003   4.615
 9066SOL    HW228098   4.786   5.023   4.756
 9067SOL     OW28099   1.371   6.439   4.293
 9067SOL    HW128100   1.411   6.406   4.207
 9067SOL    HW228101   1.340   6.533   4.281
 9068SOL     OW28102   5.081   6.663   5.745
 9068SOL    HW128103   5.152   6.593   5.735
 9068SOL    HW228104   5.058   6.701   5.656
 9069SOL     OW28105   5.399   1.998   1.178
 9069SOL    HW128106   5.304   2.011   1.148
 9069SOL    HW228107   5.415   1.901   1.194
 9070SOL     OW28108   1.191   2.174   5.899
 9070SOL    HW128109   1.227   2.091   5.941
 9070SOL    HW228110   1.093   2.181   5.916
 9071SOL     OW28111   5.014   2.356   5.876
 9071SOL    HW128112   5.012   2.326   5.780
 9071SOL    HW228113   5.084   2.427   5.887
 9072SOL     OW28114   5.098   1.035   2.420
 9072SOL    HW128115   5.158   0.984   2.480
 9072SOL    HW228116   5.134   1.033   2.327
 9073SOL     OW28117   4.658   1.576   5.782
 9073SOL    HW128118   4.702   1.609   5.698
 9073SOL    HW228119   4.637   1.478   5.773
 9074SOL     OW28120   1.593   0.308   1.740
 9074SOL    HW128121   1.598   0.365   1.658
 9074SOL    HW228122   1.663   0.337   1.805
 9075SOL     OW28123   5.644   6.337   0.933
 9075SOL    HW128124   5.700   6.417   0.910
 9075SOL    HW228125   5.599   6.353   1.021
 9076SOL     OW28126   6.621   0.533   2.475
 9076SOL    HW128127   6.573   0.564   2.393
 9076SOL    HW228128   6.708   0.491   2.449
 9077SOL     OW28129   6.279   1.696   6.401
 9077SOL    HW128130   6.279   1.786   6.445
 9077SOL    HW228131   6.248   1.706   6.306
 9078SOL     OW28132   5.113   6.191   6.866
 9078SOL    HW128133   5.117   6.091   6.868
 9078SOL    HW228134   5.019   6.221   6.852
 9079SOL     OW28135   1.797   1.024   6.647
 9079SOL    HW128136   1.820   1.121   6.640
 9079SOL    HW228137   1.733   1.009   6.722
 9080SOL     OW28138   5.882   3.500   1.406
 9080SOL    HW128139   5.832   3.558   1.471
 9080SOL    HW228140   5.980   3.517   1.415
 9081SOL     OW28141   4.539   1.745   6.975
 9081SOL    HW128142   4.514   1.764   6.880
 9081SOL    HW228143   4.486   1.666   7.008
 9082SOL     OW28144   3.654   5.598   5.983
 9082SOL    HW128145   3.741   5.645   5.973
 9082SOL    HW228146   3.670   5.508   6.023
 9083SOL     OW28147   4.145   5.415   6.516
 9083SOL    HW128148   4.174   5.395   6.422
 9083SOL    HW228149   4.196   5.357   6.579
 9084SOL     OW28150   6.799   2.072   6.019
 9084SOL    HW128151   6.848   2.027   5.945
 9084SOL    HW228152   6.860   2.084   6.097
 9085SOL     OW28153   1.961   4.773   0.202
 9085SOL    HW128154   1.955   4.673   0.195
 9085SOL    HW228155   2.006   4.810   0.121
 9086SOL     OW28156   6.963   4.741   1.131
 9086SOL    HW128157   6.873   4.697   1.129
 9086SOL    HW228158   7.013   4.711   1.213
 9087SOL     OW28159   6.092   1.274   2.101
 9087SOL    HW128160   6.050   1.185   2.085
 9087SOL    HW228161   6.105   1.288   2.199
 9088SOL     OW28162   6.631   6.628   0.527
 9088SOL    HW128163   6.576   6.631   0.611
 9088SOL    HW228164   6.621   6.714   0.478
 9089SOL     OW28165   5.177   5.391   3.937
 9089SOL    HW128166   5.133   5.371   3.849
 9089SOL    HW228167   5.238   5.470   3.926
 9090SOL     OW28168   5.685   6.160   5.134
 9090SOL    HW128169   5.728   6.240   5.177
 9090SOL    HW228170   5.749   6.117   5.071
 9091SOL     OW28171   2.502   1.583   1.156
 9091SOL    HW128172   2.512   1.641   1.075
 9091SOL    HW228173   2.406   1.579   1.184
 9092SOL     OW28174   1.682   0.339   6.003
 9092SOL    HW128175   1.721   0.408   5.942
 9092SOL    HW228176   1.686   0.371   6.097
 9093SOL     OW28177   2.499   4.451   0.697
 9093SOL    HW128178   2.572   4.398   0.741
 9093SOL    HW228179   2.523   4.468   0.602
 9094SOL     OW28180   6.669   4.846   1.562
 9094SOL    HW128181   6.698   4.938   1.533
 9094SOL    HW228182   6.655   4.789   1.481
 9095SOL     OW28183   3.553   3.129   6.770
 9095SOL    HW128184   3.463   3.085   6.776
 9095SOL    HW228185   3.624   3.061   6.790
 9096SOL     OW28186   5.341   2.466   3.091
 9096SOL    HW128187   5.246   2.472   3.121
 9096SOL    HW228188   5.349   2.499   2.997
 9097SOL     OW28189   0.553   4.988   6.290
 9097SOL    HW128190   0.529   4.968   6.386
 9097SOL    HW228191   0.610   5.069   6.286
 9098SOL     OW28192   3.840   3.587   2.865
 9098SOL    HW128193   3.923   3.596   2.919
 9098SOL    HW228194   3.853   3.516   2.795
 9099SOL     OW28195   2.574   3.477   1.018
 9099SOL    HW128196   2.551   3.437   1.107
 9099SOL    HW228197   2.530   3.425   0.945
 9100SOL     OW28198   0.392   2.932   0.940
 9100SOL    HW128199   0.372   2.874   0.860
 9100SOL    HW228200   0.369   2.882   1.023
 9101SOL     OW28201   1.928   2.221   1.504
 9101SOL    HW128202   1.838   2.251   1.473
 9101SOL    HW228203   1.986   2.301   1.522
 9102SOL     OW28204   3.383   5.303   2.433
 9102SOL    HW128205   3.454   5.240   2.467
 9102SOL    HW228206   3.409   5.397   2.457
 9103SOL     OW28207   0.567   3.933   0.339
 9103SOL    HW128208   0.494   3.958   0.275
 9103SOL    HW228209   0.651   3.917   0.287
 9104SOL     OW28210   4.500   6.877   1.182
 9104SOL    HW128211   4.540   6.902   1.094
 9104SOL    HW228212   4.566   6.895   1.255
 9105SOL     OW28213   1.342   1.958   5.974
 9105SOL    HW128214   1.369   1.963   6.070
 9105SOL    HW228215   1.422   1.937   5.918
 9106SOL     OW28216   5.787   4.795   0.457
 9106SOL    HW128217   5.688   4.799   0.445
 9106SOL    HW228218   5.823   4.889   0.461
 9107SOL     OW28219   4.498   0.285   1.446
 9107SOL    HW128220   4.458   0.332   1.367
 9107SOL    HW228221   4.597   0.297   1.445
 9108SOL     OW28222   4.618   5.236   5.326
 9108SOL    HW128223   4.623   5.154   5.268
 9108SOL    HW228224   4.668   5.220   5.411
 9109SOL     OW28225   3.235   1.665   3.703
 9109SOL    HW128226   3.297   1.587   3.707
 9109SOL    HW228227   3.160   1.651   3.768
 9110SOL     OW28228   1.922   4.204   3.451
 9110SOL    HW128229   1.902   4.134   3.519
 9110SOL    HW228230   1.856   4.279   3.460
 9111SOL     OW28231   3.308   4.037   1.735
 9111SOL    HW128232   3.317   4.003   1.828
 9111SOL    HW228233   3.349   3.973   1.671
 9112SOL     OW28234   6.904   4.670   2.290
 9112SOL    HW128235   7.000   4.694   2.306
 9112SOL    HW228236   6.871   4.615   2.367
 9113SOL     OW28237   4.561   6.805   0.555
 9113SOL    HW128238   4.612   6.800   0.469
 9113SOL    HW228239   4.585   6.889   0.604
 9114SOL     OW28240   2.668   5.021   1.499
 9114SOL    HW128241   2.686   5.055   1.592
 9114SOL    HW228242   2.654   5.099   1.438
 9115SOL     OW28243   1.271   4.893   4.901
 9115SOL    HW128244   1.354   4.947   4.918
 9115SOL    HW228245   1.290   4.796   4.918
 9116SOL     OW28246   0.204   1.660   6.360
 9116SOL    HW128247   0.178   1.579   6.412
 9116SOL    HW228248   0.263   1.634   6.284
 9117SOL     OW28249   0.014   2.886   6.977
 9117SOL    HW128250   0.096   2.941   6.993
 9117SOL    HW228251   0.034   2.815   6.910
 9118SOL     OW28252   6.827   6.716   1.473
 9118SOL    HW128253   6.736   6.677   1.488
 9118SOL    HW228254   6.852   6.707   1.377
 9119SOL     OW28255   6.544   0.124   1.710
 9119SOL    HW128256   6.524   0.189   1.783
 9119SOL    HW228257   6.536   0.171   1.622
 9120SOL     OW28258   5.736   1.408   6.077
 9120SOL    HW128259   5.714   1.480   6.011
 9120SOL    HW228260   5.759   1.449   6.165
 9121SOL     OW28261   0.375   1.854   6.269
 9121SOL    HW128262   0.344   1.776   6.322
 9121SOL    HW228263   0.474   1.867   6.282
 9122SOL     OW28264   1.858   2.571   2.759
 9122SOL    HW128265   1.896   2.644   2.701
 9122SOL    HW228266   1.926   2.499   2.771
 9123SOL     OW28267   2.548   5.573   6.632
 9123SOL    HW128268   2.511   5.663   6.609
 9123SOL    HW228269   2.549   5.563   6.732
 9124SOL     OW28270   6.869   5.883   5.495
 9124SOL    HW128271   6.842   5.961   5.551
 9124SOL    HW228272   6.887   5.913   5.401
 9125SOL     OW28273   4.894   4.101   3.982
 9125SOL    HW128274   4.832   4.179   3.985
 9125SOL    HW228275   4.898   4.066   3.888
 9126SOL     OW28276   6.179   0.440   2.001
 9126SOL    HW128277   6.177   0.341   2.008
 9126SOL    HW228278   6.131   0.480   2.079
 9127SOL     OW28279   5.234   0.260   6.523
 9127SOL    HW128280   5.283   0.327   6.468
 9127SOL    HW228281   5.220   0.177   6.469
 9128SOL     OW28282   3.448   2.058   5.164
 9128SOL    HW128283   3.402   1.971   5.181
 9128SOL    HW228284   3.544   2.042   5.143
 9129SOL     OW28285   1.628   1.777   6.203
 9129SOL    HW128286   1.668   1.742   6.117
 9129SOL    HW228287   1.700   1.787   6.271
 9130SOL     OW28288   5.887   5.037   0.431
 9130SOL    HW128289   5.951   4.977   0.382
 9130SOL    HW228290   5.930   5.126   0.446
 9131SOL     OW28291   0.466   4.369   4.442
 9131SOL    HW128292   0.426   4.428   4.512
 9131SOL    HW228293   0.395   4.339   4.379
 9132SOL     OW28294   6.544   3.348   4.504
 9132SOL    HW128295   6.491   3.269   4.471
 9132SOL    HW228296   6.529   3.359   4.602
 9133SOL     OW28297   2.114   4.066   1.395
 9133SOL    HW128298   2.103   4.055   1.296
 9133SOL    HW228299   2.210   4.081   1.416
 9134SOL     OW28300   3.297   6.537   7.013
 9134SOL    HW128301   3.291   6.548   0.087
 9134SOL    HW228302   3.247   6.612   6.968
 9135SOL     OW28303   6.304   6.666   3.377
 9135SOL    HW128304   6.282   6.619   3.462
 9135SOL    HW228305   6.312   6.600   3.303
 9136SOL     OW28306   5.038   5.351   5.663
 9136SOL    HW128307   5.121   5.294   5.662
 9136SOL    HW228308   5.051   5.428   5.601
 9137SOL     OW28309   4.560   0.977   1.855
 9137SOL    HW128310   4.651   0.944   1.829
 9137SOL    HW228311   4.559   0.998   1.953
 9138SOL     OW28312   5.513   4.784   6.636
 9138SOL    HW128313   5.534   4.724   6.713
 9138SOL    HW228314   5.594   4.838   6.612
 9139SOL     OW28315   3.433   0.885   6.037
 9139SOL    HW128316   3.510   0.823   6.049
 9139SOL    HW228317   3.428   0.913   5.941
 9140SOL     OW28318   6.648   2.649   2.862
 9140SOL    HW128319   6.566   2.605   2.825
 9140SOL    HW228320   6.620   2.722   2.925
 9141SOL     OW28321   5.247   0.121   5.826
 9141SOL    HW128322   5.315   0.151   5.893
 9141SOL    HW228323   5.234   0.022   5.833
 9142SOL     OW28324   0.634   2.856   6.205
 9142SOL    HW128325   0.605   2.828   6.113
 9142SOL    HW228326   0.559   2.839   6.269
 9143SOL     OW28327   4.350   3.327   0.474
 9143SOL    HW128328   4.274   3.275   0.511
 9143SOL    HW228329   4.429   3.318   0.535
 9144SOL     OW28330   2.188   5.546   5.592
 9144SOL    HW128331   2.212   5.598   5.510
 9144SOL    HW228332   2.091   5.562   5.613
 9145SOL     OW28333   0.718   4.312   0.298
 9145SOL    HW128334   0.644   4.297   0.232
 9145SOL    HW228335   0.800   4.262   0.269
 9146SOL     OW28336   5.475   2.428   1.003
 9146SOL    HW128337   5.504   2.403   0.910
 9146SOL    HW228338   5.553   2.464   1.054
 9147SOL     OW28339   4.382   5.404   3.792
 9147SOL    HW128340   4.354   5.496   3.763
 9147SOL    HW228341   4.334   5.336   3.737
 9148SOL     OW28342   5.110   5.944   3.589
 9148SOL    HW128343   5.195   5.916   3.544
 9148SOL    HW228344   5.046   5.976   3.520
 9149SOL     OW28345   5.006   3.273   4.380
 9149SOL    HW128346   5.012   3.181   4.342
 9149SOL    HW228347   5.048   3.274   4.471
 9150SOL     OW28348   5.042   6.857   3.417
 9150SOL    HW128349   5.113   6.790   3.443
 9150SOL    HW228350   5.083   6.948   3.410
 9151SOL     OW28351   1.438   4.093   2.376
 9151SOL    HW128352   1.352   4.136   2.406
 9151SOL    HW228353   1.497   4.079   2.456
 9152SOL     OW28354   2.304   6.241   3.456
 9152SOL    HW128355   2.254   6.208   3.376
 9152SOL    HW228356   2.355   6.324   3.432
 9153SOL     OW28357   1.651   2.223   6.424
 9153SOL    HW128358   1.748   2.222   6.447
 9153SOL    HW228359   1.603   2.153   6.477
 9154SOL     OW28360   2.718   5.874   7.000
 9154SOL    HW128361   2.797   5.827   6.960
 9154SOL    HW228362   2.750   5.949   0.034
 9155SOL     OW28363   2.006   3.706   6.173
 9155SOL    HW128364   2.051   3.795   6.180
 9155SOL    HW228365   1.995   3.667   6.265
 9156SOL     OW28366   3.451   2.301   1.250
 9156SOL    HW128367   3.520   2.245   1.296
 9156SOL    HW228368   3.492   2.388   1.223
 9157SOL     OW28369   5.563   4.392   4.976
 9157SOL    HW128370   5.558   4.296   4.947
 9157SOL    HW228371   5.598   4.396   5.069
 9158SOL     OW28372   0.252   3.725   4.758
 9158SOL    HW128373   0.211   3.812   4.786
 9158SOL    HW228374   0.327   3.702   4.820
 9159SOL     OW28375   0.305   5.548   2.938
 9159SOL    HW128376   0.267   5.625   2.887
 9159SOL    HW228377   0.394   5.575   2.977
 9160SOL     OW28378   0.705   6.602   6.089
 9160SOL    HW128379   0.787   6.588   6.032
 9160SOL    HW228380   0.710   6.693   6.131
 9161SOL     OW28381   4.917   3.895   4.686
 9161SOL    HW128382   4.893   3.808   4.731
 9161SOL    HW228383   5.016   3.901   4.676
 9162SOL     OW28384   4.914   3.076   3.063
 9162SOL    HW128385   4.923   3.145   2.991
 9162SOL    HW228386   5.004   3.059   3.104
 9163SOL     OW28387   2.796   2.315   3.734
 9163SOL    HW128388   2.703   2.339   3.706
 9163SOL    HW228389   2.839   2.259   3.663
 9164SOL     OW28390   2.696   0.792   6.587
 9164SOL    HW128391   2.661   0.703   6.556
 9164SOL    HW228392   2.622   0.859   6.587
 9165SOL     OW28393   5.867   0.758   6.459
 9165SOL    HW128394   5.903   0.851   6.472
 9165SOL    HW228395   5.769   0.763   6.441
 9166SOL     OW28396   4.274   5.920   0.842
 9166SOL    HW128397   4.208   5.989   0.812
 9166SOL    HW228398   4.357   5.966   0.874
 9167SOL     OW28399   1.427   3.784   5.807
 9167SOL    HW128400   1.443   3.755   5.713
 9167SOL    HW228401   1.483   3.864   5.827
 9168SOL     OW28402   2.263   0.185   5.715
 9168SOL    HW128403   2.250   0.270   5.665
 9168SOL    HW228404   2.316   0.121   5.660
 9169SOL     OW28405   0.391   0.900   5.026
 9169SOL    HW128406   0.369   0.962   4.951
 9169SOL    HW228407   0.477   0.927   5.068
 9170SOL     OW28408   0.027   4.650   7.016
 9170SOL    HW128409   7.013   4.740   6.997
 9170SOL    HW228410   0.106   4.661   0.051
 9171SOL     OW28411   3.058   5.545   6.954
 9171SOL    HW128412   3.126   5.524   6.884
 9171SOL    HW228413   3.098   5.531   0.019
 9172SOL     OW28414   3.719   0.963   4.256
 9172SOL    HW128415   3.726   1.050   4.207
 9172SOL    HW228416   3.655   0.903   4.209
 9173SOL     OW28417   5.835   4.729   5.027
 9173SOL    HW128418   5.821   4.631   5.039
 9173SOL    HW228419   5.754   4.778   5.058
 9174SOL     OW28420   6.258   4.368   0.270
 9174SOL    HW128421   6.330   4.372   0.201
 9174SOL    HW228422   6.206   4.283   0.260
 9175SOL     OW28423   2.638   6.165   5.653
 9175SOL    HW128424   2.634   6.241   5.588
 9175SOL    HW228425   2.591   6.086   5.614
 9176SOL     OW28426   1.949   1.233   5.512
 9176SOL    HW128427   2.003   1.291   5.451
 9176SOL    HW228428   1.852   1.250   5.497
 9177SOL     OW28429   1.314   3.847   4.531
 9177SOL    HW128430   1.302   3.807   4.440
 9177SOL    HW228431   1.279   3.784   4.600
 9178SOL     OW28432   1.990   5.524   0.940
 9178SOL    HW128433   1.947   5.584   1.008
 9178SOL    HW228434   1.985   5.429   0.971
 9179SOL     OW28435   2.679   4.962   4.207
 9179SOL    HW128436   2.713   4.868   4.217
 9179SOL    HW228437   2.723   5.005   4.128
 9180SOL     OW28438   6.318   2.528   3.789
 9180SOL    HW128439   6.288   2.520   3.694
 9180SOL    HW228440   6.253   2.481   3.849
 9181SOL     OW28441   4.663   2.362   2.772
 9181SOL    HW128442   4.747   2.320   2.739
 9181SOL    HW228443   4.679   2.403   2.862
 9182SOL     OW28444   2.145   6.230   2.273
 9182SOL    HW128445   2.106   6.215   2.182
 9182SOL    HW228446   2.110   6.316   2.310
 9183SOL     OW28447   5.123   6.287   0.592
 9183SOL    HW128448   5.161   6.198   0.564
 9183SOL    HW228449   5.051   6.272   0.661
 9184SOL     OW28450   5.512   7.002   0.544
 9184SOL    HW128451   5.443   7.004   0.616
 9184SOL    HW228452   5.468   7.008   0.455
 9185SOL     OW28453   4.219   0.669   5.109
 9185SOL    HW128454   4.214   0.570   5.099
 9185SOL    HW228455   4.173   0.713   5.031
 9186SOL     OW28456   6.476   0.551   4.702
 9186SOL    HW128457   6.517   0.566   4.792
 9186SOL    HW228458   6.433   0.460   4.699
 9187SOL     OW28459   2.061   6.746   2.023
 9187SOL    HW128460   2.101   6.661   1.988
 9187SOL    HW228461   2.074   6.752   2.122
 9188SOL     OW28462   2.333   6.885   1.081
 9188SOL    HW128463   2.346   6.857   1.176
 9188SOL    HW228464   2.236   6.906   1.066
 9189SOL     OW28465   5.092   5.611   2.699
 9189SOL    HW128466   5.062   5.546   2.769
 9189SOL    HW228467   5.039   5.599   2.616
 9190SOL     OW28468   2.114   5.464   0.268
 9190SOL    HW128469   2.152   5.458   0.360
 9190SOL    HW228470   2.188   5.470   0.201
 9191SOL     OW28471   6.477   0.190   5.402
 9191SOL    HW128472   6.501   0.114   5.342
 9191SOL    HW228473   6.559   0.246   5.420
 9192SOL     OW28474   0.449   4.482   4.722
 9192SOL    HW128475   0.535   4.442   4.753
 9192SOL    HW228476   0.374   4.450   4.780
 9193SOL     OW28477   3.844   3.654   0.412
 9193SOL    HW128478   3.937   3.633   0.440
 9193SOL    HW228479   3.806   3.726   0.471
 9194SOL     OW28480   3.449   0.550   3.972
 9194SOL    HW128481   3.383   0.590   3.909
 9194SOL    HW228482   3.403   0.483   4.030
 9195SOL     OW28483   1.776   2.388   4.687
 9195SOL    HW128484   1.745   2.349   4.600
 9195SOL    HW228485   1.875   2.403   4.683
 9196SOL     OW28486   4.567   1.411   4.936
 9196SOL    HW128487   4.620   1.332   4.906
 9196SOL    HW228488   4.493   1.381   4.996
 9197SOL     OW28489   2.454   3.860   1.562
 9197SOL    HW128490   2.448   3.766   1.596
 9197SOL    HW228491   2.542   3.873   1.516
 9198SOL     OW28492   6.887   5.424   5.527
 9198SOL    HW128493   6.788   5.415   5.522
 9198SOL    HW228494   6.925   5.348   5.580
 9199SOL     OW28495   0.585   3.881   6.307
 9199SOL    HW128496   0.509   3.938   6.338
 9199SOL    HW228497   0.569   3.853   6.212
 9200SOL     OW28498   2.678   0.608   0.971
 9200SOL    HW128499   2.592   0.562   0.950
 9200SOL    HW228500   2.695   0.680   0.903
 9201SOL     OW28501   1.247   2.831   6.757
 9201SOL    HW128502   1.310   2.820   6.834
 9201SOL    HW228503   1.177   2.761   6.761
 9202SOL     OW28504   2.035   6.900   3.232
 9202SOL    HW128505   2.099   6.838   3.278
 9202SOL    HW228506   2.042   6.888   3.133
 9203SOL     OW28507   0.197   5.098   0.234
 9203SOL    HW128508   0.167   5.041   0.311
 9203SOL    HW228509   0.288   5.135   0.253
 9204SOL     OW28510   4.998   1.615   7.002
 9204SOL    HW128511   4.998   1.711   0.006
 9204SOL    HW228512   4.905   1.579   7.004
 9205SOL     OW28513   6.696   4.277   2.880
 9205SOL    HW128514   6.673   4.209   2.950
 9205SOL    HW228515   6.739   4.232   2.803
 9206SOL     OW28516   3.402   5.993   0.379
 9206SOL    HW128517   3.419   6.079   0.331
 9206SOL    HW228518   3.445   5.918   0.328
 9207SOL     OW28519   4.542   5.470   0.139
 9207SOL    HW128520   4.563   5.539   0.208
 9207SOL    HW228521   4.501   5.514   0.060
 9208SOL     OW28522   6.185   4.202   4.297
 9208SOL    HW128523   6.225   4.125   4.247
 9208SOL    HW228524   6.113   4.169   4.358
 9209SOL     OW28525   2.861   1.568   6.804
 9209SOL    HW128526   2.916   1.600   6.881
 9209SOL    HW228527   2.887   1.475   6.779
 9210SOL     OW28528   6.549   1.529   2.764
 9210SOL    HW128529   6.606   1.594   2.715
 9210SOL    HW228530   6.594   1.501   2.848
 9211SOL     OW28531   0.310   3.133   3.826
 9211SOL    HW128532   0.391   3.089   3.787
 9211SOL    HW228533   0.337   3.196   3.898
 9212SOL     OW28534   3.832   5.273   4.137
 9212SOL    HW128535   3.879   5.190   4.166
 9212SOL    HW228536   3.780   5.310   4.214
 9213SOL     OW28537   6.023   2.954   5.735
 9213SOL    HW128538   5.965   3.021   5.688
 9213SOL    HW228539   5.973   2.868   5.745
 9214SOL     OW28540   0.431   5.608   6.135
 9214SOL    HW128541   0.407   5.629   6.230
 9214SOL    HW228542   0.389   5.676   6.074
 9215SOL     OW28543   1.180   1.129   0.509
 9215SOL    HW128544   1.135   1.126   0.420
 9215SOL    HW228545   1.243   1.207   0.511
 9216SOL     OW28546   2.685   0.012   3.653
 9216SOL    HW128547   2.681   6.991   3.565
 9216SOL    HW228548   2.593   0.043   3.678
 9217SOL     OW28549   0.351   1.174   6.584
 9217SOL    HW128550   0.376   1.251   6.643
 9217SOL    HW228551   0.387   1.089   6.622
 9218SOL     OW28552   3.413   6.739   0.477
 9218SOL    HW128553   3.496   6.747   0.534
 9218SOL    HW228554   3.353   6.817   0.495
 9219SOL     OW28555   1.109   2.811   0.822
 9219SOL    HW128556   1.064   2.735   0.776
 9219SOL    HW228557   1.041   2.867   0.870
 9220SOL     OW28558   3.334   6.698   1.340
 9220SOL    HW128559   3.296   6.643   1.413
 9220SOL    HW228560   3.409   6.648   1.296
 9221SOL     OW28561   3.277   7.018   4.314
 9221SOL    HW128562   3.335   6.938   4.328
 9221SOL    HW228563   3.331   0.076   4.331
 9222SOL     OW28564   2.460   0.964   6.536
 9222SOL    HW128565   2.402   0.947   6.456
 9222SOL    HW228566   2.406   0.954   6.619
 9223SOL     OW28567   1.411   2.992   5.040
 9223SOL    HW128568   1.505   2.973   5.067
 9223SOL    HW228569   1.360   3.026   5.120
 9224SOL     OW28570   2.496   5.442   3.804
 9224SOL    HW128571   2.475   5.537   3.783
 9224SOL    HW228572   2.557   5.437   3.883
 9225SOL     OW28573   3.172   6.643   6.193
 9225SOL    HW128574   3.238   6.616   6.263
 9225SOL    HW228575   3.106   6.707   6.233
 9226SOL     OW28576   4.750   6.274   1.493
 9226SOL    HW128577   4.821   6.336   1.526
 9226SOL    HW228578   4.697   6.239   1.570
 9227SOL     OW28579   1.020   5.305   3.091
 9227SOL    HW128580   1.017   5.389   3.037
 9227SOL    HW228581   1.098   5.249   3.061
 9228SOL     OW28582   1.632   1.190   6.088
 9228SOL    HW128583   1.628   1.209   5.989
 9228SOL    HW228584   1.640   1.091   6.102
 9229SOL     OW28585   1.580   5.313   3.701
 9229SOL    HW128586   1.590   5.317   3.601
 9229SOL    HW228587   1.504   5.252   3.724
 9230SOL     OW28588   5.915   0.217   3.166
 9230SOL    HW128589   5.855   0.153   3.213
 9230SOL    HW228590   5.865   0.301   3.145
 9231SOL     OW28591   1.400   3.127   4.189
 9231SOL    HW128592   1.337   3.167   4.256
 9231SOL    HW228593   1.426   3.036   4.220
 9232SOL     OW28594   3.865   5.102   0.625
 9232SOL    HW128595   3.921   5.024   0.654
 9232SOL    HW228596   3.797   5.122   0.695
 9233SOL     OW28597   5.714   5.447   1.342
 9233SOL    HW128598   5.695   5.481   1.250
 9233SOL    HW228599   5.801   5.398   1.342
 9234SOL     OW28600   2.695   5.520   3.253
 9234SOL    HW128601   2.681   5.456   3.177
 9234SOL    HW228602   2.637   5.494   3.330
 9235SOL     OW28603   2.051   1.815   3.006
 9235SOL    HW128604   2.066   1.908   2.971
 9235SOL    HW228605   2.019   1.756   2.932
 9236SOL     OW28606   3.263   3.980   5.583
 9236SOL    HW128607   3.344   3.963   5.528
 9236SOL    HW228608   3.195   3.909   5.565
 9237SOL     OW28609   1.409   4.369   4.129
 9237SOL    HW128610   1.368   4.339   4.043
 9237SOL    HW228611   1.381   4.463   4.148
 9238SOL     OW28612   4.711   2.706   6.494
 9238SOL    HW128613   4.694   2.766   6.416
 9238SOL    HW228614   4.802   2.727   6.532
 9239SOL     OW28615   0.255   3.911   1.098
 9239SOL    HW128616   0.338   3.932   1.048
 9239SOL    HW228617   0.175   3.942   1.046
 9240SOL     OW28618   5.405   1.497   0.989
 9240SOL    HW128619   5.481   1.452   0.943
 9240SOL    HW228620   5.331   1.514   0.924
 9241SOL     OW28621   6.959   5.319   6.498
 9241SOL    HW128622   6.966   5.358   6.590
 9241SOL    HW228623   0.019   5.335   6.449
 9242SOL     OW28624   0.154   6.066   1.296
 9242SOL    HW128625   0.061   6.046   1.327
 9242SOL    HW228626   0.159   6.160   1.264
 9243SOL     OW28627   0.166   5.963   4.275
 9243SOL    HW128628   0.130   5.988   4.185
 9243SOL    HW228629   0.112   5.888   4.313
 9244SOL     OW28630   4.415   5.593   6.645
 9244SOL    HW128631   4.420   5.495   6.630
 9244SOL    HW228632   4.432   5.613   6.741
 9245SOL     OW28633   0.994   5.209   2.435
 9245SOL    HW128634   1.036   5.299   2.438
 9245SOL    HW228635   0.913   5.207   2.493
 9246SOL     OW28636   6.840   5.295   3.725
 9246SOL    HW128637   6.826   5.197   3.738
 9246SOL    HW228638   6.758   5.345   3.754
 9247SOL     OW28639   1.260   0.003   3.087
 9247SOL    HW128640   1.207   6.961   3.138
 9247SOL    HW228641   1.354   0.005   3.122
 9248SOL     OW28642   2.797   2.666   5.912
 9248SOL    HW128643   2.891   2.664   5.879
 9248SOL    HW228644   2.746   2.589   5.874
 9249SOL     OW28645   5.644   1.982   4.851
 9249SOL    HW128646   5.673   1.930   4.771
 9249SOL    HW228647   5.592   1.922   4.913
 9250SOL     OW28648   4.812   4.084   4.267
 9250SOL    HW128649   4.871   4.009   4.294
 9250SOL    HW228650   4.824   4.103   4.170
 9251SOL     OW28651   3.600   1.136   3.536
 9251SOL    HW128652   3.655   1.154   3.618
 9251SOL    HW228653   3.658   1.097   3.465
 9252SOL     OW28654   0.127   0.260   4.543
 9252SOL    HW128655   0.162   0.338   4.595
 9252SOL    HW228656   0.187   0.181   4.557
 9253SOL     OW28657   2.782   6.298   6.110
 9253SOL    HW128658   2.711   6.312   6.179
 9253SOL    HW228659   2.762   6.216   6.057
 9254SOL     OW28660   6.018   4.037   1.151
 9254SOL    HW128661   5.944   4.027   1.217
 9254SOL    HW228662   6.083   3.962   1.161
 9255SOL     OW28663   4.958   2.978   0.204
 9255SOL    HW128664   5.013   2.898   0.181
 9255SOL    HW228665   4.929   3.024   0.120
 9256SOL     OW28666   4.016   4.803   2.258
 9256SOL    HW128667   4.012   4.828   2.161
 9256SOL    HW228668   3.969   4.716   2.272
 9257SOL     OW28669   0.890   4.070   2.628
 9257SOL    HW128670   0.841   4.130   2.564
 9257SOL    HW228671   0.974   4.036   2.584
 9258SOL     OW28672   3.593   3.128   3.604
 9258SOL    HW128673   3.566   3.034   3.627
 9258SOL    HW228674   3.522   3.191   3.635
 9259SOL     OW28675   0.898   2.469   0.986
 9259SOL    HW128676   0.901   2.567   1.003
 9259SOL    HW228677   0.962   2.445   0.913
 9260SOL     OW28678   5.098   2.954   6.068
 9260SOL    HW128679   5.045   2.971   5.984
 9260SOL    HW228680   5.035   2.931   6.142
 9261SOL     OW28681   3.790   0.019   6.877
 9261SOL    HW128682   3.749   0.007   6.967
 9261SOL    HW228683   3.782   0.115   6.850
 9262SOL     OW28684   5.729   1.838   5.415
 9262SOL    HW128685   5.709   1.904   5.342
 9262SOL    HW228686   5.813   1.863   5.462
 9263SOL     OW28687   5.322   4.216   1.178
 9263SOL    HW128688   5.291   4.123   1.193
 9263SOL    HW228689   5.343   4.230   1.081
 9264SOL     OW28690   6.501   3.687   0.246
 9264SOL    HW128691   6.420   3.655   0.296
 9264SOL    HW228692   6.541   3.611   0.195
 9265SOL     OW28693   2.514   1.666   0.458
 9265SOL    HW128694   2.562   1.753   0.454
 9265SOL    HW228695   2.434   1.674   0.518
 9266SOL     OW28696   2.657   6.444   2.744
 9266SOL    HW128697   2.596   6.518   2.716
 9266SOL    HW228698   2.625   6.357   2.706
 9267SOL     OW28699   0.450   3.831   4.521
 9267SOL    HW128700   0.543   3.817   4.555
 9267SOL    HW228701   0.410   3.742   4.497
 9268SOL     OW28702   0.437   6.454   3.275
 9268SOL    HW128703   0.494   6.531   3.303
 9268SOL    HW228704   0.485   6.368   3.294
 9269SOL     OW28705   2.756   2.088   0.156
 9269SOL    HW128706   2.720   2.109   0.247
 9269SOL    HW228707   2.720   2.154   0.091
 9270SOL     OW28708   0.017   7.023   5.447
 9270SOL    HW128709   0.032   6.987   5.355
 9270SOL    HW228710   6.972   0.069   5.445
 9271SOL     OW28711   1.431   6.653   0.988
 9271SOL    HW128712   1.449   6.685   0.896
 9271SOL    HW228713   1.466   6.560   0.999
 9272SOL     OW28714   2.501   3.952   5.903
 9272SOL    HW128715   2.493   4.031   5.842
 9272SOL    HW228716   2.578   3.896   5.876
 9273SOL     OW28717   4.790   5.397   3.757
 9273SOL    HW128718   4.713   5.335   3.770
 9273SOL    HW228719   4.756   5.487   3.727
 9274SOL     OW28720   5.099   2.475   0.009
 9274SOL    HW128721   5.199   2.463   0.011
 9274SOL    HW228722   5.061   2.451   0.098
 9275SOL     OW28723   1.012   1.400   6.813
 9275SOL    HW128724   1.087   1.410   6.748
 9275SOL    HW228725   1.013   1.477   6.877
 9276SOL     OW28726   3.412   5.475   4.960
 9276SOL    HW128727   3.463   5.533   4.896
 9276SOL    HW228728   3.317   5.468   4.930
 9277SOL     OW28729   3.558   3.642   0.215
 9277SOL    HW128730   3.505   3.557   0.215
 9277SOL    HW228731   3.591   3.660   0.308
 9278SOL     OW28732   1.110   1.913   3.933
 9278SOL    HW128733   1.148   1.938   3.844
 9278SOL    HW228734   1.183   1.910   4.001
 9279SOL     OW28735   3.943   0.459   2.245
 9279SOL    HW128736   3.937   0.361   2.227
 9279SOL    HW228737   4.034   0.482   2.279
 9280SOL     OW28738   1.166   6.656   3.651
 9280SOL    HW128739   1.111   6.598   3.711
 9280SOL    HW228740   1.139   6.641   3.556
 9281SOL     OW28741   2.463   2.688   0.703
 9281SOL    HW128742   2.420   2.676   0.613
 9281SOL    HW228743   2.447   2.607   0.759
 9282SOL     OW28744   4.831   1.819   4.570
 9282SOL    HW128745   4.931   1.814   4.573
 9282SOL    HW228746   4.792   1.731   4.595
 9283SOL     OW28747   6.373   2.410   2.519
 9283SOL    HW128748   6.294   2.388   2.462
 9283SOL    HW228749   6.455   2.408   2.463
 9284SOL     OW28750   3.834   4.542   0.768
 9284SOL    HW128751   3.783   4.498   0.695
 9284SOL    HW228752   3.772   4.600   0.822
 9285SOL     OW28753   6.838   2.982   6.842
 9285SOL    HW128754   6.924   2.954   6.886
 9285SOL    HW228755   6.846   3.078   6.813
 9286SOL     OW28756   5.892   6.623   5.250
 9286SOL    HW128757   5.905   6.688   5.324
 9286SOL    HW228758   5.926   6.663   5.165
 9287SOL     OW28759   2.925   5.640   1.305
 9287SOL    HW128760   2.833   5.675   1.326
 9287SOL    HW228761   2.921   5.541   1.294
 9288SOL     OW28762   3.829   1.616   5.780
 9288SOL    HW128763   3.866   1.525   5.800
 9288SOL    HW228764   3.902   1.675   5.746
 9289SOL     OW28765   5.125   2.873   2.606
 9289SOL    HW128766   5.094   2.804   2.541
 9289SOL    HW228767   5.058   2.948   2.609
 9290SOL     OW28768   4.106   2.198   4.936
 9290SOL    HW128769   4.150   2.281   4.971
 9290SOL    HW228770   4.122   2.190   4.838
 9291SOL     OW28771   1.779   0.216   5.131
 9291SOL    HW128772   1.715   0.236   5.204
 9291SOL    HW228773   1.780   0.117   5.113
 9292SOL     OW28774   0.235   3.060   6.028
 9292SOL    HW128775   0.173   3.053   5.950
 9292SOL    HW228776   0.316   3.112   6.001
 9293SOL     OW28777   5.408   4.115   0.673
 9293SOL    HW128778   5.429   4.171   0.593
 9293SOL    HW228779   5.493   4.080   0.712
 9294SOL     OW28780   4.068   5.863   0.132
 9294SOL    HW128781   4.063   5.956   0.168
 9294SOL    HW228782   4.018   5.858   0.045
 9295SOL     OW28783   4.632   2.100   2.943
 9295SOL    HW128784   4.545   2.052   2.935
 9295SOL    HW228785   4.640   2.167   2.869
 9296SOL     OW28786   6.374   6.528   5.693
 9296SOL    HW128787   6.418   6.442   5.717
 9296SOL    HW228788   6.429   6.576   5.625
 9297SOL     OW28789   0.274   0.603   1.227
 9297SOL    HW128790   0.272   0.517   1.176
 9297SOL    HW228791   0.184   0.622   1.265
 9298SOL     OW28792   2.532   5.924   5.573
 9298SOL    HW128793   2.476   5.897   5.650
 9298SOL    HW228794   2.475   5.970   5.505
 9299SOL     OW28795   1.558   3.147   3.733
 9299SOL    HW128796   1.549   3.062   3.682
 9299SOL    HW228797   1.580   3.127   3.829
 9300SOL     OW28798   6.747   5.139   5.317
 9300SOL    HW128799   6.728   5.230   5.352
 9300SOL    HW228800   6.664   5.100   5.277
 9301SOL     OW28801   4.961   4.526   2.989
 9301SOL    HW128802   4.999   4.450   2.936
 9301SOL    HW228803   4.862   4.530   2.977
 9302SOL     OW28804   2.362   2.477   3.439
 9302SOL    HW128805   2.293   2.545   3.460
 9302SOL    HW228806   2.415   2.507   3.359
 9303SOL     OW28807   3.932   6.745   0.630
 9303SOL    HW128808   4.014   6.742   0.688
 9303SOL    HW228809   3.959   6.733   0.534
 9304SOL     OW28810   3.598   4.469   0.626
 9304SOL    HW128811   3.562   4.505   0.540
 9304SOL    HW228812   3.541   4.393   0.657
 9305SOL     OW28813   5.695   1.999   1.320
 9305SOL    HW128814   5.749   1.961   1.245
 9305SOL    HW228815   5.619   2.052   1.283
 9306SOL     OW28816   6.980   4.570   4.142
 9306SOL    HW128817   6.947   4.625   4.219
 9306SOL    HW228818   6.980   4.624   4.059
 9307SOL     OW28819   1.300   2.348   1.098
 9307SOL    HW128820   1.277   2.426   1.040
 9307SOL    HW228821   1.276   2.263   1.051
 9308SOL     OW28822   0.601   3.475   0.914
 9308SOL    HW128823   0.657   3.469   0.997
 9308SOL    HW228824   0.647   3.425   0.840
 9309SOL     OW28825   4.116   4.381   5.906
 9309SOL    HW128826   4.210   4.393   5.873
 9309SOL    HW228827   4.074   4.471   5.920
 9310SOL     OW28828   4.138   6.601   6.136
 9310SOL    HW128829   4.191   6.686   6.132
 9310SOL    HW228830   4.060   6.607   6.073
 9311SOL     OW28831   5.565   3.846   0.543
 9311SOL    HW128832   5.605   3.895   0.620
 9311SOL    HW228833   5.602   3.882   0.457
 9312SOL     OW28834   1.444   4.374   6.587
 9312SOL    HW128835   1.479   4.465   6.609
 9312SOL    HW228836   1.396   4.337   6.667
 9313SOL     OW28837   6.588   0.774   2.610
 9313SOL    HW128838   6.635   0.854   2.572
 9313SOL    HW228839   6.607   0.694   2.553
 9314SOL     OW28840   3.918   5.456   6.679
 9314SOL    HW128841   3.859   5.376   6.690
 9314SOL    HW228842   4.004   5.428   6.637
 9315SOL     OW28843   0.159   0.430   5.603
 9315SOL    HW128844   0.141   0.511   5.660
 9315SOL    HW228845   0.177   0.352   5.663
 9316SOL     OW28846   4.174   5.902   4.471
 9316SOL    HW128847   4.113   5.895   4.392
 9316SOL    HW228848   4.262   5.859   4.448
 9317SOL     OW28849   6.046   5.381   3.091
 9317SOL    HW128850   6.135   5.385   3.137
 9317SOL    HW228851   6.060   5.378   2.992
 9318SOL     OW28852   0.555   0.875   6.586
 9318SOL    HW128853   0.654   0.870   6.600
 9318SOL    HW228854   0.536   0.878   6.488
 9319SOL     OW28855   1.168   3.247   6.528
 9319SOL    HW128856   1.129   3.338   6.519
 9319SOL    HW228857   1.095   3.179   6.532
 9320SOL     OW28858   3.675   2.386   5.828
 9320SOL    HW128859   3.741   2.395   5.753
 9320SOL    HW228860   3.615   2.466   5.829
 9321SOL     OW28861   6.063   0.070   2.990
 9321SOL    HW128862   6.148   0.122   2.989
 9321SOL    HW228863   5.998   0.113   3.053
 9322SOL     OW28864   0.378   6.621   6.207
 9322SOL    HW128865   0.380   6.626   6.107
 9322SOL    HW228866   0.458   6.571   6.240
 9323SOL     OW28867   1.041   1.253   6.209
 9323SOL    HW128868   1.139   1.251   6.188
 9323SOL    HW228869   1.028   1.276   6.306
 9324SOL     OW28870   1.093   5.133   0.504
 9324SOL    HW128871   1.080   5.034   0.507
 9324SOL    HW228872   1.181   5.154   0.462
 9325SOL     OW28873   5.343   1.781   0.784
 9325SOL    HW128874   5.435   1.751   0.807
 9325SOL    HW228875   5.276   1.725   0.834
 9326SOL     OW28876   2.608   6.915   0.670
 9326SOL    HW128877   2.623   7.006   0.709
 9326SOL    HW228878   2.571   6.854   0.741
 9327SOL     OW28879   4.810   6.922   3.585
 9327SOL    HW128880   4.845   6.909   3.678
 9327SOL    HW228881   4.880   6.894   3.519
 9328SOL     OW28882   3.655   1.625   6.900
 9328SOL    HW128883   3.589   1.562   6.859
 9328SOL    HW228884   3.722   1.574   6.953
 9329SOL     OW28885   6.636   3.359   2.829
 9329SOL    HW128886   6.657   3.286   2.895
 9329SOL    HW228887   6.714   3.421   2.822
 9330SOL     OW28888   6.868   6.813   0.892
 9330SOL    HW128889   6.832   6.900   0.926
 9330SOL    HW228890   6.881   6.817   0.793
 9331SOL     OW28891   0.074   0.943   0.178
 9331SOL    HW128892   0.163   0.903   0.159
 9331SOL    HW228893   0.058   1.021   0.118
 9332SOL     OW28894   3.037   3.895   3.403
 9332SOL    HW128895   3.061   3.841   3.322
 9332SOL    HW228896   3.018   3.833   3.480
 9333SOL     OW28897   6.027   3.670   0.692
 9333SOL    HW128898   6.040   3.573   0.711
 9333SOL    HW228899   6.006   3.683   0.595
 9334SOL     OW28900   2.882   0.146   3.762
 9334SOL    HW128901   2.789   0.113   3.745
 9334SOL    HW228902   2.937   0.133   3.680
 9335SOL     OW28903   1.646   1.797   6.671
 9335SOL    HW128904   1.609   1.774   6.761
 9335SOL    HW228905   1.697   1.719   6.635
 9336SOL     OW28906   3.043   6.395   6.094
 9336SOL    HW128907   3.100   6.472   6.124
 9336SOL    HW228908   2.956   6.397   6.142
 9337SOL     OW28909   5.445   0.745   2.368
 9337SOL    HW128910   5.510   0.713   2.438
 9337SOL    HW228911   5.432   0.673   2.300
 9338SOL     OW28912   4.171   0.548   2.388
 9338SOL    HW128913   4.240   0.619   2.371
 9338SOL    HW228914   4.097   0.586   2.443
 9339SOL     OW28915   5.432   6.910   1.082
 9339SOL    HW128916   5.497   6.983   1.105
 9339SOL    HW228917   5.421   6.850   1.161
 9340SOL     OW28918   5.215   3.443   5.727
 9340SOL    HW128919   5.144   3.424   5.660
 9340SOL    HW228920   5.201   3.385   5.808
 9341SOL     OW28921   1.156   5.783   6.740
 9341SOL    HW128922   1.162   5.685   6.759
 9341SOL    HW228923   1.212   5.834   6.806
 9342SOL     OW28924   1.759   6.986   5.527
 9342SOL    HW128925   1.855   6.965   5.541
 9342SOL    HW228926   1.749   0.058   5.505
 9343SOL     OW28927   6.778   5.572   5.272
 9343SOL    HW128928   6.687   5.600   5.303
 9343SOL    HW228929   6.782   5.473   5.265
 9344SOL     OW28930   4.742   6.612   1.204
 9344SOL    HW128931   4.696   6.535   1.249
 9344SOL    HW228932   4.733   6.693   1.261
 9345SOL     OW28933   6.633   2.906   1.942
 9345SOL    HW128934   6.537   2.878   1.945
 9345SOL    HW228935   6.643   2.996   1.983
 9346SOL     OW28936   6.333   0.875   1.310
 9346SOL    HW128937   6.432   0.866   1.319
 9346SOL    HW228938   6.292   0.784   1.304
 9347SOL     OW28939   1.456   6.109   1.366
 9347SOL    HW128940   1.393   6.054   1.311
 9347SOL    HW228941   1.431   6.205   1.358
 9348SOL     OW28942   3.823   5.662   0.531
 9348SOL    HW128943   3.871   5.648   0.617
 9348SOL    HW228944   3.876   5.624   0.456
 9349SOL     OW28945   1.316   6.517   2.507
 9349SOL    HW128946   1.416   6.511   2.512
 9349SOL    HW228947   1.290   6.612   2.489
 9350SOL     OW28948   0.415   2.294   6.369
 9350SOL    HW128949   0.398   2.295   6.468
 9350SOL    HW228950   0.402   2.386   6.332
 9351SOL     OW28951   3.246   2.402   6.930
 9351SOL    HW128952   3.164   2.458   6.914
 9351SOL    HW228953   3.269   2.405   0.002
 9352SOL     OW28954   2.661   4.419   0.115
 9352SOL    HW128955   2.761   4.424   0.110
 9352SOL    HW228956   2.625   4.508   0.142
 9353SOL     OW28957   0.652   5.979   1.871
 9353SOL    HW128958   0.681   6.029   1.952
 9353SOL    HW228959   0.683   5.884   1.878
 9354SOL     OW28960   5.961   2.544   6.933
 9354SOL    HW128961   5.912   2.477   6.878
 9354SOL    HW228962   6.051   2.561   6.892
 9355SOL     OW28963   0.666   1.620   5.153
 9355SOL    HW128964   0.711   1.708   5.167
 9355SOL    HW228965   0.731   1.555   5.112
 9356SOL     OW28966   4.530   6.895   2.127
 9356SOL    HW128967   4.545   6.871   2.031
 9356SOL    HW228968   4.513   6.812   2.179
 9357SOL     OW28969   0.747   2.004   6.941
 9357SOL    HW128970   0.688   2.007   7.021
 9357SOL    HW228971   0.843   2.013   6.970
 9358SOL     OW28972   1.296   3.453   2.157
 9358SOL    HW128973   1.326   3.367   2.116
 9358SOL    HW228974   1.372   3.517   2.161
 9359SOL     OW28975   2.528   6.629   6.200
 9359SOL    HW128976   2.626   6.614   6.213
 9359SOL    HW228977   2.501   6.599   6.109
 9360SOL     OW28978   1.604   0.291   6.456
 9360SOL    HW128979   1.617   0.382   6.496
 9360SOL    HW228980   1.543   0.298   6.378
 9361SOL     OW28981   2.400   6.353   4.074
 9361SOL    HW128982   2.383   6.400   4.160
 9361SOL    HW228983   2.491   6.311   4.076
 9362SOL     OW28984   2.143   0.321   2.190
 9362SOL    HW128985   2.146   0.231   2.235
 9362SOL    HW228986   2.053   0.362   2.203
 9363SOL     OW28987   2.912   5.322   2.534
 9363SOL    HW128988   2.927   5.246   2.471
 9363SOL    HW228989   2.898   5.406   2.483
 9364SOL     OW28990   1.939   1.843   1.460
 9364SOL    HW128991   1.873   1.770   1.443
 9364SOL    HW228992   2.025   1.803   1.492
 9365SOL     OW28993   3.274   1.881   4.257
 9365SOL    HW128994   3.339   1.858   4.329
 9365SOL    HW228995   3.292   1.975   4.225
 9366SOL     OW28996   3.386   5.642   0.577
 9366SOL    HW128997   3.441   5.690   0.510
 9366SOL    HW228998   3.444   5.609   0.651
 9367SOL     OW28999   6.133   0.681   1.376
 9367SOL    HW129000   6.118   0.758   1.437
 9367SOL    HW229001   6.049   0.626   1.370
 9368SOL     OW29002   3.471   1.093   2.812
 9368SOL    HW129003   3.557   1.084   2.762
 9368SOL    HW229004   3.398   1.046   2.761
 9369SOL     OW29005   1.775   5.462   6.592
 9369SOL    HW129006   1.798   5.486   6.497
 9369SOL    HW229007   1.769   5.545   6.647
 9370SOL     OW29008   5.079   2.122   4.090
 9370SOL    HW129009   5.161   2.069   4.110
 9370SOL    HW229010   5.103   2.218   4.080
 9371SOL     OW29011   3.936   6.107   1.490
 9371SOL    HW129012   3.885   6.028   1.458
 9371SOL    HW229013   3.910   6.127   1.585
 9372SOL     OW29014   4.894   6.476   1.584
 9372SOL    HW129015   4.969   6.535   1.557
 9372SOL    HW229016   4.842   6.520   1.658
 9373SOL     OW29017   6.732   1.306   0.813
 9373SOL    HW129018   6.818   1.263   0.785
 9373SOL    HW229019   6.673   1.317   0.733
 9374SOL     OW29020   0.743   5.031   5.554
 9374SOL    HW129021   0.698   4.980   5.627
 9374SOL    HW229022   0.737   5.129   5.573
 9375SOL     OW29023   0.436   1.785   6.988
 9375SOL    HW129024   0.371   1.806   6.915
 9375SOL    HW229025   0.527   1.769   6.948
 9376SOL     OW29026   2.103   3.654   2.048
 9376SOL    HW129027   2.099   3.663   2.148
 9376SOL    HW229028   2.134   3.562   2.025
 9377SOL     OW29029   2.551   6.637   3.135
 9377SOL    HW129030   2.521   6.716   3.190
 9377SOL    HW229031   2.613   6.667   3.064
 9378SOL     OW29032   3.089   0.531   3.381
 9378SOL    HW129033   3.184   0.552   3.403
 9378SOL    HW229034   3.033   0.535   3.463
 9379SOL     OW29035   4.383   6.658   4.597
 9379SOL    HW129036   4.304   6.701   4.553
 9379SOL    HW229037   4.366   6.651   4.695
 9380SOL     OW29038   4.745   5.853   6.978
 9380SOL    HW129039   4.806   5.775   6.991
 9380SOL    HW229040   4.763   5.894   6.889
 9381SOL     OW29041   5.506   2.397   4.548
 9381SOL    HW129042   5.575   2.469   4.547
 9381SOL    HW229043   5.548   2.310   4.521
 9382SOL     OW29044   3.333   0.215   4.745
 9382SOL    HW129045   3.283   0.152   4.684
 9382SOL    HW229046   3.352   0.300   4.696
 9383SOL     OW29047   4.943   4.167   3.399
 9383SOL    HW129048   4.957   4.116   3.484
 9383SOL    HW229049   5.032   4.199   3.364
 9384SOL     OW29050   1.891   0.438   2.261
 9384SOL    HW129051   1.870   0.535   2.274
 9384SOL    HW229052   1.807   0.388   2.241
 9385SOL     OW29053   3.956   1.575   3.197
 9385SOL    HW129054   3.872   1.568   3.252
 9385SOL    HW229055   4.026   1.515   3.235
 9386SOL     OW29056   4.218   6.336   6.142
 9386SOL    HW129057   4.137   6.278   6.139
 9386SOL    HW229058   4.190   6.432   6.128
 9387SOL     OW29059   3.003   2.544   6.924
 9387SOL    HW129060   2.972   2.639   6.916
 9387SOL    HW229061   2.994   2.498   6.836
 9388SOL     OW29062   2.054   6.112   4.863
 9388SOL    HW129063   2.104   6.178   4.920
 9388SOL    HW229064   2.008   6.160   4.789
 9389SOL     OW29065   2.858   4.764   1.484
 9389SOL    HW129066   2.804   4.753   1.567
 9389SOL    HW229067   2.955   4.763   1.508
 9390SOL     OW29068   5.131   4.827   5.272
 9390SOL    HW129069   5.065   4.835   5.197
 9390SOL    HW229070   5.188   4.909   5.276
 9391SOL     OW29071   2.125   5.814   4.570
 9391SOL    HW129072   2.046   5.849   4.519
 9391SOL    HW229073   2.094   5.752   4.642
 9392SOL     OW29074   6.092   4.356   2.533
 9392SOL    HW129075   6.140   4.275   2.500
 9392SOL    HW229076   6.120   4.375   2.627
 9393SOL     OW29077   2.842   6.679   5.913
 9393SOL    HW129078   2.814   6.607   5.850
 9393SOL    HW229079   2.831   6.768   5.869
 9394SOL     OW29080   4.421   0.261   0.807
 9394SOL    HW129081   4.475   0.272   0.890
 9394SOL    HW229082   4.325   0.281   0.827
 9395SOL     OW29083   2.083   1.969   0.805
 9395SOL    HW129084   2.150   1.916   0.857
 9395SOL    HW229085   2.085   2.064   0.834
 9396SOL     OW29086   0.775   6.723   6.416
 9396SOL    HW129087   0.724   6.682   6.492
 9396SOL    HW229088   0.853   6.665   6.393
 9397SOL     OW29089   4.163   1.155   5.786
 9397SOL    HW129090   4.094   1.221   5.815
 9397SOL    HW229091   4.253   1.199   5.786
 9398SOL     OW29092   0.268   1.638   6.685
 9398SOL    HW129093   0.172   1.617   6.664
 9398SOL    HW229094   0.327   1.569   6.641
 9399SOL     OW29095   1.528   2.842   3.635
 9399SOL    HW129096   1.616   2.799   3.652
 9399SOL    HW229097   1.499   2.823   3.541
 9400SOL     OW29098   5.791   1.228   0.791
 9400SOL    HW129099   5.877   1.180   0.770
 9400SOL    HW229100   5.781   1.235   0.890
 9401SOL     OW29101   0.160   2.083   2.979
 9401SOL    HW129102   0.250   2.123   2.963
 9401SOL    HW229103   0.103   2.148   3.030
 9402SOL     OW29104   1.571   6.032   3.467
 9402SOL    HW129105   1.477   6.016   3.495
 9402SOL    HW229106   1.572   6.079   3.378
 9403SOL     OW29107   6.370   2.301   1.821
 9403SOL    HW129108   6.329   2.216   1.854
 9403SOL    HW229109   6.302   2.374   1.823
 9404SOL     OW29110   2.076   3.217   0.856
 9404SOL    HW129111   2.141   3.175   0.793
 9404SOL    HW229112   1.983   3.204   0.822
 9405SOL     OW29113   0.611   5.284   5.511
 9405SOL    HW129114   0.665   5.321   5.587
 9405SOL    HW229115   0.629   5.338   5.429
 9406SOL     OW29116   0.064   3.126   0.203
 9406SOL    HW129117   0.054   3.055   0.273
 9406SOL    HW229118   6.999   3.148   0.165
 9407SOL     OW29119   1.188   5.269   5.614
 9407SOL    HW129120   1.108   5.220   5.579
 9407SOL    HW229121   1.191   5.263   5.714
 9408SOL     OW29122   0.292   4.272   4.836
 9408SOL    HW129123   0.330   4.196   4.784
 9408SOL    HW229124   0.353   4.296   4.911
 9409SOL     OW29125   6.670   5.280   2.026
 9409SOL    HW129126   6.662   5.350   1.955
 9409SOL    HW229127   6.660   5.323   2.116
 9410SOL     OW29128   3.910   0.777   1.285
 9410SOL    HW129129   3.876   0.729   1.366
 9410SOL    HW229130   3.988   0.727   1.247
 9411SOL     OW29131   3.013   3.106   3.129
 9411SOL    HW129132   2.973   3.172   3.192
 9411SOL    HW229133   3.108   3.087   3.156
 9412SOL     OW29134   5.843   6.419   1.450
 9412SOL    HW129135   5.801   6.344   1.400
 9412SOL    HW229136   5.870   6.491   1.387
 9413SOL     OW29137   4.502   4.467   2.649
 9413SOL    HW129138   4.542   4.378   2.629
 9413SOL    HW229139   4.465   4.507   2.565
 9414SOL     OW29140   1.620   2.094   4.277
 9414SOL    HW129141   1.684   2.120   4.204
 9414SOL    HW229142   1.529   2.128   4.256
 9415SOL     OW29143   4.068   1.341   2.559
 9415SOL    HW129144   4.009   1.411   2.517
 9415SOL    HW229145   4.130   1.385   2.623
 9416SOL     OW29146   6.234   5.004   6.061
 9416SOL    HW129147   6.286   4.919   6.049
 9416SOL    HW229148   6.234   5.031   6.157
 9417SOL     OW29149   3.833   5.911   1.847
 9417SOL    HW129150   3.837   5.820   1.805
 9417SOL    HW229151   3.756   5.962   1.809
 9418SOL     OW29152   3.256   2.110   4.524
 9418SOL    HW129153   3.355   2.118   4.517
 9418SOL    HW229154   3.232   2.062   4.609
 9419SOL     OW29155   1.884   2.990   6.079
 9419SOL    HW129156   1.903   3.052   6.003
 9419SOL    HW229157   1.809   2.929   6.054
 9420SOL     OW29158   6.328   3.977   6.910
 9420SOL    HW129159   6.277   3.935   6.986
 9420SOL    HW229160   6.386   4.049   6.946
 9421SOL     OW29161   3.727   6.501   5.569
 9421SOL    HW129162   3.733   6.426   5.634
 9421SOL    HW229163   3.689   6.467   5.482
 9422SOL     OW29164   2.694   6.103   4.784
 9422SOL    HW129165   2.633   6.170   4.827
 9422SOL    HW229166   2.769   6.151   4.739
 9423SOL     OW29167   4.820   4.509   3.548
 9423SOL    HW129168   4.827   4.542   3.454
 9423SOL    HW229169   4.864   4.574   3.609
 9424SOL     OW29170   5.767   0.004   4.519
 9424SOL    HW129171   5.688   0.013   4.579
 9424SOL    HW229172   5.776   6.934   4.489
 9425SOL     OW29173   6.985   5.040   0.986
 9425SOL    HW129174   6.959   4.952   1.025
 9425SOL    HW229175   6.999   5.030   0.887
 9426SOL     OW29176   6.809   2.115   6.930
 9426SOL    HW129177   6.888   2.055   6.915
 9426SOL    HW229178   6.837   2.193   6.986
 9427SOL     OW29179   4.643   4.833   2.927
 9427SOL    HW129180   4.596   4.744   2.924
 9427SOL    HW229181   4.644   4.866   3.022
 9428SOL     OW29182   6.932   6.309   5.524
 9428SOL    HW129183   6.959   6.241   5.591
 9428SOL    HW229184   6.995   6.387   5.528
 9429SOL     OW29185   2.352   2.171   3.864
 9429SOL    HW129186   2.290   2.247   3.884
 9429SOL    HW229187   2.445   2.206   3.855
 9430SOL     OW29188   0.889   2.177   4.633
 9430SOL    HW129189   0.948   2.243   4.585
 9430SOL    HW229190   0.846   2.221   4.711
 9431SOL     OW29191   0.817   4.775   5.113
 9431SOL    HW129192   0.760   4.804   5.189
 9431SOL    HW229193   0.885   4.845   5.094
 9432SOL     OW29194   6.668   1.103   3.793
 9432SOL    HW129195   6.763   1.111   3.821
 9432SOL    HW229196   6.633   1.192   3.764
 9433SOL     OW29197   4.623   5.621   2.236
 9433SOL    HW129198   4.649   5.602   2.331
 9433SOL    HW229199   4.677   5.564   2.174
 9434SOL     OW29200   4.666   5.187   4.442
 9434SOL    HW129201   4.763   5.209   4.446
 9434SOL    HW229202   4.629   5.216   4.354
 9435SOL     OW29203   0.250   2.907   1.609
 9435SOL    HW129204   0.306   2.926   1.528
 9435SOL    HW229205   0.242   2.990   1.664
 9436SOL     OW29206   1.661   0.502   2.695
 9436SOL    HW129207   1.609   0.540   2.771
 9436SOL    HW229208   1.702   0.415   2.723
 9437SOL     OW29209   6.081   6.070   5.031
 9437SOL    HW129210   6.060   6.155   5.078
 9437SOL    HW229211   6.168   6.034   5.063
 9438SOL     OW29212   4.725   5.971   2.682
 9438SOL    HW129213   4.788   5.928   2.747
 9438SOL    HW229214   4.690   5.902   2.619
 9439SOL     OW29215   1.376   3.263   0.905
 9439SOL    HW129216   1.320   3.196   0.857
 9439SOL    HW229217   1.334   3.286   0.992
 9440SOL     OW29218   2.200   5.369   3.261
 9440SOL    HW129219   2.256   5.325   3.191
 9440SOL    HW229220   2.185   5.305   3.336
 9441SOL     OW29221   0.744   5.993   4.616
 9441SOL    HW129222   0.777   5.920   4.557
 9441SOL    HW229223   0.729   5.958   4.709
 9442SOL     OW29224   4.460   3.201   0.690
 9442SOL    HW129225   4.417   3.110   0.690
 9442SOL    HW229226   4.559   3.191   0.676
 9443SOL     OW29227   2.111   4.659   3.124
 9443SOL    HW129228   2.086   4.618   3.036
 9443SOL    HW229229   2.060   4.613   3.197
 9444SOL     OW29230   0.674   4.527   6.161
 9444SOL    HW129231   0.651   4.620   6.188
 9444SOL    HW229232   0.637   4.509   6.070
 9445SOL     OW29233   0.684   1.152   3.950
 9445SOL    HW129234   0.672   1.249   3.929
 9445SOL    HW229235   0.683   1.139   4.049
 9446SOL     OW29236   6.313   5.378   3.207
 9446SOL    HW129237   6.282   5.362   3.300
 9446SOL    HW229238   6.353   5.294   3.170
 9447SOL     OW29239   4.810   4.298   1.748
 9447SOL    HW129240   4.814   4.271   1.844
 9447SOL    HW229241   4.816   4.398   1.741
 9448SOL     OW29242   6.156   0.641   5.113
 9448SOL    HW129243   6.132   0.574   5.042
 9448SOL    HW229244   6.072   0.678   5.153
 9449SOL     OW29245   5.595   6.847   1.352
 9449SOL    HW129246   5.505   6.874   1.386
 9449SOL    HW229247   5.657   6.830   1.429
 9450SOL     OW29248   1.312   5.498   3.047
 9450SOL    HW129249   1.330   5.402   3.028
 9450SOL    HW229250   1.397   5.543   3.075
 9451SOL     OW29251   3.424   5.599   6.323
 9451SOL    HW129252   3.341   5.624   6.274
 9451SOL    HW229253   3.482   5.680   6.335
 9452SOL     OW29254   6.384   4.076   0.338
 9452SOL    HW129255   6.288   4.104   0.339
 9452SOL    HW229256   6.410   4.046   0.430
 9453SOL     OW29257   4.770   5.418   2.061
 9453SOL    HW129258   4.755   5.441   1.965
 9453SOL    HW229259   4.823   5.333   2.067
 9454SOL     OW29260   5.744   4.204   0.418
 9454SOL    HW129261   5.765   4.174   0.511
 9454SOL    HW229262   5.653   4.246   0.416
 9455SOL     OW29263   3.385   1.846   1.841
 9455SOL    HW129264   3.460   1.903   1.873
 9455SOL    HW229265   3.421   1.773   1.782
 9456SOL     OW29266   6.533   2.988   1.671
 9456SOL    HW129267   6.456   3.034   1.715
 9456SOL    HW229268   6.587   2.939   1.740
 9457SOL     OW29269   0.253   6.235   4.382
 9457SOL    HW129270   0.208   6.147   4.366
 9457SOL    HW229271   0.256   6.254   4.480
 9458SOL     OW29272   6.641   3.494   0.087
 9458SOL    HW129273   6.618   3.541   0.003
 9458SOL    HW229274   6.733   3.456   0.081
 9459SOL     OW29275   4.613   5.020   5.183
 9459SOL    HW129276   4.634   4.923   5.174
 9459SOL    HW229277   4.593   5.059   5.093
 9460SOL     OW29278   1.616   1.819   3.040
 9460SOL    HW129279   1.681   1.886   3.006
 9460SOL    HW229280   1.638   1.794   3.134
 9461SOL     OW29281   1.368   2.151   2.228
 9461SOL    HW129282   1.467   2.136   2.225
 9461SOL    HW229283   1.341   2.181   2.319
 9462SOL     OW29284   1.198   1.411   4.318
 9462SOL    HW129285   1.278   1.469   4.332
 9462SOL    HW229286   1.215   1.350   4.241
 9463SOL     OW29287   5.387   5.163   1.664
 9463SOL    HW129288   5.293   5.198   1.662
 9463SOL    HW229289   5.443   5.213   1.597
 9464SOL     OW29290   1.092   1.053   1.948
 9464SOL    HW129291   1.072   1.140   1.902
 9464SOL    HW229292   1.011   0.995   1.946
 9465SOL     OW29293   6.551   4.486   1.086
 9465SOL    HW129294   6.563   4.433   1.171
 9465SOL    HW229295   6.458   4.473   1.052
 9466SOL     OW29296   3.644   4.813   5.958
 9466SOL    HW129297   3.581   4.867   5.902
 9466SOL    HW229298   3.593   4.738   6.002
 9467SOL     OW29299   1.785   3.985   0.742
 9467SOL    HW129300   1.708   4.015   0.799
 9467SOL    HW229301   1.773   4.020   0.649
 9468SOL     OW29302   6.274   1.639   0.407
 9468SOL    HW129303   6.360   1.645   0.458
 9468SOL    HW229304   6.253   1.727   0.366
 9469SOL     OW29305   1.141   6.453   1.721
 9469SOL    HW129306   1.107   6.359   1.727
 9469SOL    HW229307   1.091   6.502   1.650
 9470SOL     OW29308   4.010   4.014   0.853
 9470SOL    HW129309   3.915   4.010   0.821
 9470SOL    HW229310   4.023   4.095   0.909
 9471SOL     OW29311   6.315   3.600   5.536
 9471SOL    HW129312   6.219   3.574   5.543
 9471SOL    HW229313   6.337   3.666   5.608
 9472SOL     OW29314   1.640   2.880   5.996
 9472SOL    HW129315   1.586   2.961   6.018
 9472SOL    HW229316   1.584   2.816   5.943
 9473SOL     OW29317   2.972   4.643   0.869
 9473SOL    HW129318   2.944   4.726   0.918
 9473SOL    HW229319   2.996   4.572   0.935
 9474SOL     OW29320   5.595   3.174   0.519
 9474SOL    HW129321   5.505   3.215   0.536
 9474SOL    HW229322   5.611   3.101   0.586
 9475SOL     OW29323   4.849   3.681   6.172
 9475SOL    HW129324   4.899   3.696   6.258
 9475SOL    HW229325   4.835   3.769   6.126
 9476SOL     OW29326   3.637   4.237   6.382
 9476SOL    HW129327   3.673   4.328   6.359
 9476SOL    HW229328   3.696   4.194   6.450
 9477SOL     OW29329   1.952   4.178   0.466
 9477SOL    HW129330   1.872   4.162   0.407
 9477SOL    HW229331   1.959   4.276   0.486
 9478SOL     OW29332   5.711   3.021   0.309
 9478SOL    HW129333   5.809   3.043   0.313
 9478SOL    HW229334   5.663   3.073   0.379
 9479SOL     OW29335   4.106   0.759   2.032
 9479SOL    HW129336   4.077   0.777   1.938
 9479SOL    HW229337   4.037   0.702   2.077
 9480SOL     OW29338   6.708   0.822   0.653
 9480SOL    HW129339   6.710   0.907   0.706
 9480SOL    HW229340   6.696   0.843   0.556
 9481SOL     OW29341   4.193   0.154   3.456
 9481SOL    HW129342   4.119   0.086   3.456
 9481SOL    HW229343   4.158   0.241   3.420
 9482SOL     OW29344   6.488   6.293   0.176
 9482SOL    HW129345   6.418   6.303   0.104
 9482SOL    HW229346   6.457   6.338   0.259
 9483SOL     OW29347   6.628   0.130   0.328
 9483SOL    HW129348   6.694   0.202   0.350
 9483SOL    HW229349   6.559   0.166   0.266
 9484SOL     OW29350   3.881   5.539   5.061
 9484SOL    HW129351   3.830   5.623   5.041
 9484SOL    HW229352   3.979   5.558   5.055
 9485SOL     OW29353   0.019   1.029   0.420
 9485SOL    HW129354   6.946   1.044   0.431
 9485SOL    HW229355   0.039   1.009   0.325
 9486SOL     OW29356   5.176   6.181   0.115
 9486SOL    HW129357   5.136   6.183   0.023
 9486SOL    HW229358   5.103   6.178   0.183
 9487SOL     OW29359   3.257   2.917   3.157
 9487SOL    HW129360   3.269   2.953   3.064
 9487SOL    HW229361   3.193   2.839   3.154
 9488SOL     OW29362   1.776   0.922   0.678
 9488SOL    HW129363   1.709   0.875   0.620
 9488SOL    HW229364   1.831   0.853   0.727
 9489SOL     OW29365   5.539   3.351   0.290
 9489SOL    HW129366   5.554   3.379   0.385
 9489SOL    HW229367   5.538   3.251   0.284
 9490SOL     OW29368   5.557   3.917   4.099
 9490SOL    HW129369   5.479   3.900   4.160
 9490SOL    HW229370   5.527   3.912   4.004
 9491SOL     OW29371   5.138   6.163   2.806
 9491SOL    HW129372   5.165   6.246   2.756
 9491SOL    HW229373   5.219   6.108   2.825
 9492SOL     OW29374   5.106   3.015   4.310
 9492SOL    HW129375   5.036   2.946   4.333
 9492SOL    HW229376   5.188   2.997   4.364
 9493SOL     OW29377   4.220   6.596   2.042
 9493SOL    HW129378   4.300   6.559   2.089
 9493SOL    HW229379   4.189   6.680   2.087
 9494SOL     OW29380   5.427   2.311   2.230
 9494SOL    HW129381   5.352   2.290   2.293
 9494SOL    HW229382   5.422   2.250   2.151
 9495SOL     OW29383   0.270   1.814   2.458
 9495SOL    HW129384   0.256   1.860   2.370
 9495SOL    HW229385   0.312   1.878   2.522
 9496SOL     OW29386   5.015   2.333   2.331
 9496SOL    HW129387   5.013   2.270   2.253
 9496SOL    HW229388   5.103   2.325   2.379
 9497SOL     OW29389   5.129   4.582   4.706
 9497SOL    HW129390   5.212   4.544   4.665
 9497SOL    HW229391   5.050   4.554   4.653
 9498SOL     OW29392   0.739   5.311   3.476
 9498SOL    HW129393   0.740   5.396   3.529
 9498SOL    HW229394   0.649   5.299   3.434
 9499SOL     OW29395   6.419   5.726   5.301
 9499SOL    HW129396   6.336   5.719   5.356
 9499SOL    HW229397   6.464   5.813   5.320
 9500SOL     OW29398   3.999   1.795   0.933
 9500SOL    HW129399   4.075   1.740   0.897
 9500SOL    HW229400   3.943   1.738   0.993
 9501SOL     OW29401   1.970   3.076   5.366
 9501SOL    HW129402   2.054   3.077   5.312
 9501SOL    HW229403   1.929   3.167   5.366
 9502SOL     OW29404   5.263   4.693   4.894
 9502SOL    HW129405   5.237   4.788   4.911
 9502SOL    HW229406   5.212   4.657   4.816
 9503SOL     OW29407   0.485   2.568   0.186
 9503SOL    HW129408   0.500   2.642   0.121
 9503SOL    HW229409   0.554   2.497   0.171
 9504SOL     OW29410   5.803   5.241   2.331
 9504SOL    HW129411   5.722   5.295   2.307
 9504SOL    HW229412   5.824   5.178   2.256
 9505SOL     OW29413   4.391   5.342   5.418
 9505SOL    HW129414   4.321   5.270   5.425
 9505SOL    HW229415   4.477   5.302   5.387
 9506SOL     OW29416   3.199   1.334   1.157
 9506SOL    HW129417   3.190   1.235   1.174
 9506SOL    HW229418   3.153   1.384   1.231
 9507SOL     OW29419   4.970   0.447   2.420
 9507SOL    HW129420   5.010   0.356   2.420
 9507SOL    HW229421   5.005   0.500   2.342
 9508SOL     OW29422   5.154   1.809   3.242
 9508SOL    HW129423   5.180   1.879   3.176
 9508SOL    HW229424   5.232   1.787   3.300
 9509SOL     OW29425   5.803   0.716   3.567
 9509SOL    HW129426   5.813   0.776   3.487
 9509SOL    HW229427   5.870   0.743   3.636
 9510SOL     OW29428   1.264   2.500   3.748
 9510SOL    HW129429   1.244   2.597   3.734
 9510SOL    HW229430   1.335   2.470   3.684
 9511SOL     OW29431   1.653   1.448   0.546
 9511SOL    HW129432   1.615   1.508   0.476
 9511SOL    HW229433   1.737   1.488   0.583
 9512SOL     OW29434   6.353   1.779   1.101
 9512SOL    HW129435   6.292   1.825   1.165
 9512SOL    HW229436   6.355   1.830   1.015
 9513SOL     OW29437   4.331   4.912   6.160
 9513SOL    HW129438   4.407   4.973   6.183
 9513SOL    HW229439   4.266   4.961   6.103
 9514SOL     OW29440   3.722   2.927   6.779
 9514SOL    HW129441   3.804   2.918   6.836
 9514SOL    HW229442   3.748   2.932   6.683
 9515SOL     OW29443   0.595   5.181   3.800
 9515SOL    HW129444   0.579   5.116   3.875
 9515SOL    HW229445   0.610   5.131   3.715
 9516SOL     OW29446   0.131   4.305   0.918
 9516SOL    HW129447   0.126   4.206   0.905
 9516SOL    HW229448   0.043   4.339   0.948
 9517SOL     OW29449   0.786   5.089   0.447
 9517SOL    HW129450   0.882   5.085   0.418
 9517SOL    HW229451   0.779   5.065   0.543
 9518SOL     OW29452   1.000   1.139   0.315
 9518SOL    HW129453   0.938   1.217   0.308
 9518SOL    HW229454   0.959   1.059   0.271
 9519SOL     OW29455   1.154   3.299   5.169
 9519SOL    HW129456   1.224   3.230   5.187
 9519SOL    HW229457   1.159   3.370   5.239
 9520SOL     OW29458   3.353   0.027   1.949
 9520SOL    HW129459   3.422   0.064   2.011
 9520SOL    HW229460   3.380   0.046   1.854
 9521SOL     OW29461   5.673   5.266   3.808
 9521SOL    HW129462   5.579   5.234   3.812
 9521SOL    HW229463   5.678   5.359   3.844
 9522SOL     OW29464   3.587   5.808   0.736
 9522SOL    HW129465   3.621   5.717   0.710
 9522SOL    HW229466   3.661   5.860   0.778
 9523SOL     OW29467   3.910   5.951   4.625
 9523SOL    HW129468   3.875   6.025   4.567
 9523SOL    HW229469   3.958   5.884   4.568
 9524SOL     OW29470   4.603   2.762   0.664
 9524SOL    HW129471   4.655   2.797   0.743
 9524SOL    HW229472   4.657   2.693   0.617
 9525SOL     OW29473   3.842   0.563   6.309
 9525SOL    HW129474   3.864   0.650   6.353
 9525SOL    HW229475   3.766   0.577   6.245
 9526SOL     OW29476   5.403   5.233   1.988
 9526SOL    HW129477   5.429   5.240   1.891
 9526SOL    HW229478   5.320   5.177   1.996
 9527SOL     OW29479   6.265   2.082   1.928
 9527SOL    HW129480   6.278   2.024   2.008
 9527SOL    HW229481   6.181   2.054   1.880
 9528SOL     OW29482   6.409   1.107   2.339
 9528SOL    HW129483   6.347   1.035   2.310
 9528SOL    HW229484   6.503   1.074   2.333
 9529SOL     OW29485   0.448   3.702   5.298
 9529SOL    HW129486   0.502   3.671   5.376
 9529SOL    HW229487   0.353   3.675   5.311
 9530SOL     OW29488   0.950   2.533   4.389
 9530SOL    HW129489   1.010   2.466   4.433
 9530SOL    HW229490   0.954   2.521   4.290
 9531SOL     OW29491   3.386   6.141   2.835
 9531SOL    HW129492   3.440   6.211   2.882
 9531SOL    HW229493   3.293   6.140   2.872
 9532SOL     OW29494   2.349   0.570   1.968
 9532SOL    HW129495   2.370   0.506   2.042
 9532SOL    HW229496   2.256   0.554   1.935
 9533SOL     OW29497   2.306   0.510   5.262
 9533SOL    HW129498   2.400   0.517   5.230
 9533SOL    HW229499   2.245   0.559   5.200
 9534SOL     OW29500   4.538   2.125   4.710
 9534SOL    HW129501   4.590   2.194   4.660
 9534SOL    HW229502   4.600   2.053   4.743
 9535SOL     OW29503   2.210   1.501   5.568
 9535SOL    HW129504   2.267   1.576   5.600
 9535SOL    HW229505   2.148   1.535   5.496
 9536SOL     OW29506   2.714   6.511   5.744
 9536SOL    HW129507   2.670   6.592   5.704
 9536SOL    HW229508   2.742   6.449   5.670
 9537SOL     OW29509   2.908   6.696   0.944
 9537SOL    HW129510   3.004   6.670   0.954
 9537SOL    HW229511   2.892   6.726   0.850
 9538SOL     OW29512   6.372   3.205   3.823
 9538SOL    HW129513   6.440   3.155   3.768
 9538SOL    HW229514   6.329   3.143   3.888
 9539SOL     OW29515   0.534   5.049   1.045
 9539SOL    HW129516   0.538   5.100   1.131
 9539SOL    HW229517   0.602   4.975   1.047
 9540SOL     OW29518   5.229   3.940   4.633
 9540SOL    HW129519   5.233   4.036   4.605
 9540SOL    HW229520   5.319   3.910   4.663
 9541SOL     OW29521   1.679   2.031   3.801
 9541SOL    HW129522   1.729   2.026   3.715
 9541SOL    HW229523   1.691   2.123   3.840
 9542SOL     OW29524   4.912   3.652   4.454
 9542SOL    HW129525   4.895   3.591   4.531
 9542SOL    HW229526   4.883   3.608   4.369
 9543SOL     OW29527   5.025   2.622   2.532
 9543SOL    HW129528   4.967   2.541   2.522
 9543SOL    HW229529   5.117   2.594   2.560
 9544SOL     OW29530   3.207   1.828   2.075
 9544SOL    HW129531   3.253   1.754   2.125
 9544SOL    HW229532   3.257   1.846   1.990
 9545SOL     OW29533   0.383   6.936   4.218
 9545SOL    HW129534   0.434   7.000   4.160
 9545SOL    HW229535   0.412   6.947   4.313
 9546SOL     OW29536   2.679   4.914   0.797
 9546SOL    HW129537   2.665   4.860   0.714
 9546SOL    HW229538   2.739   4.865   0.859
 9547SOL     OW29539   6.536   6.379   3.152
 9547SOL    HW129540   6.471   6.347   3.221
 9547SOL    HW229541   6.577   6.300   3.107
 9548SOL     OW29542   4.731   6.585   3.050
 9548SOL    HW129543   4.830   6.584   3.041
 9548SOL    HW229544   4.707   6.596   3.147
 9549SOL     OW29545   2.457   6.065   0.508
 9549SOL    HW129546   2.477   5.971   0.479
 9549SOL    HW229547   2.523   6.092   0.579
 9550SOL     OW29548   0.863   1.620   0.379
 9550SOL    HW129549   0.860   1.585   0.286
 9550SOL    HW229550   0.958   1.632   0.407
 9551SOL     OW29551   2.355   5.971   4.971
 9551SOL    HW129552   2.380   5.960   4.875
 9551SOL    HW229553   2.284   6.041   4.978
 9552SOL     OW29554   1.046   5.622   3.328
 9552SOL    HW129555   1.122   5.559   3.342
 9552SOL    HW229556   1.061   5.675   3.244
 9553SOL     OW29557   5.601   4.866   5.094
 9553SOL    HW129558   5.534   4.795   5.118
 9553SOL    HW229559   5.553   4.944   5.054
 9554SOL     OW29560   2.176   1.563   1.724
 9554SOL    HW129561   2.123   1.592   1.804
 9554SOL    HW229562   2.268   1.536   1.754
 9555SOL     OW29563   6.476   2.453   0.041
 9555SOL    HW129564   6.470   2.387   0.116
 9555SOL    HW229565   6.387   2.460   7.021
 9556SOL     OW29566   0.796   1.532   1.339
 9556SOL    HW129567   0.777   1.606   1.404
 9556SOL    HW229568   0.727   1.534   1.266
 9557SOL     OW29569   5.111   2.448   1.446
 9557SOL    HW129570   5.053   2.510   1.499
 9557SOL    HW229571   5.204   2.451   1.482
 9558SOL     OW29572   6.149   5.073   2.211
 9558SOL    HW129573   6.118   5.061   2.305
 9558SOL    HW229574   6.119   5.162   2.177
 9559SOL     OW29575   6.563   2.666   2.270
 9559SOL    HW129576   6.502   2.606   2.219
 9559SOL    HW229577   6.657   2.649   2.243
 9560SOL     OW29578   3.068   1.384   3.977
 9560SOL    HW129579   3.070   1.334   4.063
 9560SOL    HW229580   3.054   1.482   3.996
 9561SOL     OW29581   4.260   6.968   1.400
 9561SOL    HW129582   4.175   6.958   1.348
 9561SOL    HW229583   4.338   6.947   1.341
 9562SOL     OW29584   6.088   5.732   3.055
 9562SOL    HW129585   6.028   5.734   2.975
 9562SOL    HW229586   6.093   5.822   3.097
 9563SOL     OW29587   6.884   5.710   6.816
 9563SOL    HW129588   6.798   5.752   6.790
 9563SOL    HW229589   6.958   5.746   6.759
 9564SOL     OW29590   2.430   6.813   6.696
 9564SOL    HW129591   2.443   6.848   6.604
 9564SOL    HW229592   2.497   6.854   6.758
 9565SOL     OW29593   4.320   6.356   4.504
 9565SOL    HW129594   4.262   6.437   4.492
 9565SOL    HW229595   4.290   6.306   4.584
 9566SOL     OW29596   3.226   4.835   5.324
 9566SOL    HW129597   3.153   4.773   5.354
 9566SOL    HW229598   3.266   4.881   5.404
 9567SOL     OW29599   6.167   5.530   5.921
 9567SOL    HW129600   6.254   5.484   5.935
 9567SOL    HW229601   6.183   5.627   5.905
 9568SOL     OW29602   5.463   3.760   6.818
 9568SOL    HW129603   5.491   3.842   6.868
 9568SOL    HW229604   5.420   3.696   6.881
 9569SOL     OW29605   6.220   0.332   0.901
 9569SOL    HW129606   6.149   0.271   0.937
 9569SOL    HW229607   6.187   0.426   0.899
 9570SOL     OW29608   0.578   0.316   6.471
 9570SOL    HW129609   0.609   0.232   6.516
 9570SOL    HW229610   0.571   0.301   6.373
 9571SOL     OW29611   2.135   3.772   0.129
 9571SOL    HW129612   2.092   3.826   0.202
 9571SOL    HW229613   2.234   3.782   0.135
 9572SOL     OW29614   0.892   4.202   0.734
 9572SOL    HW129615   0.862   4.297   0.723
 9572SOL    HW229616   0.932   4.190   0.825
 9573SOL     OW29617   6.597   1.999   1.756
 9573SOL    HW129618   6.516   2.016   1.812
 9573SOL    HW229619   6.670   1.962   1.814
 9574SOL     OW29620   2.508   1.971   5.133
 9574SOL    HW129621   2.591   2.019   5.104
 9574SOL    HW229622   2.429   2.029   5.118
 9575SOL     OW29623   4.923   1.143   1.619
 9575SOL    HW129624   4.962   1.208   1.553
 9575SOL    HW229625   4.848   1.187   1.669
 9576SOL     OW29626   3.739   1.227   5.301
 9576SOL    HW129627   3.772   1.289   5.372
 9576SOL    HW229628   3.812   1.210   5.235
 9577SOL     OW29629   0.206   6.066   3.190
 9577SOL    HW129630   0.287   6.008   3.182
 9577SOL    HW229631   0.223   6.154   3.147
 9578SOL     OW29632   6.030   3.554   1.791
 9578SOL    HW129633   5.990   3.462   1.795
 9578SOL    HW229634   6.087   3.561   1.710
 9579SOL     OW29635   0.961   6.252   3.081
 9579SOL    HW129636   0.872   6.253   3.037
 9579SOL    HW229637   0.950   6.265   3.180
 9580SOL     OW29638   4.407   3.991   6.080
 9580SOL    HW129639   4.459   4.066   6.040
 9580SOL    HW229640   4.430   3.983   6.177
 9581SOL     OW29641   1.505   5.004   6.574
 9581SOL    HW129642   1.534   5.093   6.538
 9581SOL    HW229643   1.428   4.970   6.520
 9582SOL     OW29644   4.406   4.645   4.451
 9582SOL    HW129645   4.493   4.673   4.409
 9582SOL    HW229646   4.333   4.654   4.384
 9583SOL     OW29647   2.301   4.626   2.132
 9583SOL    HW129648   2.280   4.713   2.088
 9583SOL    HW229649   2.236   4.557   2.099
 9584SOL     OW29650   6.166   6.060   6.290
 9584SOL    HW129651   6.115   6.065   6.376
 9584SOL    HW229652   6.139   6.136   6.231
 9585SOL     OW29653   0.294   6.679   4.300
 9585SOL    HW129654   0.218   6.742   4.315
 9585SOL    HW229655   0.372   6.730   4.263
 9586SOL     OW29656   5.231   3.692   2.602
 9586SOL    HW129657   5.200   3.775   2.555
 9586SOL    HW229658   5.261   3.624   2.535
 9587SOL     OW29659   4.607   6.347   2.890
 9587SOL    HW129660   4.645   6.439   2.879
 9587SOL    HW229661   4.679   6.279   2.871
 9588SOL     OW29662   6.896   0.509   3.209
 9588SOL    HW129663   6.945   0.595   3.225
 9588SOL    HW229664   6.910   0.480   3.115
 9589SOL     OW29665   2.132   1.344   6.024
 9589SOL    HW129666   2.188   1.415   6.067
 9589SOL    HW229667   2.148   1.346   5.925
 9590SOL     OW29668   0.016   4.290   4.781
 9590SOL    HW129669   0.113   4.295   4.757
 9590SOL    HW229670   7.019   4.198   4.810
 9591SOL     OW29671   1.699   4.295   2.154
 9591SOL    HW129672   1.661   4.278   2.063
 9591SOL    HW229673   1.627   4.325   2.215
 9592SOL     OW29674   4.901   5.144   2.122
 9592SOL    HW129675   4.860   5.140   2.031
 9592SOL    HW229676   5.000   5.132   2.114
 9593SOL     OW29677   1.723   2.445   4.141
 9593SOL    HW129678   1.752   2.360   4.184
 9593SOL    HW229679   1.792   2.516   4.156
 9594SOL     OW29680   6.006   6.441   2.011
 9594SOL    HW129681   5.970   6.463   2.102
 9594SOL    HW229682   5.972   6.508   1.945
 9595SOL     OW29683   0.669   4.105   4.744
 9595SOL    HW129684   0.733   4.070   4.812
 9595SOL    HW229685   0.575   4.095   4.778
 9596SOL     OW29686   4.734   5.714   3.049
 9596SOL    HW129687   4.780   5.644   2.995
 9596SOL    HW229688   4.799   5.753   3.114
 9597SOL     OW29689   2.112   4.025   1.094
 9597SOL    HW129690   2.121   4.105   1.034
 9597SOL    HW229691   2.202   3.990   1.117
 9598SOL     OW29692   0.966   5.653   5.678
 9598SOL    HW129693   1.036   5.672   5.609
 9598SOL    HW229694   0.948   5.735   5.732
 9599SOL     OW29695   5.067   1.828   4.305
 9599SOL    HW129696   5.140   1.886   4.269
 9599SOL    HW229697   5.064   1.743   4.253
 9600SOL     OW29698   1.337   6.011   0.143
 9600SOL    HW129699   1.309   6.093   0.193
 9600SOL    HW229700   1.294   5.931   0.184
 9601SOL     OW29701   0.683   6.047   6.332
 9601SOL    HW129702   0.671   6.019   6.237
 9601SOL    HW229703   0.684   5.967   6.391
 9602SOL     OW29704   1.165   5.846   0.691
 9602SOL    HW129705   1.157   5.818   0.595
 9602SOL    HW229706   1.178   5.945   0.696
 9603SOL     OW29707   1.320   4.644   4.069
 9603SOL    HW129708   1.248   4.621   4.135
 9603SOL    HW229709   1.399   4.680   4.118
 9604SOL     OW29710   6.895   6.830   0.614
 9604SOL    HW129711   6.954   6.906   0.586
 9604SOL    HW229712   6.812   6.830   0.557
 9605SOL     OW29713   2.245   5.909   6.712
 9605SOL    HW129714   2.320   5.913   6.778
 9605SOL    HW229715   2.240   5.817   6.673
 9606SOL     OW29716   6.821   6.896   4.765
 9606SOL    HW129717   6.799   6.905   4.863
 9606SOL    HW229718   6.763   6.826   4.724
 9607SOL     OW29719   0.093   3.243   1.524
 9607SOL    HW129720   0.032   3.169   1.496
 9607SOL    HW229721   0.132   3.222   1.613
 9608SOL     OW29722   6.946   6.499   2.981
 9608SOL    HW129723   6.864   6.442   2.993
 9608SOL    HW229724   0.000   6.440   2.967
 9609SOL     OW29725   1.991   2.129   3.397
 9609SOL    HW129726   2.085   2.123   3.361
 9609SOL    HW229727   1.934   2.179   3.332
 9610SOL     OW29728   3.260   2.177   6.156
 9610SOL    HW129729   3.351   2.144   6.182
 9610SOL    HW229730   3.201   2.178   6.237
 9611SOL     OW29731   5.636   6.066   0.997
 9611SOL    HW129732   5.622   6.152   0.949
 9611SOL    HW229733   5.725   6.066   1.042
 9612SOL     OW29734   5.205   3.661   2.865
 9612SOL    HW129735   5.137   3.597   2.898
 9612SOL    HW229736   5.191   3.676   2.767
 9613SOL     OW29737   5.364   6.598   5.657
 9613SOL    HW129738   5.336   6.691   5.635
 9613SOL    HW229739   5.394   6.551   5.574
 9614SOL     OW29740   2.973   3.211   2.307
 9614SOL    HW129741   3.018   3.228   2.219
 9614SOL    HW229742   2.882   3.174   2.292
 9615SOL     OW29743   0.961   6.135   4.194
 9615SOL    HW129744   0.949   6.155   4.097
 9615SOL    HW229745   1.051   6.094   4.209
 9616SOL     OW29746   2.246   3.166   1.306
 9616SOL    HW129747   2.192   3.084   1.323
 9616SOL    HW229748   2.233   3.196   1.212
 9617SOL     OW29749   0.944   3.538   2.468
 9617SOL    HW129750   0.955   3.489   2.381
 9617SOL    HW229751   0.849   3.532   2.498
 9618SOL     OW29752   4.011   4.899   0.747
 9618SOL    HW129753   4.062   4.978   0.780
 9618SOL    HW229754   4.008   4.829   0.819
 9619SOL     OW29755   1.814   6.892   1.092
 9619SOL    HW129756   1.914   6.896   1.088
 9619SOL    HW229757   1.785   6.804   1.129
 9620SOL     OW29758   3.593   1.807   0.108
 9620SOL    HW129759   3.557   1.766   0.192
 9620SOL    HW229760   3.594   1.738   0.035
 9621SOL     OW29761   1.198   2.244   1.781
 9621SOL    HW129762   1.206   2.251   1.881
 9621SOL    HW229763   1.190   2.148   1.755
 9622SOL     OW29764   0.052   6.181   5.712
 9622SOL    HW129765   0.118   6.256   5.720
 9622SOL    HW229766   0.099   6.098   5.683
 9623SOL     OW29767   4.691   6.544   6.111
 9623SOL    HW129768   4.637   6.476   6.062
 9623SOL    HW229769   4.713   6.620   6.050
 9624SOL     OW29770   4.893   5.105   5.069
 9624SOL    HW129771   4.828   5.182   5.069
 9624SOL    HW229772   4.962   5.121   4.998
 9625SOL     OW29773   4.617   3.569   5.665
 9625SOL    HW129774   4.637   3.510   5.587
 9625SOL    HW229775   4.571   3.515   5.736
 9626SOL     OW29776   2.229   2.353   5.971
 9626SOL    HW129777   2.144   2.339   5.921
 9626SOL    HW229778   2.306   2.337   5.909
 9627SOL     OW29779   0.200   5.389   6.721
 9627SOL    HW129780   0.211   5.293   6.749
 9627SOL    HW229781   0.111   5.422   6.753
 9628SOL     OW29782   5.916   1.462   6.290
 9628SOL    HW129783   5.983   1.436   6.220
 9628SOL    HW229784   5.952   1.439   6.381
 9629SOL     OW29785   0.517   5.623   4.579
 9629SOL    HW129786   0.540   5.526   4.585
 9629SOL    HW229787   0.557   5.662   4.495
 9630SOL     OW29788   5.988   6.847   5.415
 9630SOL    HW129789   6.058   6.894   5.361
 9630SOL    HW229790   6.022   6.833   5.508
 9631SOL     OW29791   3.638   0.161   0.784
 9631SOL    HW129792   3.572   0.095   0.748
 9631SOL    HW229793   3.724   0.114   0.805
 9632SOL     OW29794   3.231   5.146   2.280
 9632SOL    HW129795   3.240   5.056   2.322
 9632SOL    HW229796   3.285   5.213   2.331
 9633SOL     OW29797   3.670   3.075   2.818
 9633SOL    HW129798   3.670   3.175   2.820
 9633SOL    HW229799   3.700   3.042   2.729
 9634SOL     OW29800   5.805   4.690   3.634
 9634SOL    HW129801   5.789   4.658   3.541
 9634SOL    HW229802   5.866   4.770   3.632
 9635SOL     OW29803   1.295   5.268   4.119
 9635SOL    HW129804   1.284   5.169   4.130
 9635SOL    HW229805   1.364   5.286   4.048
 9636SOL     OW29806   5.099   3.895   3.891
 9636SOL    HW129807   5.078   3.922   3.985
 9636SOL    HW229808   5.164   3.819   3.891
 9637SOL     OW29809   2.046   3.380   6.971
 9637SOL    HW129810   2.136   3.368   6.930
 9637SOL    HW229811   2.003   3.290   6.985
 9638SOL     OW29812   5.895   5.331   5.383
 9638SOL    HW129813   5.798   5.308   5.376
 9638SOL    HW229814   5.934   5.343   5.292
 9639SOL     OW29815   4.039   1.855   2.378
 9639SOL    HW129816   4.100   1.807   2.441
 9639SOL    HW229817   3.962   1.893   2.429
 9640SOL     OW29818   4.733   0.534   3.350
 9640SOL    HW129819   4.656   0.568   3.404
 9640SOL    HW229820   4.757   0.442   3.380
 9641SOL     OW29821   6.804   3.597   3.140
 9641SOL    HW129822   6.791   3.660   3.217
 9641SOL    HW229823   6.723   3.597   3.082
 9642SOL     OW29824   1.373   0.274   4.599
 9642SOL    HW129825   1.378   0.187   4.550
 9642SOL    HW229826   1.465   0.314   4.606
 9643SOL     OW29827   4.615   4.911   4.516
 9643SOL    HW129828   4.641   5.007   4.511
 9643SOL    HW229829   4.630   4.867   4.427
 9644SOL     OW29830   1.985   5.421   3.911
 9644SOL    HW129831   1.953   5.351   3.846
 9644SOL    HW229832   2.085   5.420   3.914
 9645SOL     OW29833   0.536   4.625   5.868
 9645SOL    HW129834   0.462   4.601   5.805
 9645SOL    HW229835   0.498   4.674   5.947
 9646SOL     OW29836   4.192   5.304   6.275
 9646SOL    HW129837   4.243   5.306   6.189
 9646SOL    HW229838   4.097   5.327   6.258
 9647SOL     OW29839   6.752   6.963   3.658
 9647SOL    HW129840   6.666   6.971   3.608
 9647SOL    HW229841   6.828   6.966   3.594
 9648SOL     OW29842   3.846   2.452   1.267
 9648SOL    HW129843   3.915   2.408   1.324
 9648SOL    HW229844   3.761   2.463   1.318
 9649SOL     OW29845   0.827   5.676   6.855
 9649SOL    HW129846   0.735   5.639   6.869
 9649SOL    HW229847   0.869   5.633   6.774
 9650SOL     OW29848   6.969   4.473   4.539
 9650SOL    HW129849   6.973   4.382   4.581
 9650SOL    HW229850   6.881   4.486   4.493
 9651SOL     OW29851   4.205   1.865   0.144
 9651SOL    HW129852   4.233   1.852   0.049
 9651SOL    HW229853   4.284   1.847   0.204
 9652SOL     OW29854   0.120   3.999   0.364
 9652SOL    HW129855   0.104   3.902   0.384
 9652SOL    HW229856   0.033   4.048   0.363
 9653SOL     OW29857   4.442   4.577   6.138
 9653SOL    HW129858   4.405   4.520   6.211
 9653SOL    HW229859   4.400   4.551   6.051
 9654SOL     OW29860   3.186   3.553   3.069
 9654SOL    HW129861   3.232   3.551   2.981
 9654SOL    HW229862   3.213   3.474   3.124
 9655SOL     OW29863   3.954   1.265   1.460
 9655SOL    HW129864   3.871   1.253   1.404
 9655SOL    HW229865   4.013   1.333   1.417
 9656SOL     OW29866   6.001   3.568   0.035
 9656SOL    HW129867   6.085   3.555   0.088
 9656SOL    HW229868   5.936   3.621   0.089
 9657SOL     OW29869   6.246   4.147   3.876
 9657SOL    HW129870   6.217   4.053   3.893
 9657SOL    HW229871   6.228   4.203   3.957
 9658SOL     OW29872   4.866   2.230   2.580
 9658SOL    HW129873   4.948   2.271   2.619
 9658SOL    HW229874   4.810   2.301   2.538
 9659SOL     OW29875   2.701   3.288   6.826
 9659SOL    HW129876   2.729   3.377   6.790
 9659SOL    HW229877   2.631   3.249   6.767
 9660SOL     OW29878   1.481   5.910   1.854
 9660SOL    HW129879   1.403   5.967   1.876
 9660SOL    HW229880   1.488   5.900   1.754
 9661SOL     OW29881   4.603   3.847   0.860
 9661SOL    HW129882   4.699   3.874   0.857
 9661SOL    HW229883   4.595   3.752   0.889
 9662SOL     OW29884   5.589   5.308   6.286
 9662SOL    HW129885   5.526   5.240   6.323
 9662SOL    HW229886   5.653   5.337   6.357
 9663SOL     OW29887   0.800   5.143   2.835
 9663SOL    HW129888   0.856   5.220   2.804
 9663SOL    HW229889   0.797   5.073   2.764
 9664SOL     OW29890   5.032   4.645   2.495
 9664SOL    HW129891   5.110   4.591   2.462
 9664SOL    HW229892   4.963   4.650   2.424
 9665SOL     OW29893   6.703   5.911   6.403
 9665SOL    HW129894   6.724   5.922   6.306
 9665SOL    HW229895   6.708   6.000   6.449
 9666SOL     OW29896   6.195   3.853   0.088
 9666SOL    HW129897   6.187   3.769   0.141
 9666SOL    HW229898   6.107   3.900   0.087
 9667SOL     OW29899   5.919   6.227   6.419
 9667SOL    HW129900   5.964   6.307   6.379
 9667SOL    HW229901   5.902   6.243   6.516
 9668SOL     OW29902   1.157   0.619   6.312
 9668SOL    HW129903   1.117   0.598   6.401
 9668SOL    HW229904   1.118   0.558   6.243
 9669SOL     OW29905   4.133   0.344   0.261
 9669SOL    HW129906   4.143   0.443   0.273
 9669SOL    HW229907   4.142   0.321   0.164
 9670SOL     OW29908   0.165   0.117   6.947
 9670SOL    HW129909   0.107   0.076   6.876
 9670SOL    HW229910   0.228   0.182   6.904
 9671SOL     OW29911   1.004   5.391   6.931
 9671SOL    HW129912   1.100   5.366   6.936
 9671SOL    HW229913   0.967   5.399   7.024
 9672SOL     OW29914   1.069   3.390   3.631
 9672SOL    HW129915   1.080   3.489   3.635
 9672SOL    HW229916   1.136   3.351   3.567
 9673SOL     OW29917   2.176   3.520   0.560
 9673SOL    HW129918   2.204   3.426   0.540
 9673SOL    HW229919   2.116   3.521   0.639
 9674SOL     OW29920   2.808   6.485   4.177
 9674SOL    HW129921   2.851   6.520   4.260
 9674SOL    HW229922   2.869   6.497   4.099
 9675SOL     OW29923   5.651   3.246   6.870
 9675SOL    HW129924   5.642   3.318   6.939
 9675SOL    HW229925   5.703   3.169   6.909
 9676SOL     OW29926   0.486   3.236   0.137
 9676SOL    HW129927   0.577   3.200   0.160
 9676SOL    HW229928   0.457   3.300   0.208
 9677SOL     OW29929   0.122   4.733   1.361
 9677SOL    HW129930   0.077   4.809   1.408
 9677SOL    HW229931   0.195   4.768   1.303
 9678SOL     OW29932   3.510   3.658   5.268
 9678SOL    HW129933   3.456   3.632   5.348
 9678SOL    HW229934   3.541   3.752   5.279
 9679SOL     OW29935   1.556   1.828   4.347
 9679SOL    HW129936   1.615   1.773   4.407
 9679SOL    HW229937   1.604   1.912   4.321
 9680SOL     OW29938   4.510   6.370   1.844
 9680SOL    HW129939   4.550   6.300   1.785
 9680SOL    HW229940   4.583   6.429   1.881
 9681SOL     OW29941   1.807   1.517   1.609
 9681SOL    HW129942   1.815   1.588   1.679
 9681SOL    HW229943   1.800   1.559   1.519
 9682SOL     OW29944   4.624   5.741   5.523
 9682SOL    HW129945   4.688   5.710   5.452
 9682SOL    HW229946   4.667   5.732   5.613
 9683SOL     OW29947   3.179   6.906   2.909
 9683SOL    HW129948   3.122   6.971   2.858
 9683SOL    HW229949   3.250   6.957   2.957
 9684SOL     OW29950   0.286   3.305   5.354
 9684SOL    HW129951   0.312   3.335   5.446
 9684SOL    HW229952   0.201   3.350   5.327
 9685SOL     OW29953   4.065   4.099   1.465
 9685SOL    HW129954   4.146   4.138   1.420
 9685SOL    HW229955   3.994   4.169   1.471
 9686SOL     OW29956   6.351   1.821   5.633
 9686SOL    HW129957   6.346   1.734   5.681
 9686SOL    HW229958   6.354   1.805   5.534
 9687SOL     OW29959   5.829   1.548   3.027
 9687SOL    HW129960   5.838   1.451   3.050
 9687SOL    HW229961   5.910   1.598   3.059
 9688SOL     OW29962   0.377   4.459   1.171
 9688SOL    HW129963   0.316   4.412   1.235
 9688SOL    HW229964   0.437   4.393   1.127
 9689SOL     OW29965   2.316   6.041   1.190
 9689SOL    HW129966   2.238   5.980   1.174
 9689SOL    HW229967   2.331   6.098   1.109
 9690SOL     OW29968   6.405   5.401   4.775
 9690SOL    HW129969   6.491   5.436   4.814
 9690SOL    HW229970   6.410   5.408   4.675
 9691SOL     OW29971   2.877   3.665   1.911
 9691SOL    HW129972   2.832   3.614   1.984
 9691SOL    HW229973   2.828   3.652   1.825
 9692SOL     OW29974   5.027   4.411   1.091
 9692SOL    HW129975   4.958   4.483   1.099
 9692SOL    HW229976   5.112   4.449   1.056
 9693SOL     OW29977   5.259   3.409   4.894
 9693SOL    HW129978   5.192   3.437   4.962
 9693SOL    HW229979   5.212   3.380   4.811
 9694SOL     OW29980   2.723   6.804   2.578
 9694SOL    HW129981   2.776   6.886   2.600
 9694SOL    HW229982   2.785   6.730   2.552
 9695SOL     OW29983   0.907   2.521   2.923
 9695SOL    HW129984   0.882   2.614   2.897
 9695SOL    HW229985   0.852   2.456   2.871
 9696SOL     OW29986   5.086   2.454   3.232
 9696SOL    HW129987   5.059   2.358   3.220
 9696SOL    HW229988   5.043   2.510   3.160
 9697SOL     OW29989   0.676   6.644   1.034
 9697SOL    HW129990   0.760   6.597   1.004
 9697SOL    HW229991   0.700   6.730   1.078
 9698SOL     OW29992   6.476   3.666   1.559
 9698SOL    HW129993   6.453   3.763   1.560
 9698SOL    HW229994   6.562   3.653   1.508
 9699SOL     OW29995   1.397   5.712   0.691
 9699SOL    HW129996   1.448   5.773   0.631
 9699SOL    HW229997   1.307   5.752   0.710
 9700SOL     OW29998   5.587   0.113   5.215
 9700SOL    HW129999   5.510   0.048   5.212
 9700SOL    HW230000   5.653   0.089   5.144
 9701SOL     OW30001   4.222   3.477   6.301
 9701SOL    HW130002   4.216   3.541   6.224
 9701SOL    HW230003   4.153   3.501   6.370
 9702SOL     OW30004   4.010   3.604   2.018
 9702SOL    HW130005   4.031   3.698   1.990
 9702SOL    HW230006   4.088   3.566   2.069
 9703SOL     OW30007   6.690   4.323   4.885
 9703SOL    HW130008   6.651   4.243   4.932
 9703SOL    HW230009   6.706   4.396   4.952
 9704SOL     OW30010   1.802   4.023   2.844
 9704SOL    HW130011   1.807   3.926   2.823
 9704SOL    HW230012   1.784   4.074   2.759
 9705SOL     OW30013   5.847   3.611   5.873
 9705SOL    HW130014   5.830   3.686   5.809
 9705SOL    HW230015   5.809   3.635   5.963
 9706SOL     OW30016   0.777   1.393   2.649
 9706SOL    HW130017   0.832   1.358   2.573
 9706SOL    HW230018   0.682   1.365   2.637
 9707SOL     OW30019   1.154   4.496   2.454
 9707SOL    HW130020   1.126   4.467   2.545
 9707SOL    HW230021   1.251   4.522   2.455
 9708SOL     OW30022   2.331   0.234   1.718
 9708SOL    HW130023   2.396   0.275   1.653
 9708SOL    HW230024   2.378   0.164   1.772
 9709SOL     OW30025   5.207   2.028   1.493
 9709SOL    HW130026   5.229   2.083   1.573
 9709SOL    HW230027   5.291   2.004   1.444
 9710SOL     OW30028   6.783   5.613   3.505
 9710SOL    HW130029   6.828   5.524   3.504
 9710SOL    HW230030   6.705   5.612   3.443
 9711SOL     OW30031   3.712   0.810   0.919
 9711SOL    HW130032   3.662   0.824   0.833
 9711SOL    HW230033   3.808   0.787   0.898
 9712SOL     OW30034   5.524   1.984   6.477
 9712SOL    HW130035   5.547   2.024   6.566
 9712SOL    HW230036   5.540   1.886   6.479
 9713SOL     OW30037   0.747   6.719   3.106
 9713SOL    HW130038   0.686   6.741   3.029
 9713SOL    HW230039   0.830   6.775   3.100
 9714SOL     OW30040   2.385   4.328   4.071
 9714SOL    HW130041   2.480   4.354   4.089
 9714SOL    HW230042   2.355   4.263   4.141
 9715SOL     OW30043   6.892   3.706   6.453
 9715SOL    HW130044   6.827   3.631   6.443
 9715SOL    HW230045   6.954   3.707   6.374
 9716SOL     OW30046   2.136   4.884   6.995
 9716SOL    HW130047   2.165   4.959   0.030
 9716SOL    HW230048   2.121   4.920   6.902
 9717SOL     OW30049   3.753   1.986   5.358
 9717SOL    HW130050   3.745   1.974   5.259
 9717SOL    HW230051   3.696   1.918   5.405
 9718SOL     OW30052   3.759   2.989   6.496
 9718SOL    HW130053   3.818   2.967   6.419
 9718SOL    HW230054   3.809   3.043   6.564
 9719SOL     OW30055   4.913   0.057   5.709
 9719SOL    HW130056   4.972   0.137   5.722
 9719SOL    HW230057   4.966   7.009   5.665
 9720SOL     OW30058   2.009   3.232   3.224
 9720SOL    HW130059   2.050   3.234   3.132
 9720SOL    HW230060   2.038   3.149   3.271
 9721SOL     OW30061   0.687   1.114   0.232
 9721SOL    HW130062   0.656   1.197   0.278
 9721SOL    HW230063   0.684   1.037   0.296
 9722SOL     OW30064   4.146   2.741   5.365
 9722SOL    HW130065   4.153   2.675   5.291
 9722SOL    HW230066   4.072   2.806   5.344
 9723SOL     OW30067   6.817   6.771   5.067
 9723SOL    HW130068   6.720   6.750   5.075
 9723SOL    HW230069   6.838   6.854   5.120
 9724SOL     OW30070   1.299   5.247   6.924
 9724SOL    HW130071   1.393   5.224   6.948
 9724SOL    HW230072   1.254   5.167   6.885
 9725SOL     OW30073   4.174   5.145   5.463
 9725SOL    HW130074   4.179   5.092   5.548
 9725SOL    HW230075   4.153   5.084   5.387
 9726SOL     OW30076   6.964   1.184   4.140
 9726SOL    HW130077   0.004   1.115   4.109
 9726SOL    HW230078   6.894   1.140   4.197
 9727SOL     OW30079   0.344   1.287   0.673
 9727SOL    HW130080   0.366   1.317   0.580
 9727SOL    HW230081   0.392   1.201   0.692
 9728SOL     OW30082   4.770   1.633   5.245
 9728SOL    HW130083   4.763   1.708   5.178
 9728SOL    HW230084   4.799   1.549   5.198
 9729SOL     OW30085   0.506   5.203   2.759
 9729SOL    HW130086   0.571   5.144   2.711
 9729SOL    HW230087   0.518   5.193   2.858
 9730SOL     OW30088   0.364   3.884   2.878
 9730SOL    HW130089   0.286   3.940   2.906
 9730SOL    HW230090   0.339   3.788   2.882
 9731SOL     OW30091   5.642   3.445   1.841
 9731SOL    HW130092   5.602   3.354   1.837
 9731SOL    HW230093   5.592   3.501   1.907
 9732SOL     OW30094   1.831   3.001   3.070
 9732SOL    HW130095   1.923   2.973   3.042
 9732SOL    HW230096   1.806   3.086   3.024
 9733SOL     OW30097   6.498   4.765   2.170
 9733SOL    HW130098   6.512   4.719   2.258
 9733SOL    HW230099   6.529   4.860   2.176
 9734SOL     OW30100   5.810   6.299   6.001
 9734SOL    HW130101   5.883   6.366   5.990
 9734SOL    HW230102   5.758   6.320   6.084
 9735SOL     OW30103   0.342   3.215   0.992
 9735SOL    HW130104   0.242   3.209   0.992
 9735SOL    HW230105   0.380   3.147   0.929
 9736SOL     OW30106   5.353   1.691   4.613
 9736SOL    HW130107   5.407   1.688   4.529
 9736SOL    HW230108   5.405   1.647   4.687
 9737SOL     OW30109   5.788   2.925   3.009
 9737SOL    HW130110   5.730   2.847   3.034
 9737SOL    HW230111   5.792   2.934   2.910
 9738SOL     OW30112   2.340   6.267   1.610
 9738SOL    HW130113   2.253   6.312   1.630
 9738SOL    HW230114   2.378   6.229   1.695
 9739SOL     OW30115   5.804   0.233   6.735
 9739SOL    HW130116   5.892   0.200   6.703
 9739SOL    HW230117   5.795   0.215   6.833
 9740SOL     OW30118   6.075   0.366   2.900
 9740SOL    HW130119   6.087   0.442   2.836
 9740SOL    HW230120   6.163   0.345   2.943
 9741SOL     OW30121   2.551   1.613   4.782
 9741SOL    HW130122   2.606   1.531   4.768
 9741SOL    HW230123   2.557   1.642   4.877
 9742SOL     OW30124   3.990   1.771   6.105
 9742SOL    HW130125   3.941   1.858   6.098
 9742SOL    HW230126   3.961   1.723   6.188
 9743SOL     OW30127   5.086   3.768   4.148
 9743SOL    HW130128   5.041   3.832   4.211
 9743SOL    HW230129   5.022   3.694   4.125
 9744SOL     OW30130   1.531   0.622   3.588
 9744SOL    HW130131   1.439   0.658   3.576
 9744SOL    HW230132   1.541   0.537   3.537
 9745SOL     OW30133   0.182   0.235   5.794
 9745SOL    HW130134   0.102   0.178   5.778
 9745SOL    HW230135   0.260   0.178   5.820
 9746SOL     OW30136   4.519   5.368   6.265
 9746SOL    HW130137   4.529   5.467   6.274
 9746SOL    HW230138   4.451   5.347   6.195
 9747SOL     OW30139   2.366   1.979   2.950
 9747SOL    HW130140   2.431   2.052   2.969
 9747SOL    HW230141   2.311   1.961   3.031
 9748SOL     OW30142   1.349   0.881   3.698
 9748SOL    HW130143   1.406   0.953   3.738
 9748SOL    HW230144   1.323   0.817   3.769
 9749SOL     OW30145   6.607   1.340   2.114
 9749SOL    HW130146   6.515   1.305   2.100
 9749SOL    HW230147   6.621   1.362   2.210
 9750SOL     OW30148   6.386   2.987   4.266
 9750SOL    HW130149   6.436   3.071   4.246
 9750SOL    HW230150   6.292   3.010   4.292
 9751SOL     OW30151   3.011   0.101   1.814
 9751SOL    HW130152   3.017   0.163   1.892
 9751SOL    HW230153   3.069   0.136   1.740
 9752SOL     OW30154   3.345   3.327   6.774
 9752SOL    HW130155   3.414   3.269   6.732
 9752SOL    HW230156   3.265   3.273   6.798
 9753SOL     OW30157   0.096   6.276   5.195
 9753SOL    HW130158   0.010   6.285   5.247
 9753SOL    HW230159   0.104   6.351   5.130
 9754SOL     OW30160   3.282   1.056   1.850
 9754SOL    HW130161   3.355   0.993   1.822
 9754SOL    HW230162   3.319   1.148   1.858
 9755SOL     OW30163   3.208   4.570   0.635
 9755SOL    HW130164   3.124   4.624   0.628
 9755SOL    HW230165   3.273   4.599   0.565
 9756SOL     OW30166   5.828   0.352   5.766
 9756SOL    HW130167   5.915   0.312   5.793
 9756SOL    HW230168   5.837   0.452   5.767
 9757SOL     OW30169   5.248   4.330   3.921
 9757SOL    HW130170   5.280   4.381   4.001
 9757SOL    HW230171   5.230   4.394   3.845
 9758SOL     OW30172   2.026   0.205   1.957
 9758SOL    HW130173   2.058   0.120   1.915
 9758SOL    HW230174   2.085   0.227   2.035
 9759SOL     OW30175   6.877   0.991   1.482
 9759SOL    HW130176   6.936   1.003   1.402
 9759SOL    HW230177   6.881   1.073   1.539
 9760SOL     OW30178   4.453   1.299   0.119
 9760SOL    HW130179   4.389   1.374   0.135
 9760SOL    HW230180   4.467   1.288   0.020
 9761SOL     OW30181   1.187   2.127   0.872
 9761SOL    HW130182   1.120   2.057   0.897
 9761SOL    HW230183   1.260   2.086   0.817
 9762SOL     OW30184   2.616   1.921   5.936
 9762SOL    HW130185   2.556   1.882   6.006
 9762SOL    HW230186   2.709   1.888   5.949
 9763SOL     OW30187   6.275   1.076   0.684
 9763SOL    HW130188   6.323   1.037   0.763
 9763SOL    HW230189   6.282   1.014   0.606
 9764SOL     OW30190   6.822   2.390   2.087
 9764SOL    HW130191   6.901   2.375   2.027
 9764SOL    HW230192   6.743   2.339   2.052
 9765SOL     OW30193   6.571   0.430   1.971
 9765SOL    HW130194   6.669   0.410   1.976
 9765SOL    HW230195   6.543   0.439   1.875
 9766SOL     OW30196   2.197   2.058   4.782
 9766SOL    HW130197   2.282   2.047   4.730
 9766SOL    HW230198   2.132   1.988   4.753
 9767SOL     OW30199   2.253   3.091   5.786
 9767SOL    HW130200   2.293   3.024   5.724
 9767SOL    HW230201   2.283   3.072   5.880
 9768SOL     OW30202   5.686   3.123   1.227
 9768SOL    HW130203   5.768   3.067   1.221
 9768SOL    HW230204   5.707   3.217   1.201
 9769SOL     OW30205   2.958   2.031   5.170
 9769SOL    HW130206   3.010   2.105   5.214
 9769SOL    HW230207   2.971   2.036   5.071
 9770SOL     OW30208   2.765   2.581   6.231
 9770SOL    HW130209   2.759   2.673   6.191
 9770SOL    HW230210   2.861   2.555   6.238
 9771SOL     OW30211   2.938   6.642   2.499
 9771SOL    HW130212   3.033   6.671   2.485
 9771SOL    HW230213   2.934   6.572   2.570
 9772SOL     OW30214   1.305   0.261   1.212
 9772SOL    HW130215   1.338   0.318   1.287
 9772SOL    HW230216   1.302   0.166   1.241
 9773SOL     OW30217   5.415   4.519   2.066
 9773SOL    HW130218   5.365   4.434   2.082
 9773SOL    HW230219   5.434   4.563   2.154
 9774SOL     OW30220   1.224   5.290   5.266
 9774SOL    HW130221   1.245   5.249   5.356
 9774SOL    HW230222   1.199   5.217   5.202
 9775SOL     OW30223   2.192   1.428   3.391
 9775SOL    HW130224   2.094   1.407   3.381
 9775SOL    HW230225   2.205   1.487   3.470
 9776SOL     OW30226   2.352   5.476   0.129
 9776SOL    HW130227   2.398   5.535   0.196
 9776SOL    HW230228   2.388   5.496   0.037
 9777SOL     OW30229   4.528   0.823   5.406
 9777SOL    HW130230   4.461   0.847   5.336
 9777SOL    HW230231   4.506   0.871   5.491
 9778SOL     OW30232   0.319   3.747   4.002
 9778SOL    HW130233   0.367   3.763   3.916
 9778SOL    HW230234   0.298   3.834   4.046
 9779SOL     OW30235   2.126   0.868   3.861
 9779SOL    HW130236   2.215   0.859   3.816
 9779SOL    HW230237   2.083   0.778   3.869
 9780SOL     OW30238   0.921   2.334   1.794
 9780SOL    HW130239   0.906   2.422   1.837
 9780SOL    HW230240   1.019   2.320   1.778
 9781SOL     OW30241   2.112   2.365   3.669
 9781SOL    HW130242   2.165   2.308   3.606
 9781SOL    HW230243   2.015   2.345   3.659
 9782SOL     OW30244   6.679   2.298   1.172
 9782SOL    HW130245   6.700   2.332   1.264
 9782SOL    HW230246   6.625   2.214   1.179
 9783SOL     OW30247   3.726   1.058   3.292
 9783SOL    HW130248   3.678   1.010   3.218
 9783SOL    HW230249   3.751   1.150   3.261
 9784SOL     OW30250   1.529   1.268   6.322
 9784SOL    HW130251   1.502   1.189   6.377
 9784SOL    HW230252   1.569   1.236   6.236
 9785SOL     OW30253   0.466   3.416   4.885
 9785SOL    HW130254   0.376   3.373   4.892
 9785SOL    HW230255   0.529   3.373   4.950
 9786SOL     OW30256   2.111   4.095   0.711
 9786SOL    HW130257   2.080   4.101   0.806
 9786SOL    HW230258   2.032   4.101   0.650
 9787SOL     OW30259   3.323   3.761   3.539
 9787SOL    HW130260   3.418   3.778   3.565
 9787SOL    HW230261   3.271   3.846   3.543
 9788SOL     OW30262   4.964   6.881   2.050
 9788SOL    HW130263   5.049   6.828   2.054
 9788SOL    HW230264   4.915   6.871   2.137
 9789SOL     OW30265   3.823   1.140   6.268
 9789SOL    HW130266   3.777   1.183   6.345
 9789SOL    HW230267   3.757   1.124   6.194
 9790SOL     OW30268   0.240   4.595   4.216
 9790SOL    HW130269   0.225   4.619   4.120
 9790SOL    HW230270   0.247   4.496   4.225
 9791SOL     OW30271   1.168   6.476   0.866
 9791SOL    HW130272   1.254   6.517   0.835
 9791SOL    HW230273   1.173   6.459   0.964
 9792SOL     OW30274   4.328   6.378   0.540
 9792SOL    HW130275   4.346   6.285   0.507
 9792SOL    HW230276   4.268   6.425   0.476
 9793SOL     OW30277   5.392   1.043   3.132
 9793SOL    HW130278   5.410   0.960   3.080
 9793SOL    HW230279   5.321   1.096   3.086
 9794SOL     OW30280   4.522   4.815   4.792
 9794SOL    HW130281   4.544   4.842   4.698
 9794SOL    HW230282   4.534   4.717   4.803
 9795SOL     OW30283   1.737   3.789   3.293
 9795SOL    HW130284   1.700   3.863   3.349
 9795SOL    HW230285   1.833   3.806   3.273
 9796SOL     OW30286   3.780   3.289   3.483
 9796SOL    HW130287   3.733   3.209   3.522
 9796SOL    HW230288   3.737   3.373   3.518
 9797SOL     OW30289   3.156   5.971   6.842
 9797SOL    HW130290   3.235   5.965   6.903
 9797SOL    HW230291   3.134   6.067   6.824
 9798SOL     OW30292   0.794   3.916   0.193
 9798SOL    HW130293   0.781   3.890   0.097
 9798SOL    HW230294   0.862   3.989   0.199
 9799SOL     OW30295   2.936   0.621   6.779
 9799SOL    HW130296   2.901   0.715   6.778
 9799SOL    HW230297   2.861   0.557   6.796
 9800SOL     OW30298   6.566   3.433   5.036
 9800SOL    HW130299   6.480   3.385   5.025
 9800SOL    HW230300   6.590   3.478   4.950
 9801SOL     OW30301   6.106   6.347   6.700
 9801SOL    HW130302   6.047   6.293   6.760
 9801SOL    HW230303   6.174   6.396   6.756
 9802SOL     OW30304   3.913   4.689   0.323
 9802SOL    HW130305   4.006   4.725   0.317
 9802SOL    HW230306   3.858   4.749   0.381
 9803SOL     OW30307   0.860   3.888   6.730
 9803SOL    HW130308   0.797   3.939   6.672
 9803SOL    HW230309   0.811   3.813   6.774
 9804SOL     OW30310   0.007   5.760   2.577
 9804SOL    HW130311   6.977   5.843   2.572
 9804SOL    HW230312   6.971   5.680   2.581
 9805SOL     OW30313   0.751   6.275   3.676
 9805SOL    HW130314   0.748   6.175   3.671
 9805SOL    HW230315   0.683   6.308   3.741
 9806SOL     OW30316   3.561   1.908   6.328
 9806SOL    HW130317   3.466   1.877   6.326
 9806SOL    HW230318   3.620   1.835   6.361
 9807SOL     OW30319   3.404   3.439   2.060
 9807SOL    HW130320   3.431   3.449   1.964
 9807SOL    HW230321   3.360   3.350   2.073
 9808SOL     OW30322   4.368   5.945   2.913
 9808SOL    HW130323   4.408   5.999   2.987
 9808SOL    HW230324   4.280   5.907   2.942
 9809SOL     OW30325   6.729   3.048   1.111
 9809SOL    HW130326   6.644   3.046   1.163
 9809SOL    HW230327   6.749   3.142   1.083
 9810SOL     OW30328   2.471   1.537   6.879
 9810SOL    HW130329   2.425   1.513   6.964
 9810SOL    HW230330   2.561   1.575   6.899
 9811SOL     OW30331   6.238   3.864   4.012
 9811SOL    HW130332   6.150   3.913   4.014
 9811SOL    HW230333   6.292   3.890   4.092
 9812SOL     OW30334   3.370   6.188   5.268
 9812SOL    HW130335   3.447   6.137   5.229
 9812SOL    HW230336   3.330   6.136   5.344
 9813SOL     OW30337   5.030   2.175   1.315
 9813SOL    HW130338   5.098   2.138   1.377
 9813SOL    HW230339   4.939   2.166   1.355
 9814SOL     OW30340   5.763   1.140   0.255
 9814SOL    HW130341   5.808   1.089   0.181
 9814SOL    HW230342   5.664   1.124   0.250
 9815SOL     OW30343   4.448   2.181   4.963
 9815SOL    HW130344   4.472   2.168   4.867
 9815SOL    HW230345   4.367   2.126   4.985
 9816SOL     OW30346   1.796   6.896   0.040
 9816SOL    HW130347   1.786   6.852   0.130
 9816SOL    HW230348   1.832   6.830   7.000
 9817SOL     OW30349   7.025   6.580   3.325
 9817SOL    HW130350   6.947   6.535   3.280
 9817SOL    HW230351   0.017   6.668   3.280
 9818SOL     OW30352   7.006   2.389   4.169
 9818SOL    HW130353   0.036   2.466   4.202
 9818SOL    HW230354   6.909   2.413   4.172
 9819SOL     OW30355   3.801   1.227   3.707
 9819SOL    HW130356   3.826   1.248   3.802
 9819SOL    HW230357   3.860   1.278   3.645
 9820SOL     OW30358   4.459   3.818   5.623
 9820SOL    HW130359   4.494   3.859   5.539
 9820SOL    HW230360   4.510   3.735   5.643
 9821SOL     OW30361   6.011   5.768   0.197
 9821SOL    HW130362   5.919   5.807   0.209
 9821SOL    HW230363   6.006   5.668   0.207
 9822SOL     OW30364   0.536   6.819   2.822
 9822SOL    HW130365   0.489   6.733   2.845
 9822SOL    HW230366   0.541   6.876   2.904
 9823SOL     OW30367   3.205   0.955   2.088
 9823SOL    HW130368   3.236   0.987   1.999
 9823SOL    HW230369   3.194   1.034   2.150
 9824SOL     OW30370   1.311   4.103   5.071
 9824SOL    HW130371   1.407   4.131   5.076
 9824SOL    HW230372   1.258   4.150   5.141
 9825SOL     OW30373   3.938   4.876   5.422
 9825SOL    HW130374   3.931   4.824   5.507
 9825SOL    HW230375   3.868   4.948   5.421
 9826SOL     OW30376   4.159   6.988   5.930
 9826SOL    HW130377   4.071   7.022   5.963
 9826SOL    HW230378   4.150   6.959   5.834
 9827SOL     OW30379   0.941   3.700   4.818
 9827SOL    HW130380   0.908   3.761   4.891
 9827SOL    HW230381   1.038   3.682   4.831
 9828SOL     OW30382   3.686   2.402   6.654
 9828SOL    HW130383   3.684   2.499   6.631
 9828SOL    HW230384   3.599   2.376   6.694
 9829SOL     OW30385   2.162   5.808   0.307
 9829SOL    HW130386   2.210   5.749   0.372
 9829SOL    HW230387   2.207   5.803   0.217
 9830SOL     OW30388   6.149   1.433   1.646
 9830SOL    HW130389   6.107   1.519   1.615
 9830SOL    HW230390   6.093   1.393   1.719
 9831SOL     OW30391   0.071   6.975   1.702
 9831SOL    HW130392   6.999   6.949   1.698
 9831SOL    HW230393   0.103   6.967   1.797
 9832SOL     OW30394   4.357   5.202   1.738
 9832SOL    HW130395   4.360   5.188   1.837
 9832SOL    HW230396   4.277   5.257   1.715
 9833SOL     OW30397   3.716   3.864   5.275
 9833SOL    HW130398   3.713   3.886   5.373
 9833SOL    HW230399   3.722   3.949   5.223
 9834SOL     OW30400   1.151   3.787   5.047
 9834SOL    HW130401   1.175   3.868   4.992
 9834SOL    HW230402   1.231   3.729   5.057
 9835SOL     OW30403   5.050   1.252   4.493
 9835SOL    HW130404   5.099   1.334   4.463
 9835SOL    HW230405   5.038   1.191   4.415
 9836SOL     OW30406   5.160   4.442   3.685
 9836SOL    HW130407   5.091   4.470   3.618
 9836SOL    HW230408   5.233   4.392   3.639
 9837SOL     OW30409   2.395   6.761   4.702
 9837SOL    HW130410   2.437   6.678   4.741
 9837SOL    HW230411   2.304   6.738   4.667
 9838SOL     OW30412   0.817   6.298   5.865
 9838SOL    HW130413   0.833   6.289   5.767
 9838SOL    HW230414   0.904   6.290   5.913
 9839SOL     OW30415   0.103   1.375   1.465
 9839SOL    HW130416   0.021   1.360   1.410
 9839SOL    HW230417   0.101   1.313   1.544
 9840SOL     OW30418   6.504   0.375   0.841
 9840SOL    HW130419   6.406   0.384   0.820
 9840SOL    HW230420   6.514   0.328   0.929
 9841SOL     OW30421   1.745   4.127   4.605
 9841SOL    HW130422   1.791   4.178   4.678
 9841SOL    HW230423   1.811   4.102   4.535
 9842SOL     OW30424   2.907   3.222   2.643
 9842SOL    HW130425   2.959   3.155   2.590
 9842SOL    HW230426   2.949   3.234   2.733
 9843SOL     OW30427   6.983   1.959   1.789
 9843SOL    HW130428   6.955   1.996   1.700
 9843SOL    HW230429   6.904   1.959   1.851
 9844SOL     OW30430   5.020   0.068   2.814
 9844SOL    HW130431   5.076   7.017   2.779
 9844SOL    HW230432   4.963   0.104   2.740
 9845SOL     OW30433   2.109   1.902   3.851
 9845SOL    HW130434   2.076   1.964   3.922
 9845SOL    HW230435   2.057   1.916   3.767
 9846SOL     OW30436   3.038   3.771   3.152
 9846SOL    HW130437   3.064   3.689   3.101
 9846SOL    HW230438   3.087   3.850   3.116
 9847SOL     OW30439   1.671   3.645   6.846
 9847SOL    HW130440   1.648   3.719   6.909
 9847SOL    HW230441   1.596   3.631   6.782
 9848SOL     OW30442   4.314   2.880   6.970
 9848SOL    HW130443   4.402   2.908   6.933
 9848SOL    HW230444   4.299   2.783   6.951
 9849SOL     OW30445   6.591   0.269   6.365
 9849SOL    HW130446   6.562   0.182   6.407
 9849SOL    HW230447   6.524   0.297   6.297
 9850SOL     OW30448   3.960   6.907   2.097
 9850SOL    HW130449   4.007   6.877   2.014
 9850SOL    HW230450   4.024   6.902   2.174
 9851SOL     OW30451   5.094   1.829   5.194
 9851SOL    HW130452   5.145   1.880   5.264
 9851SOL    HW230453   5.145   1.829   5.108
 9852SOL     OW30454   5.064   1.671   3.659
 9852SOL    HW130455   5.033   1.679   3.564
 9852SOL    HW230456   5.047   1.579   3.692
 9853SOL     OW30457   5.561   3.914   2.811
 9853SOL    HW130458   5.648   3.921   2.761
 9853SOL    HW230459   5.545   3.999   2.861
 9854SOL     OW30460   5.294   5.400   4.453
 9854SOL    HW130461   5.382   5.361   4.426
 9854SOL    HW230462   5.292   5.498   4.430
 9855SOL     OW30463   0.760   4.169   1.456
 9855SOL    HW130464   0.791   4.238   1.522
 9855SOL    HW230465   0.672   4.133   1.485
 9856SOL     OW30466   3.568   3.722   0.486
 9856SOL    HW130467   3.507   3.801   0.487
 9856SOL    HW230468   3.599   3.703   0.579
 9857SOL     OW30469   5.139   3.229   3.252
 9857SOL    HW130470   5.046   3.240   3.287
 9857SOL    HW230471   5.153   3.292   3.176
 9858SOL     OW30472   5.252   1.263   2.144
 9858SOL    HW130473   5.282   1.285   2.237
 9858SOL    HW230474   5.218   1.169   2.141
 9859SOL     OW30475   6.397   0.880   1.884
 9859SOL    HW130476   6.307   0.903   1.846
 9859SOL    HW230477   6.393   0.789   1.926
 9860SOL     OW30478   0.310   0.618   2.373
 9860SOL    HW130479   0.293   0.548   2.304
 9860SOL    HW230480   0.331   0.574   2.460
 9861SOL     OW30481   4.296   6.189   4.303
 9861SOL    HW130482   4.348   6.105   4.323
 9861SOL    HW230483   4.309   6.253   4.379
 9862SOL     OW30484   1.739   3.019   0.255
 9862SOL    HW130485   1.772   3.010   0.349
 9862SOL    HW230486   1.719   3.116   0.236
 9863SOL     OW30487   3.009   0.389   3.151
 9863SOL    HW130488   3.080   0.369   3.084
 9863SOL    HW230489   3.052   0.424   3.234
 9864SOL     OW30490   4.420   5.461   3.417
 9864SOL    HW130491   4.377   5.438   3.330
 9864SOL    HW230492   4.360   5.436   3.493
 9865SOL     OW30493   0.386   0.171   3.426
 9865SOL    HW130494   0.441   0.248   3.458
 9865SOL    HW230495   0.347   0.123   3.505
 9866SOL     OW30496   5.006   3.922   4.358
 9866SOL    HW130497   4.980   3.852   4.424
 9866SOL    HW230498   5.093   3.963   4.386
 9867SOL     OW30499   4.496   1.221   0.855
 9867SOL    HW130500   4.577   1.171   0.887
 9867SOL    HW230501   4.500   1.315   0.889
 9868SOL     OW30502   6.815   4.409   0.036
 9868SOL    HW130503   6.914   4.406   0.021
 9868SOL    HW230504   6.779   4.316   0.040
 9869SOL     OW30505   2.195   3.836   3.139
 9869SOL    HW130506   2.188   3.932   3.112
 9869SOL    HW230507   2.197   3.778   3.057
 9870SOL     OW30508   4.598   4.773   2.526
 9870SOL    HW130509   4.546   4.696   2.491
 9870SOL    HW230510   4.656   4.810   2.454
 9871SOL     OW30511   2.247   0.643   5.694
 9871SOL    HW130512   2.218   0.591   5.774
 9871SOL    HW230513   2.306   0.586   5.637
 9872SOL     OW30514   2.970   4.805   3.213
 9872SOL    HW130515   2.934   4.768   3.127
 9872SOL    HW230516   2.909   4.781   3.288
 9873SOL     OW30517   1.932   2.849   0.120
 9873SOL    HW130518   1.895   2.781   0.057
 9873SOL    HW230519   1.862   2.875   0.187
 9874SOL     OW30520   0.588   2.723   3.268
 9874SOL    HW130521   0.522   2.730   3.194
 9874SOL    HW230522   0.617   2.815   3.295
 9875SOL     OW30523   0.330   0.655   2.726
 9875SOL    HW130524   0.362   0.666   2.820
 9875SOL    HW230525   0.402   0.684   2.663
 9876SOL     OW30526   6.392   0.029   2.535
 9876SOL    HW130527   6.353   6.973   2.491
 9876SOL    HW230528   6.458   0.001   2.604
 9877SOL     OW30529   3.321   0.367   2.543
 9877SOL    HW130530   3.296   0.450   2.594
 9877SOL    HW230531   3.282   0.371   2.451
 9878SOL     OW30532   1.457   5.576   5.869
 9878SOL    HW130533   1.496   5.667   5.855
 9878SOL    HW230534   1.526   5.516   5.909
 9879SOL     OW30535   4.494   5.468   4.789
 9879SOL    HW130536   4.408   5.504   4.753
 9879SOL    HW230537   4.565   5.538   4.785
 9880SOL     OW30538   0.927   2.049   5.559
 9880SOL    HW130539   0.970   2.032   5.471
 9880SOL    HW230540   0.912   2.147   5.571
 9881SOL     OW30541   0.819   2.739   4.861
 9881SOL    HW130542   0.828   2.807   4.934
 9881SOL    HW230543   0.905   2.690   4.850
 9882SOL     OW30544   1.026   2.775   4.472
 9882SOL    HW130545   0.999   2.680   4.456
 9882SOL    HW230546   1.091   2.804   4.401
 9883SOL     OW30547   1.610   0.517   1.566
 9883SOL    HW130548   1.628   0.584   1.638
 9883SOL    HW230549   1.696   0.488   1.524
 9884SOL     OW30550   4.319   0.749   3.777
 9884SOL    HW130551   4.277   0.756   3.686
 9884SOL    HW230552   4.249   0.724   3.844
 9885SOL     OW30553   6.270   4.086   4.849
 9885SOL    HW130554   6.244   4.174   4.811
 9885SOL    HW230555   6.198   4.053   4.909
 9886SOL     OW30556   1.121   4.671   2.831
 9886SOL    HW130557   1.116   4.592   2.770
 9886SOL    HW230558   1.042   4.671   2.893
 9887SOL     OW30559   3.446   1.428   6.844
 9887SOL    HW130560   3.441   1.340   6.891
 9887SOL    HW230561   3.358   1.447   6.801
 9888SOL     OW30562   0.259   3.631   0.156
 9888SOL    HW130563   0.270   3.535   0.182
 9888SOL    HW230564   0.349   3.668   0.131
 9889SOL     OW30565   6.399   5.098   0.419
 9889SOL    HW130566   6.384   5.077   0.516
 9889SOL    HW230567   6.375   5.018   0.364
 9890SOL     OW30568   1.685   2.410   1.004
 9890SOL    HW130569   1.609   2.440   0.945
 9890SOL    HW230570   1.772   2.436   0.962
 9891SOL     OW30571   5.726   2.686   0.227
 9891SOL    HW130572   5.729   2.780   0.193
 9891SOL    HW230573   5.663   2.681   0.305
 9892SOL     OW30574   7.016   4.857   0.262
 9892SOL    HW130575   0.026   4.893   0.348
 9892SOL    HW230576   0.053   4.786   0.228
 9893SOL     OW30577   2.471   0.686   0.690
 9893SOL    HW130578   2.416   0.750   0.744
 9893SOL    HW230579   2.539   0.738   0.637
 9894SOL     OW30580   1.439   1.682   0.862
 9894SOL    HW130581   1.462   1.592   0.827
 9894SOL    HW230582   1.504   1.750   0.825
 9895SOL     OW30583   5.565   3.691   4.637
 9895SOL    HW130584   5.508   3.674   4.557
 9895SOL    HW230585   5.562   3.612   4.698
 9896SOL     OW30586   6.796   7.009   6.886
 9896SOL    HW130587   6.885   6.980   6.919
 9896SOL    HW230588   6.766   6.947   6.813
 9897SOL     OW30589   5.819   5.318   3.595
 9897SOL    HW130590   5.762   5.282   3.669
 9897SOL    HW230591   5.890   5.377   3.634
 9898SOL     OW30592   3.168   6.134   6.158
 9898SOL    HW130593   3.162   6.123   6.058
 9898SOL    HW230594   3.097   6.198   6.188
 9899SOL     OW30595   0.713   5.444   0.865
 9899SOL    HW130596   0.730   5.451   0.963
 9899SOL    HW230597   0.799   5.425   0.818
 9900SOL     OW30598   1.438   4.204   3.414
 9900SOL    HW130599   1.529   4.195   3.455
 9900SOL    HW230600   1.390   4.117   3.420
 9901SOL     OW30601   2.900   2.232   5.519
 9901SOL    HW130602   2.934   2.313   5.472
 9901SOL    HW230603   2.856   2.171   5.453
 9902SOL     OW30604   2.211   4.683   6.593
 9902SOL    HW130605   2.217   4.710   6.497
 9902SOL    HW230606   2.174   4.590   6.599
 9903SOL     OW30607   5.323   1.527   3.522
 9903SOL    HW130608   5.384   1.498   3.595
 9903SOL    HW230609   5.228   1.508   3.547
 9904SOL     OW30610   0.596   3.379   6.433
 9904SOL    HW130611   0.672   3.443   6.424
 9904SOL    HW230612   0.627   3.287   6.407
 9905SOL     OW30613   3.844   1.272   0.965
 9905SOL    HW130614   3.749   1.303   0.970
 9905SOL    HW230615   3.863   1.210   1.040
 9906SOL     OW30616   3.753   3.035   2.533
 9906SOL    HW130617   3.804   3.015   2.450
 9906SOL    HW230618   3.656   3.046   2.511
 9907SOL     OW30619   6.865   0.679   1.488
 9907SOL    HW130620   6.835   0.772   1.510
 9907SOL    HW230621   6.905   0.638   1.569
 9908SOL     OW30622   5.104   2.819   3.107
 9908SOL    HW130623   5.049   2.742   3.077
 9908SOL    HW230624   5.132   2.805   3.203
 9909SOL     OW30625   3.744   6.747   3.592
 9909SOL    HW130626   3.708   6.778   3.680
 9909SOL    HW230627   3.691   6.669   3.559
 9910SOL     OW30628   1.112   4.005   2.503
 9910SOL    HW130629   1.132   4.079   2.439
 9910SOL    HW230630   1.069   3.929   2.454
 9911SOL     OW30631   3.897   0.197   2.173
 9911SOL    HW130632   3.873   0.134   2.246
 9911SOL    HW230633   3.921   0.145   2.091
 9912SOL     OW30634   4.279   1.941   1.488
 9912SOL    HW130635   4.193   1.890   1.490
 9912SOL    HW230636   4.274   2.014   1.420
 9913SOL     OW30637   6.120   3.654   6.832
 9913SOL    HW130638   6.052   3.629   6.901
 9913SOL    HW230639   6.094   3.740   6.788
 9914SOL     OW30640   0.272   3.273   4.542
 9914SOL    HW130641   0.262   3.263   4.641
 9914SOL    HW230642   0.267   3.370   4.518
 9915SOL     OW30643   4.798   1.099   3.044
 9915SOL    HW130644   4.772   1.059   3.132
 9915SOL    HW230645   4.748   1.053   2.970
 9916SOL     OW30646   2.243   2.699   2.598
 9916SOL    HW130647   2.308   2.717   2.524
 9916SOL    HW230648   2.283   2.635   2.663
 9917SOL     OW30649   6.583   3.590   6.820
 9917SOL    HW130650   6.576   3.497   6.782
 9917SOL    HW230651   6.499   3.612   6.869
 9918SOL     OW30652   4.210   1.984   2.599
 9918SOL    HW130653   4.296   1.940   2.624
 9918SOL    HW230654   4.134   1.932   2.636
 9919SOL     OW30655   6.330   6.427   1.108
 9919SOL    HW130656   6.289   6.360   1.169
 9919SOL    HW230657   6.313   6.402   1.013
 9920SOL     OW30658   4.805   1.323   2.412
 9920SOL    HW130659   4.858   1.407   2.403
 9920SOL    HW230660   4.819   1.266   2.331
 9921SOL     OW30661   4.717   5.703   5.791
 9921SOL    HW130662   4.721   5.603   5.795
 9921SOL    HW230663   4.670   5.738   5.872
 9922SOL     OW30664   0.783   5.372   0.190
 9922SOL    HW130665   0.689   5.387   0.162
 9922SOL    HW230666   0.839   5.451   0.165
 9923SOL     OW30667   4.583   4.856   6.847
 9923SOL    HW130668   4.620   4.943   6.879
 9923SOL    HW230669   4.506   4.874   6.786
 9924SOL     OW30670   6.999   2.542   4.832
 9924SOL    HW130671   7.024   2.628   4.877
 9924SOL    HW230672   0.057   2.494   4.804
 9925SOL     OW30673   6.486   3.844   3.821
 9925SOL    HW130674   6.388   3.832   3.833
 9925SOL    HW230675   6.505   3.940   3.798
 9926SOL     OW30676   2.367   3.795   6.747
 9926SOL    HW130677   2.279   3.779   6.703
 9926SOL    HW230678   2.413   3.872   6.703
 9927SOL     OW30679   5.970   0.107   2.421
 9927SOL    HW130680   5.981   0.039   2.493
 9927SOL    HW230681   6.060   0.142   2.395
 9928SOL     OW30682   4.815   4.814   1.343
 9928SOL    HW130683   4.883   4.818   1.270
 9928SOL    HW230684   4.796   4.719   1.365
 9929SOL     OW30685   2.282   5.501   4.847
 9929SOL    HW130686   2.301   5.577   4.910
 9929SOL    HW230687   2.364   5.482   4.793
 9930SOL     OW30688   6.344   0.304   4.728
 9930SOL    HW130689   6.432   0.265   4.755
 9930SOL    HW230690   6.271   0.243   4.759
 9931SOL     OW30691   0.786   4.468   5.032
 9931SOL    HW130692   0.834   4.552   5.055
 9931SOL    HW230693   0.730   4.439   5.109
 9932SOL     OW30694   1.756   6.634   6.486
 9932SOL    HW130695   1.717   6.726   6.495
 9932SOL    HW230696   1.742   6.601   6.393
 9933SOL     OW30697   2.283   4.910   2.705
 9933SOL    HW130698   2.357   4.891   2.641
 9933SOL    HW230699   2.262   5.008   2.704
 9934SOL     OW30700   5.784   2.265   5.773
 9934SOL    HW130701   5.715   2.336   5.788
 9934SOL    HW230702   5.743   2.175   5.791
 9935SOL     OW30703   2.683   0.795   0.560
 9935SOL    HW130704   2.671   0.734   0.481
 9935SOL    HW230705   2.747   0.868   0.536
 9936SOL     OW30706   0.001   5.343   4.768
 9936SOL    HW130707   6.936   5.335   4.725
 9936SOL    HW230708   7.019   5.398   4.851
 9937SOL     OW30709   6.341   2.212   5.772
 9937SOL    HW130710   6.337   2.267   5.855
 9937SOL    HW230711   6.251   2.171   5.754
 9938SOL     OW30712   6.632   6.226   3.451
 9938SOL    HW130713   6.707   6.263   3.396
 9938SOL    HW230714   6.547   6.231   3.399
 9939SOL     OW30715   3.149   2.959   0.819
 9939SOL    HW130716   3.098   2.934   0.737
 9939SOL    HW230717   3.102   3.035   0.865
 9940SOL     OW30718   0.302   0.863   0.952
 9940SOL    HW130719   0.374   0.849   1.020
 9940SOL    HW230720   0.273   0.959   0.953
 9941SOL     OW30721   2.970   3.717   5.204
 9941SOL    HW130722   2.895   3.651   5.200
 9941SOL    HW230723   2.933   3.810   5.196
 9942SOL     OW30724   2.188   6.444   2.635
 9942SOL    HW130725   2.282   6.429   2.603
 9942SOL    HW230726   2.183   6.532   2.682
 9943SOL     OW30727   0.612   5.993   6.082
 9943SOL    HW130728   0.643   5.961   5.992
 9943SOL    HW230729   0.513   5.984   6.088
 9944SOL     OW30730   2.067   4.512   6.026
 9944SOL    HW130731   2.125   4.525   6.106
 9944SOL    HW230732   1.977   4.479   6.055
 9945SOL     OW30733   6.706   5.113   6.909
 9945SOL    HW130734   6.682   5.138   6.815
 9945SOL    HW230735   6.750   5.191   6.953
 9946SOL     OW30736   5.449   1.158   5.141
 9946SOL    HW130737   5.376   1.146   5.073
 9946SOL    HW230738   5.535   1.122   5.104
 9947SOL     OW30739   6.660   3.761   6.000
 9947SOL    HW130740   6.605   3.798   6.074
 9947SOL    HW230741   6.710   3.835   5.955
 9948SOL     OW30742   4.651   4.288   4.957
 9948SOL    HW130743   4.655   4.365   4.893
 9948SOL    HW230744   4.613   4.208   4.910
 9949SOL     OW30745   5.563   4.858   3.119
 9949SOL    HW130746   5.488   4.798   3.148
 9949SOL    HW230747   5.548   4.885   3.024
 9950SOL     OW30748   5.479   6.144   5.343
 9950SOL    HW130749   5.533   6.156   5.259
 9950SOL    HW230750   5.494   6.052   5.378
 9951SOL     OW30751   5.957   2.049   3.807
 9951SOL    HW130752   6.046   2.032   3.850
 9951SOL    HW230753   5.910   2.121   3.857
 9952SOL     OW30754   6.259   3.553   0.942
 9952SOL    HW130755   6.351   3.541   0.980
 9952SOL    HW230756   6.258   3.633   0.882
 9953SOL     OW30757   6.569   2.413   3.801
 9953SOL    HW130758   6.479   2.452   3.815
 9953SOL    HW230759   6.566   2.314   3.817
 9954SOL     OW30760   5.872   6.448   5.701
 9954SOL    HW130761   5.958   6.427   5.748
 9954SOL    HW230762   5.833   6.532   5.738
 9955SOL     OW30763   6.762   5.045   4.631
 9955SOL    HW130764   6.737   4.950   4.616
 9955SOL    HW230765   6.696   5.105   4.585
 9956SOL     OW30766   1.230   0.009   1.836
 9956SOL    HW130767   1.316   6.998   1.799
 9956SOL    HW230768   1.217   7.000   1.929
 9957SOL     OW30769   6.179   5.389   3.439
 9957SOL    HW130770   6.128   5.311   3.403
 9957SOL    HW230771   6.139   5.474   3.402
 9958SOL     OW30772   3.560   4.849   0.598
 9958SOL    HW130773   3.636   4.862   0.535
 9958SOL    HW230774   3.594   4.817   0.687
 9959SOL     OW30775   4.085   3.671   5.815
 9959SOL    HW130776   4.157   3.739   5.831
 9959SOL    HW230777   4.108   3.617   5.734
 9960SOL     OW30778   6.954   0.867   2.807
 9960SOL    HW130779   7.025   0.913   2.860
 9960SOL    HW230780   6.995   0.793   2.754
 9961SOL     OW30781   2.034   5.624   4.120
 9961SOL    HW130782   2.079   5.537   4.139
 9961SOL    HW230783   2.093   5.699   4.150
 9962SOL     OW30784   5.602   6.354   4.879
 9962SOL    HW130785   5.695   6.355   4.843
 9962SOL    HW230786   5.559   6.266   4.859
 9963SOL     OW30787   3.376   2.181   0.864
 9963SOL    HW130788   3.338   2.097   0.903
 9963SOL    HW230789   3.458   2.207   0.915
 9964SOL     OW30790   4.638   5.521   4.421
 9964SOL    HW130791   4.700   5.490   4.493
 9964SOL    HW230792   4.563   5.455   4.411
 9965SOL     OW30793   3.812   6.732   7.006
 9965SOL    HW130794   3.839   6.676   0.059
 9965SOL    HW230795   3.770   6.816   0.014
 9966SOL     OW30796   1.571   5.100   1.666
 9966SOL    HW130797   1.542   5.130   1.757
 9966SOL    HW230798   1.503   5.130   1.598
 9967SOL     OW30799   1.122   5.688   1.622
 9967SOL    HW130800   1.080   5.720   1.537
 9967SOL    HW230801   1.071   5.608   1.656
 9968SOL     OW30802   3.551   3.765   2.086
 9968SOL    HW130803   3.610   3.836   2.124
 9968SOL    HW230804   3.583   3.742   1.994
 9969SOL     OW30805   1.496   3.602   2.839
 9969SOL    HW130806   1.537   3.638   2.923
 9969SOL    HW230807   1.447   3.675   2.791
 9970SOL     OW30808   5.492   4.608   1.826
 9970SOL    HW130809   5.453   4.577   1.913
 9970SOL    HW230810   5.434   4.680   1.788
 9971SOL     OW30811   1.353   4.383   1.258
 9971SOL    HW130812   1.371   4.437   1.340
 9971SOL    HW230813   1.299   4.438   1.194
 9972SOL     OW30814   6.198   5.040   2.962
 9972SOL    HW130815   6.210   4.976   3.038
 9972SOL    HW230816   6.288   5.071   2.931
 9973SOL     OW30817   5.897   0.732   4.170
 9973SOL    HW130818   5.905   0.637   4.199
 9973SOL    HW230819   5.901   0.737   4.070
 9974SOL     OW30820   1.501   0.652   3.977
 9974SOL    HW130821   1.444   0.730   4.002
 9974SOL    HW230822   1.447   0.568   3.980
 9975SOL     OW30823   0.108   2.782   0.532
 9975SOL    HW130824   0.088   2.696   0.578
 9975SOL    HW230825   0.165   2.763   0.452
 9976SOL     OW30826   1.094   6.926   5.321
 9976SOL    HW130827   1.043   7.010   5.302
 9976SOL    HW230828   1.180   6.949   5.367
 9977SOL     OW30829   6.536   4.676   5.039
 9977SOL    HW130830   6.615   4.679   4.977
 9977SOL    HW230831   6.490   4.588   5.028
 9978SOL     OW30832   0.514   3.142   4.510
 9978SOL    HW130833   0.427   3.191   4.505
 9978SOL    HW230834   0.551   3.131   4.418
 9979SOL     OW30835   5.940   4.037   4.787
 9979SOL    HW130836   5.947   4.095   4.706
 9979SOL    HW230837   5.900   3.949   4.762
 9980SOL     OW30838   3.551   0.456   6.884
 9980SOL    HW130839   3.473   0.418   6.934
 9980SOL    HW230840   3.573   0.546   6.920
 9981SOL     OW30841   3.139   1.089   3.827
 9981SOL    HW130842   3.081   1.167   3.805
 9981SOL    HW230843   3.235   1.113   3.811
 9982SOL     OW30844   6.892   6.429   3.966
 9982SOL    HW130845   6.964   6.492   3.996
 9982SOL    HW230846   6.924   6.377   3.886
 9983SOL     OW30847   6.791   0.999   2.591
 9983SOL    HW130848   6.795   1.047   2.678
 9983SOL    HW230849   6.882   0.969   2.564
 9984SOL     OW30850   2.971   1.963   6.575
 9984SOL    HW130851   2.878   1.926   6.574
 9984SOL    HW230852   3.019   1.928   6.656
 9985SOL     OW30853   1.814   0.902   1.496
 9985SOL    HW130854   1.715   0.906   1.482
 9985SOL    HW230855   1.857   0.851   1.421
 9986SOL     OW30856   5.539   4.129   4.888
 9986SOL    HW130857   5.500   4.043   4.853
 9986SOL    HW230858   5.617   4.108   4.947
 9987SOL     OW30859   6.067   3.703   6.176
 9987SOL    HW130860   6.106   3.770   6.113
 9987SOL    HW230861   6.025   3.628   6.123
 9988SOL     OW30862   6.576   6.693   5.167
 9988SOL    HW130863   6.572   6.606   5.215
 9988SOL    HW230864   6.491   6.743   5.180
 9989SOL     OW30865   6.880   3.648   5.007
 9989SOL    HW130866   6.975   3.677   5.022
 9989SOL    HW230867   6.877   3.549   4.995
 9990SOL     OW30868   0.897   4.682   2.986
 9990SOL    HW130869   0.872   4.594   2.946
 9990SOL    HW230870   0.824   4.748   2.968
 9991SOL     OW30871   3.067   2.225   4.121
 9991SOL    HW130872   3.156   2.178   4.127
 9991SOL    HW230873   3.026   2.230   4.211
 9992SOL     OW30874   5.912   5.717   6.316
 9992SOL    HW130875   6.000   5.708   6.269
 9992SOL    HW230876   5.914   5.799   6.373
 9993SOL     OW30877   1.595   1.782   1.210
 9993SOL    HW130878   1.517   1.740   1.257
 9993SOL    HW230879   1.567   1.871   1.173
 9994SOL     OW30880   6.159   4.678   3.597
 9994SOL    HW130881   6.075   4.718   3.562
 9994SOL    HW230882   6.235   4.741   3.581
 9995SOL     OW30883   5.738   0.936   4.322
 9995SOL    HW130884   5.718   0.981   4.235
 9995SOL    HW230885   5.780   0.847   4.305
 9996SOL     OW30886   3.684   4.462   6.990
 9996SOL    HW130887   3.687   4.533   6.919
 9996SOL    HW230888   3.656   4.503   0.052
 9997SOL     OW30889   2.760   0.627   5.372
 9997SOL    HW130890   2.689   0.622   5.442
 9997SOL    HW230891   2.839   0.677   5.407
 9998SOL     OW30892   5.988   5.270   5.818
 9998SOL    HW130893   5.975   5.347   5.756
 9998SOL    HW230894   6.070   5.285   5.873
 9999SOL     OW30895   6.380   2.555   5.602
 9999SOL    HW130896   6.331   2.623   5.656
 9999SOL    HW230897   6.315   2.492   5.560
10000SOL     OW30898   0.165   2.394   6.601
10000SOL    HW130899   0.077   2.399   6.648
10000SOL    HW230900   0.223   2.325   6.645
10001SOL     OW30901   4.860   0.560   2.650
10001SOL    HW130902   4.924   0.554   2.727
10001SOL    HW230903   4.907   0.535   2.566
10002SOL     OW30904   1.343   0.429   1.773
10002SOL    HW130905   1.266   0.366   1.760
10002SOL    HW230906   1.429   0.378   1.763
10003SOL     OW30907   3.893   2.153   3.208
10003SOL    HW130908   3.913   2.056   3.223
10003SOL    HW230909   3.826   2.162   3.135
10004SOL     OW30910   0.056   2.296   3.152
10004SOL    HW130911   0.011   2.342   3.228
10004SOL    HW230912   0.151   2.277   3.176
10005SOL     OW30913   4.915   0.318   3.902
10005SOL    HW130914   4.968   0.248   3.855
10005SOL    HW230915   4.935   0.408   3.862
10006SOL     OW30916   4.090   6.752   4.062
10006SOL    HW130917   4.074   6.745   3.963
10006SOL    HW230918   4.155   6.681   4.090
10007SOL     OW30919   0.195   3.596   4.244
10007SOL    HW130920   0.248   3.587   4.328
10007SOL    HW230921   0.255   3.623   4.169
10008SOL     OW30922   3.144   0.666   4.453
10008SOL    HW130923   3.097   0.673   4.365
10008SOL    HW230924   3.238   0.700   4.444
10009SOL     OW30925   2.183   3.997   2.238
10009SOL    HW130926   2.194   3.968   2.143
10009SOL    HW230927   2.237   4.080   2.254
10010SOL     OW30928   1.427   1.948   6.253
10010SOL    HW130929   1.492   1.874   6.232
10010SOL    HW230930   1.411   1.952   6.351
10011SOL     OW30931   6.278   6.769   5.819
10011SOL    HW130932   6.347   6.706   5.785
10011SOL    HW230933   6.315   6.820   5.896
10012SOL     OW30934   6.021   1.282   4.251
10012SOL    HW130935   6.099   1.226   4.223
10012SOL    HW230936   5.965   1.229   4.315
10013SOL     OW30937   0.388   0.708   3.000
10013SOL    HW130938   0.393   0.623   3.052
10013SOL    HW230939   0.458   0.772   3.032
10014SOL     OW30940   0.080   5.027   6.211
10014SOL    HW130941   0.142   5.036   6.133
10014SOL    HW230942   0.001   5.086   6.199
10015SOL     OW30943   1.862   4.681   6.771
10015SOL    HW130944   1.921   4.753   6.806
10015SOL    HW230945   1.857   4.606   6.837
10016SOL     OW30946   2.486   0.964   5.824
10016SOL    HW130947   2.494   0.963   5.924
10016SOL    HW230948   2.576   0.979   5.784
10017SOL     OW30949   2.089   2.324   4.771
10017SOL    HW130950   2.114   2.237   4.728
10017SOL    HW230951   2.077   2.309   4.870
10018SOL     OW30952   5.016   0.651   5.563
10018SOL    HW130953   5.045   0.731   5.616
10018SOL    HW230954   5.066   0.648   5.477
10019SOL     OW30955   1.132   0.958   3.308
10019SOL    HW130956   1.082   0.873   3.323
10019SOL    HW230957   1.078   1.018   3.248
10020SOL     OW30958   0.457   3.277   0.727
10020SOL    HW130959   0.439   3.308   0.821
10020SOL    HW230960   0.490   3.354   0.673
10021SOL     OW30961   0.195   3.509   1.308
10021SOL    HW130962   0.175   3.526   1.212
10021SOL    HW230963   0.204   3.411   1.324
10022SOL     OW30964   1.104   2.053   6.260
10022SOL    HW130965   1.132   1.962   6.290
10022SOL    HW230966   1.077   2.049   6.163
10023SOL     OW30967   6.834   3.289   0.957
10023SOL    HW130968   6.820   3.320   0.863
10023SOL    HW230969   6.926   3.250   0.966
10024SOL     OW30970   1.623   4.198   3.672
10024SOL    HW130971   1.568   4.281   3.687
10024SOL    HW230972   1.709   4.205   3.723
10025SOL     OW30973   1.551   1.118   0.781
10025SOL    HW130974   1.607   1.117   0.698
10025SOL    HW230975   1.552   1.028   0.823
10026SOL     OW30976   6.492   0.871   3.559
10026SOL    HW130977   6.396   0.846   3.573
10026SOL    HW230978   6.527   0.823   3.478
10027SOL     OW30979   5.085   3.512   5.067
10027SOL    HW130980   4.985   3.507   5.064
10027SOL    HW230981   5.113   3.572   5.142
10028SOL     OW30982   1.987   1.336   0.739
10028SOL    HW130983   1.965   1.427   0.705
10028SOL    HW230984   1.981   1.270   0.664
10029SOL     OW30985   5.939   1.052   3.930
10029SOL    HW130986   5.971   1.145   3.910
10029SOL    HW230987   6.014   0.999   3.968
10030SOL     OW30988   1.345   0.387   4.084
10030SOL    HW130989   1.255   0.364   4.119
10030SOL    HW230990   1.415   0.340   4.138
10031SOL     OW30991   6.597   4.401   4.162
10031SOL    HW130992   6.687   4.359   4.170
10031SOL    HW230993   6.546   4.356   4.090
10032SOL     OW30994   3.219   1.402   4.578
10032SOL    HW130995   3.169   1.460   4.643
10032SOL    HW230996   3.268   1.331   4.627
10033SOL     OW30997   5.999   3.219   5.388
10033SOL    HW130998   5.899   3.217   5.385
10033SOL    HW230999   6.034   3.127   5.409
10034SOL     OW31000   5.602   0.688   5.348
10034SOL    HW131001   5.544   0.656   5.273
10034SOL    HW231002   5.653   0.611   5.386
10035SOL     OW31003   0.683   5.531   1.553
10035SOL    HW131004   0.742   5.471   1.608
10035SOL    HW231005   0.665   5.488   1.465
10036SOL     OW31006   6.756   1.372   0.318
10036SOL    HW131007   6.681   1.341   0.377
10036SOL    HW231008   6.833   1.401   0.375
10037SOL     OW31009   0.530   6.955   6.872
10037SOL    HW131010   0.495   0.001   6.933
10037SOL    HW231011   0.605   6.993   6.817
10038SOL     OW31012   6.252   6.665   0.836
10038SOL    HW131013   6.343   6.625   0.845
10038SOL    HW231014   6.198   6.647   0.918
10039SOL     OW31015   3.501   0.132   3.803
10039SOL    HW131016   3.510   0.114   3.901
10039SOL    HW231017   3.588   0.168   3.768
10040SOL     OW31018   6.841   2.866   1.358
10040SOL    HW131019   6.760   2.923   1.346
10040SOL    HW231020   6.892   2.897   1.438
10041SOL     OW31021   1.931   6.169   0.093
10041SOL    HW131022   1.910   6.261   0.125
10041SOL    HW231023   1.880   6.102   0.147
10042SOL     OW31024   6.398   2.620   2.719
10042SOL    HW131025   6.339   2.606   2.798
10042SOL    HW231026   6.379   2.550   2.650
10043SOL     OW31027   0.010   1.635   5.874
10043SOL    HW131028   6.970   1.661   5.946
10043SOL    HW231029   0.103   1.648   5.907
10044SOL     OW31030   3.321   2.123   5.599
10044SOL    HW131031   3.421   2.118   5.609
10044SOL    HW231032   3.299   2.155   5.507
10045SOL     OW31033   3.841   0.994   0.648
10045SOL    HW131034   3.834   1.041   0.560
10045SOL    HW231035   3.750   0.976   0.684
10046SOL     OW31036   1.920   5.253   0.987
10046SOL    HW131037   1.948   5.160   1.012
10046SOL    HW231038   1.828   5.271   1.024
10047SOL     OW31039   0.788   3.364   0.698
10047SOL    HW131040   0.717   3.365   0.628
10047SOL    HW231041   0.831   3.455   0.704
10048SOL     OW31042   5.833   5.688   2.912
10048SOL    HW131043   5.863   5.631   2.835
10048SOL    HW231044   5.781   5.632   2.976
10049SOL     OW31045   0.074   0.706   5.697
10049SOL    HW131046   0.138   0.742   5.764
10049SOL    HW231047   0.093   0.747   5.608
10050SOL     OW31048   6.771   3.269   6.784
10050SOL    HW131049   6.695   3.295   6.724
10050SOL    HW231050   6.849   3.329   6.767
10051SOL     OW31051   2.051   3.441   3.701
10051SOL    HW131052   1.957   3.458   3.672
10051SOL    HW231053   2.104   3.526   3.692
10052SOL     OW31054   1.227   6.645   3.130
10052SOL    HW131055   1.323   6.662   3.107
10052SOL    HW231056   1.191   6.572   3.073
10053SOL     OW31057   5.741   5.468   4.902
10053SOL    HW131058   5.794   5.553   4.894
10053SOL    HW231059   5.643   5.490   4.901
10054SOL     OW31060   5.785   4.130   4.984
10054SOL    HW131061   5.841   4.090   4.912
10054SOL    HW231062   5.825   4.217   5.013
10055SOL     OW31063   0.522   2.036   6.483
10055SOL    HW131064   0.492   1.941   6.481
10055SOL    HW231065   0.543   2.066   6.391
10056SOL     OW31066   6.567   2.582   3.592
10056SOL    HW131067   6.602   2.524   3.666
10056SOL    HW231068   6.478   2.548   3.562
10057SOL     OW31069   6.459   4.750   5.308
10057SOL    HW131070   6.377   4.793   5.272
10057SOL    HW231071   6.533   4.756   5.240
10058SOL     OW31072   6.893   3.735   5.612
10058SOL    HW131073   6.882   3.744   5.513
10058SOL    HW231074   6.934   3.646   5.632
10059SOL     OW31075   6.248   0.784   7.008
10059SOL    HW131076   6.201   0.715   0.038
10059SOL    HW231077   6.180   0.845   6.966
10060SOL     OW31078   2.532   2.275   1.855
10060SOL    HW131079   2.507   2.300   1.948
10060SOL    HW231080   2.626   2.242   1.853
10061SOL     OW31081   3.628   0.210   3.151
10061SOL    HW131082   3.607   0.112   3.156
10061SOL    HW231083   3.725   0.222   3.130
10062SOL     OW31084   6.736   7.002   4.476
10062SOL    HW131085   6.818   6.998   4.417
10062SOL    HW231086   6.764   7.020   4.570
10063SOL     OW31087   2.061   2.465   5.472
10063SOL    HW131088   1.980   2.500   5.423
10063SOL    HW231089   2.116   2.543   5.503
10064SOL     OW31090   3.021   0.011   0.757
10064SOL    HW131091   2.948   6.976   0.726
10064SOL    HW231092   3.005   0.104   0.721
10065SOL     OW31093   0.839   1.540   1.898
10065SOL    HW131094   0.881   1.478   1.964
10065SOL    HW231095   0.902   1.614   1.876
10066SOL     OW31096   6.967   3.493   3.803
10066SOL    HW131097   6.899   3.561   3.778
10066SOL    HW231098   6.954   3.410   3.748
10067SOL     OW31099   0.031   3.051   5.842
10067SOL    HW131100   7.004   3.086   5.764
10067SOL    HW231101   6.994   3.009   5.908
10068SOL     OW31102   2.153   3.248   2.995
10068SOL    HW131103   2.182   3.228   2.902
10068SOL    HW231104   2.164   3.346   3.014
10069SOL     OW31105   2.863   5.120   0.612
10069SOL    HW131106   2.917   5.185   0.666
10069SOL    HW231107   2.812   5.060   0.675
10070SOL     OW31108   4.132   6.538   6.400
10070SOL    HW131109   4.163   6.615   6.456
10070SOL    HW231110   4.158   6.553   6.305
10071SOL     OW31111   6.069   6.939   4.022
10071SOL    HW131112   6.164   6.910   4.027
10071SOL    HW231113   6.041   6.947   3.927
10072SOL     OW31114   6.287   3.130   1.620
10072SOL    HW131115   6.190   3.153   1.616
10072SOL    HW231116   6.311   3.101   1.712
10073SOL     OW31117   6.710   4.781   4.583
10073SOL    HW131118   6.757   4.797   4.496
10073SOL    HW231119   6.632   4.720   4.567
10074SOL     OW31120   1.028   4.859   0.453
10074SOL    HW131121   0.959   4.844   0.382
10074SOL    HW231122   1.081   4.775   0.467
10075SOL     OW31123   1.586   3.507   1.777
10075SOL    HW131124   1.505   3.544   1.822
10075SOL    HW231125   1.658   3.490   1.845
10076SOL     OW31126   5.071   5.335   4.212
10076SOL    HW131127   5.126   5.320   4.295
10076SOL    HW231128   5.128   5.376   4.141
10077SOL     OW31129   4.914   3.459   7.005
10077SOL    HW131130   4.920   3.400   6.925
10077SOL    HW231131   4.989   3.438   0.043
10078SOL     OW31132   6.466   5.675   4.931
10078SOL    HW131133   6.380   5.637   4.966
10078SOL    HW231134   6.526   5.600   4.904
10079SOL     OW31135   4.852   3.112   4.057
10079SOL    HW131136   4.776   3.176   4.045
10079SOL    HW231137   4.836   3.058   4.140
10080SOL     OW31138   5.049   1.538   5.498
10080SOL    HW131139   4.988   1.473   5.544
10080SOL    HW231140   5.016   1.552   5.404
10081SOL     OW31141   1.382   4.123   0.577
10081SOL    HW131142   1.370   4.206   0.522
10081SOL    HW231143   1.354   4.044   0.523
10082SOL     OW31144   0.848   4.621   1.021
10082SOL    HW131145   0.945   4.605   1.004
10082SOL    HW231146   0.795   4.599   0.939
10083SOL     OW31147   3.260   5.009   2.788
10083SOL    HW131148   3.222   4.997   2.880
10083SOL    HW231149   3.209   5.082   2.741
10084SOL     OW31150   1.239   1.266   5.370
10084SOL    HW131151   1.203   1.319   5.293
10084SOL    HW231152   1.336   1.247   5.355
10085SOL     OW31153   5.341   0.264   0.597
10085SOL    HW131154   5.392   0.309   0.523
10085SOL    HW231155   5.406   0.226   0.663
10086SOL     OW31156   5.831   6.554   3.485
10086SOL    HW131157   5.838   6.570   3.386
10086SOL    HW231158   5.745   6.507   3.505
10087SOL     OW31159   1.004   6.382   5.630
10087SOL    HW131160   1.087   6.356   5.678
10087SOL    HW231161   0.994   6.325   5.548
10088SOL     OW31162   6.386   2.938   0.974
10088SOL    HW131163   6.480   2.909   0.993
10088SOL    HW231164   6.322   2.868   1.005
10089SOL     OW31165   3.596   1.430   1.733
10089SOL    HW131166   3.542   1.363   1.785
10089SOL    HW231167   3.685   1.443   1.778
10090SOL     OW31168   2.915   6.439   2.692
10090SOL    HW131169   2.952   6.505   2.758
10090SOL    HW231170   2.818   6.422   2.713
10091SOL     OW31171   6.631   4.390   5.663
10091SOL    HW131172   6.704   4.362   5.600
10091SOL    HW231173   6.582   4.308   5.695
10092SOL     OW31174   0.638   2.257   3.945
10092SOL    HW131175   0.626   2.314   4.026
10092SOL    HW231176   0.728   2.212   3.950
10093SOL     OW31177   4.904   4.700   6.537
10093SOL    HW131178   4.851   4.702   6.622
10093SOL    HW231179   4.903   4.791   6.495
10094SOL     OW31180   3.438   1.444   1.206
10094SOL    HW131181   3.436   1.460   1.304
10094SOL    HW231182   3.353   1.401   1.177
10095SOL     OW31183   4.410   2.760   5.600
10095SOL    HW131184   4.364   2.671   5.599
10095SOL    HW231185   4.441   2.783   5.508
10096SOL     OW31186   6.175   2.502   1.843
10096SOL    HW131187   6.175   2.515   1.942
10096SOL    HW231188   6.094   2.451   1.816
10097SOL     OW31189   0.413   1.111   0.142
10097SOL    HW131190   0.512   1.109   0.158
10097SOL    HW231191   0.366   1.071   0.221
10098SOL     OW31192   2.714   5.307   3.042
10098SOL    HW131193   2.766   5.254   3.110
10098SOL    HW231194   2.750   5.288   2.951
10099SOL     OW31195   0.285   5.071   2.105
10099SOL    HW131196   0.378   5.082   2.070
10099SOL    HW231197   0.238   4.999   2.053
10100SOL     OW31198   4.516   5.130   4.180
10100SOL    HW131199   4.468   5.044   4.167
10100SOL    HW231200   4.461   5.206   4.144
10101SOL     OW31201   0.069   3.157   1.184
10101SOL    HW131202   7.015   3.206   1.221
10101SOL    HW231203   0.052   3.132   1.089
10102SOL     OW31204   6.934   5.310   2.887
10102SOL    HW131205   7.001   5.236   2.884
10102SOL    HW231206   6.935   5.352   2.977
10103SOL     OW31207   6.997   5.866   6.397
10103SOL    HW131208   6.899   5.882   6.405
10103SOL    HW231209   0.008   5.833   6.485
10104SOL     OW31210   2.106   0.769   4.900
10104SOL    HW131211   2.094   0.868   4.906
10104SOL    HW231212   2.072   0.726   4.984
10105SOL     OW31213   3.330   0.992   4.891
10105SOL    HW131214   3.313   1.061   4.961
10105SOL    HW231215   3.246   0.939   4.875
10106SOL     OW31216   5.673   4.452   1.346
10106SOL    HW131217   5.704   4.358   1.338
10106SOL    HW231218   5.692   4.501   1.260
10107SOL     OW31219   5.400   4.966   0.150
10107SOL    HW131220   5.484   4.997   0.195
10107SOL    HW231221   5.421   4.934   0.058
10108SOL     OW31222   2.414   2.351   6.591
10108SOL    HW131223   2.488   2.293   6.560
10108SOL    HW231224   2.337   2.345   6.528
10109SOL     OW31225   0.848   2.478   1.270
10109SOL    HW131226   0.883   2.571   1.284
10109SOL    HW231227   0.855   2.453   1.174
10110SOL     OW31228   5.825   5.605   2.256
10110SOL    HW131229   5.783   5.693   2.278
10110SOL    HW231230   5.757   5.532   2.266
10111SOL     OW31231   0.860   2.273   1.444
10111SOL    HW131232   0.858   2.310   1.537
10111SOL    HW231233   0.896   2.342   1.382
10112SOL     OW31234   0.536   2.120   2.124
10112SOL    HW131235   0.560   2.215   2.107
10112SOL    HW231236   0.581   2.061   2.057
10113SOL     OW31237   0.047   0.703   6.324
10113SOL    HW131238   0.119   0.745   6.269
10113SOL    HW231239   7.024   0.634   6.270
10114SOL     OW31240   5.700   2.402   1.174
10114SOL    HW131241   5.799   2.390   1.169
10114SOL    HW231242   5.679   2.488   1.220
10115SOL     OW31243   3.392   2.916   6.059
10115SOL    HW131244   3.460   2.917   6.133
10115SOL    HW231245   3.390   2.825   6.017
10116SOL     OW31246   0.075   0.335   5.348
10116SOL    HW131247   0.044   0.421   5.306
10116SOL    HW231248   0.093   0.351   5.445
10117SOL     OW31249   6.207   5.091   3.775
10117SOL    HW131250   6.245   5.181   3.755
10117SOL    HW231251   6.108   5.098   3.790
10118SOL     OW31252   4.244   5.166   3.671
10118SOL    HW131253   4.272   5.075   3.640
10118SOL    HW231254   4.171   5.157   3.738
10119SOL     OW31255   6.641   6.150   5.810
10119SOL    HW131256   6.585   6.149   5.892
10119SOL    HW231257   6.718   6.213   5.823
10120SOL     OW31258   2.293   2.954   3.669
10120SOL    HW131259   2.276   3.038   3.721
10120SOL    HW231260   2.325   2.882   3.732
10121SOL     OW31261   6.450   5.114   0.704
10121SOL    HW131262   6.439   5.196   0.761
10121SOL    HW231263   6.541   5.115   0.662
10122SOL     OW31264   1.594   0.374   3.440
10122SOL    HW131265   1.532   0.354   3.364
10122SOL    HW231266   1.587   0.302   3.509
10123SOL     OW31267   6.839   4.909   6.634
10123SOL    HW131268   6.925   4.951   6.605
10123SOL    HW231269   6.859   4.826   6.686
10124SOL     OW31270   2.118   5.215   2.955
10124SOL    HW131271   2.209   5.195   2.991
10124SOL    HW231272   2.060   5.134   2.965
10125SOL     OW31273   1.727   0.581   4.880
10125SOL    HW131274   1.649   0.532   4.917
10125SOL    HW231275   1.807   0.521   4.880
10126SOL     OW31276   6.378   6.320   5.893
10126SOL    HW131277   6.424   6.387   5.951
10126SOL    HW231278   6.389   6.229   5.933
10127SOL     OW31279   2.996   6.859   5.463
10127SOL    HW131280   3.059   6.886   5.390
10127SOL    HW231281   3.020   6.907   5.547
10128SOL     OW31282   2.819   3.154   0.200
10128SOL    HW131283   2.781   3.162   0.292
10128SOL    HW231284   2.821   3.244   0.157
10129SOL     OW31285   6.243   1.510   4.548
10129SOL    HW131286   6.145   1.496   4.564
10129SOL    HW231287   6.256   1.549   4.457
10130SOL     OW31288   0.735   1.482   4.417
10130SOL    HW131289   0.716   1.488   4.319
10130SOL    HW231290   0.711   1.390   4.449
10131SOL     OW31291   2.184   6.709   4.292
10131SOL    HW131292   2.120   6.652   4.344
10131SOL    HW231293   2.156   6.711   4.196
10132SOL     OW31294   6.109   0.160   1.442
10132SOL    HW131295   6.076   0.229   1.377
10132SOL    HW231296   6.032   0.130   1.499
10133SOL     OW31297   5.159   6.526   0.699
10133SOL    HW131298   5.175   6.429   0.679
10133SOL    HW231299   5.236   6.581   0.667
10134SOL     OW31300   6.922   0.042   2.644
10134SOL    HW131301   6.915   6.973   2.677
10134SOL    HW231302   6.993   0.090   2.695
10135SOL     OW31303   6.170   0.946   3.245
10135SOL    HW131304   6.199   0.903   3.331
10135SOL    HW231305   6.113   1.025   3.266
10136SOL     OW31306   4.687   2.215   3.192
10136SOL    HW131307   4.732   2.146   3.249
10136SOL    HW231308   4.687   2.184   3.096
10137SOL     OW31309   6.617   5.017   5.126
10137SOL    HW131310   6.595   4.921   5.147
10137SOL    HW231311   6.576   5.041   5.038
10138SOL     OW31312   0.115   2.618   1.135
10138SOL    HW131313   0.063   2.630   1.220
10138SOL    HW231314   0.159   2.528   1.136
10139SOL     OW31315   2.904   2.788   6.869
10139SOL    HW131316   2.898   2.848   6.789
10139SOL    HW231317   2.812   2.760   6.896
10140SOL     OW31318   1.263   6.392   5.808
10140SOL    HW131319   1.343   6.418   5.754
10140SOL    HW231320   1.277   6.301   5.847
10141SOL     OW31321   1.913   2.355   4.316
10141SOL    HW131322   1.834   2.378   4.374
10141SOL    HW231323   1.997   2.379   4.364
10142SOL     OW31324   4.758   6.577   3.376
10142SOL    HW131325   4.661   6.577   3.401
10142SOL    HW231326   4.785   6.668   3.346
10143SOL     OW31327   5.297   2.957   6.420
10143SOL    HW131328   5.275   2.964   6.517
10143SOL    HW231329   5.275   3.043   6.374
10144SOL     OW31330   3.226   6.567   0.609
10144SOL    HW131331   3.211   6.470   0.586
10144SOL    HW231332   3.307   6.600   0.562
10145SOL     OW31333   5.438   0.128   6.199
10145SOL    HW131334   5.356   0.081   6.232
10145SOL    HW231335   5.413   0.193   6.128
10146SOL     OW31336   0.510   2.852   4.992
10146SOL    HW131337   0.473   2.919   4.928
10146SOL    HW231338   0.451   2.771   4.993
10147SOL     OW31339   4.209   5.899   5.297
10147SOL    HW131340   4.129   5.840   5.305
10147SOL    HW231341   4.276   5.856   5.237
10148SOL     OW31342   0.939   4.118   0.294
10148SOL    HW131343   1.038   4.117   0.298
10148SOL    HW231344   0.901   4.090   0.383
10149SOL     OW31345   4.048   3.586   0.931
10149SOL    HW131346   4.073   3.530   1.010
10149SOL    HW231347   4.129   3.601   0.875
10150SOL     OW31348   4.620   4.511   0.988
10150SOL    HW131349   4.569   4.555   1.062
10150SOL    HW231350   4.614   4.411   0.998
10151SOL     OW31351   6.204   0.475   6.066
10151SOL    HW131352   6.127   0.413   6.048
10151SOL    HW231353   6.173   0.550   6.124
10152SOL     OW31354   4.249   0.068   2.500
10152SOL    HW131355   4.166   0.036   2.546
10152SOL    HW231356   4.305   7.015   2.473
10153SOL     OW31357   4.843   4.582   2.308
10153SOL    HW131358   4.766   4.520   2.317
10153SOL    HW231359   4.838   4.630   2.220
10154SOL     OW31360   4.891   5.204   5.803
10154SOL    HW131361   4.793   5.199   5.782
10154SOL    HW231362   4.934   5.271   5.742
10155SOL     OW31363   4.420   1.662   4.439
10155SOL    HW131364   4.447   1.702   4.352
10155SOL    HW231365   4.397   1.565   4.426
10156SOL     OW31366   4.009   1.750   0.285
10156SOL    HW131367   3.936   1.765   0.218
10156SOL    HW231368   4.092   1.796   0.254
10157SOL     OW31369   0.540   4.269   1.833
10157SOL    HW131370   0.441   4.266   1.847
10157SOL    HW231371   0.562   4.236   1.741
10158SOL     OW31372   5.650   5.262   0.049
10158SOL    HW131373   5.584   5.265   6.999
10158SOL    HW231374   5.691   5.171   0.053
10159SOL     OW31375   3.342   3.174   2.105
10159SOL    HW131376   3.354   3.223   2.192
10159SOL    HW231377   3.245   3.164   2.086
10160SOL     OW31378   0.273   4.624   2.563
10160SOL    HW131379   0.298   4.701   2.622
10160SOL    HW231380   0.332   4.546   2.584
10161SOL     OW31381   5.436   3.246   5.011
10161SOL    HW131382   5.412   3.149   5.011
10161SOL    HW231383   5.357   3.300   4.982
10162SOL     OW31384   1.502   2.270   1.667
10162SOL    HW131385   1.536   2.178   1.686
10162SOL    HW231386   1.436   2.295   1.737
10163SOL     OW31387   2.876   5.347   4.856
10163SOL    HW131388   2.834   5.316   4.770
10163SOL    HW231389   2.803   5.375   4.919
10164SOL     OW31390   0.754   1.603   3.693
10164SOL    HW131391   0.655   1.608   3.709
10164SOL    HW231392   0.801   1.657   3.763
10165SOL     OW31393   0.647   3.534   4.207
10165SOL    HW131394   0.666   3.442   4.242
10165SOL    HW231395   0.730   3.571   4.164
10166SOL     OW31396   2.283   6.348   1.905
10166SOL    HW131397   2.337   6.270   1.874
10166SOL    HW231398   2.329   6.391   1.983
10167SOL     OW31399   2.113   1.747   6.802
10167SOL    HW131400   2.202   1.714   6.834
10167SOL    HW231401   2.061   1.781   6.880
10168SOL     OW31402   0.155   0.346   6.398
10168SOL    HW131403   0.080   0.299   6.443
10168SOL    HW231404   0.174   0.303   6.310
10169SOL     OW31405   5.049   4.506   4.112
10169SOL    HW131406   4.950   4.490   4.117
10169SOL    HW231407   5.067   4.587   4.056
10170SOL     OW31408   5.415   5.537   6.989
10170SOL    HW131409   5.333   5.581   7.025
10170SOL    HW231410   5.482   5.527   0.038
10171SOL     OW31411   1.976   4.748   5.144
10171SOL    HW131412   2.054   4.791   5.100
10171SOL    HW231413   1.891   4.789   5.110
10172SOL     OW31414   6.441   0.499   2.992
10172SOL    HW131415   6.417   0.568   3.060
10172SOL    HW231416   6.446   0.542   2.902
10173SOL     OW31417   3.508   3.516   4.530
10173SOL    HW131418   3.563   3.589   4.489
10173SOL    HW231419   3.449   3.476   4.459
10174SOL     OW31420   4.625   4.991   1.322
10174SOL    HW131421   4.568   5.014   1.400
10174SOL    HW231422   4.693   4.923   1.349
10175SOL     OW31423   0.230   0.292   4.292
10175SOL    HW131424   0.180   0.266   4.375
10175SOL    HW231425   0.291   0.369   4.312
10176SOL     OW31426   6.895   1.177   4.991
10176SOL    HW131427   6.944   1.261   4.968
10176SOL    HW231428   6.950   1.123   5.055
10177SOL     OW31429   2.851   1.165   3.637
10177SOL    HW131430   2.881   1.259   3.658
10177SOL    HW231431   2.807   1.125   3.717
10178SOL     OW31432   0.544   1.569   1.204
10178SOL    HW131433   0.586   1.627   1.135
10178SOL    HW231434   0.447   1.557   1.184
10179SOL     OW31435   1.436   4.355   0.395
10179SOL    HW131436   1.453   4.437   0.449
10179SOL    HW231437   1.438   4.377   0.298
10180SOL     OW31438   3.913   6.524   5.917
10180SOL    HW131439   3.944   6.439   5.874
10180SOL    HW231440   3.813   6.530   5.911
10181SOL     OW31441   5.844   3.195   3.007
10181SOL    HW131442   5.838   3.096   3.020
10181SOL    HW231443   5.774   3.224   2.942
10182SOL     OW31444   4.314   0.978   1.494
10182SOL    HW131445   4.293   1.076   1.496
10182SOL    HW231446   4.314   0.942   1.587
10183SOL     OW31447   5.654   0.933   5.293
10183SOL    HW131448   5.634   0.836   5.284
10183SOL    HW231449   5.611   0.969   5.375
10184SOL     OW31450   5.099   1.953   5.926
10184SOL    HW131451   5.189   1.915   5.904
10184SOL    HW231452   5.111   2.037   5.979
10185SOL     OW31453   3.536   5.524   1.205
10185SOL    HW131454   3.561   5.620   1.221
10185SOL    HW231455   3.438   5.518   1.186
10186SOL     OW31456   3.460   3.253   6.398
10186SOL    HW131457   3.399   3.182   6.434
10186SOL    HW231458   3.535   3.209   6.348
10187SOL     OW31459   2.234   4.599   5.509
10187SOL    HW131460   2.247   4.697   5.498
10187SOL    HW231461   2.309   4.562   5.564
10188SOL     OW31462   3.003   0.057   6.478
10188SOL    HW131463   3.017   0.105   6.564
10188SOL    HW231464   3.039   0.111   6.403
10189SOL     OW31465   1.798   1.949   5.499
10189SOL    HW131466   1.834   2.026   5.552
10189SOL    HW231467   1.870   1.916   5.436
10190SOL     OW31468   4.322   4.710   0.988
10190SOL    HW131469   4.370   4.797   0.977
10190SOL    HW231470   4.363   4.659   1.064
10191SOL     OW31471   5.283   6.914   6.839
10191SOL    HW131472   5.300   6.940   6.744
10191SOL    HW231473   5.185   6.902   6.853
10192SOL     OW31474   1.632   1.404   4.231
10192SOL    HW131475   1.585   1.317   4.244
10192SOL    HW231476   1.626   1.431   4.135
10193SOL     OW31477   3.692   3.288   3.872
10193SOL    HW131478   3.736   3.264   3.786
10193SOL    HW231479   3.703   3.386   3.889
10194SOL     OW31480   2.829   0.452   2.821
10194SOL    HW131481   2.896   0.515   2.783
10194SOL    HW231482   2.743   0.500   2.838
10195SOL     OW31483   5.030   6.801   3.035
10195SOL    HW131484   4.984   6.786   2.948
10195SOL    HW231485   4.974   6.765   3.109
10196SOL     OW31486   6.064   3.143   4.576
10196SOL    HW131487   5.980   3.194   4.594
10196SOL    HW231488   6.082   3.081   4.653
10197SOL     OW31489   5.626   1.191   2.419
10197SOL    HW131490   5.680   1.133   2.482
10197SOL    HW231491   5.673   1.279   2.408
10198SOL     OW31492   2.280   0.012   0.714
10198SOL    HW131493   2.367   0.051   0.685
10198SOL    HW231494   2.292   6.940   0.735
10199SOL     OW31495   1.096   1.604   0.532
10199SOL    HW131496   1.071   1.653   0.616
10199SOL    HW231497   1.175   1.546   0.550
10200SOL     OW31498   5.911   4.389   5.811
10200SOL    HW131499   5.856   4.338   5.877
10200SOL    HW231500   5.913   4.340   5.724
10201SOL     OW31501   1.660   5.069   2.869
10201SOL    HW131502   1.753   5.057   2.903
10201SOL    HW231503   1.652   5.024   2.779
10202SOL     OW31504   0.835   2.508   2.524
10202SOL    HW131505   0.919   2.495   2.575
10202SOL    HW231506   0.814   2.426   2.471
10203SOL     OW31507   0.863   3.349   2.081
10203SOL    HW131508   0.868   3.377   1.986
10203SOL    HW231509   0.788   3.284   2.093
10204SOL     OW31510   3.487   5.235   4.164
10204SOL    HW131511   3.562   5.170   4.149
10204SOL    HW231512   3.455   5.270   4.076
10205SOL     OW31513   4.506   1.167   2.854
10205SOL    HW131514   4.483   1.072   2.832
10205SOL    HW231515   4.580   1.198   2.794
10206SOL     OW31516   4.676   0.131   6.285
10206SOL    HW131517   4.740   0.177   6.224
10206SOL    HW231518   4.591   0.184   6.290
10207SOL     OW31519   4.214   1.093   3.135
10207SOL    HW131520   4.157   1.075   3.054
10207SOL    HW231521   4.269   1.013   3.156
10208SOL     OW31522   5.863   3.825   5.143
10208SOL    HW131523   5.786   3.882   5.118
10208SOL    HW231524   5.857   3.801   5.240
10209SOL     OW31525   5.371   0.145   6.924
10209SOL    HW131526   5.320   0.060   6.906
10209SOL    HW231527   5.438   0.159   6.851
10210SOL     OW31528   4.781   5.717   1.979
10210SOL    HW131529   4.756   5.649   1.909
10210SOL    HW231530   4.877   5.705   2.003
10211SOL     OW31531   3.544   6.047   4.883
10211SOL    HW131532   3.529   5.953   4.852
10211SOL    HW231533   3.562   6.047   4.982
10212SOL     OW31534   6.363   6.316   5.003
10212SOL    HW131535   6.397   6.405   4.973
10212SOL    HW231536   6.349   6.256   4.924
10213SOL     OW31537   5.550   0.823   3.544
10213SOL    HW131538   5.484   0.826   3.469
10213SOL    HW231539   5.620   0.754   3.524
10214SOL     OW31540   6.780   0.244   1.949
10214SOL    HW131541   6.741   0.151   1.952
10214SOL    HW231542   6.831   0.256   1.864
10215SOL     OW31543   3.558   2.456   0.283
10215SOL    HW131544   3.535   2.489   0.191
10215SOL    HW231545   3.605   2.529   0.334
10216SOL     OW31546   5.105   0.558   2.199
10216SOL    HW131547   5.069   0.489   2.136
10216SOL    HW231548   5.034   0.626   2.219
10217SOL     OW31549   2.955   1.573   5.473
10217SOL    HW131550   2.918   1.626   5.550
10217SOL    HW231551   2.966   1.632   5.394
10218SOL     OW31552   2.206   2.453   0.817
10218SOL    HW131553   2.271   2.385   0.784
10218SOL    HW231554   2.257   2.532   0.853
10219SOL     OW31555   1.086   3.871   0.562
10219SOL    HW131556   1.018   3.936   0.527
10219SOL    HW231557   1.081   3.868   0.662
10220SOL     OW31558   4.293   2.072   1.180
10220SOL    HW131559   4.312   1.997   1.116
10220SOL    HW231560   4.317   2.159   1.137
10221SOL     OW31561   3.281   0.697   5.137
10221SOL    HW131562   3.212   0.727   5.072
10221SOL    HW231563   3.372   0.703   5.094
10222SOL     OW31564   1.820   5.146   6.021
10222SOL    HW131565   1.883   5.083   5.976
10222SOL    HW231566   1.726   5.125   5.994
10223SOL     OW31567   6.566   4.509   0.256
10223SOL    HW131568   6.649   4.553   0.222
10223SOL    HW231569   6.496   4.512   0.185
10224SOL     OW31570   2.154   6.702   4.631
10224SOL    HW131571   2.090   6.773   4.600
10224SOL    HW231572   2.104   6.617   4.645
10225SOL     OW31573   5.543   6.047   4.493
10225SOL    HW131574   5.536   6.049   4.592
10225SOL    HW231575   5.635   6.017   4.466
10226SOL     OW31576   6.828   2.290   0.671
10226SOL    HW131577   6.807   2.339   0.587
10226SOL    HW231578   6.822   2.354   0.748
10227SOL     OW31579   5.646   5.972   6.429
10227SOL    HW131580   5.644   5.877   6.458
10227SOL    HW231581   5.706   5.981   6.349
10228SOL     OW31582   0.615   3.643   2.963
10228SOL    HW131583   0.632   3.741   2.959
10228SOL    HW231584   0.520   3.627   2.989
10229SOL     OW31585   2.028   0.707   2.017
10229SOL    HW131586   2.043   0.644   1.941
10229SOL    HW231587   2.108   0.766   2.028
10230SOL     OW31588   6.681   6.552   4.446
10230SOL    HW131589   6.586   6.581   4.451
10230SOL    HW231590   6.698   6.511   4.356
10231SOL     OW31591   4.554   6.595   4.410
10231SOL    HW131592   4.484   6.612   4.480
10231SOL    HW231593   4.522   6.525   4.346
10232SOL     OW31594   3.799   2.163   4.655
10232SOL    HW131595   3.734   2.099   4.694
10232SOL    HW231596   3.792   2.162   4.555
10233SOL     OW31597   4.530   1.143   5.551
10233SOL    HW131598   4.445   1.093   5.566
10233SOL    HW231599   4.607   1.080   5.548
10234SOL     OW31600   5.739   6.222   1.293
10234SOL    HW131601   5.666   6.270   1.244
10234SOL    HW231602   5.699   6.169   1.368
10235SOL     OW31603   5.233   1.773   6.298
10235SOL    HW131604   5.297   1.735   6.230
10235SOL    HW231605   5.139   1.763   6.265
10236SOL     OW31606   2.528   6.139   2.808
10236SOL    HW131607   2.549   6.047   2.773
10236SOL    HW231608   2.566   6.147   2.900
10237SOL     OW31609   0.240   2.621   3.418
10237SOL    HW131610   0.215   2.693   3.353
10237SOL    HW231611   0.292   2.550   3.370
10238SOL     OW31612   4.648   4.712   4.324
10238SOL    HW131613   4.744   4.683   4.321
10238SOL    HW231614   4.613   4.721   4.231
10239SOL     OW31615   0.080   4.183   3.805
10239SOL    HW131616   7.013   4.149   3.824
10239SOL    HW231617   0.115   4.231   3.885
10240SOL     OW31618   6.682   3.748   4.008
10240SOL    HW131619   6.605   3.714   3.953
10240SOL    HW231620   6.718   3.674   4.065
10241SOL     OW31621   2.070   1.151   3.193
10241SOL    HW131622   1.983   1.200   3.202
10241SOL    HW231623   2.057   1.055   3.219
10242SOL     OW31624   0.606   6.454   6.262
10242SOL    HW131625   0.646   6.518   6.197
10242SOL    HW231626   0.603   6.363   6.221
10243SOL     OW31627   0.840   5.635   2.344
10243SOL    HW131628   0.763   5.668   2.399
10243SOL    HW231629   0.926   5.663   2.387
10244SOL     OW31630   1.955   6.337   6.783
10244SOL    HW131631   1.976   6.251   6.736
10244SOL    HW231632   1.886   6.320   6.854
10245SOL     OW31633   2.024   2.375   6.776
10245SOL    HW131634   1.955   2.358   6.847
10245SOL    HW231635   2.107   2.411   6.819
10246SOL     OW31636   4.170   3.575   4.470
10246SOL    HW131637   4.224   3.635   4.529
10246SOL    HW231638   4.109   3.630   4.414
10247SOL     OW31639   1.201   5.687   5.475
10247SOL    HW131640   1.266   5.625   5.519
10247SOL    HW231641   1.158   5.642   5.397
10248SOL     OW31642   4.628   0.513   2.380
10248SOL    HW131643   4.726   0.501   2.400
10248SOL    HW231644   4.615   0.599   2.332
10249SOL     OW31645   3.662   1.270   0.195
10249SOL    HW131646   3.708   1.257   0.108
10249SOL    HW231647   3.641   1.367   0.208
10250SOL     OW31648   6.783   0.482   0.002
10250SOL    HW131649   6.809   0.399   0.051
10250SOL    HW231650   6.847   0.555   0.024
10251SOL     OW31651   3.733   4.676   6.820
10251SOL    HW131652   3.799   4.655   6.748
10251SOL    HW231653   3.701   4.770   6.810
10252SOL     OW31654   6.461   5.288   1.814
10252SOL    HW131655   6.387   5.295   1.748
10252SOL    HW231656   6.450   5.359   1.884
10253SOL     OW31657   3.210   4.888   6.558
10253SOL    HW131658   3.229   4.808   6.615
10253SOL    HW231659   3.248   4.874   6.467
10254SOL     OW31660   2.399   1.979   4.640
10254SOL    HW131661   2.469   2.026   4.693
10254SOL    HW231662   2.423   1.980   4.544
10255SOL     OW31663   2.986   5.756   3.237
10255SOL    HW131664   2.892   5.747   3.271
10255SOL    HW231665   3.048   5.706   3.297
10256SOL     OW31666   5.898   6.006   6.911
10256SOL    HW131667   5.953   5.922   6.910
10256SOL    HW231668   5.953   6.081   6.950
10257SOL     OW31669   1.699   6.580   6.230
10257SOL    HW131670   1.709   6.645   6.155
10257SOL    HW231671   1.645   6.502   6.200
10258SOL     OW31672   4.128   1.327   3.274
10258SOL    HW131673   4.157   1.239   3.237
10258SOL    HW231674   4.192   1.356   3.345
10259SOL     OW31675   0.673   3.390   3.108
10259SOL    HW131676   0.665   3.447   3.026
10259SOL    HW231677   0.765   3.402   3.147
10260SOL     OW31678   0.210   6.833   1.235
10260SOL    HW131679   0.197   6.805   1.330
10260SOL    HW231680   0.250   6.925   1.233
10261SOL     OW31681   2.008   6.711   1.341
10261SOL    HW131682   1.942   6.664   1.283
10261SOL    HW231683   1.962   6.743   1.424
10262SOL     OW31684   2.163   5.274   5.234
10262SOL    HW131685   2.211   5.248   5.151
10262SOL    HW231686   2.129   5.191   5.280
10263SOL     OW31687   5.897   1.977   6.119
10263SOL    HW131688   5.863   1.984   6.025
10263SOL    HW231689   5.824   1.999   6.183
10264SOL     OW31690   0.524   6.689   6.958
10264SOL    HW131691   0.610   6.664   7.003
10264SOL    HW231692   0.532   6.783   6.923
10265SOL     OW31693   4.474   1.885   2.648
10265SOL    HW131694   4.522   1.798   2.658
10265SOL    HW231695   4.514   1.937   2.573
10266SOL     OW31696   3.734   4.250   6.050
10266SOL    HW131697   3.727   4.166   6.103
10266SOL    HW231698   3.820   4.296   6.072
10267SOL     OW31699   6.071   1.965   6.367
10267SOL    HW131700   6.009   1.950   6.290
10267SOL    HW231701   6.163   1.980   6.333
10268SOL     OW31702   6.386   4.911   1.672
10268SOL    HW131703   6.376   4.960   1.586
10268SOL    HW231704   6.322   4.949   1.740
10269SOL     OW31705   2.692   2.832   6.099
10269SOL    HW131706   2.727   2.762   6.037
10269SOL    HW231707   2.755   2.910   6.099
10270SOL     OW31708   2.375   6.215   0.969
10270SOL    HW131709   2.345   6.208   0.874
10270SOL    HW231710   2.469   6.248   0.972
10271SOL     OW31711   4.037   5.283   1.051
10271SOL    HW131712   4.033   5.287   0.951
10271SOL    HW231713   4.079   5.367   1.085
10272SOL     OW31714   1.179   1.031   5.999
10272SOL    HW131715   1.195   0.971   6.078
10272SOL    HW231716   1.091   1.077   6.009
10273SOL     OW31717   4.317   5.807   4.860
10273SOL    HW131718   4.234   5.862   4.871
10273SOL    HW231719   4.298   5.731   4.798
10274SOL     OW31720   2.106   6.212   5.673
10274SOL    HW131721   2.041   6.219   5.749
10274SOL    HW231722   2.199   6.204   5.709
10275SOL     OW31723   0.963   6.226   2.009
10275SOL    HW131724   1.000   6.276   2.087
10275SOL    HW231725   1.000   6.263   1.924
10276SOL     OW31726   6.751   6.380   6.213
10276SOL    HW131727   6.728   6.451   6.279
10276SOL    HW231728   6.842   6.397   6.177
10277SOL     OW31729   1.856   5.601   3.478
10277SOL    HW131730   1.789   5.657   3.430
10277SOL    HW231731   1.879   5.521   3.423
10278SOL     OW31732   5.964   0.604   5.738
10278SOL    HW131733   5.983   0.650   5.825
10278SOL    HW231734   6.024   0.641   5.667
10279SOL     OW31735   3.565   6.527   3.501
10279SOL    HW131736   3.608   6.437   3.510
10279SOL    HW231737   3.521   6.533   3.411
10280SOL     OW31738   2.774   3.456   6.639
10280SOL    HW131739   2.815   3.529   6.583
10280SOL    HW231740   2.839   3.381   6.648
10281SOL     OW31741   4.206   6.797   3.634
10281SOL    HW131742   4.246   6.717   3.678
10281SOL    HW231743   4.218   6.877   3.693
10282SOL     OW31744   0.912   2.439   4.764
10282SOL    HW131745   0.993   2.498   4.769
10282SOL    HW231746   0.883   2.414   4.857
10283SOL     OW31747   0.904   3.392   6.133
10283SOL    HW131748   0.875   3.402   6.228
10283SOL    HW231749   0.851   3.320   6.089
10284SOL     OW31750   5.416   3.872   6.340
10284SOL    HW131751   5.370   3.807   6.401
10284SOL    HW231752   5.482   3.926   6.392
10285SOL     OW31753   5.925   0.152   0.934
10285SOL    HW131754   5.967   0.176   0.847
10285SOL    HW231755   5.826   0.145   0.922
10286SOL     OW31756   4.771   1.041   3.829
10286SOL    HW131757   4.745   1.033   3.925
10286SOL    HW231758   4.689   1.034   3.772
10287SOL     OW31759   2.609   5.911   1.872
10287SOL    HW131760   2.571   5.844   1.935
10287SOL    HW231761   2.679   5.867   1.815
10288SOL     OW31762   4.684   6.200   4.183
10288SOL    HW131763   4.635   6.116   4.159
10288SOL    HW231764   4.706   6.199   4.280
10289SOL     OW31765   3.032   1.301   1.651
10289SOL    HW131766   2.937   1.324   1.630
10289SOL    HW231767   3.093   1.373   1.619
10290SOL     OW31768   3.014   3.855   2.186
10290SOL    HW131769   2.975   3.763   2.188
10290SOL    HW231770   2.992   3.899   2.099
10291SOL     OW31771   3.616   0.161   6.254
10291SOL    HW131772   3.622   0.084   6.190
10291SOL    HW231773   3.525   0.164   6.295
10292SOL     OW31774   0.371   1.195   4.049
10292SOL    HW131775   0.280   1.199   4.090
10292SOL    HW231776   0.392   1.100   4.025
10293SOL     OW31777   2.658   5.896   3.052
10293SOL    HW131778   2.722   5.972   3.039
10293SOL    HW231779   2.584   5.925   3.113
10294SOL     OW31780   5.904   1.324   3.578
10294SOL    HW131781   5.951   1.398   3.529
10294SOL    HW231782   5.805   1.333   3.565
10295SOL     OW31783   1.006   5.097   5.483
10295SOL    HW131784   0.923   5.061   5.524
10295SOL    HW231785   1.065   5.022   5.454
10296SOL     OW31786   6.003   1.746   0.692
10296SOL    HW131787   5.982   1.777   0.784
10296SOL    HW231788   5.984   1.648   0.684
10297SOL     OW31789   1.916   5.211   4.104
10297SOL    HW131790   1.939   5.127   4.056
10297SOL    HW231791   1.955   5.289   4.055
10298SOL     OW31792   5.613   3.122   3.784
10298SOL    HW131793   5.635   3.037   3.831
10298SOL    HW231794   5.676   3.136   3.708
10299SOL     OW31795   4.651   4.927   2.319
10299SOL    HW131796   4.553   4.929   2.303
10299SOL    HW231797   4.683   5.018   2.347
10300SOL     OW31798   1.882   4.804   2.798
10300SOL    HW131799   1.962   4.743   2.792
10300SOL    HW231800   1.875   4.858   2.714
10301SOL     OW31801   5.663   1.625   1.598
10301SOL    HW131802   5.651   1.528   1.621
10301SOL    HW231803   5.712   1.633   1.512
10302SOL     OW31804   1.910   5.360   3.352
10302SOL    HW131805   2.006   5.380   3.332
10302SOL    HW231806   1.902   5.268   3.390
10303SOL     OW31807   3.380   2.858   0.713
10303SOL    HW131808   3.417   2.929   0.653
10303SOL    HW231809   3.297   2.893   0.757
10304SOL     OW31810   6.005   6.655   3.693
10304SOL    HW131811   6.096   6.618   3.679
10304SOL    HW231812   5.941   6.614   3.628
10305SOL     OW31813   2.020   5.980   1.163
10305SOL    HW131814   1.968   6.034   1.097
10305SOL    HW231815   1.987   6.000   1.255
10306SOL     OW31816   4.427   5.343   0.356
10306SOL    HW131817   4.414   5.254   0.312
10306SOL    HW231818   4.455   5.410   0.287
10307SOL     OW31819   2.612   1.189   5.337
10307SOL    HW131820   2.555   1.118   5.379
10307SOL    HW231821   2.560   1.274   5.332
10308SOL     OW31822   3.106   5.652   3.732
10308SOL    HW131823   3.071   5.740   3.766
10308SOL    HW231824   3.078   5.640   3.637
10309SOL     OW31825   0.590   6.262   3.390
10309SOL    HW131826   0.642   6.290   3.470
10309SOL    HW231827   0.525   6.191   3.415
10310SOL     OW31828   4.099   3.224   3.809
10310SOL    HW131829   4.118   3.188   3.900
10310SOL    HW231830   4.019   3.176   3.770
10311SOL     OW31831   6.871   6.231   0.434
10311SOL    HW131832   6.843   6.235   0.338
10311SOL    HW231833   6.971   6.234   0.439
10312SOL     OW31834   1.728   4.792   1.114
10312SOL    HW131835   1.795   4.829   1.050
10312SOL    HW231836   1.745   4.694   1.128
10313SOL     OW31837   5.521   5.983   3.065
10313SOL    HW131838   5.440   6.007   3.011
10313SOL    HW231839   5.520   6.035   3.151
10314SOL     OW31840   6.406   5.484   6.552
10314SOL    HW131841   6.461   5.567   6.550
10314SOL    HW231842   6.407   5.446   6.645
10315SOL     OW31843   6.291   5.866   4.538
10315SOL    HW131844   6.373   5.814   4.516
10315SOL    HW231845   6.285   5.879   4.637
10316SOL     OW31846   0.067   3.834   2.773
10316SOL    HW131847   0.063   3.849   2.872
10316SOL    HW231848   0.078   3.737   2.754
10317SOL     OW31849   3.477   4.941   1.101
10317SOL    HW131850   3.499   4.843   1.096
10317SOL    HW231851   3.383   4.956   1.069
10318SOL     OW31852   6.352   5.893   2.007
10318SOL    HW131853   6.437   5.855   2.045
10318SOL    HW231854   6.367   5.987   1.978
10319SOL     OW31855   5.173   6.612   4.642
10319SOL    HW131856   5.211   6.581   4.555
10319SOL    HW231857   5.178   6.539   4.709
10320SOL     OW31858   4.410   6.694   0.917
10320SOL    HW131859   4.441   6.707   1.011
10320SOL    HW231860   4.374   6.601   0.906
10321SOL     OW31861   4.083   6.494   4.432
10321SOL    HW131862   4.105   6.447   4.347
10321SOL    HW231863   4.013   6.442   4.482
10322SOL     OW31864   6.752   2.517   0.087
10322SOL    HW131865   6.655   2.491   0.094
10322SOL    HW231866   6.761   2.616   0.100
10323SOL     OW31867   5.914   2.301   4.991
10323SOL    HW131868   5.906   2.392   5.031
10323SOL    HW231869   5.826   2.273   4.953
10324SOL     OW31870   2.950   3.403   3.560
10324SOL    HW131871   3.030   3.463   3.560
10324SOL    HW231872   2.887   3.431   3.633
10325SOL     OW31873   0.996   3.877   3.443
10325SOL    HW131874   1.043   3.797   3.405
10325SOL    HW231875   0.914   3.847   3.492
10326SOL     OW31876   4.753   1.648   1.597
10326SOL    HW131877   4.819   1.583   1.558
10326SOL    HW231878   4.802   1.718   1.648
10327SOL     OW31879   0.406   0.834   3.704
10327SOL    HW131880   0.449   0.914   3.662
10327SOL    HW231881   0.364   0.777   3.632
10328SOL     OW31882   5.943   2.836   2.460
10328SOL    HW131883   5.919   2.933   2.457
10328SOL    HW231884   5.946   2.800   2.367
10329SOL     OW31885   4.088   6.181   2.106
10329SOL    HW131886   4.040   6.240   2.042
10329SOL    HW231887   4.025   6.113   2.142
10330SOL     OW31888   3.759   4.893   1.304
10330SOL    HW131889   3.784   4.898   1.400
10330SOL    HW231890   3.817   4.826   1.257
10331SOL     OW31891   5.564   0.605   4.621
10331SOL    HW131892   5.625   0.683   4.632
10331SOL    HW231893   5.495   0.606   4.694
10332SOL     OW31894   0.082   2.137   6.800
10332SOL    HW131895   0.165   2.090   6.770
10332SOL    HW231896   0.104   2.201   6.873
10333SOL     OW31897   4.746   4.102   4.735
10333SOL    HW131898   4.804   4.022   4.720
10333SOL    HW231899   4.653   4.072   4.757
10334SOL     OW31900   1.033   4.963   5.053
10334SOL    HW131901   1.026   5.062   5.038
10334SOL    HW231902   1.126   4.932   5.033
10335SOL     OW31903   1.762   5.422   1.888
10335SOL    HW131904   1.814   5.359   1.945
10335SOL    HW231905   1.688   5.463   1.942
10336SOL     OW31906   4.532   6.835   2.754
10336SOL    HW131907   4.599   6.896   2.797
10336SOL    HW231908   4.511   6.760   2.817
10337SOL     OW31909   0.771   5.161   4.928
10337SOL    HW131910   0.684   5.207   4.910
10337SOL    HW231911   0.826   5.218   4.990
10338SOL     OW31912   3.697   4.904   3.331
10338SOL    HW131913   3.726   4.822   3.281
10338SOL    HW231914   3.744   4.908   3.419
10339SOL     OW31915   3.116   5.559   0.804
10339SOL    HW131916   3.089   5.484   0.864
10339SOL    HW231917   3.209   5.587   0.825
10340SOL     OW31918   1.534   6.500   6.632
10340SOL    HW131919   1.582   6.520   6.547
10340SOL    HW231920   1.599   6.494   6.707
10341SOL     OW31921   1.506   1.127   2.453
10341SOL    HW131922   1.500   1.150   2.356
10341SOL    HW231923   1.536   1.207   2.505
10342SOL     OW31924   2.543   0.016   4.388
10342SOL    HW131925   2.538   0.078   4.466
10342SOL    HW231926   2.639   7.022   4.367
10343SOL     OW31927   2.116   2.586   4.219
10343SOL    HW131928   2.113   2.633   4.307
10343SOL    HW231929   2.211   2.574   4.191
10344SOL     OW31930   4.151   3.909   6.595
10344SOL    HW131931   4.068   3.858   6.615
10344SOL    HW231932   4.211   3.908   6.676
10345SOL     OW31933   1.340   1.668   5.967
10345SOL    HW131934   1.324   1.624   6.056
10345SOL    HW231935   1.331   1.767   5.976
10346SOL     OW31936   5.176   5.661   0.092
10346SOL    HW131937   5.108   5.696   0.028
10346SOL    HW231938   5.132   5.600   0.158
10347SOL     OW31939   5.220   2.088   1.853
10347SOL    HW131940   5.236   1.993   1.881
10347SOL    HW231941   5.123   2.111   1.866
10348SOL     OW31942   6.985   5.030   5.872
10348SOL    HW131943   6.893   4.992   5.858
10348SOL    HW231944   6.981   5.106   5.936
10349SOL     OW31945   6.986   1.395   0.494
10349SOL    HW131946   0.036   1.419   0.432
10349SOL    HW231947   7.023   1.341   0.570
10350SOL     OW31948   2.287   4.305   4.575
10350SOL    HW131949   2.328   4.369   4.511
10350SOL    HW231950   2.218   4.352   4.630
10351SOL     OW31951   4.548   4.538   4.852
10351SOL    HW131952   4.465   4.522   4.905
10351SOL    HW231953   4.534   4.508   4.758
10352SOL     OW31954   5.095   1.353   7.007
10352SOL    HW131955   5.072   1.450   7.003
10352SOL    HW231956   5.027   1.304   0.037
10353SOL     OW31957   6.602   3.244   3.536
10353SOL    HW131958   6.564   3.324   3.582
10353SOL    HW231959   6.615   3.263   3.439
10354SOL     OW31960   6.262   3.173   0.930
10354SOL    HW131961   6.281   3.075   0.925
10354SOL    HW231962   6.348   3.224   0.931
10355SOL     OW31963   0.304   1.548   1.083
10355SOL    HW131964   0.303   1.526   0.985
10355SOL    HW231965   0.210   1.555   1.116
10356SOL     OW31966   5.814   3.193   5.789
10356SOL    HW131967   5.863   3.149   5.864
10356SOL    HW231968   5.717   3.171   5.795
10357SOL     OW31969   0.657   1.109   5.871
10357SOL    HW131970   0.730   1.071   5.928
10357SOL    HW231971   0.576   1.125   5.927
10358SOL     OW31972   0.671   2.053   2.855
10358SOL    HW131973   0.672   2.039   2.756
10358SOL    HW231974   0.764   2.047   2.891
10359SOL     OW31975   5.941   2.361   1.773
10359SOL    HW131976   5.852   2.393   1.805
10359SOL    HW231977   5.978   2.294   1.837
10360SOL     OW31978   6.136   4.241   1.810
10360SOL    HW131979   6.038   4.258   1.817
10360SOL    HW231980   6.152   4.157   1.759
10361SOL     OW31981   0.034   1.234   2.655
10361SOL    HW131982   6.959   1.241   2.649
10361SOL    HW231983   0.068   1.305   2.717
10362SOL     OW31984   1.088   5.664   1.320
10362SOL    HW131985   1.022   5.740   1.322
10362SOL    HW231986   1.101   5.633   1.226
10363SOL     OW31987   5.315   4.365   6.672
10363SOL    HW131988   5.232   4.321   6.636
10363SOL    HW231989   5.312   4.463   6.651
10364SOL     OW31990   6.545   4.654   2.431
10364SOL    HW131991   6.551   4.567   2.480
10364SOL    HW231992   6.530   4.729   2.495
10365SOL     OW31993   5.400   5.465   0.402
10365SOL    HW131994   5.373   5.558   0.377
10365SOL    HW231995   5.384   5.403   0.326
10366SOL     OW31996   2.958   6.184   3.311
10366SOL    HW131997   2.960   6.223   3.403
10366SOL    HW231998   2.891   6.232   3.255
10367SOL     OW31999   5.947   6.669   1.910
10367SOL    HW132000   6.011   6.687   1.836
10367SOL    HW232001   5.897   6.753   1.932
10368SOL     OW32002   1.750   6.401   1.779
10368SOL    HW132003   1.771   6.364   1.870
10368SOL    HW232004   1.758   6.328   1.711
10369SOL     OW32005   3.081   6.842   5.946
10369SOL    HW132006   2.986   6.817   5.927
10369SOL    HW232007   3.138   6.760   5.942
10370SOL     OW32008   1.452   0.571   5.878
10370SOL    HW132009   1.407   0.495   5.926
10370SOL    HW232010   1.407   0.585   5.790
10371SOL     OW32011   4.701   4.897   3.194
10371SOL    HW132012   4.799   4.889   3.210
10371SOL    HW232013   4.670   4.988   3.223
10372SOL     OW32014   2.869   6.332   1.792
10372SOL    HW132015   2.861   6.238   1.759
10372SOL    HW232016   2.959   6.344   1.834
10373SOL     OW32017   0.204   1.328   6.148
10373SOL    HW132018   0.176   1.238   6.114
10373SOL    HW232019   0.122   1.384   6.163
10374SOL     OW32020   3.809   5.535   3.474
10374SOL    HW132021   3.732   5.589   3.507
10374SOL    HW232022   3.883   5.596   3.446
10375SOL     OW32023   2.572   4.661   0.207
10375SOL    HW132024   2.506   4.612   0.265
10375SOL    HW232025   2.614   4.734   0.260
10376SOL     OW32026   2.040   4.952   3.267
10376SOL    HW132027   2.098   4.877   3.235
10376SOL    HW232028   2.096   5.020   3.314
10377SOL     OW32029   1.868   0.736   2.232
10377SOL    HW132030   1.929   0.794   2.286
10377SOL    HW232031   1.889   0.747   2.135
10378SOL     OW32032   6.808   5.187   4.069
10378SOL    HW132033   6.709   5.188   4.085
10378SOL    HW232034   6.848   5.273   4.098
10379SOL     OW32035   2.177   6.404   4.395
10379SOL    HW132036   2.088   6.450   4.397
10379SOL    HW232037   2.167   6.314   4.353
10380SOL     OW32038   2.317   2.221   4.384
10380SOL    HW132039   2.260   2.253   4.309
10380SOL    HW232040   2.413   2.227   4.359
10381SOL     OW32041   4.324   6.016   2.206
10381SOL    HW132042   4.385   6.085   2.168
10381SOL    HW232043   4.237   6.017   2.156
10382SOL     OW32044   4.147   5.785   1.759
10382SOL    HW132045   4.136   5.884   1.750
10382SOL    HW232046   4.233   5.765   1.806
10383SOL     OW32047   1.557   4.624   0.355
10383SOL    HW132048   1.542   4.642   0.452
10383SOL    HW232049   1.591   4.707   0.311
10384SOL     OW32050   5.715   6.523   1.660
10384SOL    HW132051   5.617   6.526   1.642
10384SOL    HW232052   5.762   6.480   1.583
10385SOL     OW32053   4.823   4.725   6.785
10385SOL    HW132054   4.733   4.758   6.811
10385SOL    HW232055   4.884   4.727   6.865
10386SOL     OW32056   6.865   0.856   0.896
10386SOL    HW132057   6.785   0.795   0.896
10386SOL    HW232058   6.948   0.801   0.887
10387SOL     OW32059   5.062   3.420   2.055
10387SOL    HW132060   5.158   3.409   2.030
10387SOL    HW232061   5.026   3.333   2.089
10388SOL     OW32062   2.677   0.378   5.297
10388SOL    HW132063   2.641   0.361   5.389
10388SOL    HW232064   2.717   0.470   5.294
10389SOL     OW32065   0.545   3.761   0.564
10389SOL    HW132066   0.550   3.813   0.479
10389SOL    HW232067   0.458   3.781   0.610
10390SOL     OW32068   2.160   2.386   1.519
10390SOL    HW132069   2.130   2.467   1.570
10390SOL    HW232070   2.240   2.346   1.563
10391SOL     OW32071   5.542   0.034   4.269
10391SOL    HW132072   5.563   0.125   4.304
10391SOL    HW232073   5.627   7.007   4.257
10392SOL     OW32074   6.793   4.193   4.107
10392SOL    HW132075   6.760   4.219   4.016
10392SOL    HW232076   6.739   4.116   4.141
10393SOL     OW32077   1.471   3.661   3.543
10393SOL    HW132078   1.471   3.567   3.576
10393SOL    HW232079   1.436   3.722   3.614
10394SOL     OW32080   3.605   6.288   4.548
10394SOL    HW132081   3.697   6.258   4.575
10394SOL    HW232082   3.593   6.384   4.571
10395SOL     OW32083   0.746   0.624   0.891
10395SOL    HW132084   0.833   0.576   0.877
10395SOL    HW232085   0.708   0.598   0.980
10396SOL     OW32086   2.864   2.250   4.672
10396SOL    HW132087   2.931   2.324   4.669
10396SOL    HW232088   2.844   2.219   4.579
10397SOL     OW32089   3.374   2.108   2.809
10397SOL    HW132090   3.469   2.119   2.778
10397SOL    HW232091   3.373   2.092   2.907
10398SOL     OW32092   6.523   2.638   1.416
10398SOL    HW132093   6.573   2.725   1.424
10398SOL    HW232094   6.526   2.606   1.322
10399SOL     OW32095   6.254   3.548   1.956
10399SOL    HW132096   6.253   3.580   2.051
10399SOL    HW232097   6.161   3.531   1.925
10400SOL     OW32098   4.063   6.613   0.114
10400SOL    HW132099   4.159   6.614   0.086
10400SOL    HW232100   4.058   6.622   0.214
10401SOL     OW32101   0.336   1.045   5.487
10401SOL    HW132102   0.312   1.139   5.464
10401SOL    HW232103   0.253   0.992   5.503
10402SOL     OW32104   6.565   2.756   4.365
10402SOL    HW132105   6.486   2.814   4.386
10402SOL    HW232106   6.605   2.785   4.278
10403SOL     OW32107   2.631   0.621   2.896
10403SOL    HW132108   2.616   0.696   2.831
10403SOL    HW232109   2.550   0.610   2.953
10404SOL     OW32110   0.069   6.796   6.740
10404SOL    HW132111   0.152   6.788   6.684
10404SOL    HW232112   7.023   6.735   6.705
10405SOL     OW32113   0.108   0.970   5.894
10405SOL    HW132114   0.151   0.989   5.982
10405SOL    HW232115   0.094   1.055   5.844
10406SOL     OW32116   3.127   4.805   1.553
10406SOL    HW132117   3.209   4.829   1.605
10406SOL    HW232118   3.108   4.707   1.565
10407SOL     OW32119   3.248   0.030   0.363
10407SOL    HW132120   3.213   6.974   0.409
10407SOL    HW232121   3.346   0.038   0.377
10408SOL     OW32122   4.272   0.538   1.026
10408SOL    HW132123   4.236   0.467   0.965
10408SOL    HW232124   4.316   0.609   0.972
10409SOL     OW32125   5.853   5.031   1.077
10409SOL    HW132126   5.893   5.100   1.017
10409SOL    HW232127   5.812   4.959   1.021
10410SOL     OW32128   5.706   0.879   0.744
10410SOL    HW132129   5.706   0.963   0.689
10410SOL    HW232130   5.664   0.897   0.833
10411SOL     OW32131   2.824   5.140   3.244
10411SOL    HW132132   2.917   5.130   3.279
10411SOL    HW232133   2.793   5.052   3.208
10412SOL     OW32134   6.170   0.581   0.355
10412SOL    HW132135   6.247   0.524   0.327
10412SOL    HW232136   6.117   0.534   0.426
10413SOL     OW32137   5.646   2.381   0.728
10413SOL    HW132138   5.704   2.322   0.784
10413SOL    HW232139   5.620   2.331   0.645
10414SOL     OW32140   4.794   2.746   4.349
10414SOL    HW132141   4.713   2.689   4.363
10414SOL    HW232142   4.877   2.692   4.361
10415SOL     OW32143   0.980   6.272   6.167
10415SOL    HW132144   1.034   6.213   6.227
10415SOL    HW232145   0.885   6.241   6.165
10416SOL     OW32146   5.918   3.139   4.877
10416SOL    HW132147   5.893   3.235   4.863
10416SOL    HW232148   5.900   3.113   4.972
10417SOL     OW32149   2.444   4.832   4.031
10417SOL    HW132150   2.532   4.862   4.067
10417SOL    HW232151   2.383   4.809   4.107
10418SOL     OW32152   0.888   4.449   5.372
10418SOL    HW132153   0.956   4.389   5.414
10418SOL    HW232154   0.927   4.540   5.360
10419SOL     OW32155   1.204   1.321   0.814
10419SOL    HW132156   1.123   1.333   0.870
10419SOL    HW232157   1.285   1.312   0.872
10420SOL     OW32158   6.887   2.956   3.050
10420SOL    HW132159   6.948   2.877   3.041
10420SOL    HW232160   6.921   3.031   2.994
10421SOL     OW32161   0.962   0.724   3.333
10421SOL    HW132162   0.889   0.768   3.386
10421SOL    HW232163   0.922   0.667   3.262
10422SOL     OW32164   6.371   2.569   5.919
10422SOL    HW132165   6.318   2.643   5.878
10422SOL    HW232166   6.465   2.599   5.932
10423SOL     OW32167   4.503   4.520   3.856
10423SOL    HW132168   4.419   4.467   3.841
10423SOL    HW232169   4.543   4.545   3.768
10424SOL     OW32170   5.118   1.714   6.767
10424SOL    HW132171   5.101   1.669   6.855
10424SOL    HW232172   5.095   1.811   6.775
10425SOL     OW32173   1.315   5.797   2.445
10425SOL    HW132174   1.402   5.771   2.486
10425SOL    HW232175   1.268   5.863   2.503
10426SOL     OW32176   6.388   4.550   0.051
10426SOL    HW132177   6.425   4.637   0.018
10426SOL    HW232178   6.305   4.528   0.001
10427SOL     OW32179   5.230   2.157   0.341
10427SOL    HW132180   5.270   2.138   0.251
10427SOL    HW232181   5.251   2.251   0.367
10428SOL     OW32182   4.350   0.680   4.142
10428SOL    HW132183   4.381   0.757   4.087
10428SOL    HW232184   4.329   0.602   4.083
10429SOL     OW32185   6.987   5.891   1.539
10429SOL    HW132186   6.995   5.982   1.579
10429SOL    HW232187   0.043   5.837   1.564
10430SOL     OW32188   4.214   6.728   2.679
10430SOL    HW132189   4.202   6.646   2.736
10430SOL    HW232190   4.240   6.700   2.586
10431SOL     OW32191   2.592   0.511   4.532
10431SOL    HW132192   2.680   0.534   4.490
10431SOL    HW232193   2.605   0.491   4.629
10432SOL     OW32194   5.993   0.792   4.541
10432SOL    HW132195   5.893   0.788   4.530
10432SOL    HW232196   6.025   0.707   4.582
10433SOL     OW32197   1.646   6.891   1.415
10433SOL    HW132198   1.616   6.822   1.349
10433SOL    HW232199   1.590   6.973   1.405
10434SOL     OW32200   2.823   0.415   3.845
10434SOL    HW132201   2.785   0.414   3.938
10434SOL    HW232202   2.868   0.328   3.826
10435SOL     OW32203   5.690   6.579   6.095
10435SOL    HW132204   5.654   6.592   6.002
10435SOL    HW232205   5.733   6.663   6.126
10436SOL     OW32206   1.530   4.823   4.204
10436SOL    HW132207   1.530   4.888   4.128
10436SOL    HW232208   1.608   4.760   4.194
10437SOL     OW32209   6.602   5.195   5.674
10437SOL    HW132210   6.540   5.132   5.627
10437SOL    HW232211   6.624   5.159   5.764
10438SOL     OW32212   4.694   6.782   0.283
10438SOL    HW132213   4.654   6.871   0.260
10438SOL    HW232214   4.777   6.768   0.229
10439SOL     OW32215   3.426   6.967   6.093
10439SOL    HW132216   3.494   7.021   6.045
10439SOL    HW232217   3.334   7.003   6.073
10440SOL     OW32218   1.627   6.468   1.352
10440SOL    HW132219   1.723   6.444   1.360
10440SOL    HW232220   1.617   6.567   1.357
10441SOL     OW32221   5.266   2.400   6.544
10441SOL    HW132222   5.221   2.338   6.479
10441SOL    HW232223   5.340   2.351   6.590
10442SOL     OW32224   3.934   4.837   5.704
10442SOL    HW132225   3.949   4.795   5.794
10442SOL    HW232226   3.857   4.900   5.709
10443SOL     OW32227   5.802   3.567   5.031
10443SOL    HW132228   5.888   3.517   5.034
10443SOL    HW232229   5.812   3.655   5.077
10444SOL     OW32230   3.763   5.312   5.158
10444SOL    HW132231   3.729   5.327   5.251
10444SOL    HW232232   3.806   5.396   5.125
10445SOL     OW32233   6.804   6.290   4.797
10445SOL    HW132234   6.809   6.304   4.896
10445SOL    HW232235   6.723   6.236   4.775
10446SOL     OW32236   1.156   5.063   5.857
10446SOL    HW132237   1.221   5.033   5.927
10446SOL    HW232238   1.153   4.996   5.783
10447SOL     OW32239   6.075   2.249   0.869
10447SOL    HW132240   5.980   2.224   0.886
10447SOL    HW232241   6.102   2.223   0.777
10448SOL     OW32242   3.739   3.759   1.878
10448SOL    HW132243   3.689   3.710   1.807
10448SOL    HW232244   3.828   3.716   1.894
10449SOL     OW32245   2.793   5.307   4.125
10449SOL    HW132246   2.769   5.251   4.046
10449SOL    HW232247   2.828   5.249   4.198
10450SOL     OW32248   6.529   1.697   0.537
10450SOL    HW132249   6.555   1.793   0.527
10450SOL    HW232250   6.605   1.648   0.581
10451SOL     OW32251   2.578   4.680   3.225
10451SOL    HW132252   2.570   4.642   3.317
10451SOL    HW232253   2.540   4.614   3.159
10452SOL     OW32254   0.858   2.920   3.534
10452SOL    HW132255   0.925   2.848   3.552
10452SOL    HW232256   0.886   3.004   3.581
10453SOL     OW32257   4.950   6.001   1.651
10453SOL    HW132258   4.987   5.964   1.736
10453SOL    HW232259   4.917   5.926   1.594
10454SOL     OW32260   5.245   3.046   1.979
10454SOL    HW132261   5.217   3.085   1.891
10454SOL    HW232262   5.299   2.963   1.964
10455SOL     OW32263   6.992   4.949   3.658
10455SOL    HW132264   0.055   4.943   3.706
10455SOL    HW232265   6.920   4.970   3.723
10456SOL     OW32266   4.587   6.353   1.290
10456SOL    HW132267   4.579   6.283   1.218
10456SOL    HW232268   4.648   6.320   1.362
10457SOL     OW32269   3.997   3.723   3.411
10457SOL    HW132270   4.038   3.640   3.373
10457SOL    HW232271   3.998   3.719   3.510
10458SOL     OW32272   1.054   6.789   0.993
10458SOL    HW132273   1.012   6.753   1.076
10458SOL    HW232274   0.983   6.827   0.934
10459SOL     OW32275   6.410   5.205   2.818
10459SOL    HW132276   6.460   5.225   2.902
10459SOL    HW232277   6.394   5.290   2.768
10460SOL     OW32278   2.221   5.162   2.008
10460SOL    HW132279   2.297   5.215   1.970
10460SOL    HW232280   2.239   5.142   2.104
10461SOL     OW32281   2.886   0.903   6.749
10461SOL    HW132282   2.971   0.923   6.700
10461SOL    HW232283   2.815   0.879   6.684
10462SOL     OW32284   6.262   0.686   0.714
10462SOL    HW132285   6.178   0.645   0.749
10462SOL    HW232286   6.335   0.675   0.781
10463SOL     OW32287   2.917   5.030   0.358
10463SOL    HW132288   2.917   5.068   0.450
10463SOL    HW232289   2.926   5.105   0.291
10464SOL     OW32290   5.796   0.541   0.950
10464SOL    HW132291   5.780   0.515   0.855
10464SOL    HW232292   5.742   0.482   1.010
10465SOL     OW32293   6.614   5.097   5.923
10465SOL    HW132294   6.668   5.013   5.924
10465SOL    HW232295   6.587   5.119   6.017
10466SOL     OW32296   4.891   6.073   6.039
10466SOL    HW132297   4.877   6.047   6.135
10466SOL    HW232298   4.963   6.142   6.034
10467SOL     OW32299   2.879   1.212   5.376
10467SOL    HW132300   2.789   1.174   5.356
10467SOL    HW232301   2.898   1.288   5.314
10468SOL     OW32302   3.342   6.678   3.688
10468SOL    HW132303   3.325   6.614   3.763
10468SOL    HW232304   3.423   6.649   3.638
10469SOL     OW32305   1.569   4.973   0.580
10469SOL    HW132306   1.663   4.940   0.582
10469SOL    HW232307   1.506   4.897   0.598
10470SOL     OW32308   2.640   1.607   4.216
10470SOL    HW132309   2.543   1.609   4.242
10470SOL    HW232310   2.682   1.524   4.252
10471SOL     OW32311   3.051   3.481   0.949
10471SOL    HW132312   3.068   3.435   0.862
10471SOL    HW232313   2.967   3.444   0.990
10472SOL     OW32314   4.081   1.198   2.010
10472SOL    HW132315   4.165   1.158   1.975
10472SOL    HW232316   4.006   1.178   1.947
10473SOL     OW32317   4.989   6.255   0.326
10473SOL    HW132318   4.900   6.228   0.290
10473SOL    HW232319   4.977   6.318   0.403
10474SOL     OW32320   4.093   0.861   4.635
10474SOL    HW132321   4.137   0.949   4.618
10474SOL    HW232322   4.121   0.796   4.565
10475SOL     OW32323   4.100   0.103   1.739
10475SOL    HW132324   4.185   0.108   1.687
10475SOL    HW232325   4.111   0.154   1.825
10476SOL     OW32326   0.037   5.370   0.188
10476SOL    HW132327   0.091   5.441   0.233
10476SOL    HW232328   0.072   5.280   0.215
10477SOL     OW32329   5.185   4.099   5.366
10477SOL    HW132330   5.255   4.082   5.297
10477SOL    HW232331   5.103   4.046   5.344
10478SOL     OW32332   0.275   6.345   1.475
10478SOL    HW132333   0.215   6.321   1.398
10478SOL    HW232334   0.333   6.422   1.450
10479SOL     OW32335   1.331   3.775   3.078
10479SOL    HW132336   1.424   3.776   3.041
10479SOL    HW232337   1.328   3.715   3.158
10480SOL     OW32338   5.594   0.117   2.520
10480SOL    HW132339   5.535   0.196   2.536
10480SOL    HW232340   5.689   0.147   2.514
10481SOL     OW32341   2.079   0.650   5.143
10481SOL    HW132342   2.086   0.723   5.212
10481SOL    HW232343   2.019   0.578   5.178
10482SOL     OW32344   1.937   5.649   5.688
10482SOL    HW132345   1.853   5.607   5.656
10482SOL    HW232346   1.921   5.691   5.777
10483SOL     OW32347   0.120   5.023   7.014
10483SOL    HW132348   0.027   4.985   7.017
10483SOL    HW232349   0.148   5.048   0.082
10484SOL     OW32350   6.351   1.074   1.484
10484SOL    HW132351   6.351   0.988   1.432
10484SOL    HW232352   6.319   1.148   1.425
10485SOL     OW32353   3.613   4.038   2.980
10485SOL    HW132354   3.513   4.051   2.982
10485SOL    HW232355   3.635   3.951   2.935
10486SOL     OW32356   6.112   6.361   5.779
10486SOL    HW132357   6.212   6.369   5.782
10486SOL    HW232358   6.086   6.265   5.764
10487SOL     OW32359   4.692   2.533   2.122
10487SOL    HW132360   4.788   2.514   2.139
10487SOL    HW232361   4.683   2.622   2.075
10488SOL     OW32362   6.341   2.338   6.055
10488SOL    HW132363   6.327   2.322   6.153
10488SOL    HW232364   6.353   2.436   6.039
10489SOL     OW32365   6.170   4.331   4.794
10489SOL    HW132366   6.175   4.398   4.721
10489SOL    HW232367   6.178   4.377   4.883
10490SOL     OW32368   5.700   6.450   6.504
10490SOL    HW132369   5.792   6.470   6.536
10490SOL    HW232370   5.659   6.380   6.563
10491SOL     OW32371   2.069   2.539   6.116
10491SOL    HW132372   2.029   2.561   6.027
10491SOL    HW232373   2.129   2.459   6.107
10492SOL     OW32374   3.990   0.824   0.467
10492SOL    HW132375   3.985   0.725   0.465
10492SOL    HW232376   3.923   0.860   0.531
10493SOL     OW32377   4.719   6.112   0.625
10493SOL    HW132378   4.806   6.063   0.625
10493SOL    HW232379   4.733   6.205   0.589
10494SOL     OW32380   0.956   4.723   5.365
10494SOL    HW132381   0.960   4.708   5.464
10494SOL    HW232382   0.863   4.750   5.340
10495SOL     OW32383   0.326   6.405   0.586
10495SOL    HW132384   0.316   6.376   0.681
10495SOL    HW232385   0.253   6.364   0.531
10496SOL     OW32386   0.135   3.717   5.087
10496SOL    HW132387   0.224   3.689   5.051
10496SOL    HW232388   0.125   3.686   5.181
10497SOL     OW32389   2.202   0.054   1.449
10497SOL    HW132390   2.266   7.020   1.496
10497SOL    HW232391   2.249   0.102   1.374
10498SOL     OW32392   4.217   4.953   0.197
10498SOL    HW132393   4.232   4.855   0.188
10498SOL    HW232394   4.171   4.973   0.283
10499SOL     OW32395   6.073   5.089   2.467
10499SOL    HW132396   6.126   5.066   2.549
10499SOL    HW232397   5.988   5.135   2.495
10500SOL     OW32398   6.703   3.432   5.257
10500SOL    HW132399   6.643   3.453   5.181
10500SOL    HW232400   6.745   3.342   5.243
10501SOL     OW32401   3.033   4.967   2.568
10501SOL    HW132402   3.014   5.050   2.622
10501SOL    HW232403   2.991   4.888   2.613
10502SOL     OW32404   3.371   3.690   2.298
10502SOL    HW132405   3.326   3.779   2.292
10502SOL    HW232406   3.419   3.671   2.213
10503SOL     OW32407   6.602   2.392   6.350
10503SOL    HW132408   6.627   2.383   6.254
10503SOL    HW232409   6.509   2.357   6.363
10504SOL     OW32410   1.190   2.584   5.902
10504SOL    HW132411   1.234   2.506   5.947
10504SOL    HW232412   1.112   2.615   5.957
10505SOL     OW32413   5.815   6.534   0.823
10505SOL    HW132414   5.845   6.585   0.742
10505SOL    HW232415   5.820   6.594   0.903
10506SOL     OW32416   1.167   2.625   0.493
10506SOL    HW132417   1.130   2.596   0.581
10506SOL    HW232418   1.121   2.710   0.464
10507SOL     OW32419   1.084   5.273   6.447
10507SOL    HW132420   1.155   5.253   6.380
10507SOL    HW232421   1.028   5.191   6.462
10508SOL     OW32422   1.719   4.830   5.063
10508SOL    HW132423   1.684   4.814   5.156
10508SOL    HW232424   1.664   4.779   4.998
10509SOL     OW32425   4.747   2.744   3.795
10509SOL    HW132426   4.731   2.710   3.887
10509SOL    HW232427   4.823   2.809   3.796
10510SOL     OW32428   5.554   5.629   3.493
10510SOL    HW132429   5.585   5.657   3.584
10510SOL    HW232430   5.634   5.620   3.433
10511SOL     OW32431   4.480   2.390   1.986
10511SOL    HW132432   4.553   2.436   2.036
10511SOL    HW232433   4.411   2.356   2.051
10512SOL     OW32434   4.406   1.431   4.674
10512SOL    HW132435   4.410   1.447   4.772
10512SOL    HW232436   4.335   1.488   4.633
10513SOL     OW32437   4.952   3.682   0.909
10513SOL    HW132438   4.886   3.644   0.844
10513SOL    HW232439   5.044   3.673   0.872
10514SOL     OW32440   0.663   3.195   1.665
10514SOL    HW132441   0.564   3.180   1.664
10514SOL    HW232442   0.682   3.292   1.651
10515SOL     OW32443   2.289   2.734   4.943
10515SOL    HW132444   2.233   2.683   5.009
10515SOL    HW232445   2.314   2.822   4.982
10516SOL     OW32446   3.969   2.239   1.440
10516SOL    HW132447   3.964   2.142   1.418
10516SOL    HW232448   3.941   2.253   1.535
10517SOL     OW32449   1.318   2.389   3.177
10517SOL    HW132450   1.413   2.420   3.185
10517SOL    HW232451   1.310   2.324   3.102
10518SOL     OW32452   0.701   4.851   2.976
10518SOL    HW132453   0.676   4.929   3.033
10518SOL    HW232454   0.627   4.829   2.914
10519SOL     OW32455   3.720   6.795   1.300
10519SOL    HW132456   3.709   6.854   1.380
10519SOL    HW232457   3.752   6.705   1.330
10520SOL     OW32458   7.022   2.171   5.325
10520SOL    HW132459   0.082   2.164   5.378
10520SOL    HW232460   0.019   2.172   5.228
10521SOL     OW32461   6.726   3.173   1.931
10521SOL    HW132462   6.649   3.205   1.875
10521SOL    HW232463   6.705   3.188   2.027
10522SOL     OW32464   5.096   2.851   3.403
10522SOL    HW132465   5.186   2.886   3.426
10522SOL    HW232466   5.078   2.768   3.456
10523SOL     OW32467   0.228   4.583   3.152
10523SOL    HW132468   0.179   4.624   3.229
10523SOL    HW232469   0.272   4.498   3.181
10524SOL     OW32470   0.237   6.464   5.043
10524SOL    HW132471   0.311   6.409   5.080
10524SOL    HW232472   0.232   6.452   4.943
10525SOL     OW32473   4.950   1.637   4.126
10525SOL    HW132474   4.883   1.685   4.068
10525SOL    HW232475   5.024   1.602   4.069
10526SOL     OW32476   1.515   5.253   0.510
10526SOL    HW132477   1.526   5.157   0.536
10526SOL    HW232478   1.570   5.271   0.428
10527SOL     OW32479   0.953   6.928   4.411
10527SOL    HW132480   0.896   6.897   4.487
10527SOL    HW232481   0.895   6.942   4.330
10528SOL     OW32482   1.640   4.002   5.389
10528SOL    HW132483   1.573   3.950   5.336
10528SOL    HW232484   1.729   3.957   5.383
10529SOL     OW32485   0.897   6.091   1.109
10529SOL    HW132486   0.815   6.141   1.081
10529SOL    HW232487   0.911   6.102   1.207
10530SOL     OW32488   0.400   5.440   0.955
10530SOL    HW132489   0.460   5.521   0.953
10530SOL    HW232490   0.397   5.399   0.865
10531SOL     OW32491   2.958   3.301   5.224
10531SOL    HW132492   3.004   3.263   5.304
10531SOL    HW232493   2.863   3.268   5.222
10532SOL     OW32494   5.510   6.380   6.752
10532SOL    HW132495   5.593   6.428   6.782
10532SOL    HW232496   5.535   6.289   6.719
10533SOL     OW32497   3.798   6.409   3.133
10533SOL    HW132498   3.768   6.504   3.130
10533SOL    HW232499   3.877   6.396   3.073
10534SOL     OW32500   1.549   6.011   3.919
10534SOL    HW132501   1.597   6.057   3.845
10534SOL    HW232502   1.568   5.913   3.915
10535SOL     OW32503   3.340   1.933   2.569
10535SOL    HW132504   3.265   1.899   2.625
10535SOL    HW232505   3.304   1.993   2.497
10536SOL     OW32506   5.860   1.621   4.223
10536SOL    HW132507   5.898   1.624   4.316
10536SOL    HW232508   5.829   1.528   4.203
10537SOL     OW32509   3.981   0.085   3.974
10537SOL    HW132510   3.994   0.129   4.063
10537SOL    HW232511   3.953   0.153   3.907
10538SOL     OW32512   6.478   3.531   2.702
10538SOL    HW132513   6.546   3.460   2.722
10538SOL    HW232514   6.423   3.549   2.783
10539SOL     OW32515   6.704   0.094   2.937
10539SOL    HW132516   6.643   0.045   2.874
10539SOL    HW232517   6.715   0.188   2.906
10540SOL     OW32518   1.674   3.530   5.727
10540SOL    HW132519   1.698   3.561   5.820
10540SOL    HW232520   1.739   3.569   5.662
10541SOL     OW32521   3.470   3.055   5.249
10541SOL    HW132522   3.471   3.150   5.217
10541SOL    HW232523   3.413   3.048   5.332
10542SOL     OW32524   4.992   6.979   4.640
10542SOL    HW132525   4.958   6.890   4.668
10542SOL    HW232526   4.915   0.011   4.609
10543SOL     OW32527   0.750   3.593   5.051
10543SOL    HW132528   0.796   3.599   5.140
10543SOL    HW232529   0.757   3.499   5.016
10544SOL     OW32530   1.946   1.372   2.902
10544SOL    HW132531   1.895   1.448   2.862
10544SOL    HW232532   2.022   1.408   2.957
10545SOL     OW32533   1.956   2.703   2.545
10545SOL    HW132534   2.052   2.684   2.566
10545SOL    HW232535   1.915   2.623   2.499
10546SOL     OW32536   2.939   6.634   7.002
10546SOL    HW132537   2.997   6.714   6.986
10546SOL    HW232538   2.916   6.629   0.075
10547SOL     OW32539   4.447   0.429   4.301
10547SOL    HW132540   4.481   0.335   4.293
10547SOL    HW232541   4.350   0.432   4.278
10548SOL     OW32542   0.307   5.226   3.757
10548SOL    HW132543   0.407   5.223   3.766
10548SOL    HW232544   0.270   5.134   3.773
10549SOL     OW32545   6.444   0.683   0.954
10549SOL    HW132546   6.418   0.624   1.031
10549SOL    HW232547   6.464   0.774   0.988
10550SOL     OW32548   5.031   5.695   3.675
10550SOL    HW132549   5.055   5.786   3.641
10550SOL    HW232550   5.083   5.626   3.625
10551SOL     OW32551   2.683   2.184   5.945
10551SOL    HW132552   2.753   2.223   5.885
10551SOL    HW232553   2.690   2.084   5.944
10552SOL     OW32554   2.625   1.305   4.496
10552SOL    HW132555   2.599   1.209   4.506
10552SOL    HW232556   2.648   1.342   4.586
10553SOL     OW32557   0.083   4.961   0.488
10553SOL    HW132558   0.179   4.978   0.511
10553SOL    HW232559   0.029   4.965   0.572
10554SOL     OW32560   6.281   5.933   1.637
10554SOL    HW132561   6.348   6.002   1.610
10554SOL    HW232562   6.272   5.865   1.564
10555SOL     OW32563   4.026   2.890   0.827
10555SOL    HW132564   3.982   2.958   0.886
10555SOL    HW232565   3.972   2.880   0.743
10556SOL     OW32566   2.444   1.885   2.708
10556SOL    HW132567   2.405   1.929   2.789
10556SOL    HW232568   2.418   1.936   2.626
10557SOL     OW32569   2.290   4.318   3.793
10557SOL    HW132570   2.304   4.314   3.892
10557SOL    HW232571   2.285   4.413   3.763
10558SOL     OW32572   3.328   5.291   4.536
10558SOL    HW132573   3.238   5.249   4.544
10558SOL    HW232574   3.326   5.360   4.464
10559SOL     OW32575   4.292   6.766   0.503
10559SOL    HW132576   4.388   6.771   0.530
10559SOL    HW232577   4.244   6.704   0.564
10560SOL     OW32578   5.476   7.008   2.741
10560SOL    HW132579   5.519   0.042   2.673
10560SOL    HW232580   5.526   7.015   2.827
10561SOL     OW32581   6.113   4.640   0.245
10561SOL    HW132582   6.131   4.542   0.238
10561SOL    HW232583   6.151   4.687   0.166
10562SOL     OW32584   4.085   6.159   2.596
10562SOL    HW132585   4.152   6.162   2.523
10562SOL    HW232586   4.126   6.120   2.678
10563SOL     OW32587   0.396   0.565   1.501
10563SOL    HW132588   0.381   0.473   1.539
10563SOL    HW232589   0.331   0.581   1.427
10564SOL     OW32590   5.556   4.857   3.816
10564SOL    HW132591   5.500   4.775   3.804
10564SOL    HW232592   5.623   4.841   3.888
10565SOL     OW32593   1.086   0.264   5.921
10565SOL    HW132594   1.004   0.291   5.872
10565SOL    HW232595   1.166   0.274   5.861
10566SOL     OW32596   2.953   3.441   0.144
10566SOL    HW132597   2.861   3.451   0.106
10566SOL    HW232598   3.009   3.519   0.116
10567SOL     OW32599   1.444   2.387   6.500
10567SOL    HW132600   1.359   2.336   6.507
10567SOL    HW232601   1.521   2.323   6.491
10568SOL     OW32602   5.116   2.606   5.526
10568SOL    HW132603   5.050   2.660   5.473
10568SOL    HW232604   5.182   2.563   5.465
10569SOL     OW32605   5.825   6.829   0.377
10569SOL    HW132606   5.830   6.736   0.341
10569SOL    HW232607   5.864   6.832   0.469
10570SOL     OW32608   0.971   4.771   3.223
10570SOL    HW132609   0.963   4.871   3.227
10570SOL    HW232610   0.938   4.739   3.135
10571SOL     OW32611   6.425   4.456   6.124
10571SOL    HW132612   6.407   4.464   6.026
10571SOL    HW232613   6.400   4.542   6.169
10572SOL     OW32614   5.701   4.473   0.637
10572SOL    HW132615   5.730   4.378   0.648
10572SOL    HW232616   5.779   4.534   0.654
10573SOL     OW32617   5.710   1.905   3.682
10573SOL    HW132618   5.796   1.952   3.701
10573SOL    HW232619   5.677   1.932   3.592
10574SOL     OW32620   7.023   2.473   3.353
10574SOL    HW132621   0.073   2.532   3.386
10574SOL    HW232622   6.947   2.477   3.417
10575SOL     OW32623   6.610   0.335   1.512
10575SOL    HW132624   6.663   0.379   1.440
10575SOL    HW232625   6.540   0.276   1.471
10576SOL     OW32626   1.363   4.538   4.537
10576SOL    HW132627   1.456   4.546   4.500
10576SOL    HW232628   1.334   4.442   4.533
10577SOL     OW32629   4.097   4.841   0.489
10577SOL    HW132630   4.043   4.847   0.572
10577SOL    HW232631   4.193   4.826   0.512
10578SOL     OW32632   0.031   3.480   4.724
10578SOL    HW132633   0.018   3.438   4.634
10578SOL    HW232634   7.004   3.565   4.728
10579SOL     OW32635   1.309   3.414   6.966
10579SOL    HW132636   1.308   3.427   6.867
10579SOL    HW232637   1.355   3.329   6.989
10580SOL     OW32638   6.613   6.696   0.130
10580SOL    HW132639   6.542   6.696   0.200
10580SOL    HW232640   6.667   6.780   0.138
10581SOL     OW32641   5.541   0.178   3.083
10581SOL    HW132642   5.552   0.107   3.013
10581SOL    HW232643   5.591   0.260   3.055
10582SOL     OW32644   5.624   4.351   6.270
10582SOL    HW132645   5.684   4.281   6.309
10582SOL    HW232646   5.676   4.410   6.208
10583SOL     OW32647   3.195   0.817   5.385
10583SOL    HW132648   3.231   0.809   5.292
10583SOL    HW232649   3.134   0.740   5.404
10584SOL     OW32650   1.052   6.627   4.644
10584SOL    HW132651   1.119   6.639   4.718
10584SOL    HW232652   1.099   6.614   4.557
10585SOL     OW32653   0.814   6.844   4.908
10585SOL    HW132654   0.875   6.916   4.943
10585SOL    HW232655   0.725   6.851   4.953
10586SOL     OW32656   4.004   4.343   5.315
10586SOL    HW132657   4.037   4.304   5.402
10586SOL    HW232658   4.079   4.392   5.271
10587SOL     OW32659   2.476   5.208   5.326
10587SOL    HW132660   2.428   5.129   5.286
10587SOL    HW232661   2.463   5.288   5.268
10588SOL     OW32662   1.100   3.991   4.300
10588SOL    HW132663   1.041   3.933   4.244
10588SOL    HW232664   1.044   4.038   4.369
10589SOL     OW32665   5.300   6.403   3.943
10589SOL    HW132666   5.279   6.373   4.036
10589SOL    HW232667   5.216   6.410   3.890
10590SOL     OW32668   0.788   4.986   2.615
10590SOL    HW132669   0.884   4.957   2.624
10590SOL    HW232670   0.757   4.968   2.522
10591SOL     OW32671   6.694   2.400   1.426
10591SOL    HW132672   6.693   2.363   1.519
10591SOL    HW232673   6.628   2.475   1.419
10592SOL     OW32674   6.688   2.004   4.881
10592SOL    HW132675   6.663   2.069   4.809
10592SOL    HW232676   6.608   1.950   4.907
10593SOL     OW32677   3.331   5.376   3.027
10593SOL    HW132678   3.250   5.377   3.087
10593SOL    HW232679   3.402   5.435   3.066
10594SOL     OW32680   2.712   6.765   3.639
10594SOL    HW132681   2.745   6.771   3.545
10594SOL    HW232682   2.708   6.856   3.680
10595SOL     OW32683   5.877   6.941   6.929
10595SOL    HW132684   5.791   6.917   6.883
10595SOL    HW232685   5.858   6.956   0.001
10596SOL     OW32686   5.134   2.876   0.002
10596SOL    HW132687   5.099   2.954   6.975
10596SOL    HW232688   5.233   2.886   0.014
10597SOL     OW32689   2.392   0.819   5.507
10597SOL    HW132690   2.317   0.792   5.567
10597SOL    HW232691   2.410   0.917   5.518
10598SOL     OW32692   2.583   1.684   6.373
10598SOL    HW132693   2.626   1.604   6.414
10598SOL    HW232694   2.491   1.695   6.412
10599SOL     OW32695   6.961   2.575   6.914
10599SOL    HW132696   6.891   2.572   6.985
10599SOL    HW232697   6.939   2.507   6.844
10600SOL     OW32698   2.917   2.375   1.107
10600SOL    HW132699   3.007   2.379   1.150
10600SOL    HW232700   2.862   2.453   1.137
10601SOL     OW32701   1.192   0.034   6.043
10601SOL    HW132702   1.155   0.098   5.976
10601SOL    HW232703   1.208   0.081   6.129
10602SOL     OW32704   6.466   6.882   0.946
10602SOL    HW132705   6.424   6.960   0.991
10602SOL    HW232706   6.501   6.818   1.015
10603SOL     OW32707   5.355   0.488   2.949
10603SOL    HW132708   5.266   0.484   2.901
10603SOL    HW232709   5.343   0.459   3.043
10604SOL     OW32710   5.289   6.692   5.097
10604SOL    HW132711   5.287   6.608   5.044
10604SOL    HW232712   5.345   6.761   5.050
10605SOL     OW32713   2.468   1.996   1.055
10605SOL    HW132714   2.428   1.997   0.964
10605SOL    HW232715   2.536   2.069   1.063
10606SOL     OW32716   6.448   0.774   0.224
10606SOL    HW132717   6.401   0.805   0.142
10606SOL    HW232718   6.547   0.772   0.207
10607SOL     OW32719   2.609   4.423   6.880
10607SOL    HW132720   2.677   4.371   6.828
10607SOL    HW232721   2.634   4.422   6.977
10608SOL     OW32722   5.834   3.799   3.016
10608SOL    HW132723   5.854   3.779   2.920
10608SOL    HW232724   5.777   3.727   3.054
10609SOL     OW32725   4.189   1.420   6.712
10609SOL    HW132726   4.189   1.368   6.627
10609SOL    HW232727   4.107   1.477   6.716
10610SOL     OW32728   0.632   0.680   3.534
10610SOL    HW132729   0.540   0.690   3.570
10610SOL    HW232730   0.627   0.652   3.438
10611SOL     OW32731   3.456   5.568   4.460
10611SOL    HW132732   3.504   5.646   4.419
10611SOL    HW232733   3.516   5.522   4.525
10612SOL     OW32734   5.866   1.673   3.760
10612SOL    HW132735   5.905   1.684   3.851
10612SOL    HW232736   5.827   1.760   3.730
10613SOL     OW32737   4.589   6.234   4.514
10613SOL    HW132738   4.625   6.247   4.606
10613SOL    HW232739   4.522   6.305   4.494
10614SOL     OW32740   4.068   0.891   5.816
10614SOL    HW132741   3.990   0.886   5.878
10614SOL    HW232742   4.082   0.985   5.786
10615SOL     OW32743   1.694   1.627   5.903
10615SOL    HW132744   1.703   1.596   5.808
10615SOL    HW232745   1.644   1.713   5.905
10616SOL     OW32746   2.265   6.117   0.136
10616SOL    HW132747   2.302   6.166   0.057
10616SOL    HW232748   2.167   6.100   0.123
10617SOL     OW32749   2.425   3.308   1.482
10617SOL    HW132750   2.383   3.310   1.573
10617SOL    HW232751   2.388   3.231   1.430
10618SOL     OW32752   1.529   5.030   3.992
10618SOL    HW132753   1.438   5.006   3.959
10618SOL    HW232754   1.537   5.129   4.000
10619SOL     OW32755   1.601   2.345   2.896
10619SOL    HW132756   1.544   2.279   2.945
10619SOL    HW232757   1.681   2.368   2.951
10620SOL     OW32758   3.300   1.032   6.420
10620SOL    HW132759   3.336   1.104   6.479
10620SOL    HW232760   3.294   1.066   6.326
10621SOL     OW32761   0.458   3.577   3.259
10621SOL    HW132762   0.388   3.613   3.196
10621SOL    HW232763   0.519   3.515   3.210
10622SOL     OW32764   4.113   2.108   0.222
10622SOL    HW132765   4.015   2.111   0.242
10622SOL    HW232766   4.139   2.016   0.195
10623SOL     OW32767   5.093   6.251   5.966
10623SOL    HW132768   5.180   6.202   5.961
10623SOL    HW232769   5.094   6.314   6.044
10624SOL     OW32770   0.420   2.210   6.642
10624SOL    HW132771   0.466   2.152   6.574
10624SOL    HW232772   0.459   2.192   6.732
10625SOL     OW32773   5.674   4.559   0.097
10625SOL    HW132774   5.582   4.525   0.116
10625SOL    HW232775   5.736   4.528   0.168
10626SOL     OW32776   5.476   3.023   1.088
10626SOL    HW132777   5.549   3.071   1.136
10626SOL    HW232778   5.509   2.932   1.060
10627SOL     OW32779   5.828   5.492   6.173
10627SOL    HW132780   5.836   5.528   6.080
10627SOL    HW232781   5.825   5.568   6.238
10628SOL     OW32782   3.669   6.870   1.066
10628SOL    HW132783   3.694   6.851   1.160
10628SOL    HW232784   3.739   6.929   1.024
10629SOL     OW32785   3.056   5.374   4.076
10629SOL    HW132786   2.984   5.354   4.143
10629SOL    HW232787   3.139   5.404   4.123
10630SOL     OW32788   3.782   1.165   2.299
10630SOL    HW132789   3.760   1.249   2.348
10630SOL    HW232790   3.697   1.123   2.266
10631SOL     OW32791   4.201   6.072   6.861
10631SOL    HW132792   4.243   5.983   6.879
10631SOL    HW232793   4.229   6.137   6.931
10632SOL     OW32794   4.440   5.721   3.456
10632SOL    HW132795   4.424   5.770   3.370
10632SOL    HW232796   4.450   5.623   3.437
10633SOL     OW32797   0.968   3.121   1.428
10633SOL    HW132798   1.061   3.085   1.436
10633SOL    HW232799   0.971   3.221   1.439
10634SOL     OW32800   0.924   3.320   6.864
10634SOL    HW132801   0.871   3.236   6.878
10634SOL    HW232802   0.888   3.393   6.922
10635SOL     OW32803   2.315   4.352   5.855
10635SOL    HW132804   2.234   4.386   5.807
10635SOL    HW232805   2.378   4.428   5.873
10636SOL     OW32806   6.627   2.277   6.090
10636SOL    HW132807   6.536   2.257   6.056
10636SOL    HW232808   6.694   2.218   6.045
10637SOL     OW32809   3.129   0.976   0.244
10637SOL    HW132810   3.169   0.884   0.254
10637SOL    HW232811   3.100   0.989   0.150
10638SOL     OW32812   6.935   5.537   1.547
10638SOL    HW132813   6.943   5.571   1.641
10638SOL    HW232814   6.862   5.586   1.500
10639SOL     OW32815   1.544   4.330   1.523
10639SOL    HW132816   1.628   4.370   1.485
10639SOL    HW232817   1.479   4.403   1.545
10640SOL     OW32818   4.377   0.058   3.650
10640SOL    HW132819   4.326   0.039   3.733
10640SOL    HW232820   4.314   0.067   3.573
10641SOL     OW32821   1.627   1.319   3.762
10641SOL    HW132822   1.594   1.225   3.765
10641SOL    HW232823   1.550   1.380   3.742
10642SOL     OW32824   5.793   2.304   6.304
10642SOL    HW132825   5.736   2.363   6.247
10642SOL    HW232826   5.791   2.337   6.399
10643SOL     OW32827   1.594   5.066   5.377
10643SOL    HW132828   1.678   5.118   5.389
10643SOL    HW232829   1.521   5.105   5.434
10644SOL     OW32830   6.638   2.493   3.180
10644SOL    HW132831   6.588   2.578   3.167
10644SOL    HW232832   6.727   2.512   3.220
10645SOL     OW32833   2.513   2.376   3.619
10645SOL    HW132834   2.455   2.417   3.550
10645SOL    HW232835   2.470   2.385   3.709
10646SOL     OW32836   5.186   0.654   3.982
10646SOL    HW132837   5.098   0.694   4.007
10646SOL    HW232838   5.239   0.720   3.930
10647SOL     OW32839   3.647   4.965   4.883
10647SOL    HW132840   3.600   5.052   4.867
10647SOL    HW232841   3.585   4.903   4.931
10648SOL     OW32842   5.360   5.031   5.310
10648SOL    HW132843   5.451   5.029   5.352
10648SOL    HW232844   5.291   5.021   5.382
10649SOL     OW32845   6.430   3.080   3.198
10649SOL    HW132846   6.353   3.027   3.233
10649SOL    HW232847   6.510   3.020   3.189
10650SOL     OW32848   0.354   0.330   4.053
10650SOL    HW132849   0.410   0.247   4.044
10650SOL    HW232850   0.306   0.329   4.141
10651SOL     OW32851   4.029   6.111   5.966
10651SOL    HW132852   3.952   6.105   5.903
10651SOL    HW232853   4.078   6.023   5.967
10652SOL     OW32854   2.000   0.086   6.889
10652SOL    HW132855   1.971   0.103   6.983
10652SOL    HW232856   1.934   0.027   6.844
10653SOL     OW32857   4.198   5.646   4.184
10653SOL    HW132858   4.249   5.616   4.265
10653SOL    HW232859   4.118   5.587   4.172
10654SOL     OW32860   5.573   2.120   4.536
10654SOL    HW132861   5.511   2.060   4.588
10654SOL    HW232862   5.668   2.100   4.560
10655SOL     OW32863   0.626   4.852   1.328
10655SOL    HW132864   0.631   4.780   1.259
10655SOL    HW232865   0.600   4.812   1.416
10656SOL     OW32866   6.055   1.710   3.150
10656SOL    HW132867   6.123   1.706   3.076
10656SOL    HW232868   6.098   1.682   3.236
10657SOL     OW32869   5.323   6.601   4.380
10657SOL    HW132870   5.373   6.634   4.300
10657SOL    HW232871   5.376   6.529   4.425
10658SOL     OW32872   0.455   2.772   5.567
10658SOL    HW132873   0.381   2.705   5.566
10658SOL    HW232874   0.472   2.805   5.474
10659SOL     OW32875   0.957   5.329   0.695
10659SOL    HW132876   1.004   5.278   0.624
10659SOL    HW232877   1.015   5.405   0.726
10660SOL     OW32878   6.242   3.313   5.608
10660SOL    HW132879   6.323   3.312   5.550
10660SOL    HW232880   6.173   3.374   5.569
10661SOL     OW32881   1.670   4.489   5.805
10661SOL    HW132882   1.694   4.477   5.708
10661SOL    HW232883   1.575   4.518   5.812
10662SOL     OW32884   2.782   1.268   3.044
10662SOL    HW132885   2.843   1.203   2.997
10662SOL    HW232886   2.749   1.335   2.979
10663SOL     OW32887   1.733   1.726   4.133
10663SOL    HW132888   1.671   1.750   4.208
10663SOL    HW232889   1.805   1.665   4.168
10664SOL     OW32890   1.630   5.326   4.471
10664SOL    HW132891   1.559   5.256   4.463
10664SOL    HW232892   1.715   5.293   4.431
10665SOL     OW32893   1.949   2.614   5.874
10665SOL    HW132894   2.012   2.658   5.810
10665SOL    HW232895   1.855   2.626   5.842
10666SOL     OW32896   3.558   3.476   1.842
10666SOL    HW132897   3.578   3.528   1.759
10666SOL    HW232898   3.620   3.504   1.915
10667SOL     OW32899   5.560   2.325   3.585
10667SOL    HW132900   5.493   2.384   3.632
10667SOL    HW232901   5.528   2.305   3.493
10668SOL     OW32902   2.995   2.436   5.369
10668SOL    HW132903   2.923   2.498   5.336
10668SOL    HW232904   3.075   2.443   5.309
10669SOL     OW32905   6.308   1.510   1.157
10669SOL    HW132906   6.355   1.597   1.144
10669SOL    HW232907   6.370   1.435   1.136
10670SOL     OW32908   5.188   3.369   4.592
10670SOL    HW132909   5.279   3.409   4.582
10670SOL    HW232910   5.120   3.442   4.598
10671SOL     OW32911   0.936   3.139   3.946
10671SOL    HW132912   0.937   3.120   3.848
10671SOL    HW232913   1.030   3.153   3.978
10672SOL     OW32914   6.274   3.289   1.199
10672SOL    HW132915   6.233   3.293   1.108
10672SOL    HW232916   6.222   3.226   1.257
10673SOL     OW32917   2.416   0.906   0.910
10673SOL    HW132918   2.448   0.998   0.932
10673SOL    HW232919   2.443   0.842   0.982
10674SOL     OW32920   3.708   3.999   4.411
10674SOL    HW132921   3.800   3.998   4.451
10674SOL    HW232922   3.658   4.078   4.444
10675SOL     OW32923   3.889   7.024   5.633
10675SOL    HW132924   3.910   0.088   5.591
10675SOL    HW232925   3.971   6.966   5.631
10676SOL     OW32926   2.181   6.412   5.423
10676SOL    HW132927   2.229   6.369   5.500
10676SOL    HW232928   2.092   6.368   5.411
10677SOL     OW32929   0.200   1.114   0.922
10677SOL    HW132930   0.108   1.137   0.954
10677SOL    HW232931   0.197   1.090   0.826
10678SOL     OW32932   3.991   5.273   3.771
10678SOL    HW132933   3.963   5.357   3.724
10678SOL    HW232934   3.996   5.290   3.869
10679SOL     OW32935   3.927   3.700   6.780
10679SOL    HW132936   3.952   3.689   6.876
10679SOL    HW232937   3.942   3.614   6.731
10680SOL     OW32938   4.244   1.302   3.959
10680SOL    HW132939   4.285   1.223   4.004
10680SOL    HW232940   4.299   1.327   3.879
10681SOL     OW32941   0.709   3.197   6.117
10681SOL    HW132942   0.704   3.155   6.208
10681SOL    HW232943   0.733   3.127   6.050
10682SOL     OW32944   6.060   2.745   6.024
10682SOL    HW132945   6.068   2.690   6.107
10682SOL    HW232946   6.103   2.835   6.039
10683SOL     OW32947   3.945   0.306   3.819
10683SOL    HW132948   3.857   0.345   3.789
10683SOL    HW232949   4.009   0.305   3.742
10684SOL     OW32950   4.211   4.426   1.616
10684SOL    HW132951   4.271   4.403   1.692
10684SOL    HW232952   4.224   4.522   1.590
10685SOL     OW32953   1.049   6.195   1.670
10685SOL    HW132954   1.097   6.197   1.582
10685SOL    HW232955   0.957   6.159   1.657
10686SOL     OW32956   2.300   3.369   6.902
10686SOL    HW132957   2.314   3.314   6.819
10686SOL    HW232958   2.380   3.428   6.915
10687SOL     OW32959   0.558   4.565   3.047
10687SOL    HW132960   0.509   4.485   3.011
10687SOL    HW232961   0.645   4.536   3.087
10688SOL     OW32962   5.373   1.550   2.593
10688SOL    HW132963   5.428   1.594   2.664
10688SOL    HW232964   5.401   1.454   2.583
10689SOL     OW32965   0.137   6.700   2.274
10689SOL    HW132966   0.145   6.742   2.364
10689SOL    HW232967   0.110   6.769   2.207
10690SOL     OW32968   6.979   6.287   3.734
10690SOL    HW132969   7.017   6.283   3.641
10690SOL    HW232970   6.922   6.206   3.749
10691SOL     OW32971   3.058   1.253   2.985
10691SOL    HW132972   3.057   1.267   2.886
10691SOL    HW232973   3.144   1.211   3.013
10692SOL     OW32974   2.540   1.073   4.585
10692SOL    HW132975   2.452   1.050   4.626
10692SOL    HW232976   2.610   1.077   4.657
10693SOL     OW32977   1.638   6.004   0.739
10693SOL    HW132978   1.683   6.068   0.677
10693SOL    HW232979   1.575   5.946   0.687
10694SOL     OW32980   4.785   6.438   5.678
10694SOL    HW132981   4.749   6.389   5.758
10694SOL    HW232982   4.776   6.536   5.692
10695SOL     OW32983   6.903   3.474   1.338
10695SOL    HW132984   6.999   3.483   1.363
10695SOL    HW232985   6.874   3.379   1.347
10696SOL     OW32986   0.088   4.119   5.072
10696SOL    HW132987   0.119   4.213   5.062
10696SOL    HW232988   0.045   4.089   4.986
10697SOL     OW32989   1.299   5.452   4.740
10697SOL    HW132990   1.315   5.482   4.646
10697SOL    HW232991   1.352   5.509   4.803
10698SOL     OW32992   4.349   3.472   0.245
10698SOL    HW132993   4.357   3.432   0.336
10698SOL    HW232994   4.396   3.560   0.244
10699SOL     OW32995   3.467   4.104   0.955
10699SOL    HW132996   3.515   4.061   1.032
10699SOL    HW232997   3.375   4.066   0.948
10700SOL     OW32998   5.371   0.307   0.123
10700SOL    HW132999   5.398   0.272   0.033
10700SOL    HW233000   5.279   0.276   0.145
10701SOL     OW33001   2.902   0.459   6.376
10701SOL    HW133002   2.845   0.406   6.439
10701SOL    HW233003   2.961   0.397   6.325
10702SOL     OW33004   5.012   3.062   2.341
10702SOL    HW133005   4.969   2.973   2.344
10702SOL    HW233006   4.983   3.111   2.258
10703SOL     OW33007   1.953   2.334   5.853
10703SOL    HW133008   1.871   2.303   5.901
10703SOL    HW233009   1.942   2.430   5.827
10704SOL     OW33010   0.026   6.308   2.809
10704SOL    HW133011   0.080   6.225   2.791
10704SOL    HW233012   6.964   6.302   2.761
10705SOL     OW33013   5.584   5.025   0.716
10705SOL    HW133014   5.513   5.075   0.666
10705SOL    HW233015   5.665   5.083   0.727
10706SOL     OW33016   5.093   0.207   2.367
10706SOL    HW133017   5.113   0.130   2.427
10706SOL    HW233018   5.108   0.180   2.272
10707SOL     OW33019   6.315   6.922   4.185
10707SOL    HW133020   6.243   6.962   4.242
10707SOL    HW233021   6.401   6.969   4.204
10708SOL     OW33022   4.751   2.775   2.904
10708SOL    HW133023   4.708   2.810   2.988
10708SOL    HW233024   4.681   2.734   2.845
10709SOL     OW33025   5.962   5.396   3.910
10709SOL    HW133026   5.918   5.452   3.981
10709SOL    HW233027   6.003   5.456   3.841
10710SOL     OW33028   4.968   0.596   3.242
10710SOL    HW133029   5.016   0.514   3.210
10710SOL    HW233030   4.875   0.572   3.269
10711SOL     OW33031   4.021   6.654   2.433
10711SOL    HW133032   3.999   6.611   2.345
10711SOL    HW233033   3.950   6.720   2.456
10712SOL     OW33034   3.593   0.230   2.878
10712SOL    HW133035   3.631   0.313   2.840
10712SOL    HW233036   3.573   0.244   2.976
10713SOL     OW33037   1.129   3.533   0.992
10713SOL    HW133038   1.143   3.434   1.001
10713SOL    HW233039   1.136   3.559   0.896
10714SOL     OW33040   4.057   3.222   4.303
10714SOL    HW133041   3.996   3.198   4.227
10714SOL    HW233042   4.088   3.316   4.291
10715SOL     OW33043   5.645   0.362   2.320
10715SOL    HW133044   5.710   0.346   2.394
10715SOL    HW233045   5.551   0.357   2.356
10716SOL     OW33046   6.639   2.201   3.300
10716SOL    HW133047   6.568   2.199   3.370
10716SOL    HW233048   6.598   2.214   3.210
10717SOL     OW33049   1.242   3.040   0.783
10717SOL    HW133050   1.193   2.956   0.808
10717SOL    HW233051   1.244   3.049   0.683
10718SOL     OW33052   0.510   4.743   6.173
10718SOL    HW133053   0.545   4.823   6.222
10718SOL    HW233054   0.452   4.689   6.234
10719SOL     OW33055   6.039   5.849   3.458
10719SOL    HW133056   6.111   5.829   3.524
10719SOL    HW233057   6.070   5.921   3.396
10720SOL     OW33058   5.964   5.393   4.347
10720SOL    HW133059   5.975   5.452   4.267
10720SOL    HW233060   5.927   5.447   4.423
10721SOL     OW33061   5.025   3.901   5.510
10721SOL    HW133062   5.122   3.917   5.528
10721SOL    HW233063   4.974   3.908   5.595
10722SOL     OW33064   6.398   3.912   6.484
10722SOL    HW133065   6.497   3.915   6.470
10722SOL    HW233066   6.371   3.982   6.550
10723SOL     OW33067   0.180   1.420   6.961
10723SOL    HW133068   0.101   1.426   7.022
10723SOL    HW233069   0.228   1.333   6.977
10724SOL     OW33070   0.589   6.739   0.208
10724SOL    HW133071   0.555   6.820   0.256
10724SOL    HW233072   0.514   6.673   0.199
10725SOL     OW33073   2.624   5.391   5.061
10725SOL    HW133074   2.687   5.461   5.096
10725SOL    HW233075   2.547   5.381   5.123
10726SOL     OW33076   5.222   1.262   3.925
10726SOL    HW133077   5.133   1.248   3.881
10726SOL    HW233078   5.295   1.252   3.857
10727SOL     OW33079   1.259   5.145   6.220
10727SOL    HW133080   1.232   5.221   6.161
10727SOL    HW233081   1.250   5.059   6.169
10728SOL     OW33082   6.927   5.347   0.518
10728SOL    HW133083   6.952   5.282   0.445
10728SOL    HW233084   7.000   5.349   0.586
10729SOL     OW33085   5.815   2.233   1.443
10729SOL    HW133086   5.837   2.187   1.356
10729SOL    HW233087   5.816   2.332   1.428
10730SOL     OW33088   3.758   0.745   1.579
10730SOL    HW133089   3.722   0.836   1.558
10730SOL    HW233090   3.827   0.752   1.651
10731SOL     OW33091   3.735   1.210   1.320
10731SOL    HW133092   3.734   1.310   1.326
10731SOL    HW233093   3.646   1.177   1.290
10732SOL     OW33094   0.380   4.868   5.143
10732SOL    HW133095   0.427   4.926   5.210
10732SOL    HW233096   0.306   4.919   5.100
10733SOL     OW33097   5.451   1.392   6.540
10733SOL    HW133098   5.506   1.374   6.621
10733SOL    HW233099   5.391   1.471   6.557
10734SOL     OW33100   0.929   1.560   0.972
10734SOL    HW133101   0.843   1.602   1.000
10734SOL    HW233102   0.972   1.615   0.901
10735SOL     OW33103   0.335   2.459   1.580
10735SOL    HW133104   0.366   2.382   1.635
10735SOL    HW233105   0.245   2.488   1.612
10736SOL     OW33106   1.926   0.159   3.951
10736SOL    HW133107   1.920   0.114   3.862
10736SOL    HW233108   2.006   0.219   3.952
10737SOL     OW33109   0.597   2.016   1.490
10737SOL    HW133110   0.543   1.958   1.552
10737SOL    HW233111   0.654   1.959   1.432
10738SOL     OW33112   3.513   5.881   3.025
10738SOL    HW133113   3.550   5.789   3.028
10738SOL    HW233114   3.562   5.939   3.091
10739SOL     OW33115   1.596   2.608   1.389
10739SOL    HW133116   1.599   2.521   1.341
10739SOL    HW233117   1.627   2.681   1.328
10740SOL     OW33118   5.804   4.948   5.276
10740SOL    HW133119   5.754   4.897   5.206
10740SOL    HW233120   5.886   4.988   5.236
10741SOL     OW33121   4.375   1.122   2.273
10741SOL    HW133122   4.372   1.203   2.331
10741SOL    HW233123   4.284   1.080   2.269
10742SOL     OW33124   5.820   5.702   1.474
10742SOL    HW133125   5.773   5.623   1.435
10742SOL    HW233126   5.850   5.764   1.401
10743SOL     OW33127   1.834   2.162   4.129
10743SOL    HW133128   1.871   2.216   4.205
10743SOL    HW233129   1.910   2.133   4.070
10744SOL     OW33130   3.077   1.523   1.349
10744SOL    HW133131   3.125   1.590   1.293
10744SOL    HW233132   2.993   1.564   1.386
10745SOL     OW33133   0.161   5.116   5.454
10745SOL    HW133134   0.154   5.100   5.356
10745SOL    HW233135   0.257   5.120   5.481
10746SOL     OW33136   1.224   3.886   5.953
10746SOL    HW133137   1.298   3.841   5.903
10746SOL    HW233138   1.203   3.833   6.035
10747SOL     OW33139   3.058   1.105   4.463
10747SOL    HW133140   3.154   1.087   4.487
10747SOL    HW233141   3.047   1.203   4.447
10748SOL     OW33142   6.274   1.787   2.494
10748SOL    HW133143   6.298   1.736   2.411
10748SOL    HW233144   6.296   1.731   2.574
10749SOL     OW33145   1.042   6.311   5.311
10749SOL    HW133146   1.064   6.324   5.215
10749SOL    HW233147   1.123   6.275   5.359
10750SOL     OW33148   4.205   0.399   5.061
10750SOL    HW133149   4.250   0.329   5.005
10750SOL    HW233150   4.107   0.378   5.067
10751SOL     OW33151   1.967   4.518   4.249
10751SOL    HW133152   1.968   4.420   4.230
10751SOL    HW233153   1.910   4.536   4.329
10752SOL     OW33154   5.411   4.628   5.170
10752SOL    HW133155   5.395   4.530   5.163
10752SOL    HW233156   5.356   4.675   5.101
10753SOL     OW33157   0.272   3.942   4.167
10753SOL    HW133158   0.311   3.996   4.242
10753SOL    HW233159   0.180   3.912   4.193
10754SOL     OW33160   0.757   7.012   2.931
10754SOL    HW133161   0.763   0.047   2.851
10754SOL    HW233162   0.844   6.964   2.944
10755SOL     OW33163   6.830   6.943   1.714
10755SOL    HW133164   6.751   6.991   1.752
10755SOL    HW233165   6.808   6.846   1.704
10756SOL     OW33166   0.104   5.752   5.395
10756SOL    HW133167   0.173   5.697   5.441
10756SOL    HW233168   0.149   5.822   5.340
10757SOL     OW33169   2.165   2.692   6.982
10757SOL    HW133170   2.204   2.654   0.040
10757SOL    HW233171   2.065   2.693   6.989
10758SOL     OW33172   0.459   5.964   3.279
10758SOL    HW133173   0.479   5.966   3.182
10758SOL    HW233174   0.505   5.886   3.321
10759SOL     OW33175   0.971   3.139   0.586
10759SOL    HW133176   0.979   3.174   0.679
10759SOL    HW233177   1.010   3.205   0.522
10760SOL     OW33178   5.894   0.871   3.303
10760SOL    HW133179   5.912   0.968   3.294
10760SOL    HW233180   5.842   0.839   3.224
10761SOL     OW33181   1.911   5.369   6.147
10761SOL    HW133182   1.874   5.289   6.100
10761SOL    HW233183   2.008   5.379   6.125
10762SOL     OW33184   3.059   0.434   5.128
10762SOL    HW133185   3.019   0.350   5.163
10762SOL    HW233186   3.141   0.457   5.180
10763SOL     OW33187   3.826   0.403   3.460
10763SOL    HW133188   3.757   0.438   3.397
10763SOL    HW233189   3.852   0.475   3.525
10764SOL     OW33190   5.108   1.327   4.784
10764SOL    HW133191   5.023   1.319   4.732
10764SOL    HW233192   5.111   1.415   4.831
10765SOL     OW33193   5.308   3.189   0.900
10765SOL    HW133194   5.352   3.144   0.977
10765SOL    HW233195   5.216   3.218   0.926
10766SOL     OW33196   4.062   4.496   0.634
10766SOL    HW133197   4.016   4.457   0.554
10766SOL    HW233198   3.993   4.527   0.700
10767SOL     OW33199   2.556   0.279   1.147
10767SOL    HW133200   2.631   0.226   1.108
10767SOL    HW233201   2.592   0.343   1.215
10768SOL     OW33202   6.187   5.401   0.980
10768SOL    HW133203   6.235   5.428   1.063
10768SOL    HW233204   6.254   5.372   0.911
10769SOL     OW33205   1.607   3.248   5.667
10769SOL    HW133206   1.622   3.347   5.670
10769SOL    HW233207   1.614   3.215   5.573
10770SOL     OW33208   5.191   5.466   3.513
10770SOL    HW133209   5.244   5.440   3.432
10770SOL    HW233210   5.097   5.487   3.485
10771SOL     OW33211   4.212   7.011   3.859
10771SOL    HW133212   4.296   7.020   3.913
10771SOL    HW233213   4.132   7.024   3.919
10772SOL     OW33214   6.879   5.857   3.625
10772SOL    HW133215   6.845   5.778   3.573
10772SOL    HW233216   6.956   5.898   3.577
10773SOL     OW33217   5.685   4.363   5.244
10773SOL    HW133218   5.666   4.416   5.327
10773SOL    HW233219   5.683   4.266   5.266
10774SOL     OW33220   1.757   1.091   4.058
10774SOL    HW133221   1.752   1.058   4.152
10774SOL    HW233222   1.851   1.120   4.038
10775SOL     OW33223   1.126   4.118   1.929
10775SOL    HW133224   1.030   4.108   1.905
10775SOL    HW233225   1.164   4.199   1.883
10776SOL     OW33226   1.485   0.722   6.343
10776SOL    HW133227   1.544   0.702   6.265
10776SOL    HW233228   1.401   0.764   6.310
10777SOL     OW33229   3.554   5.227   1.055
10777SOL    HW133230   3.645   5.262   1.033
10777SOL    HW233231   3.486   5.299   1.038
10778SOL     OW33232   5.477   6.618   4.125
10778SOL    HW133233   5.467   6.717   4.122
10778SOL    HW233234   5.430   6.577   4.046
10779SOL     OW33235   6.098   2.835   3.109
10779SOL    HW133236   6.007   2.807   3.081
10779SOL    HW233237   6.129   2.912   3.054
10780SOL     OW33238   1.074   0.993   4.022
10780SOL    HW133239   1.021   0.954   4.097
10780SOL    HW233240   1.060   0.939   3.939
10781SOL     OW33241   4.065   0.432   4.043
10781SOL    HW133242   4.020   0.380   3.970
10781SOL    HW233243   3.998   0.456   4.113
10782SOL     OW33244   6.426   6.721   4.023
10782SOL    HW133245   6.385   6.630   4.033
10782SOL    HW233246   6.387   6.782   4.092
10783SOL     OW33247   0.385   2.514   2.505
10783SOL    HW133248   0.474   2.537   2.545
10783SOL    HW233249   0.336   2.598   2.484
10784SOL     OW33250   2.407   1.008   3.776
10784SOL    HW133251   2.448   0.948   3.706
10784SOL    HW233252   2.356   1.081   3.731
10785SOL     OW33253   1.186   3.871   0.075
10785SOL    HW133254   1.200   3.942   0.144
10785SOL    HW233255   1.120   3.903   0.007
10786SOL     OW33256   5.782   5.880   3.489
10786SOL    HW133257   5.876   5.847   3.500
10786SOL    HW233258   5.782   5.958   3.427
10787SOL     OW33259   0.425   0.343   5.461
10787SOL    HW133260   0.345   0.364   5.517
10787SOL    HW233261   0.505   0.329   5.519
10788SOL     OW33262   0.671   3.889   6.963
10788SOL    HW133263   0.670   3.983   6.930
10788SOL    HW233264   0.613   3.832   6.905
10789SOL     OW33265   6.805   2.782   0.142
10789SOL    HW133266   6.824   2.869   0.187
10789SOL    HW233267   6.828   2.788   0.045
10790SOL     OW33268   0.343   6.638   1.770
10790SOL    HW133269   0.414   6.572   1.746
10790SOL    HW233270   0.259   6.618   1.718
10791SOL     OW33271   6.334   6.601   2.386
10791SOL    HW133272   6.302   6.524   2.331
10791SOL    HW233273   6.408   6.571   2.445
10792SOL     OW33274   3.837   3.640   5.197
10792SOL    HW133275   3.813   3.734   5.224
10792SOL    HW233276   3.917   3.611   5.249
10793SOL     OW33277   5.600   3.434   5.430
10793SOL    HW133278   5.676   3.417   5.493
10793SOL    HW233279   5.635   3.432   5.336
10794SOL     OW33280   3.946   3.926   3.960
10794SOL    HW133281   3.892   3.992   3.908
10794SOL    HW233282   3.890   3.891   4.036
10795SOL     OW33283   0.888   4.359   2.932
10795SOL    HW133284   0.855   4.269   2.907
10795SOL    HW233285   0.915   4.360   3.028
10796SOL     OW33286   0.452   6.034   5.720
10796SOL    HW133287   0.376   6.017   5.782
10796SOL    HW233288   0.421   6.024   5.625
10797SOL     OW33289   3.873   2.882   0.581
10797SOL    HW133290   3.817   2.961   0.606
10797SOL    HW233291   3.920   2.901   0.495
10798SOL     OW33292   2.261   1.676   0.607
10798SOL    HW133293   2.169   1.639   0.592
10798SOL    HW233294   2.265   1.720   0.697
10799SOL     OW33295   3.964   0.700   2.997
10799SOL    HW133296   4.025   0.625   3.024
10799SOL    HW233297   3.895   0.713   3.067
10800SOL     OW33298   0.902   5.797   0.304
10800SOL    HW133299   0.895   5.845   0.216
10800SOL    HW233300   0.873   5.858   0.378
10801SOL     OW33301   1.596   0.726   0.559
10801SOL    HW133302   1.537   0.794   0.515
10801SOL    HW233303   1.549   0.638   0.560
10802SOL     OW33304   6.335   6.843   3.804
10802SOL    HW133305   6.353   6.941   3.810
10802SOL    HW233306   6.369   6.797   3.886
10803SOL     OW33307   1.491   5.620   6.620
10803SOL    HW133308   1.428   5.698   6.609
10803SOL    HW233309   1.573   5.651   6.668
10804SOL     OW33310   0.205   3.141   3.478
10804SOL    HW133311   0.242   3.226   3.439
10804SOL    HW233312   0.264   3.065   3.452
10805SOL     OW33313   5.763   1.291   4.902
10805SOL    HW133314   5.836   1.353   4.933
10805SOL    HW233315   5.771   1.203   4.950
10806SOL     OW33316   2.770   4.963   6.797
10806SOL    HW133317   2.712   5.043   6.800
10806SOL    HW233318   2.861   4.989   6.764
10807SOL     OW33319   2.462   5.953   3.749
10807SOL    HW133320   2.452   5.961   3.848
10807SOL    HW233321   2.515   6.030   3.715
10808SOL     OW33322   0.087   2.490   6.373
10808SOL    HW133323   0.001   2.439   6.363
10808SOL    HW233324   0.128   2.469   6.462
10809SOL     OW33325   2.377   4.462   4.383
10809SOL    HW133326   2.466   4.509   4.389
10809SOL    HW233327   2.312   4.520   4.335
10810SOL     OW33328   0.182   0.409   3.827
10810SOL    HW133329   0.224   0.390   3.916
10810SOL    HW233330   0.084   0.425   3.840
10811SOL     OW33331   4.523   5.205   4.697
10811SOL    HW133332   4.506   5.292   4.742
10811SOL    HW233333   4.590   5.217   4.623
10812SOL     OW33334   0.162   3.116   6.434
10812SOL    HW133335   0.062   3.128   6.435
10812SOL    HW233336   0.186   3.047   6.364
10813SOL     OW33337   0.623   3.694   5.833
10813SOL    HW133338   0.635   3.754   5.754
10813SOL    HW233339   0.712   3.663   5.866
10814SOL     OW33340   1.908   0.231   0.391
10814SOL    HW133341   1.936   0.155   0.448
10814SOL    HW233342   1.808   0.241   0.394
10815SOL     OW33343   5.279   1.632   3.872
10815SOL    HW133344   5.227   1.589   3.799
10815SOL    HW233345   5.280   1.731   3.858
10816SOL     OW33346   3.544   2.864   3.660
10816SOL    HW133347   3.450   2.829   3.663
10816SOL    HW233348   3.576   2.866   3.566
10817SOL     OW33349   2.923   0.146   3.323
10817SOL    HW133350   2.841   0.099   3.289
10817SOL    HW233351   2.938   0.228   3.269
10818SOL     OW33352   5.123   5.547   6.266
10818SOL    HW133353   5.037   5.557   6.214
10818SOL    HW233354   5.187   5.618   6.237
10819SOL     OW33355   0.042   5.556   6.292
10819SOL    HW133356   0.044   5.481   6.226
10819SOL    HW233357   6.984   5.610   6.278
10820SOL     OW33358   1.497   5.442   5.316
10820SOL    HW133359   1.468   5.371   5.252
10820SOL    HW233360   1.418   5.498   5.342
10821SOL     OW33361   4.392   5.476   2.487
10821SOL    HW133362   4.334   5.415   2.542
10821SOL    HW233363   4.335   5.547   2.445
10822SOL     OW33364   5.418   2.671   0.547
10822SOL    HW133365   5.418   2.747   0.482
10822SOL    HW233366   5.478   2.598   0.514
10823SOL     OW33367   7.015   6.763   2.948
10823SOL    HW133368   6.997   6.671   2.980
10823SOL    HW233369   0.077   6.795   2.985
10824SOL     OW33370   1.496   0.916   4.320
10824SOL    HW133371   1.404   0.879   4.301
10824SOL    HW233372   1.559   0.840   4.338
10825SOL     OW33373   1.229   1.952   0.251
10825SOL    HW133374   1.253   2.027   0.312
10825SOL    HW233375   1.276   1.963   0.163
10826SOL     OW33376   1.318   2.210   2.979
10826SOL    HW133377   1.373   2.147   2.924
10826SOL    HW233378   1.247   2.159   3.027
10827SOL     OW33379   6.274   3.661   5.052
10827SOL    HW133380   6.202   3.730   5.049
10827SOL    HW233381   6.351   3.691   4.996
10828SOL     OW33382   6.407   3.362   0.063
10828SOL    HW133383   6.350   3.435   0.024
10828SOL    HW233384   6.494   3.401   0.094
10829SOL     OW33385   4.651   3.442   0.021
10829SOL    HW133386   4.595   3.521   7.023
10829SOL    HW233387   4.746   3.459   7.018
10830SOL     OW33388   4.771   1.282   3.591
10830SOL    HW133389   4.847   1.287   3.526
10830SOL    HW233390   4.806   1.286   3.684
10831SOL     OW33391   4.248   1.143   2.577
10831SOL    HW133392   4.174   1.200   2.541
10831SOL    HW233393   4.226   1.047   2.563
10832SOL     OW33394   6.785   3.282   0.478
10832SOL    HW133395   6.843   3.296   0.558
10832SOL    HW233396   6.740   3.368   0.453
10833SOL     OW33397   0.685   1.668   1.002
10833SOL    HW133398   0.661   1.759   0.965
10833SOL    HW233399   0.656   1.598   0.937
10834SOL     OW33400   6.415   6.775   0.313
10834SOL    HW133401   6.469   6.831   0.376
10834SOL    HW233402   6.326   6.818   0.299
10835SOL     OW33403   5.753   3.365   6.646
10835SOL    HW133404   5.719   3.332   6.734
10835SOL    HW233405   5.738   3.294   6.576
10836SOL     OW33406   1.090   1.546   2.970
10836SOL    HW133407   1.153   1.511   3.039
10836SOL    HW233408   1.047   1.630   3.003
10837SOL     OW33409   6.517   4.420   2.173
10837SOL    HW133410   6.455   4.397   2.247
10837SOL    HW233411   6.465   4.443   2.091
10838SOL     OW33412   5.763   5.655   3.338
10838SOL    HW133413   5.767   5.743   3.385
10838SOL    HW233414   5.856   5.628   3.310
10839SOL     OW33415   4.549   3.661   0.552
10839SOL    HW133416   4.508   3.736   0.603
10839SOL    HW233417   4.541   3.679   0.454
10840SOL     OW33418   2.981   0.164   1.406
10840SOL    HW133419   3.036   0.152   1.323
10840SOL    HW233420   2.963   0.074   1.447
10841SOL     OW33421   1.128   5.264   4.857
10841SOL    HW133422   1.215   5.311   4.844
10841SOL    HW233423   1.069   5.281   4.778
10842SOL     OW33424   4.930   3.918   1.225
10842SOL    HW133425   4.833   3.940   1.213
10842SOL    HW233426   4.978   3.998   1.261
10843SOL     OW33427   1.962   1.503   1.218
10843SOL    HW133428   1.973   1.418   1.268
10843SOL    HW233429   2.051   1.536   1.187
10844SOL     OW33430   1.077   5.579   4.840
10844SOL    HW133431   1.117   5.497   4.799
10844SOL    HW233432   1.003   5.613   4.782
10845SOL     OW33433   4.627   6.009   5.179
10845SOL    HW133434   4.672   5.927   5.215
10845SOL    HW233435   4.627   6.007   5.079
10846SOL     OW33436   5.349   6.440   0.331
10846SOL    HW133437   5.333   6.385   0.249
10846SOL    HW233438   5.268   6.496   0.349
10847SOL     OW33439   1.778   1.572   0.004
10847SOL    HW133440   1.760   1.501   0.072
10847SOL    HW233441   1.874   1.597   0.005
10848SOL     OW33442   1.811   3.999   1.311
10848SOL    HW133443   1.874   3.977   1.385
10848SOL    HW233444   1.718   4.006   1.347
10849SOL     OW33445   3.025   5.206   3.841
10849SOL    HW133446   2.987   5.276   3.781
10849SOL    HW233447   3.032   5.243   3.934
10850SOL     OW33448   4.360   6.165   0.308
10850SOL    HW133449   4.260   6.164   0.308
10850SOL    HW233450   4.394   6.083   0.262
10851SOL     OW33451   2.706   4.424   1.615
10851SOL    HW133452   2.745   4.454   1.703
10851SOL    HW233453   2.650   4.343   1.629
10852SOL     OW33454   1.914   1.770   0.804
10852SOL    HW133455   1.907   1.735   0.897
10852SOL    HW233456   1.992   1.831   0.797
10853SOL     OW33457   2.210   2.188   6.170
10853SOL    HW133458   2.280   2.126   6.206
10853SOL    HW233459   2.251   2.249   6.102
10854SOL     OW33460   4.452   6.216   5.175
10854SOL    HW133461   4.510   6.138   5.152
10854SOL    HW233462   4.487   6.299   5.130
10855SOL     OW33463   3.057   1.294   0.404
10855SOL    HW133464   3.136   1.247   0.363
10855SOL    HW233465   3.056   1.277   0.503
10856SOL     OW33466   0.195   0.728   6.875
10856SOL    HW133467   0.184   0.725   6.776
10856SOL    HW233468   0.278   0.781   6.898
10857SOL     OW33469   6.610   1.405   2.383
10857SOL    HW133470   6.595   1.374   2.477
10857SOL    HW233471   6.653   1.495   2.383
10858SOL     OW33472   2.674   5.955   1.520
10858SOL    HW133473   2.736   5.900   1.576
10858SOL    HW233474   2.593   5.901   1.497
10859SOL     OW33475   0.233   4.979   4.215
10859SOL    HW133476   0.249   5.067   4.170
10859SOL    HW233477   0.302   4.913   4.185
10860SOL     OW33478   6.633   2.691   2.535
10860SOL    HW133479   6.542   2.693   2.577
10860SOL    HW233480   6.626   2.671   2.438
10861SOL     OW33481   3.484   2.909   4.260
10861SOL    HW133482   3.564   2.963   4.236
10861SOL    HW233483   3.503   2.812   4.245
10862SOL     OW33484   2.035   6.873   5.347
10862SOL    HW133485   2.030   6.911   5.440
10862SOL    HW233486   1.978   6.927   5.286
10863SOL     OW33487   3.065   6.314   4.906
10863SOL    HW133488   3.121   6.267   4.839
10863SOL    HW233489   3.037   6.250   4.977
10864SOL     OW33490   3.388   6.663   2.174
10864SOL    HW133491   3.368   6.579   2.124
10864SOL    HW233492   3.324   6.734   2.147
10865SOL     OW33493   5.746   1.477   6.711
10865SOL    HW133494   5.810   1.546   6.745
10865SOL    HW233495   5.652   1.510   6.726
10866SOL     OW33496   5.423   4.445   0.211
10866SOL    HW133497   5.359   4.370   0.193
10866SOL    HW233498   5.373   4.532   0.207
10867SOL     OW33499   3.607   4.075   0.647
10867SOL    HW133500   3.609   4.157   0.704
10867SOL    HW233501   3.575   3.997   0.702
10868SOL     OW33502   3.739   1.542   3.383
10868SOL    HW133503   3.755   1.607   3.457
10868SOL    HW233504   3.662   1.573   3.327
10869NA      NA33505   5.997   2.321   5.692
10870NA      NA33506   4.244   4.703   5.151
10871NA      NA33507   2.093   3.602   1.511
10872NA      NA33508   4.838   3.853   5.382
10873NA      NA33509   4.434   2.335   5.147
10874NA      NA33510   3.714   4.738   1.699
10875NA      NA33511   6.933   5.659   5.463
10876NA      NA33512   3.653   3.528   5.105
10877NA      NA33513   4.935   6.672   6.646
10878NA      NA33514   3.708   6.841   5.548
10879NA      NA33515   6.480   5.140   2.002
10880NA      NA33516   2.191   0.507   3.897
10881NA      NA33517   3.609   5.064   1.239
10882NA      NA33518   3.303   3.553   2.696
   7.02498   7.02498   7.02498
