Generated by trjconv : CNT in water t= 139.00000
33518
    1C        C    1   2.842   2.763   4.745
    1C        C    2   2.894   2.711   4.865
    1C        C    3   2.846   2.771   4.982
    1C        C    4   2.850   2.774   4.257
    1C        C    5   2.902   2.723   4.379
    1C        C    6   2.847   2.766   4.501
    1C        C    7   3.010   2.632   4.621
    1C        C    8   2.896   2.717   4.624
    1C        C    9   3.071   2.595   4.743
    1C        C   10   3.006   2.625   4.865
    1C        C   11   3.178   2.486   4.975
    1C        C   12   3.056   2.555   4.975
    1C        C   13   2.848   2.768   3.770
    1C        C   14   2.897   2.716   3.892
    1C        C   15   2.849   2.768   4.014
    1C        C   16   3.016   2.641   4.135
    1C        C   17   2.898   2.718   4.137
    1C        C   18   3.082   2.610   4.256
    1C        C   19   3.017   2.640   4.378
    1C        C   20   3.204   2.544   4.502
    1C        C   21   3.074   2.598   4.500
    1C        C   22   3.274   2.524   4.623
    1C        C   23   3.202   2.542   4.744
    1C        C   24   3.407   2.471   4.862
    1C        C   25   3.266   2.495   4.862
    1C        C   26   3.484   2.471   4.979
    1C        C   27   2.850   2.766   3.280
    1C        C   28   2.903   2.721   3.403
    1C        C   29   2.851   2.770   3.525
    1C        C   30   3.016   2.637   3.646
    1C        C   31   2.903   2.722   3.648
    1C        C   32   3.075   2.600   3.769
    1C        C   33   3.011   2.632   3.891
    1C        C   34   3.205   2.546   4.013
    1C        C   35   3.075   2.601   4.013
    1C        C   36   3.275   2.529   4.134
    1C        C   37   3.210   2.552   4.258
    1C        C   38   3.413   2.501   4.378
    1C        C   39   3.274   2.526   4.381
    1C        C   40   3.483   2.494   4.501
    1C        C   41   3.411   2.491   4.623
    1C        C   42   3.627   2.478   4.742
    1C        C   43   3.485   2.474   4.743
    1C        C   44   3.701   2.485   4.861
    1C        C   45   3.623   2.480   4.977
    1C        C   46   2.837   2.746   2.790
    1C        C   47   2.894   2.708   2.913
    1C        C   48   2.845   2.758   3.036
    1C        C   49   3.017   2.636   3.157
    1C        C   50   2.900   2.715   3.158
    1C        C   51   3.077   2.599   3.280
    1C        C   52   3.014   2.634   3.401
    1C        C   53   3.203   2.538   3.524
    1C        C   54   3.074   2.596   3.524
    1C        C   55   3.269   2.517   3.647
    1C        C   56   3.204   2.542   3.770
    1C        C   57   3.413   2.502   3.890
    1C        C   58   3.274   2.526   3.891
    1C        C   59   3.483   2.498   4.013
    1C        C   60   3.414   2.505   4.136
    1C        C   61   3.627   2.492   4.259
    1C        C   62   3.486   2.497   4.257
    1C        C   63   3.699   2.503   4.380
    1C        C   64   3.624   2.500   4.500
    1C        C   65   3.831   2.545   4.621
    1C        C   66   3.697   2.500   4.621
    1C        C   67   3.900   2.566   4.742
    1C        C   68   3.836   2.528   4.862
    1C        C   69   4.045   2.589   4.978
    1C        C   70   3.921   2.524   4.973
    1C        C   71   2.817   2.723   2.305
    1C        C   72   2.881   2.689   2.426
    1C        C   73   2.829   2.738   2.548
    1C        C   74   3.008   2.619   2.669
    1C        C   75   2.889   2.696   2.668
    1C        C   76   3.069   2.584   2.792
    1C        C   77   3.013   2.632   2.912
    1C        C   78   3.206   2.544   3.036
    1C        C   79   3.075   2.598   3.034
    1C        C   80   3.274   2.524   3.158
    1C        C   81   3.207   2.544   3.281
    1C        C   82   3.412   2.494   3.402
    1C        C   83   3.273   2.518   3.403
    1C        C   84   3.482   2.488   3.525
    1C        C   85   3.409   2.494   3.645
    1C        C   86   3.622   2.494   3.769
    1C        C   87   3.480   2.490   3.767
    1C        C   88   3.692   2.510   3.891
    1C        C   89   3.624   2.503   4.015
    1C        C   90   3.830   2.555   4.134
    1C        C   91   3.696   2.510   4.137
    1C        C   92   3.896   2.573   4.257
    1C        C   93   3.833   2.545   4.381
    1C        C   94   4.028   2.634   4.499
    1C        C   95   3.903   2.568   4.502
    1C        C   96   4.086   2.675   4.621
    1C        C   97   4.026   2.631   4.741
    1C        C   98   4.186   2.769   4.862
    1C        C   99   4.093   2.660   4.863
    1C        C  100   4.214   2.840   4.980
    1C        C  101   2.819   2.725   2.068
    1C        C  102   2.985   2.585   2.188
    1C        C  103   2.867   2.666   2.185
    1C        C  104   3.065   2.577   2.306
    1C        C  105   3.002   2.616   2.426
    1C        C  106   3.196   2.522   2.550
    1C        C  107   3.069   2.585   2.547
    1C        C  108   3.266   2.502   2.671
    1C        C  109   3.198   2.528   2.793
    1C        C  110   3.408   2.488   2.911
    1C        C  111   3.269   2.510   2.914
    1C        C  112   3.479   2.489   3.034
    1C        C  113   3.412   2.498   3.158
    1C        C  114   3.625   2.492   3.279
    1C        C  115   3.483   2.488   3.280
    1C        C  116   3.692   2.501   3.403
    1C        C  117   3.623   2.491   3.526
    1C        C  118   3.829   2.539   3.646
    1C        C  119   3.694   2.499   3.648
    1C        C  120   3.894   2.573   3.767
    1C        C  121   3.828   2.550   3.889
    1C        C  122   4.021   2.638   4.012
    1C        C  123   3.897   2.572   4.011
    1C        C  124   4.085   2.671   4.134
    1C        C  125   4.024   2.634   4.255
    1C        C  126   4.195   2.763   4.374
    1C        C  127   4.085   2.674   4.376
    1C        C  128   4.238   2.820   4.496
    1C        C  129   4.189   2.771   4.619
    1C        C  130   4.323   2.937   4.740
    1C        C  131   4.235   2.825   4.741
    1C        C  132   4.351   3.005   4.861
    1C        C  133   4.286   2.959   4.976
    1C        C  134   3.170   2.461   2.082
    1C        C  135   3.034   2.497   2.086
    1C        C  136   3.257   2.471   2.191
    1C        C  137   3.194   2.518   2.308
    1C        C  138   3.402   2.467   2.429
    1C        C  139   3.263   2.494   2.430
    1C        C  140   3.478   2.470   2.548
    1C        C  141   3.405   2.482   2.668
    1C        C  142   3.620   2.489   2.789
    1C        C  143   3.479   2.484   2.789
    1C        C  144   3.691   2.500   2.911
    1C        C  145   3.620   2.496   3.033
    1C        C  146   3.827   2.540   3.155
    1C        C  147   3.692   2.500   3.155
    1C        C  148   3.894   2.565   3.278
    1C        C  149   3.828   2.538   3.400
    1C        C  150   4.019   2.626   3.521
    1C        C  151   3.895   2.559   3.523
    1C        C  152   4.077   2.671   3.642
    1C        C  153   4.020   2.637   3.767
    1C        C  154   4.190   2.765   3.885
    1C        C  155   4.078   2.679   3.889
    1C        C  156   4.240   2.814   4.008
    1C        C  157   4.193   2.762   4.131
    1C        C  158   4.335   2.921   4.250
    1C        C  159   4.246   2.812   4.252
    1C        C  160   4.369   2.984   4.373
    1C        C  161   4.328   2.929   4.496
    1C        C  162   4.433   3.116   4.614
    1C        C  163   4.368   2.990   4.617
    1C        C  164   4.465   3.182   4.735
    1C        C  165   4.430   3.122   4.858
    1C        C  166   4.511   3.319   4.971
    1C        C  167   4.477   3.185   4.974
    1C        C  168   3.470   2.435   2.069
    1C        C  169   3.396   2.447   2.188
    1C        C  170   3.613   2.464   2.307
    1C        C  171   3.472   2.452   2.307
    1C        C  172   3.691   2.485   2.423
    1C        C  173   3.619   2.482   2.545
    1C        C  174   3.824   2.540   2.664
    1C        C  175   3.687   2.506   2.666
    1C        C  176   3.891   2.559   2.787
    1C        C  177   3.828   2.534   2.911
    1C        C  178   4.021   2.623   3.031
    1C        C  179   3.894   2.560   3.033
    1C        C  180   4.081   2.661   3.153
    1C        C  181   4.019   2.629   3.276
    1C        C  182   4.189   2.753   3.396
    1C        C  183   4.080   2.662   3.399
    1C        C  184   4.237   2.808   3.517
    1C        C  185   4.186   2.760   3.640
    1C        C  186   4.334   2.915   3.762
    1C        C  187   4.241   2.809   3.761
    1C        C  188   4.374   2.976   3.883
    1C        C  189   4.331   2.922   4.007
    1C        C  190   4.439   3.106   4.128
    1C        C  191   4.375   2.980   4.128
    1C        C  192   4.471   3.172   4.249
    1C        C  193   4.439   3.106   4.370
    1C        C  194   4.505   3.312   4.490
    1C        C  195   4.465   3.176   4.490
    1C        C  196   4.517   3.387   4.609
    1C        C  197   4.508   3.317   4.732
    1C        C  198   4.555   3.531   4.850
    1C        C  199   4.527   3.391   4.852
    1C        C  200   4.582   3.618   4.961
    1C        C  201   3.609   2.420   2.075
    1C        C  202   3.821   2.515   2.180
    1C        C  203   3.686   2.467   2.185
    1C        C  204   3.896   2.540   2.298
    1C        C  205   3.827   2.524   2.420
    1C        C  206   4.020   2.617   2.539
    1C        C  207   3.891   2.558   2.541
    1C        C  208   4.075   2.659   2.662
    1C        C  209   4.015   2.626   2.786
    1C        C  210   4.192   2.744   2.905
    1C        C  211   4.078   2.661   2.907
    1C        C  212   4.247   2.791   3.027
    1C        C  213   4.194   2.746   3.150
    1C        C  214   4.329   2.909   3.271
    1C        C  215   4.241   2.798   3.273
    1C        C  216   4.364   2.973   3.392
    1C        C  217   4.326   2.917   3.517
    1C        C  218   4.427   3.103   3.636
    1C        C  219   4.367   2.975   3.639
    1C        C  220   4.455   3.169   3.758
    1C        C  221   4.435   3.103   3.881
    1C        C  222   4.500   3.303   4.001
    1C        C  223   4.467   3.166   4.003
    1C        C  224   4.518   3.376   4.121
    1C        C  225   4.515   3.306   4.244
    1C        C  226   4.519   3.519   4.365
    1C        C  227   4.519   3.377   4.366
    1C        C  228   4.517   3.595   4.484
    1C        C  229   4.522   3.528   4.608
    1C        C  230   4.501   3.740   4.726
    1C        C  231   4.533   3.601   4.728
    1C        C  232   4.494   3.818   4.843
    1C        C  233   4.541   3.752   4.957
    1C        C  234   4.012   2.609   2.058
    1C        C  235   3.887   2.548   2.061
    1C        C  236   4.080   2.648   2.175
    1C        C  237   4.023   2.604   2.296
    1C        C  238   4.200   2.729   2.417
    1C        C  239   4.083   2.647   2.417
    1C        C  240   4.249   2.780   2.539
    1C        C  241   4.192   2.738   2.661
    1C        C  242   4.331   2.901   2.780
    1C        C  243   4.241   2.792   2.782
    1C        C  244   4.369   2.959   2.903
    1C        C  245   4.330   2.905   3.028
    1C        C  246   4.438   3.090   3.147
    1C        C  247   4.371   2.965   3.149
    1C        C  248   4.455   3.162   3.268
    1C        C  249   4.423   3.101   3.392
    1C        C  250   4.488   3.305   3.512
    1C        C  251   4.446   3.170   3.513
    1C        C  252   4.509   3.372   3.634
    1C        C  253   4.500   3.303   3.757
    1C        C  254   4.522   3.514   3.875
    1C        C  255   4.513   3.373   3.879
    1C        C  256   4.518   3.586   3.997
    1C        C  257   4.521   3.517   4.120
    1C        C  258   4.490   3.727   4.241
    1C        C  259   4.518   3.588   4.242
    1C        C  260   4.468   3.800   4.360
    1C        C  261   4.490   3.734   4.483
    1C        C  262   4.427   3.939   4.602
    1C        C  263   4.474   3.805   4.604
    1C        C  264   4.401   4.007   4.722
    1C        C  265   4.441   3.949   4.844
    1C        C  266   4.317   4.131   4.956
    1C        C  267   4.394   4.015   4.959
    1C        C  268   4.253   2.778   2.058
    1C        C  269   4.194   2.731   2.176
    1C        C  270   4.344   2.887   2.295
    1C        C  271   4.252   2.779   2.296
    1C        C  272   4.378   2.952   2.416
    1C        C  273   4.335   2.893   2.537
    1C        C  274   4.438   3.082   2.658
    1C        C  275   4.372   2.957   2.657
    1C        C  276   4.464   3.149   2.780
    1C        C  277   4.437   3.083   2.903
    1C        C  278   4.500   3.288   3.021
    1C        C  279   4.468   3.150   3.023
    1C        C  280   4.509   3.364   3.140
    1C        C  281   4.493   3.298   3.264
    1C        C  282   4.517   3.508   3.387
    1C        C  283   4.509   3.367   3.387
    1C        C  284   4.512   3.581   3.507
    1C        C  285   4.516   3.513   3.632
    1C        C  286   4.489   3.724   3.752
    1C        C  287   4.515   3.585   3.753
    1C        C  288   4.475   3.794   3.874
    1C        C  289   4.494   3.726   3.997
    1C        C  290   4.417   3.925   4.114
    1C        C  291   4.471   3.794   4.118
    1C        C  292   4.394   3.996   4.234
    1C        C  293   4.423   3.934   4.357
    1C        C  294   4.323   4.121   4.476
    1C        C  295   4.396   4.001   4.479
    1C        C  296   4.283   4.184   4.596
    1C        C  297   4.328   4.129   4.718
    1C        C  298   4.195   4.308   4.837
    1C        C  299   4.281   4.194   4.836
    1C        C  300   4.165   4.395   4.946
    1C        C  301   4.348   2.879   2.058
    1C        C  302   4.465   3.068   2.172
    1C        C  303   4.390   2.945   2.174
    1C        C  304   4.480   3.139   2.294
    1C        C  305   4.450   3.074   2.416
    1C        C  306   4.503   3.282   2.534
    1C        C  307   4.470   3.145   2.536
    1C        C  308   4.514   3.354   2.655
    1C        C  309   4.504   3.284   2.778
    1C        C  310   4.514   3.498   2.897
    1C        C  311   4.514   3.356   2.899
    1C        C  312   4.513   3.571   3.018
    1C        C  313   4.514   3.505   3.142
    1C        C  314   4.487   3.716   3.258
    1C        C  315   4.514   3.577   3.264
    1C        C  316   4.467   3.782   3.381
    1C        C  317   4.486   3.720   3.507
    1C        C  318   4.424   3.923   3.625
    1C        C  319   4.470   3.790   3.628
    1C        C  320   4.394   3.988   3.746
    1C        C  321   4.422   3.924   3.869
    1C        C  322   4.314   4.108   3.990
    1C        C  323   4.388   3.988   3.991
    1C        C  324   4.275   4.169   4.111
    1C        C  325   4.318   4.115   4.235
    1C        C  326   4.177   4.277   4.352
    1C        C  327   4.278   4.178   4.355
    1C        C  328   4.129   4.332   4.473
    1C        C  329   4.183   4.285   4.595
    1C        C  330   4.023   4.432   4.711
    1C        C  331   4.136   4.346   4.713
    1C        C  332   3.968   4.486   4.829
    1C        C  333   4.049   4.474   4.942
    1C        C  334   4.550   3.265   2.060
    1C        C  335   4.539   3.125   2.064
    1C        C  336   4.532   3.349   2.171
    1C        C  337   4.512   3.278   2.292
    1C        C  338   4.517   3.492   2.410
    1C        C  339   4.519   3.351   2.412
    1C        C  340   4.514   3.564   2.532
    1C        C  341   4.521   3.495   2.655
    1C        C  342   4.490   3.708   2.771
    1C        C  343   4.511   3.569   2.775
    1C        C  344   4.477   3.780   2.892
    1C        C  345   4.493   3.711   3.015
    1C        C  346   4.425   3.916   3.134
    1C        C  347   4.472   3.782   3.135
    1C        C  348   4.392   3.981   3.255
    1C        C  349   4.423   3.916   3.377
    1C        C  350   4.317   4.099   3.500
    1C        C  351   4.396   3.981   3.499
    1C        C  352   4.271   4.157   3.620
    1C        C  353   4.317   4.107   3.743
    1C        C  354   4.176   4.264   3.865
    1C        C  355   4.272   4.160   3.866
    1C        C  356   4.121   4.314   3.985
    1C        C  357   4.177   4.271   4.107
    1C        C  358   4.006   4.399   4.227
    1C        C  359   4.122   4.318   4.229
    1C        C  360   3.948   4.441   4.349
    1C        C  361   4.016   4.417   4.470
    1C        C  362   3.828   4.518   4.588
    1C        C  363   3.959   4.465   4.589
    1C        C  364   3.760   4.540   4.709
    1C        C  365   3.835   4.534   4.829
    1C        C  366   3.629   4.587   4.948
    1C        C  367   3.765   4.561   4.947
    1C        C  368   4.508   3.564   2.052
    1C        C  369   4.523   3.489   2.170
    1C        C  370   4.495   3.704   2.285
    1C        C  371   4.512   3.564   2.289
    1C        C  372   4.483   3.774   2.407
    1C        C  373   4.498   3.705   2.529
    1C        C  374   4.428   3.909   2.647
    1C        C  375   4.480   3.777   2.649
    1C        C  376   4.400   3.976   2.768
    1C        C  377   4.433   3.914   2.890
    1C        C  378   4.317   4.095   3.008
    1C        C  379   4.395   3.978   3.011
    1C        C  380   4.267   4.149   3.129
    1C        C  381   4.308   4.094   3.252
    1C        C  382   4.173   4.252   3.374
    1C        C  383   4.269   4.148   3.377
    1C        C  384   4.119   4.300   3.496
    1C        C  385   4.171   4.258   3.620
    1C        C  386   4.008   4.392   3.740
    1C        C  387   4.122   4.309   3.742
    1C        C  388   3.947   4.432   3.860
    1C        C  389   4.007   4.398   3.983
    1C        C  390   3.817   4.493   4.104
    1C        C  391   3.947   4.437   4.105
    1C        C  392   3.749   4.517   4.225
    1C        C  393   3.819   4.499   4.347
    1C        C  394   3.615   4.555   4.473
    1C        C  395   3.754   4.531   4.468
    1C        C  396   3.545   4.561   4.595
    1C        C  397   3.621   4.564   4.714
    1C        C  398   3.409   4.547   4.838
    1C        C  399   3.548   4.572   4.834
    1C        C  400   3.338   4.510   4.953
    1C        C  401   4.500   3.703   2.050
    1C        C  402   4.450   3.916   2.162
    1C        C  403   4.485   3.780   2.166
    1C        C  404   4.410   3.976   2.283
    1C        C  405   4.434   3.907   2.404
    1C        C  406   4.325   4.092   2.521
    1C        C  407   4.405   3.975   2.524
    1C        C  408   4.277   4.146   2.642
    1C        C  409   4.317   4.091   2.766
    1C        C  410   4.168   4.247   2.883
    1C        C  411   4.270   4.149   2.886
    1C        C  412   4.119   4.297   3.006
    1C        C  413   4.174   4.255   3.130
    1C        C  414   4.001   4.376   3.251
    1C        C  415   4.119   4.299   3.252
    1C        C  416   3.939   4.412   3.373
    1C        C  417   4.001   4.378   3.495
    1C        C  418   3.812   4.472   3.615
    1C        C  419   3.943   4.419   3.617
    1C        C  420   3.747   4.501   3.737
    1C        C  421   3.814   4.482   3.860
    1C        C  422   3.608   4.531   3.984
    1C        C  423   3.748   4.508   3.982
    1C        C  424   3.540   4.540   4.108
    1C        C  425   3.610   4.542   4.230
    1C        C  426   3.400   4.543   4.355
    1C        C  427   3.541   4.555   4.353
    1C        C  428   3.329   4.541   4.477
    1C        C  429   3.404   4.552   4.596
    1C        C  430   3.196   4.507   4.721
    1C        C  431   3.334   4.540   4.719
    1C        C  432   3.125   4.487   4.843
    1C        C  433   3.201   4.488   4.961
    1C        C  434   4.385   4.125   2.048
    1C        C  435   4.443   3.997   2.048
    1C        C  436   4.302   4.164   2.158
    1C        C  437   4.332   4.094   2.279
    1C        C  438   4.179   4.246   2.399
    1C        C  439   4.282   4.148   2.399
    1C        C  440   4.124   4.297   2.518
    1C        C  441   4.175   4.244   2.639
    1C        C  442   4.004   4.374   2.763
    1C        C  443   4.119   4.293   2.759
    1C        C  444   3.942   4.415   2.883
    1C        C  445   4.003   4.377   3.005
    1C        C  446   3.812   4.467   3.126
    1C        C  447   3.942   4.412   3.127
    1C        C  448   3.743   4.486   3.248
    1C        C  449   3.808   4.466   3.371
    1C        C  450   3.605   4.524   3.494
    1C        C  451   3.743   4.493   3.494
    1C        C  452   3.539   4.537   3.618
    1C        C  453   3.610   4.537   3.740
    1C        C  454   3.398   4.538   3.862
    1C        C  455   3.539   4.544   3.862
    1C        C  456   3.329   4.526   3.985
    1C        C  457   3.399   4.530   4.108
    1C        C  458   3.196   4.489   4.233
    1C        C  459   3.333   4.520   4.232
    1C        C  460   3.126   4.479   4.355
    1C        C  461   3.191   4.510   4.477
    1C        C  462   2.997   4.431   4.601
    1C        C  463   3.125   4.490   4.600
    1C        C  464   2.929   4.398   4.721
    1C        C  465   2.989   4.442   4.842
    1C        C  466   2.800   4.331   4.957
    1C        C  467   2.900   4.429   4.953
    1C        C  468   4.121   4.286   2.040
    1C        C  469   4.187   4.248   2.158
    1C        C  470   3.999   4.362   2.276
    1C        C  471   4.121   4.288   2.278
    1C        C  472   3.938   4.401   2.397
    1C        C  473   4.005   4.372   2.518
    1C        C  474   3.812   4.461   2.639
    1C        C  475   3.942   4.407   2.640
    1C        C  476   3.742   4.483   2.759
    1C        C  477   3.810   4.464   2.881
    1C        C  478   3.604   4.514   3.006
    1C        C  479   3.742   4.481   3.004
    1C        C  480   3.533   4.528   3.127
    1C        C  481   3.605   4.518   3.248
    1C        C  482   3.395   4.530   3.374
    1C        C  483   3.537   4.531   3.371
    1C        C  484   3.326   4.526   3.497
    1C        C  485   3.398   4.538   3.618
    1C        C  486   3.190   4.495   3.742
    1C        C  487   3.327   4.529   3.740
    1C        C  488   3.126   4.468   3.864
    1C        C  489   3.192   4.491   3.987
    1C        C  490   3.001   4.408   4.111
    1C        C  491   3.126   4.475   4.111
    1C        C  492   2.944   4.372   4.235
    1C        C  493   2.998   4.418   4.357
    1C        C  494   2.828   4.297   4.480
    1C        C  495   2.939   4.385   4.480
    1C        C  496   2.771   4.253   4.602
    1C        C  497   2.817   4.310   4.722
    1C        C  498   2.662   4.162   4.840
    1C        C  499   2.751   4.271   4.840
    1C        C  500   2.590   4.119   4.952
    1C        C  501   4.006   4.364   2.035
    1C        C  502   3.817   4.468   2.156
    1C        C  503   3.942   4.401   2.153
    1C        C  504   3.742   4.479   2.275
    1C        C  505   3.807   4.455   2.398
    1C        C  506   3.603   4.510   2.516
    1C        C  507   3.742   4.486   2.519
    1C        C  508   3.533   4.518   2.639
    1C        C  509   3.603   4.511   2.761
    1C        C  510   3.392   4.521   2.884
    1C        C  511   3.534   4.522   2.884
    1C        C  512   3.321   4.519   3.006
    1C        C  513   3.392   4.532   3.127
    1C        C  514   3.189   4.488   3.254
    1C        C  515   3.325   4.524   3.252
    1C        C  516   3.122   4.462   3.376
    1C        C  517   3.190   4.486   3.497
    1C        C  518   2.999   4.400   3.621
    1C        C  519   3.123   4.467   3.620
    1C        C  520   2.939   4.366   3.744
    1C        C  521   3.001   4.402   3.866
    1C        C  522   2.832   4.278   3.993
    1C        C  523   2.943   4.365   3.990
    1C        C  524   2.781   4.233   4.118
    1C        C  525   2.832   4.286   4.239
    1C        C  526   2.689   4.133   4.359
    1C        C  527   2.774   4.245   4.361
    1C        C  528   2.649   4.074   4.481
    1C        C  529   2.683   4.142   4.600
    1C        C  530   2.580   3.959   4.727
    1C        C  531   2.636   4.089   4.722
    1C        C  532   2.543   3.899   4.851
    1C        C  533   2.526   3.994   4.957
    1C        C  534   3.616   4.554   2.037
    1C        C  535   3.749   4.510   2.041
    1C        C  536   3.533   4.532   2.152
    1C        C  537   3.603   4.510   2.274
    1C        C  538   3.390   4.514   2.398
    1C        C  539   3.531   4.512   2.395
    1C        C  540   3.319   4.498   2.519
    1C        C  541   3.392   4.509   2.640
    1C        C  542   3.183   4.480   2.763
    1C        C  543   3.321   4.511   2.762
    1C        C  544   3.119   4.458   2.887
    1C        C  545   3.184   4.484   3.009
    1C        C  546   2.997   4.393   3.131
    1C        C  547   3.119   4.465   3.133
    1C        C  548   2.943   4.351   3.254
    1C        C  549   2.999   4.394   3.377
    1C        C  550   2.827   4.273   3.504
    1C        C  551   2.938   4.360   3.500
    1C        C  552   2.774   4.229   3.627
    1C        C  553   2.827   4.279   3.748
    1C        C  554   2.689   4.121   3.872
    1C        C  555   2.780   4.229   3.872
    1C        C  556   2.644   4.067   3.995
    1C        C  557   2.686   4.129   4.115
    1C        C  558   2.587   3.945   4.243
    1C        C  559   2.648   4.072   4.238
    1C        C  560   2.554   3.884   4.366
    1C        C  561   2.581   3.950   4.487
    1C        C  562   2.523   3.747   4.610
    1C        C  563   2.553   3.885   4.610
    1C        C  564   2.515   3.681   4.734
    1C        C  565   2.522   3.757   4.854
    1C        C  566   2.531   3.542   4.973
    1C        C  567   2.521   3.681   4.971
    1C        C  568   3.327   4.471   2.037
    1C        C  569   3.393   4.507   2.155
    1C        C  570   3.181   4.475   2.276
    1C        C  571   3.319   4.509   2.276
    1C        C  572   3.113   4.449   2.398
    1C        C  573   3.181   4.471   2.520
    1C        C  574   2.984   4.399   2.646
    1C        C  575   3.113   4.456   2.643
    1C        C  576   2.924   4.359   2.768
    1C        C  577   2.993   4.393   2.886
    1C        C  578   2.827   4.263   3.013
    1C        C  579   2.937   4.352   3.009
    1C        C  580   2.776   4.219   3.137
    1C        C  581   2.828   4.269   3.258
    1C        C  582   2.691   4.111   3.382
    1C        C  583   2.777   4.223   3.382
    1C        C  584   2.654   4.052   3.505
    1C        C  585   2.689   4.116   3.626
    1C        C  586   2.586   3.934   3.755
    1C        C  587   2.650   4.061   3.751
    1C        C  588   2.564   3.869   3.879
    1C        C  589   2.585   3.939   4.000
    1C        C  590   2.530   3.736   4.125
    1C        C  591   2.563   3.873   4.123
    1C        C  592   2.515   3.671   4.250
    1C        C  593   2.520   3.747   4.369
    1C        C  594   2.512   3.533   4.495
    1C        C  595   2.512   3.674   4.490
    1C        C  596   2.520   3.465   4.619
    1C        C  597   2.517   3.539   4.739
    1C        C  598   2.525   3.322   4.861
    1C        C  599   2.527   3.463   4.858
    1C        C  600   2.525   3.242   4.976
    1C        C  601   3.196   4.427   2.042
    1C        C  602   2.979   4.393   2.154
    1C        C  603   3.115   4.435   2.157
    1C        C  604   2.918   4.361   2.279
    1C        C  605   2.983   4.394   2.400
    1C        C  606   2.815   4.272   2.526
    1C        C  607   2.923   4.363   2.524
    1C        C  608   2.765   4.220   2.648
    1C        C  609   2.817   4.267   2.771
    1C        C  610   2.680   4.106   2.893
    1C        C  611   2.771   4.214   2.893
    1C        C  612   2.643   4.052   3.018
    1C        C  613   2.687   4.109   3.140
    1C        C  614   2.577   3.928   3.263
    1C        C  615   2.645   4.052   3.262
    1C        C  616   2.560   3.864   3.388
    1C        C  617   2.589   3.927   3.511
    1C        C  618   2.520   3.730   3.635
    1C        C  619   2.558   3.866   3.635
    1C        C  620   2.506   3.664   3.759
    1C        C  621   2.520   3.735   3.880
    1C        C  622   2.506   3.525   4.007
    1C        C  623   2.515   3.666   4.003
    1C        C  624   2.513   3.457   4.131
    1C        C  625   2.512   3.530   4.252
    1C        C  626   2.537   3.320   4.376
    1C        C  627   2.512   3.459   4.375
    1C        C  628   2.557   3.254   4.499
    1C        C  629   2.547   3.326   4.620
    1C        C  630   2.598   3.119   4.740
    1C        C  631   2.550   3.252   4.740
    1C        C  632   2.619   3.047   4.861
    1C        C  633   2.562   3.107   4.977
    1C        C  634   2.776   4.308   2.054
    1C        C  635   2.890   4.389   2.042
    1C        C  636   2.745   4.230   2.167
    1C        C  637   2.808   4.271   2.286
    1C        C  638   2.670   4.109   2.405
    1C        C  639   2.759   4.219   2.408
    1C        C  640   2.638   4.047   2.528
    1C        C  641   2.678   4.109   2.649
    1C        C  642   2.579   3.921   2.773
    1C        C  643   2.640   4.048   2.770
    1C        C  644   2.554   3.857   2.896
    1C        C  645   2.582   3.925   3.017
    1C        C  646   2.526   3.723   3.146
    1C        C  647   2.557   3.861   3.141
    1C        C  648   2.507   3.656   3.269
    1C        C  649   2.522   3.728   3.390
    1C        C  650   2.504   3.519   3.516
    1C        C  651   2.507   3.660   3.513
    1C        C  652   2.512   3.451   3.640
    1C        C  653   2.505   3.523   3.761
    1C        C  654   2.536   3.316   3.887
    1C        C  655   2.508   3.454   3.885
    1C        C  656   2.555   3.249   4.010
    1C        C  657   2.538   3.318   4.132
    1C        C  658   2.612   3.120   4.257
    1C        C  659   2.558   3.251   4.254
    1C        C  660   2.637   3.055   4.380
    1C        C  661   2.604   3.121   4.500
    1C        C  662   2.711   2.934   4.621
    1C        C  663   2.635   3.053   4.620
    1C        C  664   2.754   2.875   4.742
    1C        C  665   2.697   2.927   4.862
    1C        C  666   2.747   2.869   4.980
    1C        C  667   2.674   4.021   2.053
    1C        C  668   2.681   4.104   2.165
    1C        C  669   2.579   3.914   2.289
    1C        C  670   2.635   4.045   2.285
    1C        C  671   2.553   3.848   2.410
    1C        C  672   2.580   3.918   2.530
    1C        C  673   2.511   3.718   2.656
    1C        C  674   2.550   3.854   2.652
    1C        C  675   2.503   3.649   2.779
    1C        C  676   2.518   3.721   2.900
    1C        C  677   2.501   3.513   3.028
    1C        C  678   2.515   3.653   3.024
    1C        C  679   2.506   3.442   3.150
    1C        C  680   2.505   3.515   3.271
    1C        C  681   2.534   3.308   3.397
    1C        C  682   2.511   3.447   3.395
    1C        C  683   2.557   3.243   3.521
    1C        C  684   2.536   3.312   3.643
    1C        C  685   2.610   3.115   3.770
    1C        C  686   2.555   3.245   3.766
    1C        C  687   2.641   3.054   3.894
    1C        C  688   2.608   3.118   4.015
    1C        C  689   2.720   2.936   4.135
    1C        C  690   2.641   3.053   4.136
    1C        C  691   2.759   2.881   4.259
    1C        C  692   2.715   2.937   4.381
    1C        C  693   2.760   2.878   4.501
    1C        C  694   2.624   3.890   2.053
    1C        C  695   2.525   3.703   2.177
    1C        C  696   2.571   3.837   2.171
    1C        C  697   2.501   3.635   2.298
    1C        C  698   2.515   3.712   2.416
    1C        C  699   2.485   3.502   2.539
    1C        C  700   2.495   3.643   2.538
    1C        C  701   2.503   3.435   2.662
    1C        C  702   2.499   3.508   2.783
    1C        C  703   2.529   3.300   2.909
    1C        C  704   2.503   3.439   2.907
    1C        C  705   2.547   3.232   3.031
    1C        C  706   2.535   3.304   3.152
    1C        C  707   2.607   3.108   3.276
    1C        C  708   2.555   3.239   3.276
    1C        C  709   2.634   3.046   3.400
    1C        C  710   2.608   3.111   3.523
    1C        C  711   2.713   2.932   3.647
    1C        C  712   2.638   3.052   3.647
    1C        C  713   2.758   2.877   3.769
    1C        C  714   2.715   2.934   3.891
    1C        C  715   2.758   2.876   4.012
    1C        C  716   2.450   3.497   2.063
    1C        C  717   2.497   3.629   2.062
    1C        C  718   2.466   3.418   2.181
    1C        C  719   2.483   3.494   2.301
    1C        C  720   2.511   3.284   2.425
    1C        C  721   2.483   3.422   2.422
    1C        C  722   2.539   3.218   2.547
    1C        C  723   2.527   3.296   2.664
    1C        C  724   2.601   3.100   2.788
    1C        C  725   2.547   3.230   2.788
    1C        C  726   2.630   3.037   2.912
    1C        C  727   2.598   3.100   3.034
    1C        C  728   2.710   2.919   3.156
    1C        C  729   2.635   3.038   3.156
    1C        C  730   2.753   2.869   3.281
    1C        C  731   2.713   2.929   3.403
    1C        C  732   2.754   2.872   3.526
    1C        C  733   2.493   3.196   2.071
    1C        C  734   2.489   3.277   2.185
    1C        C  735   2.584   3.081   2.305
    1C        C  736   2.528   3.212   2.305
    1C        C  737   2.616   3.014   2.425
    1C        C  738   2.594   3.088   2.543
    1C        C  739   2.700   2.909   2.670
    1C        C  740   2.626   3.030   2.668
    1C        C  741   2.746   2.854   2.791
    1C        C  742   2.703   2.917   2.910
    1C        C  743   2.752   2.864   3.033
    1C        C  744   2.542   3.065   2.073
    1C        C  745   2.686   2.894   2.185
    1C        C  746   2.607   3.011   2.184
    1C        C  747   2.723   2.829   2.305
    1C        C  748   2.686   2.891   2.426
    1C        C  749   2.740   2.848   2.549
    1C        C  750   2.740   2.840   2.067
    1C        C  751   3.649   2.297   2.002
    1C        O  752   3.655   2.182   2.053
    1C        O  753   3.683   2.305   1.867
    1C        C  754   4.646   3.055   1.991
    1C        O  755   4.606   2.969   1.907
    1C        O  756   4.778   3.049   2.038
    1C        C  757   4.474   4.224   1.984
    1C        O  758   4.577   4.261   2.046
    1C        O  759   4.480   4.234   1.844
    1C        C  760   3.591   4.668   1.946
    1C        O  761   3.598   4.787   1.986
    1C        O  762   3.592   4.643   1.808
    1C        C  763   2.890   4.485   1.929
    1C        O  764   2.947   4.453   1.822
    1C        O  765   2.799   4.590   1.916
    1C        C  766   2.339   3.500   1.964
    1C        O  767   2.366   3.462   1.847
    1C        O  768   2.204   3.478   1.990
    1C        C  769   4.679   3.587   5.068
    1C        O  770   4.641   3.560   5.185
    1C        O  771   4.808   3.635   5.045
    1C        C  772   4.276   4.463   5.017
    1C        O  773   4.309   4.424   5.132
    1C        O  774   4.382   4.515   4.942
    1C        C  775   4.120   2.551   5.100
    1C        O  776   4.190   2.446   5.103
    1C        O  777   4.085   2.591   5.230
    1C        C  778   2.869   4.545   5.040
    1C        O  779   2.803   4.646   5.003
    1C        O  780   2.932   4.555   5.165
    1C        C  781   2.491   3.029   5.081
    1C        O  782   2.382   2.972   5.054
    1C        O  783   2.530   3.021   5.214
    1C        C  784   2.409   3.996   5.048
    1C        O  785   2.293   4.010   5.002
    1C        O  786   2.434   4.006   5.185
    1C        C  787   2.950   2.393   2.023
    1C        O  788   2.918   2.403   1.901
    1C        O  789   2.865   2.318   2.103
    1C        C  790   3.179   2.374   5.072
    1C        O  791   3.113   2.270   5.047
    1C        O  792   3.207   2.411   5.204
    1C        H  793   4.316   3.002   5.070
    1C        H  794   4.128   2.854   5.042
    1C        H  795   4.451   3.148   5.071
    1C        H  796   4.503   3.370   5.065
    1C        H  797   4.586   3.814   5.032
    1C        H  798   4.418   3.972   5.054
    1C        H  799   4.321   4.193   5.043
    1C        H  800   4.030   4.543   5.022
    1C        H  801   3.805   4.522   5.039
    1C        H  802   3.592   4.652   5.024
    1C        H  803   3.389   4.495   5.046
    1C        H  804   3.159   4.451   5.052
    1C        H  805   3.924   2.428   5.021
    1C        H  806   3.673   2.503   5.069
    1C        H  807   2.984   2.520   5.048
    1C        H  808   3.439   2.496   5.073
    1C        H  809   2.885   2.741   5.077
    1C        H  810   2.730   2.918   5.074
    1C        H  811   2.503   3.286   5.071
    1C        H  812   2.555   3.501   5.069
    1C        H  813   2.523   3.735   5.064
    1C        H  814   2.578   4.181   5.038
    1C        H  815   2.738   4.330   5.045
    1C        H  816   2.733   2.891   1.974
    1C        H  817   2.798   2.655   1.989
    1C        H  818   3.194   2.392   2.004
    1C        H  819   3.422   2.464   1.979
    1C        H  820   3.861   2.482   1.981
    1C        H  821   4.071   2.587   1.972
    1C        H  822   4.260   2.709   1.976
    1C        H  823   4.392   2.897   1.962
    1C        H  824   4.557   3.309   1.963
    1C        H  825   4.539   3.517   1.960
    1C        H  826   4.549   3.752   1.968
    1C        H  827   3.806   4.518   1.950
    1C        H  828   3.982   4.416   1.944
    1C        H  829   4.139   4.228   1.952
    1C        H  830   4.478   3.958   1.955
    1C        H  831   2.636   3.835   1.962
    1C        H  832   2.726   4.056   1.966
    1C        H  833   2.712   4.289   1.971
    1C        H  834   3.362   4.505   1.942
    1C        H  835   3.168   4.356   1.967
    1C        H  836   2.525   3.002   1.988
    1C        H  837   2.448   3.229   1.980
    1C        H  838   2.529   3.661   1.964
    2V3OU   H29  839   2.791   3.554   1.609
    2V3OU   C27  840   2.779   3.501   1.707
    2V3OU   H27  841   2.723   3.569   1.776
    2V3OU   H28  842   2.726   3.403   1.695
    2V3OU   O11  843   2.907   3.470   1.761
    2V3OU   C15  844   2.921   3.390   1.873
    2V3OU   C13  845   3.048   3.371   1.931
    2V3OU   C14  846   3.072   3.268   2.023
    2V3OU   C16  847   2.971   3.183   2.067
    2V3OU    H6  848   2.986   3.096   2.133
    2V3OU   C12  849   3.209   3.231   2.063
    2V3OU    O2  850   3.235   3.120   2.115
    2V3OU   C10  851   3.320   3.300   1.995
    2V3OU    C8  852   3.452   3.263   2.020
    2V3OU   O10  853   3.489   3.148   2.081
    2V3OU   H26  854   3.412   3.109   2.125
    2V3OU    C6  855   3.562   3.345   1.979
    2V3OU    C5  856   3.534   3.462   1.909
    2V3OU    C4  857   3.700   3.291   1.990
    2V3OU    H4  858   3.713   3.221   2.078
    2V3OU    H5  859   3.712   3.223   1.900
    2V3OU    C2  860   3.813   3.394   1.985
    2V3OU    O6  861   3.811   3.478   2.101
    2V3OU   H21  862   3.760   3.557   2.076
    2V3OU    C3  863   3.780   3.496   1.876
    2V3OU    H2  864   3.858   3.575   1.896
    2V3OU    H3  865   3.782   3.438   1.780
    2V3OU   C25  866   3.949   3.326   1.970
    2V3OU    O7  867   3.997   3.294   1.862
    2V3OU   C26  868   4.028   3.292   2.095
    2V3OU   H22  869   4.062   3.381   2.155
    2V3OU   H23  870   4.115   3.226   2.069
    2V3OU    O8  871   3.961   3.207   2.185
    2V3OU   H24  872   3.911   3.263   2.247
    2V3OU    C1  873   3.644   3.561   1.888
    2V3OU    H1  874   3.623   3.619   1.792
    2V3OU    O3  875   3.650   3.648   2.001
    2V3OU   C19  876   3.613   3.785   1.986
    2V3OU    H9  877   3.512   3.803   1.938
    2V3OU    O4  878   3.713   3.841   1.903
    2V3OU   C20  879   3.843   3.868   1.956
    2V3OU   H10  880   3.902   3.775   1.982
    2V3OU   C24  881   3.610   3.856   2.121
    2V3OU   H16  882   3.543   3.798   2.189
    2V3OU   H17  883   3.566   3.955   2.094
    2V3OU   C23  884   3.747   3.874   2.186
    2V3OU   H15  885   3.792   3.771   2.203
    2V3OU    N1  886   3.735   3.948   2.311
    2V3OU   H19  887   3.807   3.927   2.377
    2V3OU   H20  888   3.645   3.932   2.352
    2V3OU   C21  889   3.844   3.946   2.088
    2V3OU   H11  890   3.947   3.927   2.129
    2V3OU    O5  891   3.816   4.085   2.096
    2V3OU   H18  892   3.779   4.100   2.185
    2V3OU   C22  893   3.913   3.942   1.844
    2V3OU   H12  894   3.862   4.040   1.828
    2V3OU   H13  895   3.901   3.887   1.747
    2V3OU   H14  896   4.022   3.959   1.865
    2V3OU   C11  897   3.154   3.468   1.904
    2V3OU    O1  898   3.128   3.576   1.847
    2V3OU    C9  899   3.293   3.423   1.928
    2V3OU    C7  900   3.399   3.503   1.887
    2V3OU    O9  901   3.383   3.617   1.810
    2V3OU   H25  902   3.286   3.623   1.808
    2V3OU   C17  903   2.816   3.308   1.920
    2V3OU    H7  904   2.715   3.340   1.897
    2V3OU   C18  905   2.845   3.209   2.013
    2V3OU    H8  906   2.753   3.155   2.036
    3SOL     OW  907   2.698   4.132   0.743
    3SOL    HW1  908   2.646   4.103   0.824
    3SOL    HW2  909   2.647   4.107   0.661
    4SOL     OW  910   6.941   5.662   1.922
    4SOL    HW1  911   7.018   5.672   1.859
    4SOL    HW2  912   6.871   5.729   1.901
    5SOL     OW  913   3.721   1.400   2.325
    5SOL    HW1  914   3.768   1.314   2.344
    5SOL    HW2  915   3.784   1.464   2.281
    6SOL     OW  916   3.722   2.117   2.313
    6SOL    HW1  917   3.677   2.152   2.395
    6SOL    HW2  918   3.682   2.161   2.232
    7SOL     OW  919   6.378   2.998   1.505
    7SOL    HW1  920   6.451   3.010   1.572
    7SOL    HW2  921   6.416   3.005   1.413
    8SOL     OW  922   2.121   6.573   5.068
    8SOL    HW1  923   2.194   6.509   5.093
    8SOL    HW2  924   2.101   6.634   5.145
    9SOL     OW  925   1.056   5.336   5.877
    9SOL    HW1  926   1.134   5.398   5.885
    9SOL    HW2  927   1.036   5.296   5.966
   10SOL     OW  928   0.652   4.302   5.669
   10SOL    HW1  929   0.699   4.219   5.698
   10SOL    HW2  930   0.678   4.378   5.728
   11SOL     OW  931   2.824   0.384   0.365
   11SOL    HW1  932   2.761   0.308   0.380
   11SOL    HW2  933   2.772   0.468   0.351
   12SOL     OW  934   4.531   6.323   3.619
   12SOL    HW1  935   4.434   6.323   3.642
   12SOL    HW2  936   4.546   6.373   3.534
   13SOL     OW  937   3.582   6.090   4.380
   13SOL    HW1  938   3.502   6.056   4.430
   13SOL    HW2  939   3.626   6.015   4.331
   14SOL     OW  940   4.196   5.684   6.233
   14SOL    HW1  941   4.114   5.681   6.176
   14SOL    HW2  942   4.171   5.664   6.328
   15SOL     OW  943   1.500   5.921   6.896
   15SOL    HW1  944   1.571   5.938   6.965
   15SOL    HW2  945   1.439   5.849   6.929
   16SOL     OW  946   6.249   2.061   5.649
   16SOL    HW1  947   6.183   1.989   5.669
   16SOL    HW2  948   6.342   2.024   5.659
   17SOL     OW  949   5.189   6.201   4.529
   17SOL    HW1  950   5.247   6.151   4.593
   17SOL    HW2  951   5.122   6.138   4.489
   18SOL     OW  952   2.913   1.877   6.828
   18SOL    HW1  953   2.969   1.817   6.772
   18SOL    HW2  954   2.839   1.915   6.773
   19SOL     OW  955   0.073   6.648   3.418
   19SOL    HW1  956   0.020   6.727   3.451
   19SOL    HW2  957   0.012   6.586   3.369
   20SOL     OW  958   3.343   0.800   4.416
   20SOL    HW1  959   3.425   0.835   4.461
   20SOL    HW2  960   3.353   0.807   4.317
   21SOL     OW  961   2.951   1.919   2.865
   21SOL    HW1  962   2.948   1.819   2.867
   21SOL    HW2  963   3.015   1.948   2.794
   22SOL     OW  964   2.054   0.344   6.858
   22SOL    HW1  965   2.000   0.345   6.942
   22SOL    HW2  966   2.107   0.260   6.852
   23SOL     OW  967   4.436   6.872   3.574
   23SOL    HW1  968   4.464   6.967   3.592
   23SOL    HW2  969   4.479   6.840   3.490
   24SOL     OW  970   5.354   0.800   4.020
   24SOL    HW1  971   5.266   0.843   4.042
   24SOL    HW2  972   5.421   0.823   4.091
   25SOL     OW  973   3.176   5.819   6.189
   25SOL    HW1  974   3.230   5.848   6.110
   25SOL    HW2  975   3.173   5.893   6.256
   26SOL     OW  976   5.797   1.461   1.121
   26SOL    HW1  977   5.836   1.533   1.177
   26SOL    HW2  978   5.861   1.385   1.114
   27SOL     OW  979   6.929   0.816   2.175
   27SOL    HW1  980   6.976   0.774   2.252
   27SOL    HW2  981   6.987   0.889   2.136
   28SOL     OW  982   4.287   0.942   0.073
   28SOL    HW1  983   4.311   0.869   0.137
   28SOL    HW2  984   4.370   0.974   0.026
   29SOL     OW  985   4.979   2.655   2.091
   29SOL    HW1  986   4.991   2.753   2.078
   29SOL    HW2  987   4.885   2.630   2.070
   30SOL     OW  988   2.769   6.929   5.506
   30SOL    HW1  989   2.695   6.994   5.522
   30SOL    HW2  990   2.853   6.979   5.484
   31SOL     OW  991   0.664   1.291   5.597
   31SOL    HW1  992   0.595   1.220   5.581
   31SOL    HW2  993   0.656   1.361   5.526
   32SOL     OW  994   0.666   2.424   2.788
   32SOL    HW1  995   0.567   2.434   2.776
   32SOL    HW2  996   0.713   2.481   2.721
   33SOL     OW  997   2.034   2.902   6.431
   33SOL    HW1  998   2.103   2.840   6.467
   33SOL    HW2  999   1.963   2.918   6.500
   34SOL     OW 1000   1.630   0.779   4.623
   34SOL    HW1 1001   1.728   0.781   4.606
   34SOL    HW2 1002   1.582   0.820   4.545
   35SOL     OW 1003   4.263   2.344   6.417
   35SOL    HW1 1004   4.223   2.435   6.431
   35SOL    HW2 1005   4.209   2.276   6.466
   36SOL     OW 1006   0.995   0.665   6.227
   36SOL    HW1 1007   0.970   0.572   6.198
   36SOL    HW2 1008   1.093   0.668   6.248
   37SOL     OW 1009   2.339   6.920   0.800
   37SOL    HW1 1010   2.353   6.827   0.764
   37SOL    HW2 1011   2.428   6.963   0.816
   38SOL     OW 1012   0.518   5.741   3.009
   38SOL    HW1 1013   0.558   5.668   3.064
   38SOL    HW2 1014   0.480   5.702   2.925
   39SOL     OW 1015   6.854   3.984   6.305
   39SOL    HW1 1016   6.828   3.943   6.392
   39SOL    HW2 1017   6.788   3.956   6.235
   40SOL     OW 1018   6.021   2.556   2.155
   40SOL    HW1 1019   6.032   2.540   2.253
   40SOL    HW2 1020   6.021   2.654   2.137
   41SOL     OW 1021   1.523   6.519   4.324
   41SOL    HW1 1022   1.549   6.429   4.288
   41SOL    HW2 1023   1.496   6.509   4.420
   42SOL     OW 1024   2.936   6.760   6.081
   42SOL    HW1 1025   2.897   6.669   6.069
   42SOL    HW2 1026   3.022   6.753   6.131
   43SOL     OW 1027   5.887   6.080   6.144
   43SOL    HW1 1028   5.817   6.011   6.164
   43SOL    HW2 1029   5.916   6.070   6.048
   44SOL     OW 1030   6.713   2.820   6.591
   44SOL    HW1 1031   6.694   2.789   6.684
   44SOL    HW2 1032   6.627   2.837   6.544
   45SOL     OW 1033   3.145   0.858   3.737
   45SOL    HW1 1034   3.243   0.870   3.753
   45SOL    HW2 1035   3.125   0.877   3.641
   46SOL     OW 1036   0.761   3.919   4.305
   46SOL    HW1 1037   0.731   3.824   4.302
   46SOL    HW2 1038   0.816   3.940   4.225
   47SOL     OW 1039   5.700   3.385   3.570
   47SOL    HW1 1040   5.635   3.330   3.517
   47SOL    HW2 1041   5.791   3.375   3.532
   48SOL     OW 1042   0.802   2.514   4.750
   48SOL    HW1 1043   0.878   2.560   4.702
   48SOL    HW2 1044   0.782   2.562   4.835
   49SOL     OW 1045   4.617   4.109   1.690
   49SOL    HW1 1046   4.546   4.145   1.749
   49SOL    HW2 1047   4.691   4.070   1.745
   50SOL     OW 1048   6.648   2.750   5.339
   50SOL    HW1 1049   6.717   2.687   5.376
   50SOL    HW2 1050   6.557   2.710   5.350
   51SOL     OW 1051   2.996   5.560   2.531
   51SOL    HW1 1052   2.899   5.554   2.557
   51SOL    HW2 1053   3.048   5.600   2.605
   52SOL     OW 1054   4.123   1.526   3.834
   52SOL    HW1 1055   4.125   1.549   3.737
   52SOL    HW2 1056   4.215   1.532   3.872
   53SOL     OW 1057   4.293   0.403   3.756
   53SOL    HW1 1058   4.211   0.455   3.733
   53SOL    HW2 1059   4.277   0.348   3.838
   54SOL     OW 1060   2.805   5.214   6.609
   54SOL    HW1 1061   2.896   5.192   6.573
   54SOL    HW2 1062   2.767   5.134   6.655
   55SOL     OW 1063   3.665   1.226   6.249
   55SOL    HW1 1064   3.716   1.307   6.279
   55SOL    HW2 1065   3.568   1.239   6.267
   56SOL     OW 1066   1.826   0.675   1.581
   56SOL    HW1 1067   1.875   0.639   1.502
   56SOL    HW2 1068   1.833   0.610   1.657
   57SOL     OW 1069   4.845   0.595   0.545
   57SOL    HW1 1070   4.825   0.512   0.494
   57SOL    HW2 1071   4.899   0.573   0.626
   58SOL     OW 1072   0.522   5.743   6.441
   58SOL    HW1 1073   0.489   5.741   6.347
   58SOL    HW2 1074   0.449   5.772   6.502
   59SOL     OW 1075   1.535   1.116   6.552
   59SOL    HW1 1076   1.475   1.049   6.597
   59SOL    HW2 1077   1.577   1.074   6.471
   60SOL     OW 1078   5.250   0.696   5.792
   60SOL    HW1 1079   5.310   0.622   5.762
   60SOL    HW2 1080   5.230   0.684   5.889
   61SOL     OW 1081   4.820   0.969   4.097
   61SOL    HW1 1082   4.769   0.979   4.011
   61SOL    HW2 1083   4.801   1.047   4.156
   62SOL     OW 1084   0.619   1.531   3.658
   62SOL    HW1 1085   0.696   1.593   3.643
   62SOL    HW2 1086   0.565   1.524   3.575
   63SOL     OW 1087   6.285   1.684   3.924
   63SOL    HW1 1088   6.327   1.741   3.853
   63SOL    HW2 1089   6.292   1.731   4.012
   64SOL     OW 1090   0.416   4.015   6.943
   64SOL    HW1 1091   0.353   4.084   6.905
   64SOL    HW2 1092   0.384   3.924   6.919
   65SOL     OW 1093   6.345   4.122   5.011
   65SOL    HW1 1094   6.364   4.220   5.017
   65SOL    HW2 1095   6.253   4.104   5.045
   66SOL     OW 1096   3.291   0.728   6.819
   66SOL    HW1 1097   3.266   0.653   6.879
   66SOL    HW2 1098   3.209   0.766   6.776
   67SOL     OW 1099   5.827   5.676   5.493
   67SOL    HW1 1100   5.886   5.755   5.510
   67SOL    HW2 1101   5.852   5.634   5.406
   68SOL     OW 1102   6.664   1.465   6.776
   68SOL    HW1 1103   6.746   1.497   6.824
   68SOL    HW2 1104   6.584   1.473   6.835
   69SOL     OW 1105   1.555   3.962   6.328
   69SOL    HW1 1106   1.641   3.970   6.379
   69SOL    HW2 1107   1.563   3.890   6.259
   70SOL     OW 1108   6.217   5.680   2.640
   70SOL    HW1 1109   6.158   5.610   2.599
   70SOL    HW2 1110   6.172   5.718   2.721
   71SOL     OW 1111   2.710   2.089   3.233
   71SOL    HW1 1112   2.635   2.054   3.177
   71SOL    HW2 1113   2.787   2.114   3.174
   72SOL     OW 1114   2.681   6.421   4.670
   72SOL    HW1 1115   2.712   6.326   4.677
   72SOL    HW2 1116   2.628   6.445   4.751
   73SOL     OW 1117   2.998   1.869   0.244
   73SOL    HW1 1118   2.950   1.919   0.173
   73SOL    HW2 1119   2.974   1.907   0.334
   74SOL     OW 1120   5.238   6.377   0.324
   74SOL    HW1 1121   5.256   6.348   0.230
   74SOL    HW2 1122   5.143   6.360   0.348
   75SOL     OW 1123   3.706   5.499   5.502
   75SOL    HW1 1124   3.784   5.448   5.538
   75SOL    HW2 1125   3.622   5.463   5.542
   76SOL     OW 1126   1.682   2.474   1.338
   76SOL    HW1 1127   1.683   2.511   1.431
   76SOL    HW2 1128   1.663   2.548   1.274
   77SOL     OW 1129   4.822   5.495   4.316
   77SOL    HW1 1130   4.816   5.497   4.216
   77SOL    HW2 1131   4.868   5.579   4.347
   78SOL     OW 1132   6.416   6.677   5.936
   78SOL    HW1 1133   6.397   6.616   6.013
   78SOL    HW2 1134   6.341   6.742   5.925
   79SOL     OW 1135   2.805   6.891   0.590
   79SOL    HW1 1136   2.866   6.886   0.510
   79SOL    HW2 1137   2.733   6.823   0.581
   80SOL     OW 1138   5.726   0.859   4.485
   80SOL    HW1 1139   5.630   0.864   4.459
   80SOL    HW2 1140   5.775   0.937   4.445
   81SOL     OW 1141   2.232   0.275   2.730
   81SOL    HW1 1142   2.322   0.249   2.766
   81SOL    HW2 1143   2.245   0.334   2.650
   82SOL     OW 1144   6.779   4.993   0.325
   82SOL    HW1 1145   6.826   4.987   0.237
   82SOL    HW2 1146   6.695   5.046   0.314
   83SOL     OW 1147   6.405   0.270   0.806
   83SOL    HW1 1148   6.381   0.354   0.757
   83SOL    HW2 1149   6.474   0.220   0.754
   84SOL     OW 1150   4.924   3.560   3.099
   84SOL    HW1 1151   5.005   3.577   3.042
   84SOL    HW2 1152   4.910   3.462   3.108
   85SOL     OW 1153   0.867   1.698   5.135
   85SOL    HW1 1154   0.912   1.775   5.088
   85SOL    HW2 1155   0.927   1.662   5.206
   86SOL     OW 1156   1.016   0.472   5.667
   86SOL    HW1 1157   1.100   0.418   5.674
   86SOL    HW2 1158   0.937   0.415   5.695
   87SOL     OW 1159   4.908   2.721   0.867
   87SOL    HW1 1160   4.909   2.718   0.767
   87SOL    HW2 1161   4.895   2.816   0.897
   88SOL     OW 1162   4.539   1.796   0.147
   88SOL    HW1 1163   4.584   1.827   0.230
   88SOL    HW2 1164   4.609   1.774   0.078
   89SOL     OW 1165   1.732   3.005   6.552
   89SOL    HW1 1166   1.758   3.096   6.586
   89SOL    HW2 1167   1.689   3.015   6.462
   90SOL     OW 1168   4.733   7.018   3.796
   90SOL    HW1 1169   4.692   6.962   3.868
   90SOL    HW2 1170   4.670   0.074   3.773
   91SOL     OW 1171   4.450   4.527   4.259
   91SOL    HW1 1172   4.399   4.570   4.184
   91SOL    HW2 1173   4.537   4.575   4.271
   92SOL     OW 1174   3.238   4.454   0.403
   92SOL    HW1 1175   3.281   4.543   0.412
   92SOL    HW2 1176   3.162   4.447   0.468
   93SOL     OW 1177   2.583   4.395   6.054
   93SOL    HW1 1178   2.540   4.482   6.080
   93SOL    HW2 1179   2.542   4.362   5.969
   94SOL     OW 1180   2.521   5.609   6.102
   94SOL    HW1 1181   2.425   5.635   6.092
   94SOL    HW2 1182   2.528   5.511   6.119
   95SOL     OW 1183   0.584   2.201   3.378
   95SOL    HW1 1184   0.640   2.177   3.298
   95SOL    HW2 1185   0.515   2.130   3.393
   96SOL     OW 1186   2.785   6.933   5.937
   96SOL    HW1 1187   2.844   6.882   5.999
   96SOL    HW2 1188   2.762   6.875   5.858
   97SOL     OW 1189   0.249   4.004   5.699
   97SOL    HW1 1190   0.236   4.041   5.791
   97SOL    HW2 1191   0.318   3.932   5.701
   98SOL     OW 1192   6.502   3.768   0.059
   98SOL    HW1 1193   6.495   3.715   0.144
   98SOL    HW2 1194   6.577   3.731   0.004
   99SOL     OW 1195   4.389   4.093   1.317
   99SOL    HW1 1196   4.479   4.055   1.336
   99SOL    HW2 1197   4.323   4.059   1.384
  100SOL     OW 1198   0.549   6.743   5.974
  100SOL    HW1 1199   0.483   6.774   6.043
  100SOL    HW2 1200   0.568   6.646   5.989
  101SOL     OW 1201   0.896   6.055   2.465
  101SOL    HW1 1202   0.809   6.051   2.416
  101SOL    HW2 1203   0.941   6.142   2.445
  102SOL     OW 1204   4.851   1.032   2.266
  102SOL    HW1 1205   4.830   0.950   2.213
  102SOL    HW2 1206   4.842   1.113   2.208
  103SOL     OW 1207   4.255   1.294   2.112
  103SOL    HW1 1208   4.174   1.251   2.152
  103SOL    HW2 1209   4.234   1.326   2.020
  104SOL     OW 1210   0.331   5.847   2.607
  104SOL    HW1 1211   0.379   5.762   2.629
  104SOL    HW2 1212   0.287   5.838   2.517
  105SOL     OW 1213   6.616   1.721   6.605
  105SOL    HW1 1214   6.603   1.634   6.652
  105SOL    HW2 1215   6.713   1.744   6.603
  106SOL     OW 1216   3.275   6.835   5.772
  106SOL    HW1 1217   3.194   6.782   5.748
  106SOL    HW2 1218   3.347   6.819   5.706
  107SOL     OW 1219   1.735   2.269   1.746
  107SOL    HW1 1220   1.747   2.176   1.711
  107SOL    HW2 1221   1.764   2.273   1.841
  108SOL     OW 1222   4.480   4.719   6.677
  108SOL    HW1 1223   4.554   4.665   6.635
  108SOL    HW2 1224   4.516   4.771   6.754
  109SOL     OW 1225   0.608   0.631   1.361
  109SOL    HW1 1226   0.671   0.689   1.412
  109SOL    HW2 1227   0.648   0.606   1.273
  110SOL     OW 1228   4.177   6.327   5.751
  110SOL    HW1 1229   4.140   6.239   5.780
  110SOL    HW2 1230   4.137   6.400   5.806
  111SOL     OW 1231   3.790   0.707   4.897
  111SOL    HW1 1232   3.806   0.762   4.815
  111SOL    HW2 1233   3.864   0.723   4.962
  112SOL     OW 1234   6.430   6.367   6.184
  112SOL    HW1 1235   6.379   6.451   6.202
  112SOL    HW2 1236   6.371   6.288   6.204
  113SOL     OW 1237   6.755   5.293   3.569
  113SOL    HW1 1238   6.691   5.344   3.627
  113SOL    HW2 1239   6.754   5.331   3.477
  114SOL     OW 1240   1.184   0.033   0.908
  114SOL    HW1 1241   1.245   0.001   0.835
  114SOL    HW2 1242   1.094   7.011   0.897
  115SOL     OW 1243   4.587   0.831   4.196
  115SOL    HW1 1244   4.561   0.788   4.282
  115SOL    HW2 1245   4.686   0.845   4.194
  116SOL     OW 1246   6.155   5.406   2.233
  116SOL    HW1 1247   6.242   5.357   2.244
  116SOL    HW2 1248   6.124   5.398   2.139
  117SOL     OW 1249   0.665   1.324   6.377
  117SOL    HW1 1250   0.611   1.298   6.297
  117SOL    HW2 1251   0.748   1.372   6.347
  118SOL     OW 1252   0.281   1.877   2.204
  118SOL    HW1 1253   0.291   1.941   2.280
  118SOL    HW2 1254   0.350   1.896   2.134
  119SOL     OW 1255   0.804   2.207   6.612
  119SOL    HW1 1256   0.877   2.150   6.650
  119SOL    HW2 1257   0.844   2.287   6.568
  120SOL     OW 1258   6.951   6.428   0.484
  120SOL    HW1 1259   7.005   6.446   0.566
  120SOL    HW2 1260   6.873   6.490   0.481
  121SOL     OW 1261   2.678   3.334   0.163
  121SOL    HW1 1262   2.600   3.359   0.107
  121SOL    HW2 1263   2.757   3.391   0.139
  122SOL     OW 1264   1.794   4.541   6.051
  122SOL    HW1 1265   1.725   4.470   6.039
  122SOL    HW2 1266   1.830   4.537   6.144
  123SOL     OW 1267   0.539   1.838   1.620
  123SOL    HW1 1268   0.528   1.742   1.594
  123SOL    HW2 1269   0.569   1.843   1.715
  124SOL     OW 1270   5.409   3.222   0.279
  124SOL    HW1 1271   5.450   3.313   0.275
  124SOL    HW2 1272   5.442   3.174   0.361
  125SOL     OW 1273   2.402   1.622   2.116
  125SOL    HW1 1274   2.469   1.579   2.176
  125SOL    HW2 1275   2.395   1.720   2.138
  126SOL     OW 1276   2.941   4.557   0.576
  126SOL    HW1 1277   2.896   4.469   0.564
  126SOL    HW2 1278   2.884   4.616   0.633
  127SOL     OW 1279   0.007   4.895   6.133
  127SOL    HW1 1280   0.008   4.814   6.074
  127SOL    HW2 1281   0.090   4.896   6.189
  128SOL     OW 1282   4.358   2.751   1.346
  128SOL    HW1 1283   4.296   2.785   1.275
  128SOL    HW2 1284   4.389   2.659   1.321
  129SOL     OW 1285   4.994   3.733   5.765
  129SOL    HW1 1286   5.043   3.780   5.691
  129SOL    HW2 1287   4.962   3.644   5.733
  130SOL     OW 1288   0.694   1.272   4.362
  130SOL    HW1 1289   0.757   1.345   4.390
  130SOL    HW2 1290   0.691   1.202   4.434
  131SOL     OW 1291   5.364   1.193   2.415
  131SOL    HW1 1292   5.350   1.251   2.334
  131SOL    HW2 1293   5.315   1.233   2.492
  132SOL     OW 1294   1.942   3.099   1.009
  132SOL    HW1 1295   1.986   3.101   0.920
  132SOL    HW2 1296   1.996   3.043   1.072
  133SOL     OW 1297   5.362   6.836   3.409
  133SOL    HW1 1298   5.388   6.799   3.320
  133SOL    HW2 1299   5.304   6.917   3.396
  134SOL     OW 1300   5.757   2.265   3.334
  134SOL    HW1 1301   5.850   2.270   3.371
  134SOL    HW2 1302   5.692   2.253   3.408
  135SOL     OW 1303   5.269   3.135   2.138
  135SOL    HW1 1304   5.360   3.162   2.108
  135SOL    HW2 1305   5.257   3.037   2.126
  136SOL     OW 1306   4.059   3.604   6.795
  136SOL    HW1 1307   4.110   3.608   6.881
  136SOL    HW2 1308   3.960   3.604   6.815
  137SOL     OW 1309   4.202   0.330   5.398
  137SOL    HW1 1310   4.222   0.425   5.375
  137SOL    HW2 1311   4.190   0.320   5.497
  138SOL     OW 1312   0.111   4.912   4.018
  138SOL    HW1 1313   0.146   4.963   4.096
  138SOL    HW2 1314   0.095   4.974   3.942
  139SOL     OW 1315   2.199   6.259   4.898
  139SOL    HW1 1316   2.258   6.178   4.895
  139SOL    HW2 1317   2.203   6.306   4.809
  140SOL     OW 1318   0.090   6.175   3.472
  140SOL    HW1 1319   0.070   6.080   3.496
  140SOL    HW2 1320   0.042   6.199   3.388
  141SOL     OW 1321   0.044   2.583   5.257
  141SOL    HW1 1322   0.086   2.603   5.345
  141SOL    HW2 1323   6.974   2.538   5.272
  142SOL     OW 1324   1.534   5.786   0.740
  142SOL    HW1 1325   1.552   5.856   0.809
  142SOL    HW2 1326   1.609   5.720   0.741
  143SOL     OW 1327   5.507   4.542   1.955
  143SOL    HW1 1328   5.421   4.526   1.907
  143SOL    HW2 1329   5.511   4.485   2.037
  144SOL     OW 1330   1.651   6.951   6.102
  144SOL    HW1 1331   1.726   6.936   6.167
  144SOL    HW2 1332   1.577   6.888   6.122
  145SOL     OW 1333   0.585   4.880   0.605
  145SOL    HW1 1334   0.621   4.797   0.649
  145SOL    HW2 1335   0.498   4.905   0.648
  146SOL     OW 1336   4.976   6.927   5.934
  146SOL    HW1 1337   4.921   6.879   6.003
  146SOL    HW2 1338   4.965   0.008   5.946
  147SOL     OW 1339   6.359   2.904   0.050
  147SOL    HW1 1340   6.432   2.935   7.007
  147SOL    HW2 1341   6.380   2.811   0.082
  148SOL     OW 1342   0.715   5.280   6.093
  148SOL    HW1 1343   0.671   5.205   6.142
  148SOL    HW2 1344   0.695   5.367   6.140
  149SOL     OW 1345   2.929   1.342   4.149
  149SOL    HW1 1346   2.924   1.321   4.247
  149SOL    HW2 1347   2.899   1.436   4.134
  150SOL     OW 1348   5.913   4.782   6.364
  150SOL    HW1 1349   5.998   4.778   6.312
  150SOL    HW2 1350   5.919   4.855   6.432
  151SOL     OW 1351   3.505   1.753   1.484
  151SOL    HW1 1352   3.534   1.680   1.422
  151SOL    HW2 1353   3.436   1.810   1.439
  152SOL     OW 1354   1.897   1.295   4.349
  152SOL    HW1 1355   1.850   1.379   4.320
  152SOL    HW2 1356   1.848   1.255   4.426
  153SOL     OW 1357   2.674   0.080   2.022
  153SOL    HW1 1358   2.689   0.171   1.984
  153SOL    HW2 1359   2.737   0.015   1.979
  154SOL     OW 1360   0.268   3.202   2.748
  154SOL    HW1 1361   0.243   3.266   2.821
  154SOL    HW2 1362   0.229   3.234   2.662
  155SOL     OW 1363   0.624   1.667   3.284
  155SOL    HW1 1364   0.638   1.571   3.306
  155SOL    HW2 1365   0.526   1.686   3.280
  156SOL     OW 1366   6.640   2.015   1.488
  156SOL    HW1 1367   6.580   2.095   1.494
  156SOL    HW2 1368   6.735   2.043   1.505
  157SOL     OW 1369   5.822   3.625   2.198
  157SOL    HW1 1370   5.753   3.654   2.132
  157SOL    HW2 1371   5.830   3.693   2.270
  158SOL     OW 1372   2.430   6.830   2.327
  158SOL    HW1 1373   2.438   6.776   2.243
  158SOL    HW2 1374   2.462   6.923   2.310
  159SOL     OW 1375   4.607   4.726   1.017
  159SOL    HW1 1376   4.630   4.662   0.944
  159SOL    HW2 1377   4.552   4.680   1.087
  160SOL     OW 1378   0.208   4.677   6.311
  160SOL    HW1 1379   0.226   4.610   6.383
  160SOL    HW2 1380   0.205   4.768   6.351
  161SOL     OW 1381   1.610   4.884   4.667
  161SOL    HW1 1382   1.659   4.880   4.754
  161SOL    HW2 1383   1.633   4.969   4.620
  162SOL     OW 1384   4.154   6.378   0.076
  162SOL    HW1 1385   4.080   6.351   0.014
  162SOL    HW2 1386   4.126   6.359   0.170
  163SOL     OW 1387   5.117   5.680   1.664
  163SOL    HW1 1388   5.063   5.596   1.653
  163SOL    HW2 1389   5.138   5.718   1.574
  164SOL     OW 1390   0.025   3.941   1.602
  164SOL    HW1 1391   7.012   3.868   1.540
  164SOL    HW2 1392   6.976   3.952   1.675
  165SOL     OW 1393   5.322   2.883   1.072
  165SOL    HW1 1394   5.289   2.793   1.045
  165SOL    HW2 1395   5.244   2.939   1.102
  166SOL     OW 1396   0.043   5.111   3.406
  166SOL    HW1 1397   6.998   5.091   3.480
  166SOL    HW2 1398   0.133   5.134   3.444
  167SOL     OW 1399   6.113   1.899   0.458
  167SOL    HW1 1400   6.036   1.840   0.481
  167SOL    HW2 1401   6.080   1.991   0.440
  168SOL     OW 1402   3.003   3.277   1.021
  168SOL    HW1 1403   3.097   3.267   1.053
  168SOL    HW2 1404   2.942   3.227   1.082
  169SOL     OW 1405   3.518   0.218   2.166
  169SOL    HW1 1406   3.603   0.165   2.166
  169SOL    HW2 1407   3.518   0.282   2.243
  170SOL     OW 1408   0.413   2.000   3.416
  170SOL    HW1 1409   0.419   1.925   3.350
  170SOL    HW2 1410   0.426   1.965   3.508
  171SOL     OW 1411   3.853   4.197   0.396
  171SOL    HW1 1412   3.907   4.155   0.323
  171SOL    HW2 1413   3.855   4.138   0.477
  172SOL     OW 1414   6.151   1.401   4.508
  172SOL    HW1 1415   6.198   1.418   4.595
  172SOL    HW2 1416   6.085   1.328   4.519
  173SOL     OW 1417   6.342   0.884   4.610
  173SOL    HW1 1418   6.312   0.975   4.638
  173SOL    HW2 1419   6.422   0.891   4.550
  174SOL     OW 1420   2.682   5.450   4.021
  174SOL    HW1 1421   2.716   5.361   4.050
  174SOL    HW2 1422   2.666   5.448   3.922
  175SOL     OW 1423   1.909   6.785   2.027
  175SOL    HW1 1424   1.826   6.737   2.055
  175SOL    HW2 1425   1.966   6.725   1.971
  176SOL     OW 1426   1.839   4.046   0.294
  176SOL    HW1 1427   1.930   4.005   0.294
  176SOL    HW2 1428   1.797   4.036   0.384
  177SOL     OW 1429   5.586   3.001   2.842
  177SOL    HW1 1430   5.560   3.061   2.766
  177SOL    HW2 1431   5.614   2.912   2.805
  178SOL     OW 1432   4.973   3.460   5.771
  178SOL    HW1 1433   4.969   3.446   5.672
  178SOL    HW2 1434   5.061   3.429   5.805
  179SOL     OW 1435   3.276   1.951   6.346
  179SOL    HW1 1436   3.349   1.898   6.305
  179SOL    HW2 1437   3.290   1.957   6.445
  180SOL     OW 1438   1.225   0.587   6.654
  180SOL    HW1 1439   1.303   0.572   6.593
  180SOL    HW2 1440   1.154   0.638   6.605
  181SOL     OW 1441   3.498   1.517   6.870
  181SOL    HW1 1442   3.410   1.535   6.914
  181SOL    HW2 1443   3.496   1.551   6.776
  182SOL     OW 1444   4.102   2.035   4.740
  182SOL    HW1 1445   4.003   2.048   4.734
  182SOL    HW2 1446   4.146   2.124   4.742
  183SOL     OW 1447   3.412   1.339   3.809
  183SOL    HW1 1448   3.442   1.265   3.749
  183SOL    HW2 1449   3.440   1.427   3.770
  184SOL     OW 1450   1.322   5.416   3.591
  184SOL    HW1 1451   1.223   5.416   3.604
  184SOL    HW2 1452   1.346   5.477   3.515
  185SOL     OW 1453   1.364   2.832   6.439
  185SOL    HW1 1454   1.339   2.741   6.407
  185SOL    HW2 1455   1.293   2.869   6.498
  186SOL     OW 1456   6.551   1.003   3.707
  186SOL    HW1 1457   6.477   1.036   3.766
  186SOL    HW2 1458   6.598   1.081   3.666
  187SOL     OW 1459   4.732   1.216   3.139
  187SOL    HW1 1460   4.749   1.186   3.233
  187SOL    HW2 1461   4.819   1.241   3.096
  188SOL     OW 1462   5.937   2.138   3.024
  188SOL    HW1 1463   6.017   2.174   3.071
  188SOL    HW2 1464   5.942   2.160   2.926
  189SOL     OW 1465   1.915   5.524   2.807
  189SOL    HW1 1466   1.820   5.494   2.805
  189SOL    HW2 1467   1.919   5.623   2.795
  190SOL     OW 1468   3.959   1.439   5.022
  190SOL    HW1 1469   3.932   1.366   5.084
  190SOL    HW2 1470   3.888   1.509   5.019
  191SOL     OW 1471   5.746   5.459   6.350
  191SOL    HW1 1472   5.801   5.535   6.383
  191SOL    HW2 1473   5.652   5.469   6.382
  192SOL     OW 1474   0.194   6.037   2.089
  192SOL    HW1 1475   0.101   6.046   2.124
  192SOL    HW2 1476   0.224   5.942   2.099
  193SOL     OW 1477   4.862   2.770   5.740
  193SOL    HW1 1478   4.805   2.688   5.732
  193SOL    HW2 1479   4.804   2.849   5.759
  194SOL     OW 1480   3.432   0.740   3.049
  194SOL    HW1 1481   3.338   0.714   3.027
  194SOL    HW2 1482   3.495   0.678   3.003
  195SOL     OW 1483   1.970   5.882   3.891
  195SOL    HW1 1484   2.066   5.856   3.886
  195SOL    HW2 1485   1.962   5.982   3.890
  196SOL     OW 1486   2.359   2.528   6.654
  196SOL    HW1 1487   2.291   2.587   6.611
  196SOL    HW2 1488   2.340   2.433   6.632
  197SOL     OW 1489   2.655   1.519   0.762
  197SOL    HW1 1490   2.689   1.550   0.851
  197SOL    HW2 1491   2.596   1.439   0.775
  198SOL     OW 1492   4.168   1.476   3.205
  198SOL    HW1 1493   4.104   1.552   3.205
  198SOL    HW2 1494   4.120   1.390   3.223
  199SOL     OW 1495   1.224   2.616   3.878
  199SOL    HW1 1496   1.161   2.669   3.821
  199SOL    HW2 1497   1.309   2.601   3.828
  200SOL     OW 1498   0.613   2.878   1.221
  200SOL    HW1 1499   0.613   2.978   1.226
  200SOL    HW2 1500   0.629   2.849   1.126
  201SOL     OW 1501   0.570   6.949   5.541
  201SOL    HW1 1502   0.602   6.970   5.449
  201SOL    HW2 1503   0.577   0.012   5.598
  202SOL     OW 1504   4.202   1.215   6.673
  202SOL    HW1 1505   4.197   1.142   6.742
  202SOL    HW2 1506   4.120   1.272   6.678
  203SOL     OW 1507   5.933   2.214   5.737
  203SOL    HW1 1508   5.986   2.134   5.766
  203SOL    HW2 1509   5.972   2.250   5.652
  204SOL     OW 1510   0.501   0.075   5.133
  204SOL    HW1 1511   0.484   0.023   5.049
  204SOL    HW2 1512   0.582   0.131   5.121
  205SOL     OW 1513   1.870   2.436   3.077
  205SOL    HW1 1514   1.775   2.443   3.045
  205SOL    HW2 1515   1.927   2.496   3.021
  206SOL     OW 1516   0.794   3.111   1.538
  206SOL    HW1 1517   0.823   3.134   1.445
  206SOL    HW2 1518   0.777   3.012   1.544
  207SOL     OW 1519   5.203   1.109   3.008
  207SOL    HW1 1520   5.179   1.013   3.022
  207SOL    HW2 1521   5.221   1.152   3.096
  208SOL     OW 1522   0.145   4.531   5.518
  208SOL    HW1 1523   0.075   4.521   5.589
  208SOL    HW2 1524   0.132   4.461   5.448
  209SOL     OW 1525   6.614   4.391   3.006
  209SOL    HW1 1526   6.686   4.392   2.936
  209SOL    HW2 1527   6.655   4.413   3.095
  210SOL     OW 1528   4.197   1.575   0.738
  210SOL    HW1 1529   4.184   1.651   0.801
  210SOL    HW2 1530   4.251   1.504   0.782
  211SOL     OW 1531   0.781   0.011   2.404
  211SOL    HW1 1532   0.699   6.977   2.383
  211SOL    HW2 1533   0.776   0.047   2.497
  212SOL     OW 1534   1.601   3.820   2.601
  212SOL    HW1 1535   1.604   3.860   2.509
  212SOL    HW2 1536   1.640   3.728   2.598
  213SOL     OW 1537   2.071   5.781   1.057
  213SOL    HW1 1538   2.018   5.696   1.062
  213SOL    HW2 1539   2.026   5.844   0.994
  214SOL     OW 1540   3.849   4.915   2.293
  214SOL    HW1 1541   3.910   4.886   2.219
  214SOL    HW2 1542   3.756   4.884   2.274
  215SOL     OW 1543   2.267   3.997   1.042
  215SOL    HW1 1544   2.270   4.095   1.064
  215SOL    HW2 1545   2.300   3.944   1.119
  216SOL     OW 1546   0.998   6.649   2.783
  216SOL    HW1 1547   0.920   6.596   2.816
  216SOL    HW2 1548   0.966   6.718   2.718
  217SOL     OW 1549   1.263   2.437   5.282
  217SOL    HW1 1550   1.329   2.458   5.355
  217SOL    HW2 1551   1.174   2.474   5.307
  218SOL     OW 1552   0.858   2.101   4.839
  218SOL    HW1 1553   0.817   2.161   4.770
  218SOL    HW2 1554   0.888   2.157   4.917
  219SOL     OW 1555   4.496   0.433   0.302
  219SOL    HW1 1556   4.400   0.411   0.323
  219SOL    HW2 1557   4.505   0.532   0.290
  220SOL     OW 1558   2.588   0.006   0.851
  220SOL    HW1 1559   2.666   6.963   0.864
  220SOL    HW2 1560   2.563   0.047   0.939
  221SOL     OW 1561   6.305   4.288   1.611
  221SOL    HW1 1562   6.272   4.346   1.537
  221SOL    HW2 1563   6.387   4.238   1.581
  222SOL     OW 1564   1.567   4.233   6.272
  222SOL    HW1 1565   1.666   4.234   6.288
  222SOL    HW2 1566   1.529   4.146   6.305
  223SOL     OW 1567   6.747   2.775   5.060
  223SOL    HW1 1568   6.723   2.724   5.143
  223SOL    HW2 1569   6.679   2.846   5.045
  224SOL     OW 1570   3.686   1.755   6.731
  224SOL    HW1 1571   3.651   1.780   6.821
  224SOL    HW2 1572   3.623   1.691   6.687
  225SOL     OW 1573   4.376   3.664   6.130
  225SOL    HW1 1574   4.319   3.596   6.177
  225SOL    HW2 1575   4.357   3.755   6.166
  226SOL     OW 1576   0.698   1.682   6.102
  226SOL    HW1 1577   0.695   1.660   6.200
  226SOL    HW2 1578   0.640   1.761   6.083
  227SOL     OW 1579   2.447   4.455   2.730
  227SOL    HW1 1580   2.488   4.516   2.661
  227SOL    HW2 1581   2.372   4.404   2.688
  228SOL     OW 1582   1.871   0.654   3.016
  228SOL    HW1 1583   1.859   0.716   2.938
  228SOL    HW2 1584   1.811   0.575   3.005
  229SOL     OW 1585   5.298   5.238   6.457
  229SOL    HW1 1586   5.234   5.245   6.533
  229SOL    HW2 1587   5.371   5.174   6.479
  230SOL     OW 1588   4.304   5.930   4.522
  230SOL    HW1 1589   4.358   5.846   4.528
  230SOL    HW2 1590   4.328   5.991   4.597
  231SOL     OW 1591   5.826   1.025   6.703
  231SOL    HW1 1592   5.731   1.056   6.697
  231SOL    HW2 1593   5.887   1.104   6.697
  232SOL     OW 1594   6.851   3.018   6.478
  232SOL    HW1 1595   6.793   2.950   6.524
  232SOL    HW2 1596   6.901   3.071   6.546
  233SOL     OW 1597   3.685   1.887   3.774
  233SOL    HW1 1598   3.616   1.957   3.757
  233SOL    HW2 1599   3.645   1.797   3.759
  234SOL     OW 1600   6.709   0.750   6.220
  234SOL    HW1 1601   6.653   0.744   6.303
  234SOL    HW2 1602   6.680   0.680   6.155
  235SOL     OW 1603   5.289   3.450   2.454
  235SOL    HW1 1604   5.284   3.350   2.452
  235SOL    HW2 1605   5.384   3.479   2.464
  236SOL     OW 1606   5.241   3.149   0.075
  236SOL    HW1 1607   5.296   3.117   7.016
  236SOL    HW2 1608   5.302   3.181   0.148
  237SOL     OW 1609   0.330   4.236   2.300
  237SOL    HW1 1610   0.340   4.335   2.298
  237SOL    HW2 1611   0.233   4.212   2.289
  238SOL     OW 1612   6.654   1.255   0.638
  238SOL    HW1 1613   6.641   1.346   0.678
  238SOL    HW2 1614   6.590   1.191   0.681
  239SOL     OW 1615   1.067   3.763   0.021
  239SOL    HW1 1616   1.126   3.838   7.011
  239SOL    HW2 1617   1.086   3.739   0.117
  240SOL     OW 1618   0.141   3.123   3.432
  240SOL    HW1 1619   0.104   3.151   3.521
  240SOL    HW2 1620   0.093   3.042   3.400
  241SOL     OW 1621   2.551   2.581   4.457
  241SOL    HW1 1622   2.484   2.631   4.511
  241SOL    HW2 1623   2.610   2.528   4.518
  242SOL     OW 1624   3.713   3.813   3.513
  242SOL    HW1 1625   3.702   3.910   3.491
  242SOL    HW2 1626   3.687   3.758   3.434
  243SOL     OW 1627   4.822   1.717   0.226
  243SOL    HW1 1628   4.812   1.796   0.286
  243SOL    HW2 1629   4.766   1.642   0.261
  244SOL     OW 1630   6.062   3.598   5.902
  244SOL    HW1 1631   6.139   3.644   5.858
  244SOL    HW2 1632   5.977   3.619   5.853
  245SOL     OW 1633   4.412   1.723   4.149
  245SOL    HW1 1634   4.317   1.713   4.119
  245SOL    HW2 1635   4.416   1.720   4.249
  246SOL     OW 1636   5.074   1.693   3.473
  246SOL    HW1 1637   5.087   1.782   3.430
  246SOL    HW2 1638   5.098   1.698   3.570
  247SOL     OW 1639   2.545   1.591   1.469
  247SOL    HW1 1640   2.456   1.587   1.424
  247SOL    HW2 1641   2.546   1.664   1.536
  248SOL     OW 1642   2.314   1.222   2.739
  248SOL    HW1 1643   2.412   1.231   2.722
  248SOL    HW2 1644   2.269   1.309   2.716
  249SOL     OW 1645   5.504   6.680   5.378
  249SOL    HW1 1646   5.518   6.581   5.388
  249SOL    HW2 1647   5.430   6.697   5.312
  250SOL     OW 1648   3.838   3.775   0.831
  250SOL    HW1 1649   3.827   3.707   0.758
  250SOL    HW2 1650   3.862   3.729   0.916
  251SOL     OW 1651   4.620   3.354   5.347
  251SOL    HW1 1652   4.654   3.374   5.439
  251SOL    HW2 1653   4.600   3.440   5.300
  252SOL     OW 1654   6.227   6.890   5.189
  252SOL    HW1 1655   6.270   6.980   5.182
  252SOL    HW2 1656   6.167   6.887   5.269
  253SOL     OW 1657   3.811   4.794   6.264
  253SOL    HW1 1658   3.810   4.834   6.173
  253SOL    HW2 1659   3.898   4.746   6.279
  254SOL     OW 1660   6.828   2.316   3.581
  254SOL    HW1 1661   6.806   2.229   3.625
  254SOL    HW2 1662   6.816   2.307   3.482
  255SOL     OW 1663   2.014   4.432   5.915
  255SOL    HW1 1664   2.055   4.475   5.835
  255SOL    HW2 1665   1.934   4.486   5.944
  256SOL     OW 1666   5.786   3.260   6.317
  256SOL    HW1 1667   5.694   3.242   6.353
  256SOL    HW2 1668   5.780   3.286   6.221
  257SOL     OW 1669   5.328   0.029   3.049
  257SOL    HW1 1670   5.396   0.102   3.056
  257SOL    HW2 1671   5.264   0.050   2.976
  258SOL     OW 1672   2.404   3.964   5.471
  258SOL    HW1 1673   2.375   3.868   5.476
  258SOL    HW2 1674   2.420   3.988   5.375
  259SOL     OW 1675   6.019   1.057   2.088
  259SOL    HW1 1676   6.017   1.053   2.188
  259SOL    HW2 1677   6.098   1.110   2.058
  260SOL     OW 1678   3.915   5.888   3.418
  260SOL    HW1 1679   3.930   5.809   3.477
  260SOL    HW2 1680   3.960   5.872   3.329
  261SOL     OW 1681   5.184   4.032   1.487
  261SOL    HW1 1682   5.249   4.017   1.561
  261SOL    HW2 1683   5.164   3.944   1.442
  262SOL     OW 1684   1.198   3.928   0.421
  262SOL    HW1 1685   1.168   4.018   0.390
  262SOL    HW2 1686   1.274   3.939   0.486
  263SOL     OW 1687   1.414   0.859   4.433
  263SOL    HW1 1688   1.331   0.908   4.459
  263SOL    HW2 1689   1.404   0.824   4.340
  264SOL     OW 1690   6.831   2.794   0.396
  264SOL    HW1 1691   6.857   2.760   0.305
  264SOL    HW2 1692   6.737   2.828   0.393
  265SOL     OW 1693   6.093   6.517   2.629
  265SOL    HW1 1694   6.039   6.523   2.545
  265SOL    HW2 1695   6.172   6.457   2.614
  266SOL     OW 1696   4.713   2.996   5.815
  266SOL    HW1 1697   4.676   2.946   5.893
  266SOL    HW2 1698   4.764   3.076   5.847
  267SOL     OW 1699   0.874   1.741   5.691
  267SOL    HW1 1700   0.870   1.764   5.788
  267SOL    HW2 1701   0.783   1.716   5.659
  268SOL     OW 1702   2.638   1.218   6.383
  268SOL    HW1 1703   2.665   1.215   6.479
  268SOL    HW2 1704   2.561   1.281   6.372
  269SOL     OW 1705   2.320   3.438   0.747
  269SOL    HW1 1706   2.239   3.461   0.802
  269SOL    HW2 1707   2.293   3.379   0.671
  270SOL     OW 1708   0.713   6.193   0.500
  270SOL    HW1 1709   0.810   6.191   0.476
  270SOL    HW2 1710   0.704   6.190   0.599
  271SOL     OW 1711   0.418   1.647   6.495
  271SOL    HW1 1712   0.511   1.664   6.464
  271SOL    HW2 1713   0.375   1.576   6.439
  272SOL     OW 1714   3.504   6.912   3.632
  272SOL    HW1 1715   3.481   6.896   3.536
  272SOL    HW2 1716   3.547   7.002   3.641
  273SOL     OW 1717   2.044   4.476   4.887
  273SOL    HW1 1718   1.973   4.474   4.957
  273SOL    HW2 1719   2.107   4.400   4.901
  274SOL     OW 1720   3.519   1.532   3.235
  274SOL    HW1 1721   3.447   1.465   3.253
  274SOL    HW2 1722   3.602   1.485   3.205
  275SOL     OW 1723   6.432   6.062   2.450
  275SOL    HW1 1724   6.508   6.097   2.396
  275SOL    HW2 1725   6.397   5.979   2.407
  276SOL     OW 1726   0.219   6.717   3.831
  276SOL    HW1 1727   0.151   6.645   3.847
  276SOL    HW2 1728   0.298   6.679   3.782
  277SOL     OW 1729   2.047   3.952   0.012
  277SOL    HW1 1730   2.088   3.954   0.103
  277SOL    HW2 1731   2.085   4.026   6.975
  278SOL     OW 1732   0.173   3.331   2.516
  278SOL    HW1 1733   0.234   3.324   2.438
  278SOL    HW2 1734   0.156   3.427   2.537
  279SOL     OW 1735   5.895   2.907   4.775
  279SOL    HW1 1736   5.796   2.920   4.774
  279SOL    HW2 1737   5.917   2.810   4.786
  280SOL     OW 1738   3.110   5.737   1.697
  280SOL    HW1 1739   3.074   5.672   1.630
  280SOL    HW2 1740   3.041   5.752   1.768
  281SOL     OW 1741   1.925   4.514   1.900
  281SOL    HW1 1742   2.020   4.540   1.915
  281SOL    HW2 1743   1.912   4.418   1.926
  282SOL     OW 1744   2.950   1.319   5.561
  282SOL    HW1 1745   2.974   1.412   5.534
  282SOL    HW2 1746   2.868   1.290   5.512
  283SOL     OW 1747   6.082   2.521   6.842
  283SOL    HW1 1748   6.152   2.563   6.785
  283SOL    HW2 1749   5.998   2.508   6.789
  284SOL     OW 1750   1.537   3.474   4.124
  284SOL    HW1 1751   1.480   3.474   4.206
  284SOL    HW2 1752   1.611   3.541   4.134
  285SOL     OW 1753   5.364   5.156   4.318
  285SOL    HW1 1754   5.316   5.094   4.381
  285SOL    HW2 1755   5.334   5.138   4.224
  286SOL     OW 1756   3.271   4.175   6.981
  286SOL    HW1 1757   3.303   4.082   6.997
  286SOL    HW2 1758   3.228   4.180   6.891
  287SOL     OW 1759   1.363   2.558   1.081
  287SOL    HW1 1760   1.380   2.605   1.168
  287SOL    HW2 1761   1.450   2.530   1.040
  288SOL     OW 1762   3.559   1.555   6.596
  288SOL    HW1 1763   3.562   1.467   6.644
  288SOL    HW2 1764   3.499   1.547   6.516
  289SOL     OW 1765   1.878   4.060   5.507
  289SOL    HW1 1766   1.851   4.089   5.599
  289SOL    HW2 1767   1.835   3.973   5.485
  290SOL     OW 1768   6.352   1.599   5.006
  290SOL    HW1 1769   6.380   1.503   5.007
  290SOL    HW2 1770   6.400   1.649   5.078
  291SOL     OW 1771   0.680   1.842   3.892
  291SOL    HW1 1772   0.598   1.784   3.893
  291SOL    HW2 1773   0.693   1.884   3.981
  292SOL     OW 1774   1.356   0.958   3.111
  292SOL    HW1 1775   1.315   1.026   3.171
  292SOL    HW2 1776   1.369   0.997   3.020
  293SOL     OW 1777   4.356   6.287   3.246
  293SOL    HW1 1778   4.360   6.261   3.343
  293SOL    HW2 1779   4.260   6.290   3.217
  294SOL     OW 1780   6.045   6.176   0.141
  294SOL    HW1 1781   6.003   6.099   0.094
  294SOL    HW2 1782   6.023   6.173   0.239
  295SOL     OW 1783   3.621   0.556   2.919
  295SOL    HW1 1784   3.667   0.620   2.857
  295SOL    HW2 1785   3.548   0.509   2.871
  296SOL     OW 1786   3.404   1.307   2.979
  296SOL    HW1 1787   3.403   1.295   2.879
  296SOL    HW2 1788   3.427   1.219   3.022
  297SOL     OW 1789   2.336   4.623   3.539
  297SOL    HW1 1790   2.296   4.605   3.449
  297SOL    HW2 1791   2.344   4.537   3.590
  298SOL     OW 1792   5.225   5.964   1.204
  298SOL    HW1 1793   5.202   5.911   1.123
  298SOL    HW2 1794   5.274   6.048   1.177
  299SOL     OW 1795   6.027   2.880   5.179
  299SOL    HW1 1796   5.978   2.793   5.180
  299SOL    HW2 1797   6.125   2.862   5.164
  300SOL     OW 1798   6.359   0.731   3.111
  300SOL    HW1 1799   6.382   0.634   3.104
  300SOL    HW2 1800   6.286   0.744   3.179
  301SOL     OW 1801   5.344   3.878   6.758
  301SOL    HW1 1802   5.342   3.840   6.850
  301SOL    HW2 1803   5.437   3.871   6.721
  302SOL     OW 1804   0.883   0.362   3.728
  302SOL    HW1 1805   0.809   0.340   3.792
  302SOL    HW2 1806   0.872   0.456   3.696
  303SOL     OW 1807   5.257   0.958   2.266
  303SOL    HW1 1808   5.192   0.903   2.319
  303SOL    HW2 1809   5.288   1.036   2.321
  304SOL     OW 1810   1.937   0.278   3.130
  304SOL    HW1 1811   1.862   0.214   3.149
  304SOL    HW2 1812   1.910   0.339   3.056
  305SOL     OW 1813   1.128   3.558   6.890
  305SOL    HW1 1814   1.217   3.554   6.843
  305SOL    HW2 1815   1.130   3.632   6.958
  306SOL     OW 1816   1.685   1.179   3.925
  306SOL    HW1 1817   1.781   1.202   3.941
  306SOL    HW2 1818   1.655   1.112   3.993
  307SOL     OW 1819   4.887   0.424   0.987
  307SOL    HW1 1820   4.957   0.371   1.036
  307SOL    HW2 1821   4.861   0.375   0.904
  308SOL     OW 1822   0.558   5.697   3.431
  308SOL    HW1 1823   0.542   5.796   3.430
  308SOL    HW2 1824   0.606   5.669   3.348
  309SOL     OW 1825   3.818   4.395   5.306
  309SOL    HW1 1826   3.844   4.487   5.281
  309SOL    HW2 1827   3.772   4.350   5.229
  310SOL     OW 1828   6.775   6.427   5.844
  310SOL    HW1 1829   6.846   6.488   5.879
  310SOL    HW2 1830   6.767   6.347   5.903
  311SOL     OW 1831   6.422   5.531   1.859
  311SOL    HW1 1832   6.398   5.434   1.859
  311SOL    HW2 1833   6.446   5.559   1.952
  312SOL     OW 1834   4.819   1.543   4.734
  312SOL    HW1 1835   4.733   1.491   4.727
  312SOL    HW2 1836   4.882   1.495   4.795
  313SOL     OW 1837   2.445   4.050   1.570
  313SOL    HW1 1838   2.389   3.990   1.626
  313SOL    HW2 1839   2.537   4.057   1.610
  314SOL     OW 1840   3.400   5.222   0.356
  314SOL    HW1 1841   3.487   5.176   0.379
  314SOL    HW2 1842   3.334   5.207   0.429
  315SOL     OW 1843   0.462   2.566   3.499
  315SOL    HW1 1844   0.390   2.635   3.513
  315SOL    HW2 1845   0.426   2.493   3.441
  316SOL     OW 1846   2.299   2.937   4.006
  316SOL    HW1 1847   2.284   2.906   4.100
  316SOL    HW2 1848   2.258   3.027   3.993
  317SOL     OW 1849   0.664   1.135   0.008
  317SOL    HW1 1850   0.759   1.137   6.996
  317SOL    HW2 1851   0.638   1.225   0.042
  318SOL     OW 1852   1.458   4.772   0.992
  318SOL    HW1 1853   1.436   4.818   1.078
  318SOL    HW2 1854   1.420   4.679   0.994
  319SOL     OW 1855   1.040   6.489   1.684
  319SOL    HW1 1856   0.976   6.565   1.697
  319SOL    HW2 1857   0.990   6.402   1.689
  320SOL     OW 1858   6.379   3.038   0.291
  320SOL    HW1 1859   6.365   3.005   0.197
  320SOL    HW2 1860   6.380   2.961   0.354
  321SOL     OW 1861   1.642   1.932   2.028
  321SOL    HW1 1862   1.604   1.889   2.110
  321SOL    HW2 1863   1.690   1.863   1.974
  322SOL     OW 1864   3.896   2.957   4.433
  322SOL    HW1 1865   3.907   2.858   4.432
  322SOL    HW2 1866   3.857   2.985   4.521
  323SOL     OW 1867   0.399   4.285   0.706
  323SOL    HW1 1868   0.384   4.355   0.636
  323SOL    HW2 1869   0.460   4.322   0.777
  324SOL     OW 1870   0.934   3.034   4.290
  324SOL    HW1 1871   0.935   3.078   4.380
  324SOL    HW2 1872   1.017   3.058   4.240
  325SOL     OW 1873   1.876   3.331   1.128
  325SOL    HW1 1874   1.784   3.360   1.104
  325SOL    HW2 1875   1.893   3.240   1.091
  326SOL     OW 1876   1.629   6.298   6.899
  326SOL    HW1 1877   1.698   6.265   6.964
  326SOL    HW2 1878   1.649   6.263   6.808
  327SOL     OW 1879   0.511   4.706   4.547
  327SOL    HW1 1880   0.533   4.801   4.528
  327SOL    HW2 1881   0.442   4.674   4.482
  328SOL     OW 1882   3.962   5.150   2.438
  328SOL    HW1 1883   3.896   5.077   2.421
  328SOL    HW2 1884   4.052   5.124   2.403
  329SOL     OW 1885   3.011   3.795   3.257
  329SOL    HW1 1886   2.995   3.831   3.165
  329SOL    HW2 1887   2.973   3.703   3.263
  330SOL     OW 1888   3.610   6.677   1.728
  330SOL    HW1 1889   3.710   6.669   1.724
  330SOL    HW2 1890   3.583   6.773   1.717
  331SOL     OW 1891   4.338   5.276   6.075
  331SOL    HW1 1892   4.354   5.327   5.991
  331SOL    HW2 1893   4.399   5.309   6.147
  332SOL     OW 1894   3.602   1.646   3.702
  332SOL    HW1 1895   3.612   1.600   3.790
  332SOL    HW2 1896   3.510   1.628   3.665
  333SOL     OW 1897   4.064   6.835   6.127
  333SOL    HW1 1898   4.091   6.867   6.036
  333SOL    HW2 1899   4.143   6.838   6.189
  334SOL     OW 1900   3.324   6.983   2.047
  334SOL    HW1 1901   3.265   6.903   2.037
  334SOL    HW2 1902   3.268   0.045   2.066
  335SOL     OW 1903   3.696   5.846   3.279
  335SOL    HW1 1904   3.770   5.852   3.345
  335SOL    HW2 1905   3.683   5.751   3.251
  336SOL     OW 1906   1.931   1.056   3.073
  336SOL    HW1 1907   1.861   1.127   3.071
  336SOL    HW2 1908   1.952   1.033   3.168
  337SOL     OW 1909   0.481   3.055   1.818
  337SOL    HW1 1910   0.579   3.039   1.809
  337SOL    HW2 1911   0.463   3.152   1.832
  338SOL     OW 1912   3.220   3.109   1.720
  338SOL    HW1 1913   3.219   3.043   1.645
  338SOL    HW2 1914   3.216   3.060   1.807
  339SOL     OW 1915   3.718   0.261   2.890
  339SOL    HW1 1916   3.698   0.247   2.987
  339SOL    HW2 1917   3.763   0.349   2.877
  340SOL     OW 1918   5.308   4.611   4.784
  340SOL    HW1 1919   5.354   4.603   4.873
  340SOL    HW2 1920   5.369   4.577   4.712
  341SOL     OW 1921   5.263   6.141   4.193
  341SOL    HW1 1922   5.202   6.154   4.115
  341SOL    HW2 1923   5.356   6.168   4.168
  342SOL     OW 1924   5.501   4.464   7.001
  342SOL    HW1 1925   5.474   4.404   6.926
  342SOL    HW2 1926   5.597   4.489   6.990
  343SOL     OW 1927   3.476   6.535   1.912
  343SOL    HW1 1928   3.484   6.599   1.988
  343SOL    HW2 1929   3.529   6.569   1.834
  344SOL     OW 1930   1.847   5.165   0.591
  344SOL    HW1 1931   1.926   5.202   0.639
  344SOL    HW2 1932   1.865   5.070   0.565
  345SOL     OW 1933   1.005   0.450   5.283
  345SOL    HW1 1934   1.003   0.417   5.188
  345SOL    HW2 1935   0.977   0.546   5.285
  346SOL     OW 1936   1.488   0.152   3.145
  346SOL    HW1 1937   1.508   0.116   3.054
  346SOL    HW2 1938   1.445   0.081   3.200
  347SOL     OW 1939   5.701   6.538   6.513
  347SOL    HW1 1940   5.662   6.602   6.448
  347SOL    HW2 1941   5.801   6.547   6.512
  348SOL     OW 1942   4.074   5.288   1.066
  348SOL    HW1 1943   4.006   5.298   0.992
  348SOL    HW2 1944   4.090   5.191   1.084
  349SOL     OW 1945   0.353   4.410   2.692
  349SOL    HW1 1946   0.402   4.326   2.669
  349SOL    HW2 1947   0.312   4.448   2.609
  350SOL     OW 1948   4.061   3.651   1.528
  350SOL    HW1 1949   3.995   3.725   1.534
  350SOL    HW2 1950   4.088   3.622   1.620
  351SOL     OW 1951   2.739   1.817   0.566
  351SOL    HW1 1952   2.801   1.878   0.517
  351SOL    HW2 1953   2.761   1.722   0.543
  352SOL     OW 1954   3.505   0.492   5.874
  352SOL    HW1 1955   3.485   0.398   5.846
  352SOL    HW2 1956   3.454   0.556   5.816
  353SOL     OW 1957   2.002   6.233   0.709
  353SOL    HW1 1958   1.993   6.242   0.610
  353SOL    HW2 1959   2.000   6.324   0.751
  354SOL     OW 1960   4.232   2.378   0.442
  354SOL    HW1 1961   4.233   2.294   0.497
  354SOL    HW2 1962   4.138   2.413   0.438
  355SOL     OW 1963   6.792   3.037   2.844
  355SOL    HW1 1964   6.807   2.939   2.854
  355SOL    HW2 1965   6.849   3.087   2.909
  356SOL     OW 1966   4.845   5.107   4.658
  356SOL    HW1 1967   4.831   5.199   4.621
  356SOL    HW2 1968   4.761   5.054   4.647
  357SOL     OW 1969   0.402   5.628   5.230
  357SOL    HW1 1970   0.496   5.629   5.197
  357SOL    HW2 1971   0.386   5.708   5.288
  358SOL     OW 1972   6.596   0.065   1.388
  358SOL    HW1 1973   6.641   6.999   1.361
  358SOL    HW2 1974   6.585   0.068   1.487
  359SOL     OW 1975   1.406   2.533   2.549
  359SOL    HW1 1976   1.505   2.547   2.551
  359SOL    HW2 1977   1.370   2.529   2.642
  360SOL     OW 1978   4.570   6.768   6.580
  360SOL    HW1 1979   4.577   6.788   6.483
  360SOL    HW2 1980   4.637   6.823   6.631
  361SOL     OW 1981   5.104   5.897   3.071
  361SOL    HW1 1982   5.082   5.991   3.097
  361SOL    HW2 1983   5.021   5.848   3.046
  362SOL     OW 1984   2.833   4.328   0.447
  362SOL    HW1 1985   2.873   4.253   0.395
  362SOL    HW2 1986   2.833   4.411   0.390
  363SOL     OW 1987   3.763   5.143   4.499
  363SOL    HW1 1988   3.775   5.047   4.524
  363SOL    HW2 1989   3.812   5.200   4.564
  364SOL     OW 1990   1.018   5.720   5.638
  364SOL    HW1 1991   0.934   5.756   5.597
  364SOL    HW2 1992   1.047   5.639   5.587
  365SOL     OW 1993   5.102   5.805   2.343
  365SOL    HW1 1994   5.159   5.849   2.273
  365SOL    HW2 1995   5.124   5.844   2.433
  366SOL     OW 1996   6.337   1.353   0.047
  366SOL    HW1 1997   6.425   1.330   0.006
  366SOL    HW2 1998   6.352   1.402   0.133
  367SOL     OW 1999   5.358   3.060   0.759
  367SOL    HW1 2000   5.259   3.073   0.748
  367SOL    HW2 2001   5.395   3.134   0.816
  368SOL     OW 2002   1.540   4.302   5.330
  368SOL    HW1 2003   1.489   4.327   5.248
  368SOL    HW2 2004   1.617   4.364   5.342
  369SOL     OW 2005   6.797   4.275   1.626
  369SOL    HW1 2006   6.890   4.247   1.604
  369SOL    HW2 2007   6.794   4.313   1.718
  370SOL     OW 2008   2.673   0.529   6.131
  370SOL    HW1 2009   2.656   0.559   6.036
  370SOL    HW2 2010   2.771   0.528   6.148
  371SOL     OW 2011   2.974   2.786   0.318
  371SOL    HW1 2012   3.005   2.855   0.384
  371SOL    HW2 2013   2.925   2.832   0.244
  372SOL     OW 2014   6.939   6.985   5.602
  372SOL    HW1 2015   6.908   0.061   5.592
  372SOL    HW2 2016   0.014   6.977   5.566
  373SOL     OW 2017   0.136   5.962   0.340
  373SOL    HW1 2018   0.224   5.990   0.379
  373SOL    HW2 2019   0.065   6.024   0.372
  374SOL     OW 2020   3.333   0.527   2.787
  374SOL    HW1 2021   3.258   0.536   2.852
  374SOL    HW2 2022   3.339   0.432   2.756
  375SOL     OW 2023   6.072   4.887   3.018
  375SOL    HW1 2024   6.039   4.980   3.004
  375SOL    HW2 2025   6.141   4.885   3.090
  376SOL     OW 2026   1.515   2.423   4.011
  376SOL    HW1 2027   1.439   2.449   3.951
  376SOL    HW2 2028   1.512   2.324   4.026
  377SOL     OW 2029   4.873   2.187   2.634
  377SOL    HW1 2030   4.828   2.164   2.720
  377SOL    HW2 2031   4.946   2.122   2.616
  378SOL     OW 2032   4.152   3.605   5.626
  378SOL    HW1 2033   4.059   3.620   5.660
  378SOL    HW2 2034   4.149   3.540   5.549
  379SOL     OW 2035   5.831   3.668   1.467
  379SOL    HW1 2036   5.927   3.655   1.491
  379SOL    HW2 2037   5.773   3.617   1.532
  380SOL     OW 2038   1.276   1.366   1.429
  380SOL    HW1 2039   1.272   1.332   1.523
  380SOL    HW2 2040   1.347   1.436   1.422
  381SOL     OW 2041   3.298   4.527   1.264
  381SOL    HW1 2042   3.323   4.449   1.207
  381SOL    HW2 2043   3.380   4.578   1.289
  382SOL     OW 2044   3.264   5.770   0.200
  382SOL    HW1 2045   3.204   5.844   0.171
  382SOL    HW2 2046   3.231   5.732   0.287
  383SOL     OW 2047   6.577   3.050   6.976
  383SOL    HW1 2048   6.577   3.102   6.891
  383SOL    HW2 2049   6.648   3.086   0.019
  384SOL     OW 2050   0.743   5.503   5.238
  384SOL    HW1 2051   0.726   5.429   5.172
  384SOL    HW2 2052   0.737   5.466   5.331
  385SOL     OW 2053   4.578   6.129   0.442
  385SOL    HW1 2054   4.657   6.069   0.432
  385SOL    HW2 2055   4.495   6.079   0.419
  386SOL     OW 2056   3.934   6.309   5.335
  386SOL    HW1 2057   3.922   6.304   5.236
  386SOL    HW2 2058   3.853   6.351   5.376
  387SOL     OW 2059   6.972   0.787   4.666
  387SOL    HW1 2060   6.959   0.717   4.595
  387SOL    HW2 2061   0.050   0.788   4.693
  388SOL     OW 2062   6.834   2.606   5.494
  388SOL    HW1 2063   6.894   2.683   5.473
  388SOL    HW2 2064   6.871   2.522   5.455
  389SOL     OW 2065   4.194   4.495   1.665
  389SOL    HW1 2066   4.266   4.501   1.734
  389SOL    HW2 2067   4.198   4.406   1.620
  390SOL     OW 2068   3.582   1.261   0.359
  390SOL    HW1 2069   3.676   1.265   0.324
  390SOL    HW2 2070   3.567   1.172   0.402
  391SOL     OW 2071   2.961   3.575   6.277
  391SOL    HW1 2072   3.001   3.599   6.366
  391SOL    HW2 2073   2.894   3.502   6.290
  392SOL     OW 2074   1.446   4.219   2.148
  392SOL    HW1 2075   1.401   4.239   2.235
  392SOL    HW2 2076   1.506   4.295   2.123
  393SOL     OW 2077   0.804   4.346   0.687
  393SOL    HW1 2078   0.884   4.371   0.741
  393SOL    HW2 2079   0.795   4.247   0.684
  394SOL     OW 2080   6.583   2.272   6.615
  394SOL    HW1 2081   6.670   2.290   6.661
  394SOL    HW2 2082   6.594   2.196   6.551
  395SOL     OW 2083   4.866   4.275   1.836
  395SOL    HW1 2084   4.844   4.338   1.910
  395SOL    HW2 2085   4.829   4.184   1.858
  396SOL     OW 2086   2.877   1.669   2.886
  396SOL    HW1 2087   2.904   1.664   2.982
  396SOL    HW2 2088   2.827   1.586   2.861
  397SOL     OW 2089   4.388   1.517   5.191
  397SOL    HW1 2090   4.430   1.566   5.267
  397SOL    HW2 2091   4.408   1.564   5.105
  398SOL     OW 2092   2.182   0.419   4.726
  398SOL    HW1 2093   2.099   0.416   4.781
  398SOL    HW2 2094   2.219   0.326   4.717
  399SOL     OW 2095   5.187   6.275   3.754
  399SOL    HW1 2096   5.185   6.317   3.663
  399SOL    HW2 2097   5.093   6.258   3.784
  400SOL     OW 2098   6.187   0.571   4.335
  400SOL    HW1 2099   6.253   0.574   4.260
  400SOL    HW2 2100   6.235   0.585   4.422
  401SOL     OW 2101   6.717   6.197   5.580
  401SOL    HW1 2102   6.795   6.177   5.639
  401SOL    HW2 2103   6.711   6.296   5.565
  402SOL     OW 2104   6.807   0.386   2.706
  402SOL    HW1 2105   6.719   0.339   2.697
  402SOL    HW2 2106   6.881   0.320   2.693
  403SOL     OW 2107   2.796   0.778   6.269
  403SOL    HW1 2108   2.727   0.768   6.197
  403SOL    HW2 2109   2.841   0.690   6.284
  404SOL     OW 2110   3.996   5.081   4.853
  404SOL    HW1 2111   3.980   4.983   4.839
  404SOL    HW2 2112   4.047   5.094   4.938
  405SOL     OW 2113   2.368   4.236   3.919
  405SOL    HW1 2114   2.359   4.300   3.996
  405SOL    HW2 2115   2.317   4.153   3.940
  406SOL     OW 2116   0.171   5.085   5.996
  406SOL    HW1 2117   0.204   5.151   6.063
  406SOL    HW2 2118   0.074   5.066   6.011
  407SOL     OW 2119   1.558   3.062   4.041
  407SOL    HW1 2120   1.584   3.102   3.953
  407SOL    HW2 2121   1.547   2.963   4.031
  408SOL     OW 2122   2.992   1.455   3.452
  408SOL    HW1 2123   2.980   1.370   3.400
  408SOL    HW2 2124   3.045   1.435   3.535
  409SOL     OW 2125   1.083   3.765   2.638
  409SOL    HW1 2126   0.995   3.799   2.672
  409SOL    HW2 2127   1.100   3.805   2.548
  410SOL     OW 2128   1.680   2.011   1.351
  410SOL    HW1 2129   1.732   1.959   1.283
  410SOL    HW2 2130   1.590   1.968   1.364
  411SOL     OW 2131   0.481   2.190   1.327
  411SOL    HW1 2132   0.572   2.182   1.287
  411SOL    HW2 2133   0.474   2.277   1.375
  412SOL     OW 2134   1.924   4.759   2.047
  412SOL    HW1 2135   1.938   4.668   2.087
  412SOL    HW2 2136   1.998   4.780   1.983
  413SOL     OW 2137   4.353   5.070   2.665
  413SOL    HW1 2138   4.403   5.104   2.585
  413SOL    HW2 2139   4.328   5.146   2.724
  414SOL     OW 2140   2.854   6.418   3.787
  414SOL    HW1 2141   2.818   6.333   3.746
  414SOL    HW2 2142   2.863   6.487   3.716
  415SOL     OW 2143   6.710   0.686   0.489
  415SOL    HW1 2144   6.658   0.669   0.573
  415SOL    HW2 2145   6.759   0.773   0.498
  416SOL     OW 2146   4.900   3.348   4.652
  416SOL    HW1 2147   4.861   3.290   4.724
  416SOL    HW2 2148   4.887   3.444   4.677
  417SOL     OW 2149   3.481   2.154   6.759
  417SOL    HW1 2150   3.463   2.205   6.674
  417SOL    HW2 2151   3.406   2.169   6.824
  418SOL     OW 2152   3.934   6.493   4.353
  418SOL    HW1 2153   3.858   6.427   4.354
  418SOL    HW2 2154   3.928   6.548   4.270
  419SOL     OW 2155   0.919   0.222   1.722
  419SOL    HW1 2156   0.931   0.274   1.806
  419SOL    HW2 2157   1.000   0.164   1.707
  420SOL     OW 2158   6.275   0.649   6.107
  420SOL    HW1 2159   6.329   0.627   6.187
  420SOL    HW2 2160   6.258   0.747   6.103
  421SOL     OW 2161   5.369   3.995   3.258
  421SOL    HW1 2162   5.293   3.946   3.216
  421SOL    HW2 2163   5.334   4.076   3.305
  422SOL     OW 2164   5.149   3.019   1.833
  422SOL    HW1 2165   5.126   2.932   1.789
  422SOL    HW2 2166   5.248   3.034   1.828
  423SOL     OW 2167   3.354   1.575   6.366
  423SOL    HW1 2168   3.431   1.619   6.319
  423SOL    HW2 2169   3.298   1.526   6.299
  424SOL     OW 2170   1.233   4.284   2.932
  424SOL    HW1 2171   1.268   4.358   2.989
  424SOL    HW2 2172   1.153   4.316   2.880
  425SOL     OW 2173   2.555   0.094   5.519
  425SOL    HW1 2174   2.566   0.136   5.609
  425SOL    HW2 2175   2.459   0.100   5.490
  426SOL     OW 2176   2.305   2.851   4.306
  426SOL    HW1 2177   2.245   2.861   4.385
  426SOL    HW2 2178   2.398   2.876   4.331
  427SOL     OW 2179   4.013   1.917   3.626
  427SOL    HW1 2180   3.978   1.985   3.690
  427SOL    HW2 2181   3.948   1.904   3.552
  428SOL     OW 2182   2.593   1.434   5.220
  428SOL    HW1 2183   2.568   1.404   5.128
  428SOL    HW2 2184   2.519   1.489   5.259
  429SOL     OW 2185   1.271   5.948   3.738
  429SOL    HW1 2186   1.324   5.995   3.667
  429SOL    HW2 2187   1.187   5.910   3.698
  430SOL     OW 2188   1.372   6.947   3.368
  430SOL    HW1 2189   1.465   6.912   3.362
  430SOL    HW2 2190   1.314   6.899   3.302
  431SOL     OW 2191   2.747   1.683   2.019
  431SOL    HW1 2192   2.825   1.741   1.997
  431SOL    HW2 2193   2.754   1.597   1.968
  432SOL     OW 2194   4.180   2.074   1.562
  432SOL    HW1 2195   4.192   1.983   1.602
  432SOL    HW2 2196   4.199   2.143   1.632
  433SOL     OW 2197   2.018   6.577   0.466
  433SOL    HW1 2198   1.955   6.505   0.496
  433SOL    HW2 2199   2.090   6.590   0.534
  434SOL     OW 2200   3.923   6.300   3.697
  434SOL    HW1 2201   3.901   6.331   3.789
  434SOL    HW2 2202   3.898   6.371   3.631
  435SOL     OW 2203   2.761   1.719   6.023
  435SOL    HW1 2204   2.759   1.731   6.122
  435SOL    HW2 2205   2.852   1.689   5.995
  436SOL     OW 2206   4.826   0.136   2.751
  436SOL    HW1 2207   4.879   0.220   2.760
  436SOL    HW2 2208   4.752   0.135   2.818
  437SOL     OW 2209   6.604   0.107   4.429
  437SOL    HW1 2210   6.629   0.089   4.524
  437SOL    HW2 2211   6.556   0.195   4.423
  438SOL     OW 2212   0.719   4.395   2.851
  438SOL    HW1 2213   0.818   4.407   2.842
  438SOL    HW2 2214   0.699   4.354   2.940
  439SOL     OW 2215   5.840   0.450   3.104
  439SOL    HW1 2216   5.778   0.494   3.040
  439SOL    HW2 2217   5.787   0.401   3.173
  440SOL     OW 2218   4.406   0.920   0.427
  440SOL    HW1 2219   4.501   0.945   0.411
  440SOL    HW2 2220   4.347   1.001   0.413
  441SOL     OW 2221   0.297   4.398   2.985
  441SOL    HW1 2222   0.298   4.388   2.886
  441SOL    HW2 2223   0.351   4.478   3.011
  442SOL     OW 2224   6.000   3.192   5.989
  442SOL    HW1 2225   6.092   3.224   5.965
  442SOL    HW2 2226   5.951   3.167   5.906
  443SOL     OW 2227   4.913   3.641   2.658
  443SOL    HW1 2228   4.905   3.638   2.559
  443SOL    HW2 2229   4.981   3.574   2.688
  444SOL     OW 2230   4.349   0.873   1.412
  444SOL    HW1 2231   4.322   0.841   1.321
  444SOL    HW2 2232   4.282   0.940   1.445
  445SOL     OW 2233   1.374   5.477   2.444
  445SOL    HW1 2234   1.392   5.400   2.506
  445SOL    HW2 2235   1.390   5.563   2.491
  446SOL     OW 2236   5.488   7.007   1.827
  446SOL    HW1 2237   5.574   0.027   1.793
  446SOL    HW2 2238   5.411   0.040   1.789
  447SOL     OW 2239   6.293   4.182   0.497
  447SOL    HW1 2240   6.361   4.112   0.477
  447SOL    HW2 2241   6.232   4.150   0.570
  448SOL     OW 2242   2.661   6.737   3.377
  448SOL    HW1 2243   2.753   6.699   3.379
  448SOL    HW2 2244   2.594   6.663   3.390
  449SOL     OW 2245   2.178   3.180   4.696
  449SOL    HW1 2246   2.184   3.258   4.759
  449SOL    HW2 2247   2.185   3.095   4.749
  450SOL     OW 2248   0.644   4.958   3.197
  450SOL    HW1 2249   0.600   4.872   3.222
  450SOL    HW2 2250   0.685   4.999   3.278
  451SOL     OW 2251   0.735   2.184   2.509
  451SOL    HW1 2252   0.800   2.240   2.457
  451SOL    HW2 2253   0.723   2.096   2.464
  452SOL     OW 2254   4.805   5.870   2.832
  452SOL    HW1 2255   4.739   5.908   2.767
  452SOL    HW2 2256   4.758   5.845   2.917
  453SOL     OW 2257   3.565   0.662   0.059
  453SOL    HW1 2258   3.588   0.589   7.013
  453SOL    HW2 2259   3.593   0.750   0.021
  454SOL     OW 2260   0.020   3.877   6.777
  454SOL    HW1 2261   0.113   3.848   6.800
  454SOL    HW2 2262   6.992   3.911   6.859
  455SOL     OW 2263   6.158   4.394   6.115
  455SOL    HW1 2264   6.239   4.339   6.094
  455SOL    HW2 2265   6.186   4.482   6.154
  456SOL     OW 2266   2.745   0.641   2.404
  456SOL    HW1 2267   2.661   0.624   2.352
  456SOL    HW2 2268   2.763   0.739   2.408
  457SOL     OW 2269   2.400   0.357   6.558
  457SOL    HW1 2270   2.306   0.387   6.570
  457SOL    HW2 2271   2.426   0.365   6.462
  458SOL     OW 2272   2.708   1.186   3.227
  458SOL    HW1 2273   2.685   1.209   3.322
  458SOL    HW2 2274   2.658   1.246   3.165
  459SOL     OW 2275   2.662   0.369   4.239
  459SOL    HW1 2276   2.638   0.466   4.246
  459SOL    HW2 2277   2.622   0.319   4.315
  460SOL     OW 2278   1.175   1.934   5.009
  460SOL    HW1 2279   1.144   1.944   5.103
  460SOL    HW2 2280   1.272   1.957   5.003
  461SOL     OW 2281   0.780   5.333   5.834
  461SOL    HW1 2282   0.880   5.329   5.838
  461SOL    HW2 2283   0.743   5.306   5.923
  462SOL     OW 2284   2.988   3.894   4.266
  462SOL    HW1 2285   3.016   3.950   4.343
  462SOL    HW2 2286   2.921   3.825   4.296
  463SOL     OW 2287   5.685   0.067   2.216
  463SOL    HW1 2288   5.645   0.133   2.279
  463SOL    HW2 2289   5.752   0.011   2.265
  464SOL     OW 2290   3.986   5.729   6.003
  464SOL    HW1 2291   3.928   5.810   6.010
  464SOL    HW2 2292   3.930   5.649   5.987
  465SOL     OW 2293   1.229   3.313   0.134
  465SOL    HW1 2294   1.160   3.333   0.203
  465SOL    HW2 2295   1.219   3.219   0.102
  466SOL     OW 2296   4.190   5.578   4.794
  466SOL    HW1 2297   4.224   5.670   4.811
  466SOL    HW2 2298   4.108   5.582   4.738
  467SOL     OW 2299   6.443   0.352   1.481
  467SOL    HW1 2300   6.404   0.441   1.455
  467SOL    HW2 2301   6.439   0.290   1.403
  468SOL     OW 2302   3.771   0.016   6.481
  468SOL    HW1 2303   3.709   0.001   6.404
  468SOL    HW2 2304   3.865   0.022   6.448
  469SOL     OW 2305   3.091   5.380   5.867
  469SOL    HW1 2306   3.100   5.295   5.814
  469SOL    HW2 2307   3.140   5.453   5.819
  470SOL     OW 2308   2.236   5.126   2.701
  470SOL    HW1 2309   2.193   5.080   2.624
  470SOL    HW2 2310   2.300   5.195   2.667
  471SOL     OW 2311   2.351   2.698   4.579
  471SOL    HW1 2312   2.270   2.757   4.585
  471SOL    HW2 2313   2.394   2.691   4.669
  472SOL     OW 2314   5.895   3.998   6.233
  472SOL    HW1 2315   5.934   3.907   6.216
  472SOL    HW2 2316   5.921   4.060   6.159
  473SOL     OW 2317   6.960   3.179   2.506
  473SOL    HW1 2318   6.908   3.207   2.425
  473SOL    HW2 2319   0.023   3.236   2.515
  474SOL     OW 2320   5.023   6.127   4.039
  474SOL    HW1 2321   4.975   6.187   3.975
  474SOL    HW2 2322   4.968   6.115   4.121
  475SOL     OW 2323   6.006   1.787   1.011
  475SOL    HW1 2324   5.964   1.744   1.091
  475SOL    HW2 2325   6.103   1.802   1.028
  476SOL     OW 2326   0.684   4.688   1.215
  476SOL    HW1 2327   0.621   4.765   1.209
  476SOL    HW2 2328   0.778   4.721   1.213
  477SOL     OW 2329   1.277   4.472   3.882
  477SOL    HW1 2330   1.230   4.385   3.865
  477SOL    HW2 2331   1.275   4.492   3.980
  478SOL     OW 2332   4.876   5.845   1.735
  478SOL    HW1 2333   4.815   5.776   1.775
  478SOL    HW2 2334   4.971   5.823   1.759
  479SOL     OW 2335   3.770   4.087   3.775
  479SOL    HW1 2336   3.706   4.054   3.844
  479SOL    HW2 2337   3.857   4.040   3.786
  480SOL     OW 2338   1.787   0.056   3.225
  480SOL    HW1 2339   1.700   0.106   3.225
  480SOL    HW2 2340   1.777   6.992   3.282
  481SOL     OW 2341   0.424   6.758   0.882
  481SOL    HW1 2342   0.456   6.787   0.972
  481SOL    HW2 2343   0.354   6.820   0.849
  482SOL     OW 2344   4.475   5.280   1.775
  482SOL    HW1 2345   4.384   5.281   1.735
  482SOL    HW2 2346   4.516   5.190   1.763
  483SOL     OW 2347   5.355   1.857   3.593
  483SOL    HW1 2348   5.355   1.878   3.496
  483SOL    HW2 2349   5.302   1.774   3.609
  484SOL     OW 2350   2.309   4.186   4.490
  484SOL    HW1 2351   2.304   4.183   4.590
  484SOL    HW2 2352   2.382   4.248   4.462
  485SOL     OW 2353   5.146   3.229   1.645
  485SOL    HW1 2354   5.052   3.199   1.628
  485SOL    HW2 2355   5.187   3.171   1.715
  486SOL     OW 2356   6.328   6.620   6.205
  486SOL    HW1 2357   6.241   6.588   6.243
  486SOL    HW2 2358   6.320   6.717   6.181
  487SOL     OW 2359   6.712   6.989   5.161
  487SOL    HW1 2360   6.779   0.036   5.125
  487SOL    HW2 2361   6.755   6.934   5.233
  488SOL     OW 2362   1.803   5.785   3.155
  488SOL    HW1 2363   1.901   5.768   3.148
  488SOL    HW2 2364   1.772   5.762   3.247
  489SOL     OW 2365   0.868   5.761   5.862
  489SOL    HW1 2366   0.870   5.861   5.848
  489SOL    HW2 2367   0.936   5.719   5.802
  490SOL     OW 2368   1.440   4.450   5.855
  490SOL    HW1 2369   1.500   4.433   5.777
  490SOL    HW2 2370   1.394   4.365   5.880
  491SOL     OW 2371   0.560   2.405   0.842
  491SOL    HW1 2372   0.599   2.444   0.758
  491SOL    HW2 2373   0.468   2.371   0.823
  492SOL     OW 2374   1.400   1.934   6.000
  492SOL    HW1 2375   1.333   1.992   6.044
  492SOL    HW2 2376   1.389   1.839   6.031
  493SOL     OW 2377   2.027   5.896   4.643
  493SOL    HW1 2378   2.125   5.908   4.656
  493SOL    HW2 2379   2.006   5.895   4.545
  494SOL     OW 2380   2.532   6.264   5.208
  494SOL    HW1 2381   2.612   6.320   5.185
  494SOL    HW2 2382   2.534   6.241   5.305
  495SOL     OW 2383   3.597   4.626   5.929
  495SOL    HW1 2384   3.582   4.561   5.854
  495SOL    HW2 2385   3.526   4.613   5.998
  496SOL     OW 2386   5.081   1.865   2.688
  496SOL    HW1 2387   4.986   1.835   2.678
  496SOL    HW2 2388   5.096   1.897   2.782
  497SOL     OW 2389   3.080   1.058   0.295
  497SOL    HW1 2390   3.116   0.992   0.229
  497SOL    HW2 2391   3.153   1.084   0.358
  498SOL     OW 2392   0.839   6.353   1.566
  498SOL    HW1 2393   0.871   6.395   1.481
  498SOL    HW2 2394   0.858   6.255   1.564
  499SOL     OW 2395   3.007   6.159   6.505
  499SOL    HW1 2396   3.055   6.127   6.586
  499SOL    HW2 2397   3.008   6.259   6.503
  500SOL     OW 2398   6.461   1.966   0.201
  500SOL    HW1 2399   6.549   1.971   0.153
  500SOL    HW2 2400   6.388   1.953   0.135
  501SOL     OW 2401   0.967   0.681   3.685
  501SOL    HW1 2402   0.947   0.686   3.587
  501SOL    HW2 2403   0.961   0.772   3.725
  502SOL     OW 2404   1.916   4.989   6.504
  502SOL    HW1 2405   1.996   4.959   6.555
  502SOL    HW2 2406   1.835   4.981   6.562
  503SOL     OW 2407   3.665   4.488   6.737
  503SOL    HW1 2408   3.748   4.468   6.684
  503SOL    HW2 2409   3.640   4.584   6.724
  504SOL     OW 2410   6.268   6.802   1.951
  504SOL    HW1 2411   6.338   6.853   1.901
  504SOL    HW2 2412   6.185   6.794   1.896
  505SOL     OW 2413   4.928   6.837   4.800
  505SOL    HW1 2414   4.985   6.890   4.737
  505SOL    HW2 2415   4.877   6.899   4.859
  506SOL     OW 2416   4.160   5.136   2.981
  506SOL    HW1 2417   4.097   5.125   2.905
  506SOL    HW2 2418   4.226   5.208   2.959
  507SOL     OW 2419   3.342   0.622   0.659
  507SOL    HW1 2420   3.294   0.628   0.572
  507SOL    HW2 2421   3.276   0.625   0.734
  508SOL     OW 2422   6.901   5.042   3.636
  508SOL    HW1 2423   6.854   5.129   3.624
  508SOL    HW2 2424   6.835   4.971   3.663
  509SOL     OW 2425   4.795   6.814   5.676
  509SOL    HW1 2426   4.744   6.728   5.674
  509SOL    HW2 2427   4.849   6.819   5.759
  510SOL     OW 2428   0.149   3.721   0.221
  510SOL    HW1 2429   0.150   3.818   0.248
  510SOL    HW2 2430   0.067   3.702   0.168
  511SOL     OW 2431   0.906   1.859   0.778
  511SOL    HW1 2432   0.984   1.821   0.827
  511SOL    HW2 2433   0.909   1.959   0.782
  512SOL     OW 2434   6.670   2.551   6.306
  512SOL    HW1 2435   6.733   2.615   6.260
  512SOL    HW2 2436   6.599   2.603   6.354
  513SOL     OW 2437   5.500   0.996   2.584
  513SOL    HW1 2438   5.577   1.028   2.639
  513SOL    HW2 2439   5.489   1.055   2.503
  514SOL     OW 2440   6.778   6.484   4.147
  514SOL    HW1 2441   6.786   6.538   4.063
  514SOL    HW2 2442   6.859   6.427   4.159
  515SOL     OW 2443   3.619   7.013   6.251
  515SOL    HW1 2444   3.681   0.010   6.174
  515SOL    HW2 2445   3.537   0.050   6.240
  516SOL     OW 2446   2.496   5.734   1.522
  516SOL    HW1 2447   2.441   5.780   1.591
  516SOL    HW2 2448   2.588   5.717   1.559
  517SOL     OW 2449   3.513   5.389   1.912
  517SOL    HW1 2450   3.610   5.405   1.896
  517SOL    HW2 2451   3.501   5.311   1.972
  518SOL     OW 2452   2.089   3.505   3.419
  518SOL    HW1 2453   2.026   3.435   3.386
  518SOL    HW2 2454   2.074   3.520   3.517
  519SOL     OW 2455   0.478   6.885   3.163
  519SOL    HW1 2456   0.446   6.832   3.241
  519SOL    HW2 2457   0.530   6.964   3.195
  520SOL     OW 2458   1.216   2.944   0.477
  520SOL    HW1 2459   1.171   2.876   0.420
  520SOL    HW2 2460   1.153   2.975   0.548
  521SOL     OW 2461   5.743   5.721   4.801
  521SOL    HW1 2462   5.679   5.657   4.842
  521SOL    HW2 2463   5.698   5.809   4.785
  522SOL     OW 2464   3.960   3.922   1.442
  522SOL    HW1 2465   3.866   3.895   1.419
  522SOL    HW2 2466   3.968   4.021   1.441
  523SOL     OW 2467   0.446   6.491   1.900
  523SOL    HW1 2468   0.432   6.569   1.838
  523SOL    HW2 2469   0.368   6.429   1.893
  524SOL     OW 2470   0.139   2.249   1.999
  524SOL    HW1 2471   0.052   2.201   2.013
  524SOL    HW2 2472   0.199   2.192   1.943
  525SOL     OW 2473   1.971   3.502   5.990
  525SOL    HW1 2474   1.889   3.549   5.958
  525SOL    HW2 2475   2.052   3.544   5.950
  526SOL     OW 2476   2.936   7.012   4.426
  526SOL    HW1 2477   2.908   0.060   4.357
  526SOL    HW2 2478   3.002   0.035   4.488
  527SOL     OW 2479   0.877   1.569   0.365
  527SOL    HW1 2480   0.965   1.598   0.402
  527SOL    HW2 2481   0.816   1.648   0.359
  528SOL     OW 2482   6.575   3.443   4.455
  528SOL    HW1 2483   6.655   3.453   4.395
  528SOL    HW2 2484   6.596   3.481   4.545
  529SOL     OW 2485   1.966   0.493   6.257
  529SOL    HW1 2486   1.925   0.451   6.338
  529SOL    HW2 2487   2.065   0.495   6.267
  530SOL     OW 2488   3.983   3.422   0.831
  530SOL    HW1 2489   4.071   3.378   0.815
  530SOL    HW2 2490   3.996   3.511   0.875
  531SOL     OW 2491   1.818   0.496   1.798
  531SOL    HW1 2492   1.862   0.407   1.787
  531SOL    HW2 2493   1.840   0.534   1.888
  532SOL     OW 2494   2.869   2.182   1.074
  532SOL    HW1 2495   2.866   2.174   0.974
  532SOL    HW2 2496   2.776   2.192   1.109
  533SOL     OW 2497   3.624   0.334   4.298
  533SOL    HW1 2498   3.710   0.318   4.249
  533SOL    HW2 2499   3.556   0.268   4.268
  534SOL     OW 2500   1.132   5.133   1.412
  534SOL    HW1 2501   1.048   5.084   1.391
  534SOL    HW2 2502   1.137   5.150   1.511
  535SOL     OW 2503   5.180   3.450   3.745
  535SOL    HW1 2504   5.191   3.429   3.842
  535SOL    HW2 2505   5.268   3.437   3.698
  536SOL     OW 2506   6.162   6.127   2.445
  536SOL    HW1 2507   6.256   6.095   2.453
  536SOL    HW2 2508   6.160   6.226   2.435
  537SOL     OW 2509   3.125   0.788   4.637
  537SOL    HW1 2510   3.206   0.768   4.580
  537SOL    HW2 2511   3.046   0.803   4.578
  538SOL     OW 2512   2.802   4.669   5.583
  538SOL    HW1 2513   2.741   4.683   5.505
  538SOL    HW2 2514   2.853   4.584   5.572
  539SOL     OW 2515   1.126   6.650   0.112
  539SOL    HW1 2516   1.155   6.743   0.134
  539SOL    HW2 2517   1.032   6.636   0.145
  540SOL     OW 2518   0.839   0.661   3.958
  540SOL    HW1 2519   0.792   0.659   3.870
  540SOL    HW2 2520   0.906   0.586   3.960
  541SOL     OW 2521   4.467   6.344   4.283
  541SOL    HW1 2522   4.442   6.293   4.200
  541SOL    HW2 2523   4.384   6.368   4.333
  542SOL     OW 2524   3.123   0.168   6.774
  542SOL    HW1 2525   3.173   0.081   6.771
  542SOL    HW2 2526   3.041   0.162   6.717
  543SOL     OW 2527   5.581   2.153   4.035
  543SOL    HW1 2528   5.655   2.137   4.101
  543SOL    HW2 2529   5.594   2.242   3.992
  544SOL     OW 2530   1.401   4.057   0.890
  544SOL    HW1 2531   1.341   4.069   0.811
  544SOL    HW2 2532   1.378   3.972   0.937
  545SOL     OW 2533   5.799   1.378   1.603
  545SOL    HW1 2534   5.862   1.456   1.598
  545SOL    HW2 2535   5.705   1.412   1.616
  546SOL     OW 2536   0.676   4.237   2.640
  546SOL    HW1 2537   0.654   4.302   2.712
  546SOL    HW2 2538   0.596   4.180   2.621
  547SOL     OW 2539   4.258   1.868   6.581
  547SOL    HW1 2540   4.330   1.853   6.513
  547SOL    HW2 2541   4.176   1.818   6.553
  548SOL     OW 2542   3.154   2.907   6.897
  548SOL    HW1 2543   3.086   2.926   6.826
  548SOL    HW2 2544   3.163   2.808   6.908
  549SOL     OW 2545   6.063   2.382   0.894
  549SOL    HW1 2546   6.105   2.427   0.972
  549SOL    HW2 2547   5.968   2.412   0.885
  550SOL     OW 2548   0.136   5.540   3.121
  550SOL    HW1 2549   0.085   5.523   3.037
  550SOL    HW2 2550   0.182   5.629   3.116
  551SOL     OW 2551   6.700   1.462   0.257
  551SOL    HW1 2552   6.600   1.454   0.256
  551SOL    HW2 2553   6.738   1.402   0.186
  552SOL     OW 2554   6.108   5.167   5.760
  552SOL    HW1 2555   6.059   5.243   5.716
  552SOL    HW2 2556   6.185   5.202   5.813
  553SOL     OW 2557   3.065   0.754   5.458
  553SOL    HW1 2558   3.075   0.801   5.370
  553SOL    HW2 2559   3.046   0.821   5.529
  554SOL     OW 2560   5.698   5.900   0.832
  554SOL    HW1 2561   5.620   5.927   0.888
  554SOL    HW2 2562   5.695   5.948   0.745
  555SOL     OW 2563   2.124   4.824   5.913
  555SOL    HW1 2564   2.135   4.763   5.991
  555SOL    HW2 2565   2.132   4.771   5.828
  556SOL     OW 2566   4.711   1.405   3.963
  556SOL    HW1 2567   4.666   1.400   3.874
  556SOL    HW2 2568   4.693   1.320   4.014
  557SOL     OW 2569   6.430   4.549   5.988
  557SOL    HW1 2570   6.423   4.648   5.986
  557SOL    HW2 2571   6.366   4.509   5.921
  558SOL     OW 2572   3.282   3.848   2.328
  558SOL    HW1 2573   3.241   3.927   2.373
  558SOL    HW2 2574   3.334   3.794   2.394
  559SOL     OW 2575   6.346   6.375   5.567
  559SOL    HW1 2576   6.341   6.281   5.532
  559SOL    HW2 2577   6.356   6.373   5.667
  560SOL     OW 2578   6.531   3.239   2.826
  560SOL    HW1 2579   6.529   3.139   2.832
  560SOL    HW2 2580   6.539   3.278   2.918
  561SOL     OW 2581   0.504   3.125   6.345
  561SOL    HW1 2582   0.441   3.187   6.299
  561SOL    HW2 2583   0.553   3.071   6.277
  562SOL     OW 2584   3.986   0.447   6.006
  562SOL    HW1 2585   4.019   0.422   5.915
  562SOL    HW2 2586   3.922   0.377   6.039
  563SOL     OW 2587   1.773   1.928   4.132
  563SOL    HW1 2588   1.692   1.869   4.138
  563SOL    HW2 2589   1.749   2.021   4.159
  564SOL     OW 2590   0.474   2.235   5.063
  564SOL    HW1 2591   0.453   2.213   5.158
  564SOL    HW2 2592   0.545   2.174   5.029
  565SOL     OW 2593   3.554   3.586   3.618
  565SOL    HW1 2594   3.620   3.621   3.551
  565SOL    HW2 2595   3.488   3.657   3.639
  566SOL     OW 2596   3.439   6.326   2.706
  566SOL    HW1 2597   3.530   6.293   2.680
  566SOL    HW2 2598   3.439   6.353   2.803
  567SOL     OW 2599   2.251   2.938   6.632
  567SOL    HW1 2600   2.182   2.982   6.690
  567SOL    HW2 2601   2.333   2.996   6.628
  568SOL     OW 2602   6.911   0.492   0.761
  568SOL    HW1 2603   6.897   0.590   0.745
  568SOL    HW2 2604   6.968   0.479   0.843
  569SOL     OW 2605   0.217   1.903   0.438
  569SOL    HW1 2606   0.162   1.824   0.411
  569SOL    HW2 2607   0.312   1.875   0.454
  570SOL     OW 2608   2.806   0.179   5.840
  570SOL    HW1 2609   2.823   0.085   5.867
  570SOL    HW2 2610   2.712   0.204   5.862
  571SOL     OW 2611   2.788   5.119   2.768
  571SOL    HW1 2612   2.860   5.188   2.783
  571SOL    HW2 2613   2.727   5.117   2.847
  572SOL     OW 2614   2.306   6.712   4.247
  572SOL    HW1 2615   2.280   6.807   4.264
  572SOL    HW2 2616   2.377   6.709   4.177
  573SOL     OW 2617   6.607   1.752   5.561
  573SOL    HW1 2618   6.574   1.674   5.615
  573SOL    HW2 2619   6.637   1.720   5.472
  574SOL     OW 2620   2.801   1.742   5.510
  574SOL    HW1 2621   2.734   1.711   5.577
  574SOL    HW2 2622   2.758   1.746   5.419
  575SOL     OW 2623   2.974   3.464   0.466
  575SOL    HW1 2624   3.042   3.503   0.404
  575SOL    HW2 2625   2.889   3.517   0.460
  576SOL     OW 2626   1.702   2.922   2.900
  576SOL    HW1 2627   1.624   2.966   2.858
  576SOL    HW2 2628   1.781   2.927   2.839
  577SOL     OW 2629   1.120   1.468   1.731
  577SOL    HW1 2630   1.134   1.562   1.701
  577SOL    HW2 2631   1.050   1.466   1.803
  578SOL     OW 2632   1.974   5.407   6.626
  578SOL    HW1 2633   1.955   5.393   6.723
  578SOL    HW2 2634   2.036   5.485   6.614
  579SOL     OW 2635   2.492   4.532   2.306
  579SOL    HW1 2636   2.535   4.561   2.220
  579SOL    HW2 2637   2.531   4.584   2.382
  580SOL     OW 2638   4.169   5.147   5.054
  580SOL    HW1 2639   4.244   5.115   5.112
  580SOL    HW2 2640   4.114   5.213   5.105
  581SOL     OW 2641   1.229   3.061   3.943
  581SOL    HW1 2642   1.268   3.133   3.886
  581SOL    HW2 2643   1.213   2.979   3.887
  582SOL     OW 2644   5.253   5.430   3.544
  582SOL    HW1 2645   5.273   5.373   3.624
  582SOL    HW2 2646   5.274   5.525   3.565
  583SOL     OW 2647   3.337   4.987   5.908
  583SOL    HW1 2648   3.280   4.927   5.964
  583SOL    HW2 2649   3.285   5.019   5.829
  584SOL     OW 2650   4.134   0.742   6.726
  584SOL    HW1 2651   4.130   0.670   6.796
  584SOL    HW2 2652   4.086   0.710   6.644
  585SOL     OW 2653   2.805   6.380   1.897
  585SOL    HW1 2654   2.843   6.306   1.841
  585SOL    HW2 2655   2.801   6.350   1.992
  586SOL     OW 2656   4.490   6.796   0.965
  586SOL    HW1 2657   4.447   6.866   0.909
  586SOL    HW2 2658   4.473   6.815   1.062
  587SOL     OW 2659   5.288   2.264   1.872
  587SOL    HW1 2660   5.336   2.258   1.784
  587SOL    HW2 2661   5.257   2.358   1.887
  588SOL     OW 2662   0.845   5.214   2.002
  588SOL    HW1 2663   0.942   5.210   2.029
  588SOL    HW2 2664   0.821   5.307   1.977
  589SOL     OW 2665   3.439   5.958   1.137
  589SOL    HW1 2666   3.515   6.002   1.185
  589SOL    HW2 2667   3.438   5.860   1.157
  590SOL     OW 2668   5.200   1.449   0.391
  590SOL    HW1 2669   5.128   1.403   0.443
  590SOL    HW2 2670   5.162   1.528   0.343
  591SOL     OW 2671   4.127   5.619   4.505
  591SOL    HW1 2672   4.227   5.623   4.503
  591SOL    HW2 2673   4.090   5.712   4.502
  592SOL     OW 2674   4.586   2.240   4.814
  592SOL    HW1 2675   4.656   2.311   4.820
  592SOL    HW2 2676   4.502   2.279   4.775
  593SOL     OW 2677   3.559   1.661   5.541
  593SOL    HW1 2678   3.508   1.577   5.561
  593SOL    HW2 2679   3.605   1.652   5.453
  594SOL     OW 2680   6.240   1.279   1.608
  594SOL    HW1 2681   6.149   1.255   1.643
  594SOL    HW2 2682   6.259   1.375   1.628
  595SOL     OW 2683   5.214   6.345   2.665
  595SOL    HW1 2684   5.203   6.318   2.760
  595SOL    HW2 2685   5.141   6.410   2.640
  596SOL     OW 2686   6.786   4.061   3.786
  596SOL    HW1 2687   6.843   4.007   3.848
  596SOL    HW2 2688   6.693   4.067   3.822
  597SOL     OW 2689   2.977   0.097   6.558
  597SOL    HW1 2690   2.881   0.119   6.539
  597SOL    HW2 2691   2.985   0.003   6.589
  598SOL     OW 2692   2.915   3.396   4.948
  598SOL    HW1 2693   2.995   3.339   4.926
  598SOL    HW2 2694   2.849   3.341   5.000
  599SOL     OW 2695   0.878   5.842   2.090
  599SOL    HW1 2696   0.899   5.811   1.997
  599SOL    HW2 2697   0.951   5.813   2.152
  600SOL     OW 2698   6.867   4.184   4.910
  600SOL    HW1 2699   6.904   4.275   4.925
  600SOL    HW2 2700   6.874   4.131   4.995
  601SOL     OW 2701   1.588   0.727   5.255
  601SOL    HW1 2702   1.517   0.706   5.323
  601SOL    HW2 2703   1.619   0.643   5.212
  602SOL     OW 2704   3.129   6.262   4.608
  602SOL    HW1 2705   3.220   6.248   4.569
  602SOL    HW2 2706   3.066   6.288   4.535
  603SOL     OW 2707   1.481   0.862   5.778
  603SOL    HW1 2708   1.466   0.795   5.705
  603SOL    HW2 2709   1.575   0.895   5.775
  604SOL     OW 2710   6.615   2.231   1.971
  604SOL    HW1 2711   6.556   2.227   1.890
  604SOL    HW2 2712   6.559   2.218   2.053
  605SOL     OW 2713   0.447   4.751   2.177
  605SOL    HW1 2714   0.442   4.847   2.147
  605SOL    HW2 2715   0.412   4.745   2.271
  606SOL     OW 2716   3.661   0.263   5.018
  606SOL    HW1 2717   3.565   0.288   5.034
  606SOL    HW2 2718   3.665   0.193   4.948
  607SOL     OW 2719   1.012   4.920   5.887
  607SOL    HW1 2720   1.085   4.854   5.904
  607SOL    HW2 2721   1.019   4.996   5.951
  608SOL     OW 2722   3.320   0.557   5.668
  608SOL    HW1 2723   3.379   0.545   5.589
  608SOL    HW2 2724   3.263   0.638   5.656
  609SOL     OW 2725   4.123   2.561   1.540
  609SOL    HW1 2726   4.197   2.603   1.489
  609SOL    HW2 2727   4.091   2.623   1.611
  610SOL     OW 2728   4.721   3.445   0.482
  610SOL    HW1 2729   4.693   3.363   0.533
  610SOL    HW2 2730   4.750   3.419   0.391
  611SOL     OW 2731   3.771   0.113   2.123
  611SOL    HW1 2732   3.843   0.070   2.178
  611SOL    HW2 2733   3.802   0.204   2.095
  612SOL     OW 2734   3.842   4.453   6.007
  612SOL    HW1 2735   3.744   4.444   6.025
  612SOL    HW2 2736   3.855   4.478   5.911
  613SOL     OW 2737   4.444   5.295   5.232
  613SOL    HW1 2738   4.463   5.319   5.327
  613SOL    HW2 2739   4.464   5.198   5.217
  614SOL     OW 2740   5.082   5.701   5.631
  614SOL    HW1 2741   5.022   5.698   5.711
  614SOL    HW2 2742   5.154   5.632   5.640
  615SOL     OW 2743   0.218   5.026   1.149
  615SOL    HW1 2744   0.191   4.968   1.226
  615SOL    HW2 2745   0.136   5.067   1.108
  616SOL     OW 2746   6.043   2.936   3.098
  616SOL    HW1 2747   6.003   2.966   3.185
  616SOL    HW2 2748   5.979   2.874   3.052
  617SOL     OW 2749   2.283   5.313   5.865
  617SOL    HW1 2750   2.359   5.373   5.888
  617SOL    HW2 2751   2.317   5.219   5.857
  618SOL     OW 2752   1.294   1.148   2.057
  618SOL    HW1 2753   1.356   1.217   2.020
  618SOL    HW2 2754   1.335   1.107   2.139
  619SOL     OW 2755   1.127   1.507   6.332
  619SOL    HW1 2756   1.133   1.601   6.296
  619SOL    HW2 2757   1.214   1.481   6.372
  620SOL     OW 2758   4.768   3.172   0.011
  620SOL    HW1 2759   4.790   3.118   0.092
  620SOL    HW2 2760   4.830   3.250   0.004
  621SOL     OW 2761   0.489   4.908   0.250
  621SOL    HW1 2762   0.410   4.942   0.301
  621SOL    HW2 2763   0.572   4.957   0.278
  622SOL     OW 2764   2.078   1.512   0.252
  622SOL    HW1 2765   2.054   1.601   0.289
  622SOL    HW2 2766   2.113   1.453   0.325
  623SOL     OW 2767   1.203   4.747   6.421
  623SOL    HW1 2768   1.112   4.768   6.455
  623SOL    HW2 2769   1.272   4.788   6.481
  624SOL     OW 2770   0.962   3.285   2.885
  624SOL    HW1 2771   1.016   3.359   2.925
  624SOL    HW2 2772   0.879   3.271   2.940
  625SOL     OW 2773   3.000   1.319   2.583
  625SOL    HW1 2774   3.031   1.232   2.545
  625SOL    HW2 2775   2.992   1.387   2.510
  626SOL     OW 2776   1.878   6.466   4.168
  626SOL    HW1 2777   1.841   6.558   4.158
  626SOL    HW2 2778   1.975   6.472   4.190
  627SOL     OW 2779   5.650   0.837   0.174
  627SOL    HW1 2780   5.659   0.889   0.259
  627SOL    HW2 2781   5.612   0.896   0.103
  628SOL     OW 2782   5.039   4.416   4.333
  628SOL    HW1 2783   5.073   4.377   4.419
  628SOL    HW2 2784   5.060   4.354   4.258
  629SOL     OW 2785   0.386   0.135   1.000
  629SOL    HW1 2786   0.313   0.172   0.942
  629SOL    HW2 2787   0.474   0.150   0.955
  630SOL     OW 2788   4.262   1.479   1.106
  630SOL    HW1 2789   4.311   1.505   1.189
  630SOL    HW2 2790   4.315   1.508   1.026
  631SOL     OW 2791   2.155   0.004   5.702
  631SOL    HW1 2792   2.093   0.083   5.706
  631SOL    HW2 2793   2.209   0.009   5.618
  632SOL     OW 2794   2.424   0.805   1.009
  632SOL    HW1 2795   2.438   0.903   1.022
  632SOL    HW2 2796   2.352   0.790   0.942
  633SOL     OW 2797   3.389   6.591   6.813
  633SOL    HW1 2798   3.477   6.543   6.811
  633SOL    HW2 2799   3.401   6.681   6.854
  634SOL     OW 2800   4.170   5.809   1.044
  634SOL    HW1 2801   4.155   5.764   1.132
  634SOL    HW2 2802   4.265   5.841   1.040
  635SOL     OW 2803   2.890   6.962   2.938
  635SOL    HW1 2804   2.882   6.973   2.839
  635SOL    HW2 2805   2.813   6.906   2.971
  636SOL     OW 2806   4.859   5.330   6.635
  636SOL    HW1 2807   4.957   5.310   6.645
  636SOL    HW2 2808   4.818   5.261   6.575
  637SOL     OW 2809   4.866   4.790   1.224
  637SOL    HW1 2810   4.892   4.694   1.215
  637SOL    HW2 2811   4.802   4.800   1.301
  638SOL     OW 2812   4.737   1.167   1.990
  638SOL    HW1 2813   4.653   1.221   1.983
  638SOL    HW2 2814   4.723   1.077   1.949
  639SOL     OW 2815   4.158   4.729   1.920
  639SOL    HW1 2816   4.220   4.653   1.940
  639SOL    HW2 2817   4.071   4.694   1.886
  640SOL     OW 2818   3.071   4.038   5.243
  640SOL    HW1 2819   3.015   3.975   5.297
  640SOL    HW2 2820   3.037   4.040   5.149
  641SOL     OW 2821   6.923   5.876   4.854
  641SOL    HW1 2822   6.836   5.886   4.806
  641SOL    HW2 2823   6.909   5.889   4.952
  642SOL     OW 2824   0.134   4.626   4.872
  642SOL    HW1 2825   0.163   4.669   4.786
  642SOL    HW2 2826   0.152   4.688   4.948
  643SOL     OW 2827   6.155   5.523   6.190
  643SOL    HW1 2828   6.114   5.600   6.238
  643SOL    HW2 2829   6.123   5.521   6.096
  644SOL     OW 2830   0.843   6.149   2.797
  644SOL    HW1 2831   0.745   6.167   2.800
  644SOL    HW2 2832   0.875   6.125   2.888
  645SOL     OW 2833   5.056   2.507   3.993
  645SOL    HW1 2834   5.134   2.463   4.037
  645SOL    HW2 2835   5.005   2.438   3.940
  646SOL     OW 2836   0.927   1.231   4.580
  646SOL    HW1 2837   0.851   1.170   4.558
  646SOL    HW2 2838   0.925   1.254   4.677
  647SOL     OW 2839   6.156   2.746   0.467
  647SOL    HW1 2840   6.070   2.738   0.518
  647SOL    HW2 2841   6.210   2.821   0.504
  648SOL     OW 2842   5.767   4.150   2.056
  648SOL    HW1 2843   5.775   4.078   1.988
  648SOL    HW2 2844   5.857   4.192   2.070
  649SOL     OW 2845   4.110   4.519   1.003
  649SOL    HW1 2846   4.196   4.566   1.023
  649SOL    HW2 2847   4.125   4.452   0.931
  650SOL     OW 2848   4.575   4.040   0.454
  650SOL    HW1 2849   4.624   4.007   0.535
  650SOL    HW2 2850   4.629   4.019   0.373
  651SOL     OW 2851   0.752   6.120   0.782
  651SOL    HW1 2852   0.690   6.136   0.858
  651SOL    HW2 2853   0.802   6.035   0.797
  652SOL     OW 2854   4.347   1.411   2.814
  652SOL    HW1 2855   4.367   1.389   2.909
  652SOL    HW2 2856   4.250   1.395   2.795
  653SOL     OW 2857   3.588   5.038   4.184
  653SOL    HW1 2858   3.592   4.977   4.105
  653SOL    HW2 2859   3.517   5.005   4.247
  654SOL     OW 2860   0.164   4.595   6.794
  654SOL    HW1 2861   0.250   4.627   6.834
  654SOL    HW2 2862   0.138   4.508   6.837
  655SOL     OW 2863   1.044   0.315   0.883
  655SOL    HW1 2864   1.101   0.234   0.898
  655SOL    HW2 2865   0.961   0.308   0.939
  656SOL     OW 2866   2.404   6.489   2.541
  656SOL    HW1 2867   2.358   6.442   2.465
  656SOL    HW2 2868   2.364   6.579   2.554
  657SOL     OW 2869   3.459   1.145   0.686
  657SOL    HW1 2870   3.509   1.229   0.706
  657SOL    HW2 2871   3.398   1.124   0.762
  658SOL     OW 2872   3.071   3.831   0.272
  658SOL    HW1 2873   3.131   3.767   0.319
  658SOL    HW2 2874   2.977   3.819   0.304
  659SOL     OW 2875   2.891   0.128   0.005
  659SOL    HW1 2876   2.957   0.176   0.063
  659SOL    HW2 2877   2.869   0.185   6.944
  660SOL     OW 2878   3.711   5.429   2.804
  660SOL    HW1 2879   3.696   5.334   2.832
  660SOL    HW2 2880   3.804   5.438   2.767
  661SOL     OW 2881   4.025   5.788   3.181
  661SOL    HW1 2882   4.092   5.795   3.108
  661SOL    HW2 2883   3.966   5.708   3.165
  662SOL     OW 2884   3.390   1.243   6.250
  662SOL    HW1 2885   3.352   1.164   6.202
  662SOL    HW2 2886   3.370   1.327   6.199
  663SOL     OW 2887   2.428   5.294   5.145
  663SOL    HW1 2888   2.341   5.342   5.135
  663SOL    HW2 2889   2.416   5.198   5.117
  664SOL     OW 2890   6.840   0.343   6.779
  664SOL    HW1 2891   6.905   0.386   6.716
  664SOL    HW2 2892   6.879   0.259   6.816
  665SOL     OW 2893   2.871   5.479   3.584
  665SOL    HW1 2894   2.948   5.434   3.629
  665SOL    HW2 2895   2.891   5.490   3.487
  666SOL     OW 2896   3.933   0.353   2.001
  666SOL    HW1 2897   4.021   0.382   1.965
  666SOL    HW2 2898   3.879   0.434   2.027
  667SOL     OW 2899   0.605   6.219   1.949
  667SOL    HW1 2900   0.682   6.164   1.982
  667SOL    HW2 2901   0.608   6.223   1.849
  668SOL     OW 2902   5.312   4.338   6.182
  668SOL    HW1 2903   5.385   4.274   6.157
  668SOL    HW2 2904   5.291   4.327   6.280
  669SOL     OW 2905   5.664   1.409   2.644
  669SOL    HW1 2906   5.664   1.487   2.582
  669SOL    HW2 2907   5.699   1.437   2.733
  670SOL     OW 2908   1.552   2.283   3.756
  670SOL    HW1 2909   1.597   2.358   3.707
  670SOL    HW2 2910   1.531   2.210   3.691
  671SOL     OW 2911   2.156   6.267   1.683
  671SOL    HW1 2912   2.141   6.279   1.781
  671SOL    HW2 2913   2.127   6.350   1.634
  672SOL     OW 2914   0.208   6.337   1.983
  672SOL    HW1 2915   0.136   6.406   1.981
  672SOL    HW2 2916   0.179   6.261   2.041
  673SOL     OW 2917   5.436   6.492   0.966
  673SOL    HW1 2918   5.470   6.570   0.912
  673SOL    HW2 2919   5.337   6.496   0.970
  674SOL     OW 2920   6.819   1.451   5.295
  674SOL    HW1 2921   6.803   1.438   5.197
  674SOL    HW2 2922   6.782   1.373   5.346
  675SOL     OW 2923   5.594   2.333   2.398
  675SOL    HW1 2924   5.547   2.326   2.487
  675SOL    HW2 2925   5.535   2.381   2.334
  676SOL     OW 2926   2.339   4.558   5.441
  676SOL    HW1 2927   2.263   4.524   5.496
  676SOL    HW2 2928   2.425   4.525   5.479
  677SOL     OW 2929   4.519   1.122   1.258
  677SOL    HW1 2930   4.562   1.098   1.172
  677SOL    HW2 2931   4.521   1.044   1.320
  678SOL     OW 2932   2.356   4.246   5.577
  678SOL    HW1 2933   2.418   4.239   5.499
  678SOL    HW2 2934   2.321   4.156   5.601
  679SOL     OW 2935   5.004   1.404   5.399
  679SOL    HW1 2936   4.914   1.363   5.385
  679SOL    HW2 2937   5.025   1.408   5.497
  680SOL     OW 2938   5.276   6.877   4.018
  680SOL    HW1 2939   5.229   6.939   3.954
  680SOL    HW2 2940   5.219   6.862   4.098
  681SOL     OW 2941   5.376   6.177   2.243
  681SOL    HW1 2942   5.327   6.198   2.327
  681SOL    HW2 2943   5.336   6.095   2.201
  682SOL     OW 2944   0.864   0.868   2.555
  682SOL    HW1 2945   0.925   0.811   2.610
  682SOL    HW2 2946   0.841   0.819   2.470
  683SOL     OW 2947   4.331   3.846   1.117
  683SOL    HW1 2948   4.429   3.853   1.102
  683SOL    HW2 2949   4.292   3.777   1.057
  684SOL     OW 2950   6.252   0.137   6.353
  684SOL    HW1 2951   6.340   0.155   6.398
  684SOL    HW2 2952   6.179   0.177   6.408
  685SOL     OW 2953   3.679   1.135   3.480
  685SOL    HW1 2954   3.735   1.132   3.397
  685SOL    HW2 2955   3.726   1.189   3.550
  686SOL     OW 2956   4.068   1.141   4.310
  686SOL    HW1 2957   4.118   1.098   4.385
  686SOL    HW2 2958   4.123   1.214   4.269
  687SOL     OW 2959   0.983   1.859   4.312
  687SOL    HW1 2960   0.968   1.816   4.400
  687SOL    HW2 2961   1.071   1.829   4.275
  688SOL     OW 2962   6.892   1.748   6.517
  688SOL    HW1 2963   6.970   1.808   6.501
  688SOL    HW2 2964   6.913   1.656   6.485
  689SOL     OW 2965   1.170   5.239   5.602
  689SOL    HW1 2966   1.185   5.275   5.694
  689SOL    HW2 2967   1.074   5.212   5.592
  690SOL     OW 2968   6.090   3.645   2.722
  690SOL    HW1 2969   6.175   3.654   2.773
  690SOL    HW2 2970   6.013   3.637   2.786
  691SOL     OW 2971   4.130   1.655   6.972
  691SOL    HW1 2972   4.186   1.575   6.952
  691SOL    HW2 2973   4.033   1.633   6.955
  692SOL     OW 2974   2.996   1.720   5.170
  692SOL    HW1 2975   3.049   1.793   5.214
  692SOL    HW2 2976   2.963   1.752   5.081
  693SOL     OW 2977   5.070   6.158   3.163
  693SOL    HW1 2978   5.029   6.237   3.209
  693SOL    HW2 2979   5.098   6.183   3.071
  694SOL     OW 2980   4.325   5.862   4.844
  694SOL    HW1 2981   4.353   5.879   4.938
  694SOL    HW2 2982   4.378   5.786   4.806
  695SOL     OW 2983   2.883   6.540   4.060
  695SOL    HW1 2984   2.806   6.533   4.124
  695SOL    HW2 2985   2.856   6.503   3.971
  696SOL     OW 2986   4.857   4.060   3.291
  696SOL    HW1 2987   4.823   4.039   3.383
  696SOL    HW2 2988   4.852   3.978   3.234
  697SOL     OW 2989   0.920   4.539   1.856
  697SOL    HW1 2990   0.936   4.494   1.768
  697SOL    HW2 2991   0.827   4.573   1.859
  698SOL     OW 2992   4.991   6.721   1.187
  698SOL    HW1 2993   5.056   6.700   1.260
  698SOL    HW2 2994   4.913   6.659   1.192
  699SOL     OW 2995   2.664   2.280   0.654
  699SOL    HW1 2996   2.713   2.353   0.609
  699SOL    HW2 2997   2.726   2.230   0.715
  700SOL     OW 2998   3.333   0.268   2.756
  700SOL    HW1 2999   3.318   0.225   2.667
  700SOL    HW2 3000   3.245   0.276   2.805
  701SOL     OW 3001   6.450   4.786   1.314
  701SOL    HW1 3002   6.382   4.856   1.290
  701SOL    HW2 3003   6.436   4.757   1.409
  702SOL     OW 3004   2.960   1.209   4.384
  702SOL    HW1 3005   3.059   1.198   4.392
  702SOL    HW2 3006   2.918   1.121   4.362
  703SOL     OW 3007   2.772   2.944   5.781
  703SOL    HW1 3008   2.854   3.002   5.777
  703SOL    HW2 3009   2.749   2.914   5.688
  704SOL     OW 3010   1.581   2.820   6.236
  704SOL    HW1 3011   1.501   2.795   6.181
  704SOL    HW2 3012   1.552   2.834   6.331
  705SOL     OW 3013   0.013   5.889   3.927
  705SOL    HW1 3014   6.960   5.936   3.875
  705SOL    HW2 3015   6.996   5.801   3.960
  706SOL     OW 3016   4.229   0.768   5.513
  706SOL    HW1 3017   4.147   0.751   5.568
  706SOL    HW2 3018   4.266   0.858   5.536
  707SOL     OW 3019   3.431   5.092   3.789
  707SOL    HW1 3020   3.423   5.186   3.821
  707SOL    HW2 3021   3.445   5.091   3.690
  708SOL     OW 3022   2.554   0.840   3.165
  708SOL    HW1 3023   2.615   0.886   3.101
  708SOL    HW2 3024   2.576   0.869   3.258
  709SOL     OW 3025   2.276   0.269   1.996
  709SOL    HW1 3026   2.188   0.244   1.954
  709SOL    HW2 3027   2.337   0.190   1.995
  710SOL     OW 3028   5.061   2.792   1.726
  710SOL    HW1 3029   5.002   2.830   1.656
  710SOL    HW2 3030   5.069   2.693   1.713
  711SOL     OW 3031   0.309   2.464   5.838
  711SOL    HW1 3032   0.322   2.563   5.829
  711SOL    HW2 3033   0.331   2.436   5.932
  712SOL     OW 3034   4.572   2.538   0.764
  712SOL    HW1 3035   4.665   2.514   0.733
  712SOL    HW2 3036   4.577   2.619   0.821
  713SOL     OW 3037   3.948   2.822   5.265
  713SOL    HW1 3038   4.008   2.742   5.257
  713SOL    HW2 3039   3.876   2.817   5.196
  714SOL     OW 3040   5.901   4.745   3.451
  714SOL    HW1 3041   5.945   4.750   3.361
  714SOL    HW2 3042   5.909   4.833   3.497
  715SOL     OW 3043   6.185   4.948   6.050
  715SOL    HW1 3044   6.246   5.023   6.026
  715SOL    HW2 3045   6.097   4.986   6.081
  716SOL     OW 3046   1.710   0.854   2.542
  716SOL    HW1 3047   1.735   0.842   2.446
  716SOL    HW2 3048   1.741   0.944   2.574
  717SOL     OW 3049   5.440   4.900   3.717
  717SOL    HW1 3050   5.537   4.890   3.741
  717SOL    HW2 3051   5.387   4.922   3.799
  718SOL     OW 3052   5.248   1.880   4.249
  718SOL    HW1 3053   5.191   1.815   4.301
  718SOL    HW2 3054   5.203   1.969   4.247
  719SOL     OW 3055   6.377   0.676   2.592
  719SOL    HW1 3056   6.345   0.750   2.651
  719SOL    HW2 3057   6.473   0.691   2.569
  720SOL     OW 3058   1.865   1.033   6.820
  720SOL    HW1 3059   1.814   0.949   6.800
  720SOL    HW2 3060   1.823   1.078   6.899
  721SOL     OW 3061   0.185   2.499   2.471
  721SOL    HW1 3062   0.131   2.583   2.467
  721SOL    HW2 3063   0.187   2.457   2.380
  722SOL     OW 3064   4.448   0.199   6.757
  722SOL    HW1 3065   4.546   0.189   6.772
  722SOL    HW2 3066   4.432   0.240   6.667
  723SOL     OW 3067   2.121   6.426   3.901
  723SOL    HW1 3068   2.079   6.386   3.819
  723SOL    HW2 3069   2.143   6.522   3.884
  724SOL     OW 3070   0.858   1.660   3.583
  724SOL    HW1 3071   0.917   1.613   3.517
  724SOL    HW2 3072   0.908   1.676   3.668
  725SOL     OW 3073   2.237   4.668   2.223
  725SOL    HW1 3074   2.175   4.702   2.152
  725SOL    HW2 3075   2.308   4.737   2.240
  726SOL     OW 3076   2.297   4.869   0.454
  726SOL    HW1 3077   2.289   4.828   0.545
  726SOL    HW2 3078   2.381   4.922   0.449
  727SOL     OW 3079   4.266   5.042   5.933
  727SOL    HW1 3080   4.305   5.096   6.007
  727SOL    HW2 3081   4.170   5.023   5.953
  728SOL     OW 3082   6.855   3.429   4.747
  728SOL    HW1 3083   6.830   3.366   4.820
  728SOL    HW2 3084   6.778   3.490   4.728
  729SOL     OW 3085   0.315   3.213   1.364
  729SOL    HW1 3086   0.230   3.166   1.339
  729SOL    HW2 3087   0.355   3.170   1.444
  730SOL     OW 3088   4.878   0.886   2.949
  730SOL    HW1 3089   4.914   0.937   2.871
  730SOL    HW2 3090   4.792   0.927   2.979
  731SOL     OW 3091   4.376   4.378   6.987
  731SOL    HW1 3092   4.285   4.339   6.977
  731SOL    HW2 3093   4.439   4.333   6.924
  732SOL     OW 3094   4.659   1.704   2.891
  732SOL    HW1 3095   4.641   1.764   2.970
  732SOL    HW2 3096   4.663   1.609   2.922
  733SOL     OW 3097   6.153   6.455   3.418
  733SOL    HW1 3098   6.087   6.418   3.484
  733SOL    HW2 3099   6.106   6.517   3.355
  734SOL     OW 3100   6.002   5.088   2.725
  734SOL    HW1 3101   5.925   5.047   2.678
  734SOL    HW2 3102   5.979   5.102   2.822
  735SOL     OW 3103   5.799   0.603   1.756
  735SOL    HW1 3104   5.834   0.597   1.662
  735SOL    HW2 3105   5.875   0.592   1.821
  736SOL     OW 3106   1.529   1.299   4.312
  736SOL    HW1 3107   1.446   1.246   4.294
  736SOL    HW2 3108   1.604   1.237   4.333
  737SOL     OW 3109   6.003   1.124   6.427
  737SOL    HW1 3110   6.001   1.160   6.520
  737SOL    HW2 3111   6.046   1.033   6.428
  738SOL     OW 3112   2.663   4.118   1.172
  738SOL    HW1 3113   2.687   4.026   1.142
  738SOL    HW2 3114   2.578   4.115   1.224
  739SOL     OW 3115   2.960   6.622   4.950
  739SOL    HW1 3116   2.862   6.604   4.962
  739SOL    HW2 3117   2.976   6.659   4.858
  740SOL     OW 3118   5.499   2.260   3.201
  740SOL    HW1 3119   5.587   2.307   3.214
  740SOL    HW2 3120   5.460   2.237   3.290
  741SOL     OW 3121   2.526   0.613   4.234
  741SOL    HW1 3122   2.580   0.696   4.223
  741SOL    HW2 3123   2.430   0.632   4.211
  742SOL     OW 3124   1.727   6.315   0.907
  742SOL    HW1 3125   1.824   6.307   0.882
  742SOL    HW2 3126   1.714   6.285   1.001
  743SOL     OW 3127   1.002   6.472   3.425
  743SOL    HW1 3128   1.026   6.410   3.499
  743SOL    HW2 3129   0.958   6.422   3.351
  744SOL     OW 3130   5.672   1.198   0.445
  744SOL    HW1 3131   5.713   1.112   0.415
  744SOL    HW2 3132   5.718   1.230   0.527
  745SOL     OW 3133   2.227   5.560   4.890
  745SOL    HW1 3134   2.209   5.514   4.977
  745SOL    HW2 3135   2.321   5.594   4.889
  746SOL     OW 3136   5.670   4.690   5.319
  746SOL    HW1 3137   5.690   4.597   5.285
  746SOL    HW2 3138   5.741   4.717   5.384
  747SOL     OW 3139   5.229   5.529   3.026
  747SOL    HW1 3140   5.253   5.494   3.116
  747SOL    HW2 3141   5.309   5.524   2.966
  748SOL     OW 3142   5.370   5.630   2.478
  748SOL    HW1 3143   5.298   5.687   2.517
  748SOL    HW2 3144   5.457   5.651   2.521
  749SOL     OW 3145   4.970   4.346   3.598
  749SOL    HW1 3146   4.988   4.400   3.516
  749SOL    HW2 3147   4.955   4.407   3.676
  750SOL     OW 3148   2.418   1.848   1.817
  750SOL    HW1 3149   2.458   1.757   1.829
  750SOL    HW2 3150   2.359   1.849   1.736
  751SOL     OW 3151   4.619   1.395   0.263
  751SOL    HW1 3152   4.710   1.377   0.227
  751SOL    HW2 3153   4.551   1.351   0.205
  752SOL     OW 3154   3.353   2.594   5.315
  752SOL    HW1 3155   3.310   2.683   5.302
  752SOL    HW2 3156   3.302   2.523   5.267
  753SOL     OW 3157   3.751   3.791   5.324
  753SOL    HW1 3158   3.748   3.710   5.382
  753SOL    HW2 3159   3.825   3.851   5.355
  754SOL     OW 3160   5.602   0.654   6.276
  754SOL    HW1 3161   5.538   0.693   6.210
  754SOL    HW2 3162   5.623   0.560   6.250
  755SOL     OW 3163   2.800   4.126   5.308
  755SOL    HW1 3164   2.855   4.062   5.363
  755SOL    HW2 3165   2.861   4.191   5.263
  756SOL     OW 3166   2.801   5.480   6.567
  756SOL    HW1 3167   2.806   5.380   6.568
  756SOL    HW2 3168   2.707   5.509   6.552
  757SOL     OW 3169   1.829   6.701   2.545
  757SOL    HW1 3170   1.754   6.654   2.498
  757SOL    HW2 3171   1.914   6.651   2.528
  758SOL     OW 3172   3.476   1.185   4.409
  758SOL    HW1 3173   3.525   1.272   4.412
  758SOL    HW2 3174   3.379   1.201   4.428
  759SOL     OW 3175   0.196   3.172   4.169
  759SOL    HW1 3176   0.201   3.096   4.234
  759SOL    HW2 3177   0.287   3.215   4.162
  760SOL     OW 3178   0.124   0.124   3.765
  760SOL    HW1 3179   0.098   0.185   3.840
  760SOL    HW2 3180   0.042   0.081   3.727
  761SOL     OW 3181   5.041   3.931   5.526
  761SOL    HW1 3182   4.945   3.959   5.520
  761SOL    HW2 3183   5.071   3.894   5.438
  762SOL     OW 3184   2.915   6.099   5.272
  762SOL    HW1 3185   2.856   6.123   5.349
  762SOL    HW2 3186   2.999   6.154   5.275
  763SOL     OW 3187   5.863   0.474   6.806
  763SOL    HW1 3188   5.831   0.568   6.795
  763SOL    HW2 3189   5.785   0.414   6.823
  764SOL     OW 3190   5.079   6.958   5.096
  764SOL    HW1 3191   4.990   6.922   5.126
  764SOL    HW2 3192   5.065   0.012   5.029
  765SOL     OW 3193   0.751   6.580   0.830
  765SOL    HW1 3194   0.684   6.592   0.904
  765SOL    HW2 3195   0.772   6.669   0.789
  766SOL     OW 3196   1.715   2.341   4.986
  766SOL    HW1 3197   1.724   2.286   5.069
  766SOL    HW2 3198   1.760   2.429   5.000
  767SOL     OW 3199   0.168   6.933   4.017
  767SOL    HW1 3200   0.193   0.010   4.001
  767SOL    HW2 3201   0.200   6.878   3.940
  768SOL     OW 3202   2.391   6.117   2.318
  768SOL    HW1 3203   2.302   6.139   2.359
  768SOL    HW2 3204   2.426   6.196   2.269
  769SOL     OW 3205   2.884   1.835   4.954
  769SOL    HW1 3206   2.878   1.820   4.855
  769SOL    HW2 3207   2.931   1.922   4.972
  770SOL     OW 3208   2.238   4.813   4.555
  770SOL    HW1 3209   2.331   4.783   4.535
  770SOL    HW2 3210   2.173   4.757   4.505
  771SOL     OW 3211   1.159   5.241   2.644
  771SOL    HW1 3212   1.120   5.151   2.668
  771SOL    HW2 3213   1.144   5.258   2.547
  772SOL     OW 3214   4.822   4.963   6.573
  772SOL    HW1 3215   4.875   5.033   6.526
  772SOL    HW2 3216   4.741   5.004   6.614
  773SOL     OW 3217   0.804   3.410   3.636
  773SOL    HW1 3218   0.706   3.391   3.628
  773SOL    HW2 3219   0.844   3.351   3.707
  774SOL     OW 3220   2.084   1.288   3.272
  774SOL    HW1 3221   2.096   1.190   3.286
  774SOL    HW2 3222   1.986   1.309   3.267
  775SOL     OW 3223   2.180   4.083   4.269
  775SOL    HW1 3224   2.191   4.154   4.199
  775SOL    HW2 3225   2.224   4.113   4.353
  776SOL     OW 3226   1.473   6.761   6.217
  776SOL    HW1 3227   1.373   6.759   6.212
  776SOL    HW2 3228   1.502   6.797   6.305
  777SOL     OW 3229   2.089   3.556   6.857
  777SOL    HW1 3230   2.114   3.559   6.953
  777SOL    HW2 3231   2.065   3.462   6.831
  778SOL     OW 3232   3.597   6.943   1.687
  778SOL    HW1 3233   3.599   6.971   1.783
  778SOL    HW2 3234   3.683   6.968   1.643
  779SOL     OW 3235   0.187   2.427   2.230
  779SOL    HW1 3236   0.160   2.344   2.181
  779SOL    HW2 3237   0.195   2.503   2.165
  780SOL     OW 3238   1.439   1.873   5.249
  780SOL    HW1 3239   1.353   1.823   5.256
  780SOL    HW2 3240   1.470   1.872   5.154
  781SOL     OW 3241   0.638   4.115   0.657
  781SOL    HW1 3242   0.629   4.038   0.593
  781SOL    HW2 3243   0.570   4.184   0.636
  782SOL     OW 3244   1.849   3.667   6.424
  782SOL    HW1 3245   1.883   3.680   6.517
  782SOL    HW2 3246   1.924   3.674   6.359
  783SOL     OW 3247   5.518   4.423   6.686
  783SOL    HW1 3248   5.451   4.497   6.683
  783SOL    HW2 3249   5.504   4.362   6.608
  784SOL     OW 3250   3.383   6.210   1.053
  784SOL    HW1 3251   3.418   6.126   1.094
  784SOL    HW2 3252   3.416   6.289   1.105
  785SOL     OW 3253   0.612   0.169   4.208
  785SOL    HW1 3254   0.690   0.164   4.146
  785SOL    HW2 3255   0.592   0.077   4.243
  786SOL     OW 3256   6.719   1.211   3.626
  786SOL    HW1 3257   6.707   1.239   3.531
  786SOL    HW2 3258   6.755   1.287   3.679
  787SOL     OW 3259   2.723   0.002   0.222
  787SOL    HW1 3260   2.784   0.035   0.150
  787SOL    HW2 3261   2.629   0.032   0.202
  788SOL     OW 3262   4.157   3.225   0.923
  788SOL    HW1 3263   4.116   3.176   0.846
  788SOL    HW2 3264   4.099   3.214   1.003
  789SOL     OW 3265   4.467   5.551   1.370
  789SOL    HW1 3266   4.474   5.642   1.329
  789SOL    HW2 3267   4.410   5.493   1.312
  790SOL     OW 3268   0.601   3.106   2.139
  790SOL    HW1 3269   0.602   3.007   2.123
  790SOL    HW2 3270   0.522   3.146   2.093
  791SOL     OW 3271   3.156   5.210   5.144
  791SOL    HW1 3272   3.196   5.282   5.087
  791SOL    HW2 3273   3.067   5.183   5.106
  792SOL     OW 3274   1.086   1.076   1.034
  792SOL    HW1 3275   1.089   1.060   0.935
  792SOL    HW2 3276   1.180   1.086   1.069
  793SOL     OW 3277   3.752   5.711   3.704
  793SOL    HW1 3278   3.760   5.772   3.783
  793SOL    HW2 3279   3.705   5.627   3.733
  794SOL     OW 3280   2.949   3.247   3.650
  794SOL    HW1 3281   2.891   3.205   3.581
  794SOL    HW2 3282   2.946   3.347   3.641
  795SOL     OW 3283   3.941   0.885   6.467
  795SOL    HW1 3284   3.869   0.920   6.408
  795SOL    HW2 3285   4.013   0.954   6.476
  796SOL     OW 3286   1.906   3.217   6.663
  796SOL    HW1 3287   1.912   3.262   6.752
  796SOL    HW2 3288   1.998   3.197   6.629
  797SOL     OW 3289   5.031   0.020   0.346
  797SOL    HW1 3290   5.111   6.991   0.308
  797SOL    HW2 3291   4.989   6.981   0.416
  798SOL     OW 3292   3.961   6.838   0.466
  798SOL    HW1 3293   3.921   6.783   0.539
  798SOL    HW2 3294   3.889   6.891   0.420
  799SOL     OW 3295   1.068   1.674   6.846
  799SOL    HW1 3296   1.036   1.607   6.914
  799SOL    HW2 3297   0.990   1.710   6.795
  800SOL     OW 3298   6.267   1.806   1.623
  800SOL    HW1 3299   6.236   1.855   1.541
  800SOL    HW2 3300   6.360   1.835   1.646
  801SOL     OW 3301   1.742   5.243   5.265
  801SOL    HW1 3302   1.699   5.305   5.331
  801SOL    HW2 3303   1.836   5.224   5.294
  802SOL     OW 3304   5.298   2.303   6.936
  802SOL    HW1 3305   5.335   2.335   0.004
  802SOL    HW2 3306   5.198   2.301   6.940
  803SOL     OW 3307   2.734   0.930   5.463
  803SOL    HW1 3308   2.778   0.877   5.536
  803SOL    HW2 3309   2.739   0.879   5.377
  804SOL     OW 3310   6.748   0.513   1.570
  804SOL    HW1 3311   6.689   0.449   1.520
  804SOL    HW2 3312   6.731   0.503   1.668
  805SOL     OW 3313   3.130   1.344   3.732
  805SOL    HW1 3314   3.059   1.310   3.794
  805SOL    HW2 3315   3.215   1.359   3.782
  806SOL     OW 3316   1.313   6.503   5.255
  806SOL    HW1 3317   1.316   6.527   5.352
  806SOL    HW2 3318   1.254   6.568   5.207
  807SOL     OW 3319   0.422   6.430   5.186
  807SOL    HW1 3320   0.426   6.498   5.259
  807SOL    HW2 3321   0.482   6.458   5.111
  808SOL     OW 3322   5.463   2.783   0.511
  808SOL    HW1 3323   5.368   2.768   0.535
  808SOL    HW2 3324   5.499   2.700   0.467
  809SOL     OW 3325   1.326   5.569   0.243
  809SOL    HW1 3326   1.267   5.527   0.312
  809SOL    HW2 3327   1.297   5.663   0.226
  810SOL     OW 3328   2.758   3.034   0.258
  810SOL    HW1 3329   2.689   3.042   0.330
  810SOL    HW2 3330   2.775   3.124   0.218
  811SOL     OW 3331   5.661   5.114   4.576
  811SOL    HW1 3332   5.740   5.122   4.516
  811SOL    HW2 3333   5.585   5.168   4.540
  812SOL     OW 3334   0.897   2.680   2.377
  812SOL    HW1 3335   0.829   2.629   2.324
  812SOL    HW2 3336   0.974   2.704   2.318
  813SOL     OW 3337   1.382   1.514   4.417
  813SOL    HW1 3338   1.447   1.442   4.393
  813SOL    HW2 3339   1.317   1.479   4.483
  814SOL     OW 3340   1.046   5.669   2.889
  814SOL    HW1 3341   0.982   5.744   2.907
  814SOL    HW2 3342   1.002   5.602   2.828
  815SOL     OW 3343   4.948   2.027   4.050
  815SOL    HW1 3344   4.850   2.043   4.043
  815SOL    HW2 3345   4.979   2.047   4.142
  816SOL     OW 3346   5.181   3.415   0.266
  816SOL    HW1 3347   5.261   3.356   0.255
  816SOL    HW2 3348   5.122   3.379   0.338
  817SOL     OW 3349   1.288   5.374   0.566
  817SOL    HW1 3350   1.191   5.398   0.575
  817SOL    HW2 3351   1.342   5.458   0.560
  818SOL     OW 3352   5.780   2.913   3.629
  818SOL    HW1 3353   5.799   2.999   3.678
  818SOL    HW2 3354   5.693   2.921   3.581
  819SOL     OW 3355   5.168   2.521   1.919
  819SOL    HW1 3356   5.088   2.559   1.966
  819SOL    HW2 3357   5.140   2.485   1.830
  820SOL     OW 3358   2.138   1.894   4.653
  820SOL    HW1 3359   2.126   1.832   4.731
  820SOL    HW2 3360   2.082   1.976   4.666
  821SOL     OW 3361   5.673   3.924   5.086
  821SOL    HW1 3362   5.660   4.019   5.057
  821SOL    HW2 3363   5.586   3.884   5.113
  822SOL     OW 3364   0.843   4.467   3.817
  822SOL    HW1 3365   0.868   4.370   3.814
  822SOL    HW2 3366   0.788   4.485   3.898
  823SOL     OW 3367   0.677   3.584   6.090
  823SOL    HW1 3368   0.692   3.485   6.095
  823SOL    HW2 3369   0.764   3.632   6.098
  824SOL     OW 3370   5.359   1.108   5.412
  824SOL    HW1 3371   5.359   1.050   5.493
  824SOL    HW2 3372   5.423   1.183   5.425
  825SOL     OW 3373   6.465   6.037   0.929
  825SOL    HW1 3374   6.477   6.130   0.964
  825SOL    HW2 3375   6.375   6.003   0.955
  826SOL     OW 3376   4.016   1.402   5.664
  826SOL    HW1 3377   4.036   1.413   5.567
  826SOL    HW2 3378   4.053   1.480   5.715
  827SOL     OW 3379   3.238   3.767   4.316
  827SOL    HW1 3380   3.153   3.777   4.265
  827SOL    HW2 3381   3.221   3.785   4.413
  828SOL     OW 3382   6.021   5.991   4.829
  828SOL    HW1 3383   5.992   5.895   4.833
  828SOL    HW2 3384   6.047   6.014   4.736
  829SOL     OW 3385   3.352   2.901   3.071
  829SOL    HW1 3386   3.267   2.940   3.107
  829SOL    HW2 3387   3.400   2.853   3.144
  830SOL     OW 3388   6.647   4.771   6.972
  830SOL    HW1 3389   6.737   4.733   6.995
  830SOL    HW2 3390   6.659   4.857   6.922
  831SOL     OW 3391   5.756   6.081   1.227
  831SOL    HW1 3392   5.761   6.023   1.309
  831SOL    HW2 3393   5.844   6.127   1.214
  832SOL     OW 3394   3.311   1.904   4.958
  832SOL    HW1 3395   3.328   1.899   5.056
  832SOL    HW2 3396   3.365   1.834   4.911
  833SOL     OW 3397   1.747   3.336   6.145
  833SOL    HW1 3398   1.698   3.278   6.080
  833SOL    HW2 3399   1.823   3.382   6.098
  834SOL     OW 3400   4.689   3.664   6.738
  834SOL    HW1 3401   4.779   3.662   6.696
  834SOL    HW2 3402   4.694   3.623   6.830
  835SOL     OW 3403   1.273   0.342   3.933
  835SOL    HW1 3404   1.227   0.429   3.912
  835SOL    HW2 3405   1.366   0.345   3.898
  836SOL     OW 3406   3.344   1.386   5.395
  836SOL    HW1 3407   3.278   1.399   5.470
  836SOL    HW2 3408   3.302   1.330   5.324
  837SOL     OW 3409   1.638   0.443   0.829
  837SOL    HW1 3410   1.693   0.519   0.796
  837SOL    HW2 3411   1.673   0.412   0.918
  838SOL     OW 3412   1.969   5.461   3.723
  838SOL    HW1 3413   2.023   5.379   3.741
  838SOL    HW2 3414   2.023   5.542   3.745
  839SOL     OW 3415   1.570   1.382   1.300
  839SOL    HW1 3416   1.650   1.442   1.295
  839SOL    HW2 3417   1.544   1.370   1.396
  840SOL     OW 3418   5.233   5.464   0.065
  840SOL    HW1 3419   5.241   5.479   0.164
  840SOL    HW2 3420   5.137   5.452   0.041
  841SOL     OW 3421   3.649   4.788   5.467
  841SOL    HW1 3422   3.688   4.864   5.518
  841SOL    HW2 3423   3.592   4.823   5.392
  842SOL     OW 3424   3.094   0.352   0.441
  842SOL    HW1 3425   2.995   0.361   0.443
  842SOL    HW2 3426   3.127   0.322   0.530
  843SOL     OW 3427   1.288   1.728   2.081
  843SOL    HW1 3428   1.314   1.634   2.104
  843SOL    HW2 3429   1.325   1.751   1.991
  844SOL     OW 3430   6.637   0.140   1.021
  844SOL    HW1 3431   6.576   0.204   1.066
  844SOL    HW2 3432   6.599   0.114   0.932
  845SOL     OW 3433   3.236   1.778   2.841
  845SOL    HW1 3434   3.333   1.766   2.862
  845SOL    HW2 3435   3.205   1.866   2.878
  846SOL     OW 3436   2.523   2.113   0.438
  846SOL    HW1 3437   2.600   2.100   0.375
  846SOL    HW2 3438   2.557   2.144   0.526
  847SOL     OW 3439   2.597   3.791   1.509
  847SOL    HW1 3440   2.521   3.746   1.555
  847SOL    HW2 3441   2.594   3.769   1.411
  848SOL     OW 3442   6.696   6.450   6.145
  848SOL    HW1 3443   6.690   6.549   6.129
  848SOL    HW2 3444   6.608   6.417   6.179
  849SOL     OW 3445   5.903   3.950   0.061
  849SOL    HW1 3446   5.973   3.883   0.037
  849SOL    HW2 3447   5.937   4.042   0.042
  850SOL     OW 3448   0.360   0.564   5.317
  850SOL    HW1 3449   0.268   0.574   5.356
  850SOL    HW2 3450   0.355   0.506   5.236
  851SOL     OW 3451   6.561   2.925   6.343
  851SOL    HW1 3452   6.647   2.954   6.300
  851SOL    HW2 3453   6.486   2.983   6.310
  852SOL     OW 3454   0.060   3.529   2.065
  852SOL    HW1 3455   0.061   3.624   2.035
  852SOL    HW2 3456   0.056   3.468   1.986
  853SOL     OW 3457   2.092   3.940   0.329
  853SOL    HW1 3458   2.135   3.908   0.413
  853SOL    HW2 3459   2.161   3.949   0.257
  854SOL     OW 3460   6.255   6.196   6.755
  854SOL    HW1 3461   6.313   6.117   6.734
  854SOL    HW2 3462   6.285   6.274   6.700
  855SOL     OW 3463   6.880   1.141   0.222
  855SOL    HW1 3464   6.837   1.194   0.149
  855SOL    HW2 3465   6.810   1.102   0.281
  856SOL     OW 3466   2.191   6.523   6.781
  856SOL    HW1 3467   2.107   6.534   6.728
  856SOL    HW2 3468   2.224   6.612   6.810
  857SOL     OW 3469   6.882   5.166   4.245
  857SOL    HW1 3470   6.942   5.209   4.178
  857SOL    HW2 3471   6.787   5.174   4.214
  858SOL     OW 3472   3.731   3.616   0.606
  858SOL    HW1 3473   3.756   3.529   0.563
  858SOL    HW2 3474   3.633   3.630   0.597
  859SOL     OW 3475   4.109   6.983   5.397
  859SOL    HW1 3476   4.131   0.028   5.323
  859SOL    HW2 3477   4.178   6.911   5.401
  860SOL     OW 3478   4.929   2.638   5.477
  860SOL    HW1 3479   4.985   2.583   5.539
  860SOL    HW2 3480   4.913   2.728   5.517
  861SOL     OW 3481   2.213   5.727   2.597
  861SOL    HW1 3482   2.260   5.816   2.599
  861SOL    HW2 3483   2.141   5.730   2.528
  862SOL     OW 3484   1.692   4.572   3.671
  862SOL    HW1 3485   1.770   4.512   3.654
  862SOL    HW2 3486   1.608   4.518   3.667
  863SOL     OW 3487   0.206   0.264   6.192
  863SOL    HW1 3488   0.186   0.332   6.262
  863SOL    HW2 3489   0.155   0.286   6.109
  864SOL     OW 3490   4.837   0.091   5.337
  864SOL    HW1 3491   4.854   0.159   5.265
  864SOL    HW2 3492   4.891   0.114   5.418
  865SOL     OW 3493   1.885   5.771   4.117
  865SOL    HW1 3494   1.809   5.710   4.098
  865SOL    HW2 3495   1.919   5.810   4.032
  866SOL     OW 3496   2.218   6.338   2.003
  866SOL    HW1 3497   2.169   6.296   2.079
  866SOL    HW2 3498   2.317   6.322   2.014
  867SOL     OW 3499   5.862   1.778   0.553
  867SOL    HW1 3500   5.770   1.756   0.521
  867SOL    HW2 3501   5.857   1.827   0.640
  868SOL     OW 3502   6.833   2.389   2.087
  868SOL    HW1 3503   6.882   2.342   2.160
  868SOL    HW2 3504   6.762   2.328   2.051
  869SOL     OW 3505   0.128   3.891   3.941
  869SOL    HW1 3506   0.056   3.950   3.976
  869SOL    HW2 3507   0.126   3.804   3.991
  870SOL     OW 3508   3.152   4.954   1.532
  870SOL    HW1 3509   3.227   4.986   1.590
  870SOL    HW2 3510   3.176   4.865   1.493
  871SOL     OW 3511   4.762   1.661   3.532
  871SOL    HW1 3512   4.765   1.698   3.625
  871SOL    HW2 3513   4.854   1.634   3.504
  872SOL     OW 3514   6.634   2.732   4.100
  872SOL    HW1 3515   6.728   2.700   4.111
  872SOL    HW2 3516   6.629   2.793   4.020
  873SOL     OW 3517   4.363   6.289   5.549
  873SOL    HW1 3518   4.302   6.309   5.626
  873SOL    HW2 3519   4.309   6.257   5.472
  874SOL     OW 3520   5.536   3.857   0.234
  874SOL    HW1 3521   5.608   3.790   0.253
  874SOL    HW2 3522   5.578   3.947   0.221
  875SOL     OW 3523   4.894   5.202   1.154
  875SOL    HW1 3524   4.824   5.167   1.091
  875SOL    HW2 3525   4.944   5.125   1.194
  876SOL     OW 3526   0.262   5.441   2.136
  876SOL    HW1 3527   0.263   5.419   2.234
  876SOL    HW2 3528   0.197   5.381   2.089
  877SOL     OW 3529   2.929   4.191   0.014
  877SOL    HW1 3530   2.956   4.285   0.032
  877SOL    HW2 3531   3.000   4.145   6.980
  878SOL     OW 3532   4.091   0.008   3.823
  878SOL    HW1 3533   4.172   6.977   3.795
  878SOL    HW2 3534   4.011   6.989   3.777
  879SOL     OW 3535   4.672   0.668   0.190
  879SOL    HW1 3536   4.657   0.637   0.096
  879SOL    HW2 3537   4.665   0.767   0.195
  880SOL     OW 3538   3.014   3.779   3.547
  880SOL    HW1 3539   3.028   3.785   3.448
  880SOL    HW2 3540   3.021   3.870   3.587
  881SOL     OW 3541   4.526   2.631   5.130
  881SOL    HW1 3542   4.464   2.664   5.201
  881SOL    HW2 3543   4.539   2.532   5.141
  882SOL     OW 3544   0.882   3.137   4.609
  882SOL    HW1 3545   0.906   3.233   4.602
  882SOL    HW2 3546   0.799   3.119   4.556
  883SOL     OW 3547   3.108   0.159   2.398
  883SOL    HW1 3548   3.037   0.203   2.454
  883SOL    HW2 3549   3.198   0.181   2.436
  884SOL     OW 3550   4.857   3.193   4.883
  884SOL    HW1 3551   4.946   3.226   4.914
  884SOL    HW2 3552   4.789   3.206   4.956
  885SOL     OW 3553   2.662   1.455   5.795
  885SOL    HW1 3554   2.657   1.386   5.723
  885SOL    HW2 3555   2.616   1.539   5.764
  886SOL     OW 3556   3.458   0.572   0.287
  886SOL    HW1 3557   3.367   0.597   0.322
  886SOL    HW2 3558   3.485   0.636   0.215
  887SOL     OW 3559   3.657   0.112   3.724
  887SOL    HW1 3560   3.724   0.186   3.715
  887SOL    HW2 3561   3.591   0.135   3.795
  888SOL     OW 3562   0.831   0.633   3.118
  888SOL    HW1 3563   0.744   0.587   3.135
  888SOL    HW2 3564   0.881   0.640   3.205
  889SOL     OW 3565   0.792   3.780   0.111
  889SOL    HW1 3566   0.883   3.751   0.082
  889SOL    HW2 3567   0.732   3.785   0.031
  890SOL     OW 3568   1.729   5.350   3.845
  890SOL    HW1 3569   1.768   5.360   3.753
  890SOL    HW2 3570   1.753   5.431   3.900
  891SOL     OW 3571   5.296   5.030   1.129
  891SOL    HW1 3572   5.203   5.021   1.165
  891SOL    HW2 3573   5.329   5.122   1.148
  892SOL     OW 3574   2.586   4.025   5.658
  892SOL    HW1 3575   2.512   4.016   5.591
  892SOL    HW2 3576   2.615   3.934   5.688
  893SOL     OW 3577   2.366   6.307   2.759
  893SOL    HW1 3578   2.293   6.264   2.707
  893SOL    HW2 3579   2.419   6.367   2.699
  894SOL     OW 3580   0.956   3.634   1.508
  894SOL    HW1 3581   0.891   3.622   1.582
  894SOL    HW2 3582   1.004   3.547   1.491
  895SOL     OW 3583   0.436   5.353   3.392
  895SOL    HW1 3584   0.351   5.402   3.412
  895SOL    HW2 3585   0.489   5.342   3.476
  896SOL     OW 3586   6.356   5.292   0.437
  896SOL    HW1 3587   6.415   5.294   0.517
  896SOL    HW2 3588   6.275   5.236   0.457
  897SOL     OW 3589   4.933   1.320   0.513
  897SOL    HW1 3590   5.009   1.272   0.557
  897SOL    HW2 3591   4.848   1.270   0.528
  898SOL     OW 3592   3.425   5.467   2.648
  898SOL    HW1 3593   3.518   5.485   2.616
  898SOL    HW2 3594   3.405   5.370   2.641
  899SOL     OW 3595   0.645   5.551   6.207
  899SOL    HW1 3596   0.569   5.615   6.194
  899SOL    HW2 3597   0.623   5.487   6.280
  900SOL     OW 3598   5.822   6.872   0.044
  900SOL    HW1 3599   5.888   6.816   0.095
  900SOL    HW2 3600   5.850   6.877   6.966
  901SOL     OW 3601   1.975   0.593   2.489
  901SOL    HW1 3602   1.960   0.682   2.445
  901SOL    HW2 3603   1.920   0.524   2.442
  902SOL     OW 3604   6.984   3.536   0.643
  902SOL    HW1 3605   6.893   3.496   0.634
  902SOL    HW2 3606   0.022   3.478   0.702
  903SOL     OW 3607   0.020   2.268   6.334
  903SOL    HW1 3608   6.986   2.350   6.356
  903SOL    HW2 3609   6.987   2.186   6.360
  904SOL     OW 3610   2.965   2.227   3.866
  904SOL    HW1 3611   2.981   2.129   3.865
  904SOL    HW2 3612   2.964   2.262   3.772
  905SOL     OW 3613   5.433   2.376   0.424
  905SOL    HW1 3614   5.511   2.439   0.423
  905SOL    HW2 3615   5.368   2.402   0.353
  906SOL     OW 3616   0.293   2.152   6.022
  906SOL    HW1 3617   0.275   2.172   5.926
  906SOL    HW2 3618   0.356   2.221   6.059
  907SOL     OW 3619   5.074   3.659   0.241
  907SOL    HW1 3620   5.136   3.720   0.290
  907SOL    HW2 3621   5.088   3.565   0.272
  908SOL     OW 3622   2.657   4.893   2.415
  908SOL    HW1 3623   2.751   4.867   2.394
  908SOL    HW2 3624   2.646   4.991   2.405
  909SOL     OW 3625   4.216   5.354   6.500
  909SOL    HW1 3626   4.228   5.258   6.476
  909SOL    HW2 3627   4.305   5.395   6.522
  910SOL     OW 3628   2.727   2.913   1.350
  910SOL    HW1 3629   2.799   2.857   1.310
  910SOL    HW2 3630   2.746   2.926   1.447
  911SOL     OW 3631   1.930   5.699   6.088
  911SOL    HW1 3632   1.874   5.707   6.006
  911SOL    HW2 3633   1.917   5.779   6.146
  912SOL     OW 3634   5.322   2.756   3.517
  912SOL    HW1 3635   5.254   2.716   3.579
  912SOL    HW2 3636   5.275   2.795   3.437
  913SOL     OW 3637   5.302   6.492   3.237
  913SOL    HW1 3638   5.388   6.541   3.232
  913SOL    HW2 3639   5.232   6.540   3.185
  914SOL     OW 3640   3.003   0.451   6.634
  914SOL    HW1 3641   2.914   0.425   6.597
  914SOL    HW2 3642   3.070   0.379   6.616
  915SOL     OW 3643   5.886   4.837   0.514
  915SOL    HW1 3644   5.899   4.833   0.415
  915SOL    HW2 3645   5.908   4.748   0.554
  916SOL     OW 3646   1.285   2.341   2.346
  916SOL    HW1 3647   1.323   2.333   2.254
  916SOL    HW2 3648   1.326   2.421   2.391
  917SOL     OW 3649   0.274   6.724   0.592
  917SOL    HW1 3650   0.360   6.731   0.642
  917SOL    HW2 3651   0.199   6.711   0.657
  918SOL     OW 3652   2.464   6.667   0.853
  918SOL    HW1 3653   2.546   6.717   0.882
  918SOL    HW2 3654   2.477   6.569   0.871
  919SOL     OW 3655   5.749   1.375   3.724
  919SOL    HW1 3656   5.750   1.353   3.626
  919SOL    HW2 3657   5.753   1.474   3.735
  920SOL     OW 3658   2.515   4.538   1.456
  920SOL    HW1 3659   2.417   4.547   1.474
  920SOL    HW2 3660   2.560   4.497   1.536
  921SOL     OW 3661   5.168   5.592   4.567
  921SOL    HW1 3662   5.100   5.663   4.589
  921SOL    HW2 3663   5.205   5.609   4.475
  922SOL     OW 3664   3.693   3.663   4.281
  922SOL    HW1 3665   3.711   3.580   4.227
  922SOL    HW2 3666   3.719   3.744   4.228
  923SOL     OW 3667   2.334   2.957   5.769
  923SOL    HW1 3668   2.411   2.970   5.831
  923SOL    HW2 3669   2.350   2.876   5.713
  924SOL     OW 3670   6.520   3.794   2.507
  924SOL    HW1 3671   6.542   3.735   2.430
  924SOL    HW2 3672   6.475   3.741   2.578
  925SOL     OW 3673   6.813   1.814   0.528
  925SOL    HW1 3674   6.788   1.757   0.606
  925SOL    HW2 3675   6.808   1.911   0.554
  926SOL     OW 3676   7.002   1.476   1.557
  926SOL    HW1 3677   0.074   1.505   1.524
  926SOL    HW2 3678   6.952   1.556   1.590
  927SOL     OW 3679   5.731   3.580   3.968
  927SOL    HW1 3680   5.655   3.518   3.988
  927SOL    HW2 3681   5.736   3.650   4.038
  928SOL     OW 3682   3.190   6.037   6.684
  928SOL    HW1 3683   3.281   6.075   6.697
  928SOL    HW2 3684   3.153   6.006   6.772
  929SOL     OW 3685   6.476   1.281   6.550
  929SOL    HW1 3686   6.532   1.360   6.527
  929SOL    HW2 3687   6.508   1.201   6.499
  930SOL     OW 3688   4.122   4.631   5.998
  930SOL    HW1 3689   4.138   4.656   6.094
  930SOL    HW2 3690   4.043   4.569   5.993
  931SOL     OW 3691   6.174   2.688   3.626
  931SOL    HW1 3692   6.145   2.780   3.651
  931SOL    HW2 3693   6.272   2.688   3.606
  932SOL     OW 3694   3.804   0.553   3.633
  932SOL    HW1 3695   3.873   0.622   3.612
  932SOL    HW2 3696   3.742   0.588   3.703
  933SOL     OW 3697   1.549   5.024   2.899
  933SOL    HW1 3698   1.603   5.009   2.982
  933SOL    HW2 3699   1.543   5.122   2.880
  934SOL     OW 3700   2.262   5.665   6.116
  934SOL    HW1 3701   2.168   5.639   6.138
  934SOL    HW2 3702   2.262   5.728   6.038
  935SOL     OW 3703   5.131   4.187   3.383
  935SOL    HW1 3704   5.201   4.258   3.381
  935SOL    HW2 3705   5.050   4.221   3.431
  936SOL     OW 3706   1.251   0.631   5.939
  936SOL    HW1 3707   1.212   0.538   5.933
  936SOL    HW2 3708   1.186   0.696   5.901
  937SOL     OW 3709   3.934   1.181   5.363
  937SOL    HW1 3710   3.986   1.257   5.402
  937SOL    HW2 3711   3.885   1.133   5.436
  938SOL     OW 3712   6.746   5.851   3.720
  938SOL    HW1 3713   6.652   5.886   3.716
  938SOL    HW2 3714   6.755   5.789   3.799
  939SOL     OW 3715   6.859   6.665   5.003
  939SOL    HW1 3716   6.910   6.747   4.979
  939SOL    HW2 3717   6.863   6.600   4.928
  940SOL     OW 3718   1.242   4.929   0.658
  940SOL    HW1 3719   1.291   4.999   0.709
  940SOL    HW2 3720   1.181   4.880   0.720
  941SOL     OW 3721   4.315   0.587   6.148
  941SOL    HW1 3722   4.359   0.525   6.083
  941SOL    HW2 3723   4.385   0.645   6.191
  942SOL     OW 3724   6.745   5.670   1.087
  942SOL    HW1 3725   6.742   5.573   1.110
  942SOL    HW2 3726   6.681   5.720   1.145
  943SOL     OW 3727   3.018   4.776   2.567
  943SOL    HW1 3728   2.934   4.768   2.621
  943SOL    HW2 3729   2.997   4.818   2.479
  944SOL     OW 3730   0.352   6.318   4.297
  944SOL    HW1 3731   0.367   6.268   4.383
  944SOL    HW2 3732   0.429   6.302   4.236
  945SOL     OW 3733   0.521   5.973   5.461
  945SOL    HW1 3734   0.452   5.911   5.424
  945SOL    HW2 3735   0.524   6.056   5.405
  946SOL     OW 3736   4.987   4.913   4.097
  946SOL    HW1 3737   4.997   4.970   4.179
  946SOL    HW2 3738   4.891   4.892   4.082
  947SOL     OW 3739   3.836   3.735   3.748
  947SOL    HW1 3740   3.805   3.778   3.663
  947SOL    HW2 3741   3.848   3.637   3.733
  948SOL     OW 3742   4.734   1.470   2.368
  948SOL    HW1 3743   4.727   1.570   2.374
  948SOL    HW2 3744   4.642   1.431   2.367
  949SOL     OW 3745   3.201   6.360   6.973
  949SOL    HW1 3746   3.292   6.343   6.936
  949SOL    HW2 3747   3.208   6.394   0.048
  950SOL     OW 3748   6.530   5.755   2.047
  950SOL    HW1 3749   6.544   5.739   2.145
  950SOL    HW2 3750   6.473   5.836   2.034
  951SOL     OW 3751   1.585   0.180   3.587
  951SOL    HW1 3752   1.621   0.093   3.621
  951SOL    HW2 3753   1.486   0.171   3.572
  952SOL     OW 3754   4.165   2.174   2.428
  952SOL    HW1 3755   4.184   2.235   2.505
  952SOL    HW2 3756   4.207   2.211   2.345
  953SOL     OW 3757   0.097   5.477   4.900
  953SOL    HW1 3758   0.055   5.388   4.915
  953SOL    HW2 3759   0.113   5.522   4.988
  954SOL     OW 3760   5.258   5.358   2.579
  954SOL    HW1 3761   5.313   5.441   2.574
  954SOL    HW2 3762   5.219   5.337   2.489
  955SOL     OW 3763   1.452   4.310   6.560
  955SOL    HW1 3764   1.471   4.231   6.619
  955SOL    HW2 3765   1.368   4.293   6.508
  956SOL     OW 3766   0.254   0.552   0.982
  956SOL    HW1 3767   0.229   0.648   0.972
  956SOL    HW2 3768   0.303   0.521   0.900
  957SOL     OW 3769   6.403   2.410   3.673
  957SOL    HW1 3770   6.435   2.432   3.581
  957SOL    HW2 3771   6.405   2.492   3.729
  958SOL     OW 3772   5.178   6.999   2.245
  958SOL    HW1 3773   5.106   6.930   2.245
  958SOL    HW2 3774   5.170   0.037   2.328
  959SOL     OW 3775   3.447   0.104   3.907
  959SOL    HW1 3776   3.358   0.116   3.863
  959SOL    HW2 3777   3.456   0.009   3.938
  960SOL     OW 3778   1.178   0.422   0.084
  960SOL    HW1 3779   1.151   0.414   7.006
  960SOL    HW2 3780   1.250   0.491   0.092
  961SOL     OW 3781   3.148   6.382   3.246
  961SOL    HW1 3782   3.186   6.462   3.200
  961SOL    HW2 3783   3.222   6.318   3.269
  962SOL     OW 3784   6.621   6.695   5.151
  962SOL    HW1 3785   6.632   6.794   5.162
  962SOL    HW2 3786   6.707   6.656   5.116
  963SOL     OW 3787   4.626   2.371   1.130
  963SOL    HW1 3788   4.694   2.430   1.087
  963SOL    HW2 3789   4.648   2.275   1.111
  964SOL     OW 3790   5.095   4.365   4.870
  964SOL    HW1 3791   5.055   4.332   4.785
  964SOL    HW2 3792   5.045   4.446   4.901
  965SOL     OW 3793   5.407   2.154   2.975
  965SOL    HW1 3794   5.430   2.201   3.060
  965SOL    HW2 3795   5.376   2.221   2.908
  966SOL     OW 3796   5.311   1.959   3.843
  966SOL    HW1 3797   5.245   1.891   3.877
  966SOL    HW2 3798   5.331   1.941   3.747
  967SOL     OW 3799   4.799   4.227   6.235
  967SOL    HW1 3800   4.808   4.142   6.287
  967SOL    HW2 3801   4.844   4.215   6.146
  968SOL     OW 3802   3.965   0.120   1.875
  968SOL    HW1 3803   3.992   0.162   1.788
  968SOL    HW2 3804   3.905   0.182   1.925
  969SOL     OW 3805   3.340   4.676   5.362
  969SOL    HW1 3806   3.343   4.717   5.271
  969SOL    HW2 3807   3.278   4.727   5.420
  970SOL     OW 3808   6.098   0.122   5.434
  970SOL    HW1 3809   6.129   0.034   5.469
  970SOL    HW2 3810   6.175   0.170   5.392
  971SOL     OW 3811   6.898   4.231   3.260
  971SOL    HW1 3812   6.817   4.289   3.256
  971SOL    HW2 3813   6.894   4.172   3.340
  972SOL     OW 3814   6.988   2.265   1.283
  972SOL    HW1 3815   6.918   2.328   1.317
  972SOL    HW2 3816   0.015   2.221   1.361
  973SOL     OW 3817   0.472   4.313   6.444
  973SOL    HW1 3818   0.406   4.238   6.436
  973SOL    HW2 3819   0.453   4.366   6.526
  974SOL     OW 3820   0.255   4.671   4.635
  974SOL    HW1 3821   0.353   4.675   4.652
  974SOL    HW2 3822   0.236   4.697   4.540
  975SOL     OW 3823   2.115   6.638   2.202
  975SOL    HW1 3824   2.025   6.660   2.239
  975SOL    HW2 3825   2.137   6.700   2.127
  976SOL     OW 3826   6.231   4.599   2.297
  976SOL    HW1 3827   6.274   4.519   2.339
  976SOL    HW2 3828   6.216   4.670   2.366
  977SOL     OW 3829   0.176   1.624   2.263
  977SOL    HW1 3830   0.261   1.612   2.212
  977SOL    HW2 3831   0.181   1.708   2.317
  978SOL     OW 3832   5.171   2.526   2.228
  978SOL    HW1 3833   5.110   2.565   2.159
  978SOL    HW2 3834   5.224   2.599   2.271
  979SOL     OW 3835   0.385   3.210   0.120
  979SOL    HW1 3836   0.328   3.212   0.202
  979SOL    HW2 3837   0.343   3.266   0.049
  980SOL     OW 3838   3.948   1.672   5.320
  980SOL    HW1 3839   3.854   1.644   5.301
  980SOL    HW2 3840   3.955   1.704   5.414
  981SOL     OW 3841   6.737   0.136   4.703
  981SOL    HW1 3842   6.805   0.202   4.734
  981SOL    HW2 3843   6.733   0.059   4.767
  982SOL     OW 3844   0.638   1.484   5.387
  982SOL    HW1 3845   0.699   1.456   5.313
  982SOL    HW2 3846   0.597   1.573   5.365
  983SOL     OW 3847   0.523   3.794   3.621
  983SOL    HW1 3848   0.478   3.802   3.710
  983SOL    HW2 3849   0.455   3.765   3.553
  984SOL     OW 3850   1.810   2.030   2.827
  984SOL    HW1 3851   1.886   2.091   2.851
  984SOL    HW2 3852   1.725   2.082   2.824
  985SOL     OW 3853   6.273   3.834   4.455
  985SOL    HW1 3854   6.313   3.832   4.363
  985SOL    HW2 3855   6.195   3.896   4.456
  986SOL     OW 3856   5.441   4.173   1.084
  986SOL    HW1 3857   5.527   4.166   1.134
  986SOL    HW2 3858   5.382   4.240   1.129
  987SOL     OW 3859   5.710   5.183   3.712
  987SOL    HW1 3860   5.666   5.210   3.797
  987SOL    HW2 3861   5.806   5.162   3.729
  988SOL     OW 3862   3.534   3.716   1.564
  988SOL    HW1 3863   3.519   3.779   1.641
  988SOL    HW2 3864   3.446   3.692   1.523
  989SOL     OW 3865   6.987   2.234   0.784
  989SOL    HW1 3866   0.044   2.169   0.782
  989SOL    HW2 3867   7.007   2.310   0.722
  990SOL     OW 3868   3.449   0.401   3.094
  990SOL    HW1 3869   3.468   0.311   3.135
  990SOL    HW2 3870   3.532   0.456   3.094
  991SOL     OW 3871   6.950   4.033   4.056
  991SOL    HW1 3872   6.937   4.132   4.064
  991SOL    HW2 3873   6.917   3.988   4.139
  992SOL     OW 3874   0.397   2.651   1.599
  992SOL    HW1 3875   0.443   2.729   1.557
  992SOL    HW2 3876   0.385   2.579   1.530
  993SOL     OW 3877   1.854   4.981   0.981
  993SOL    HW1 3878   1.942   4.975   1.028
  993SOL    HW2 3879   1.801   5.057   1.018
  994SOL     OW 3880   3.571   6.487   1.144
  994SOL    HW1 3881   3.647   6.468   1.082
  994SOL    HW2 3882   3.605   6.530   1.227
  995SOL     OW 3883   5.440   3.906   5.237
  995SOL    HW1 3884   5.396   3.995   5.223
  995SOL    HW2 3885   5.508   3.913   5.309
  996SOL     OW 3886   3.914   6.206   5.615
  996SOL    HW1 3887   3.929   6.250   5.527
  996SOL    HW2 3888   3.832   6.244   5.658
  997SOL     OW 3889   1.338   6.461   3.920
  997SOL    HW1 3890   1.376   6.368   3.918
  997SOL    HW2 3891   1.404   6.524   3.878
  998SOL     OW 3892   6.050   0.163   6.124
  998SOL    HW1 3893   6.113   0.134   6.197
  998SOL    HW2 3894   6.061   0.261   6.109
  999SOL     OW 3895   4.747   3.443   1.722
  999SOL    HW1 3896   4.813   3.369   1.735
  999SOL    HW2 3897   4.660   3.405   1.688
 1000SOL     OW 3898   3.762   1.486   1.719
 1000SOL    HW1 3899   3.727   1.487   1.813
 1000SOL    HW2 3900   3.779   1.580   1.689
 1001SOL     OW 3901   3.099   6.743   2.282
 1001SOL    HW1 3902   3.134   6.738   2.189
 1001SOL    HW2 3903   3.171   6.715   2.346
 1002SOL     OW 3904   5.311   2.781   1.518
 1002SOL    HW1 3905   5.370   2.789   1.437
 1002SOL    HW2 3906   5.247   2.858   1.520
 1003SOL     OW 3907   1.555   6.126   2.235
 1003SOL    HW1 3908   1.525   6.221   2.229
 1003SOL    HW2 3909   1.512   6.082   2.313
 1004SOL     OW 3910   5.809   1.653   3.581
 1004SOL    HW1 3911   5.741   1.708   3.629
 1004SOL    HW2 3912   5.892   1.707   3.567
 1005SOL     OW 3913   1.844   4.707   4.952
 1005SOL    HW1 3914   1.904   4.783   4.975
 1005SOL    HW2 3915   1.852   4.686   4.854
 1006SOL     OW 3916   2.556   4.078   0.508
 1006SOL    HW1 3917   2.550   3.980   0.486
 1006SOL    HW2 3918   2.598   4.126   0.431
 1007SOL     OW 3919   4.472   1.912   6.449
 1007SOL    HW1 3920   4.556   1.909   6.503
 1007SOL    HW2 3921   4.472   1.995   6.393
 1008SOL     OW 3922   0.505   4.473   5.308
 1008SOL    HW1 3923   0.547   4.402   5.365
 1008SOL    HW2 3924   0.554   4.479   5.221
 1009SOL     OW 3925   5.943   5.035   5.365
 1009SOL    HW1 3926   5.921   4.987   5.280
 1009SOL    HW2 3927   6.015   5.103   5.347
 1010SOL     OW 3928   2.156   3.216   1.599
 1010SOL    HW1 3929   2.113   3.300   1.633
 1010SOL    HW2 3930   2.254   3.232   1.585
 1011SOL     OW 3931   0.697   5.050   2.469
 1011SOL    HW1 3932   0.716   4.964   2.422
 1011SOL    HW2 3933   0.747   5.124   2.424
 1012SOL     OW 3934   5.954   0.552   2.550
 1012SOL    HW1 3935   5.875   0.597   2.508
 1012SOL    HW2 3936   6.033   0.560   2.488
 1013SOL     OW 3937   0.045   0.504   6.047
 1013SOL    HW1 3938   0.009   0.444   5.975
 1013SOL    HW2 3939   6.994   0.571   6.072
 1014SOL     OW 3940   1.440   4.888   4.014
 1014SOL    HW1 3941   1.361   4.896   3.954
 1014SOL    HW2 3942   1.507   4.825   3.975
 1015SOL     OW 3943   3.506   0.220   6.080
 1015SOL    HW1 3944   3.421   0.179   6.111
 1015SOL    HW2 3945   3.504   0.231   5.981
 1016SOL     OW 3946   5.135   4.277   1.442
 1016SOL    HW1 3947   5.127   4.178   1.448
 1016SOL    HW2 3948   5.094   4.319   1.523
 1017SOL     OW 3949   1.770   1.523   2.130
 1017SOL    HW1 3950   1.868   1.530   2.146
 1017SOL    HW2 3951   1.738   1.434   2.160
 1018SOL     OW 3952   0.167   5.344   3.726
 1018SOL    HW1 3953   0.246   5.390   3.767
 1018SOL    HW2 3954   0.146   5.261   3.777
 1019SOL     OW 3955   6.969   4.883   0.521
 1019SOL    HW1 3956   6.951   4.788   0.495
 1019SOL    HW2 3957   6.932   4.944   0.452
 1020SOL     OW 3958   0.197   0.350   1.397
 1020SOL    HW1 3959   0.270   0.368   1.332
 1020SOL    HW2 3960   0.112   0.330   1.347
 1021SOL     OW 3961   6.025   5.773   1.659
 1021SOL    HW1 3962   5.992   5.865   1.683
 1021SOL    HW2 3963   6.033   5.766   1.560
 1022SOL     OW 3964   2.339   6.487   6.463
 1022SOL    HW1 3965   2.359   6.404   6.410
 1022SOL    HW2 3966   2.241   6.505   6.461
 1023SOL     OW 3967   7.015   1.733   3.294
 1023SOL    HW1 3968   0.082   1.711   3.342
 1023SOL    HW2 3969   6.964   1.649   3.276
 1024SOL     OW 3970   1.261   1.814   4.593
 1024SOL    HW1 3971   1.315   1.746   4.642
 1024SOL    HW2 3972   1.197   1.858   4.656
 1025SOL     OW 3973   5.062   3.883   6.934
 1025SOL    HW1 3974   5.101   3.915   0.002
 1025SOL    HW2 3975   5.006   3.955   6.893
 1026SOL     OW 3976   2.915   2.554   1.346
 1026SOL    HW1 3977   2.902   2.639   1.296
 1026SOL    HW2 3978   2.844   2.545   1.416
 1027SOL     OW 3979   1.218   6.211   1.516
 1027SOL    HW1 3980   1.202   6.203   1.614
 1027SOL    HW2 3981   1.222   6.308   1.491
 1028SOL     OW 3982   0.945   6.050   3.062
 1028SOL    HW1 3983   0.940   5.982   3.135
 1028SOL    HW2 3984   0.990   6.133   3.096
 1029SOL     OW 3985   1.438   1.851   5.726
 1029SOL    HW1 3986   1.434   1.903   5.811
 1029SOL    HW2 3987   1.360   1.788   5.723
 1030SOL     OW 3988   3.164   3.365   1.433
 1030SOL    HW1 3989   3.069   3.392   1.421
 1030SOL    HW2 3990   3.213   3.374   1.346
 1031SOL     OW 3991   3.585   3.330   1.279
 1031SOL    HW1 3992   3.589   3.378   1.367
 1031SOL    HW2 3993   3.648   3.373   1.215
 1032SOL     OW 3994   2.207   1.518   6.241
 1032SOL    HW1 3995   2.128   1.507   6.301
 1032SOL    HW2 3996   2.195   1.601   6.186
 1033SOL     OW 3997   0.622   6.082   2.338
 1033SOL    HW1 3998   0.616   6.008   2.405
 1033SOL    HW2 3999   0.530   6.105   2.306
 1034SOL     OW 4000   3.581   6.817   4.692
 1034SOL    HW1 4001   3.605   6.879   4.618
 1034SOL    HW2 4002   3.488   6.781   4.677
 1035SOL     OW 4003   0.824   1.474   5.952
 1035SOL    HW1 4004   0.779   1.553   5.993
 1035SOL    HW2 4005   0.813   1.395   6.013
 1036SOL     OW 4006   5.334   1.394   1.539
 1036SOL    HW1 4007   5.383   1.413   1.454
 1036SOL    HW2 4008   5.239   1.426   1.530
 1037SOL     OW 4009   2.192   2.407   2.723
 1037SOL    HW1 4010   2.161   2.338   2.658
 1037SOL    HW2 4011   2.117   2.472   2.741
 1038SOL     OW 4012   2.958   0.591   0.057
 1038SOL    HW1 4013   2.956   0.618   6.979
 1038SOL    HW2 4014   3.003   0.663   0.111
 1039SOL     OW 4015   3.324   3.315   3.504
 1039SOL    HW1 4016   3.336   3.406   3.466
 1039SOL    HW2 4017   3.308   3.250   3.430
 1040SOL     OW 4018   4.266   1.107   2.690
 1040SOL    HW1 4019   4.359   1.141   2.708
 1040SOL    HW2 4020   4.226   1.075   2.775
 1041SOL     OW 4021   6.390   6.231   4.949
 1041SOL    HW1 4022   6.474   6.270   4.987
 1041SOL    HW2 4023   6.314   6.293   4.968
 1042SOL     OW 4024   4.706   4.615   2.219
 1042SOL    HW1 4025   4.644   4.681   2.175
 1042SOL    HW2 4026   4.755   4.661   2.293
 1043SOL     OW 4027   3.469   0.965   3.338
 1043SOL    HW1 4028   3.473   0.865   3.335
 1043SOL    HW2 4029   3.561   1.001   3.356
 1044SOL     OW 4030   5.821   4.383   1.306
 1044SOL    HW1 4031   5.722   4.391   1.291
 1044SOL    HW2 4032   5.849   4.289   1.289
 1045SOL     OW 4033   2.098   0.892   3.936
 1045SOL    HW1 4034   2.098   0.923   4.031
 1045SOL    HW2 4035   2.171   0.939   3.886
 1046SOL     OW 4036   3.260   1.327   1.151
 1046SOL    HW1 4037   3.206   1.247   1.177
 1046SOL    HW2 4038   3.341   1.333   1.209
 1047SOL     OW 4039   3.008   0.211   3.445
 1047SOL    HW1 4040   3.039   0.129   3.495
 1047SOL    HW2 4041   3.073   0.285   3.460
 1048SOL     OW 4042   2.113   6.037   1.958
 1048SOL    HW1 4043   2.096   6.057   2.055
 1048SOL    HW2 4044   2.206   6.003   1.947
 1049SOL     OW 4045   3.748   6.923   5.202
 1049SOL    HW1 4046   3.788   6.837   5.171
 1049SOL    HW2 4047   3.648   6.916   5.198
 1050SOL     OW 4048   3.830   4.964   3.893
 1050SOL    HW1 4049   3.828   5.057   3.855
 1050SOL    HW2 4050   3.885   4.963   3.976
 1051SOL     OW 4051   0.193   6.840   0.368
 1051SOL    HW1 4052   0.238   6.831   0.457
 1051SOL    HW2 4053   0.243   6.787   0.299
 1052SOL     OW 4054   3.943   0.626   6.489
 1052SOL    HW1 4055   3.901   0.598   6.403
 1052SOL    HW2 4056   3.949   0.726   6.493
 1053SOL     OW 4057   5.890   3.368   2.458
 1053SOL    HW1 4058   5.988   3.351   2.450
 1053SOL    HW2 4059   5.873   3.466   2.469
 1054SOL     OW 4060   3.530   4.356   0.444
 1054SOL    HW1 4061   3.609   4.303   0.476
 1054SOL    HW2 4062   3.506   4.327   0.351
 1055SOL     OW 4063   4.176   5.708   6.759
 1055SOL    HW1 4064   4.200   5.686   6.853
 1055SOL    HW2 4065   4.191   5.806   6.743
 1056SOL     OW 4066   2.434   4.273   0.204
 1056SOL    HW1 4067   2.450   4.347   0.269
 1056SOL    HW2 4068   2.505   4.203   0.216
 1057SOL     OW 4069   3.595   1.917   1.698
 1057SOL    HW1 4070   3.537   1.859   1.640
 1057SOL    HW2 4071   3.567   2.012   1.688
 1058SOL     OW 4072   3.567   2.084   2.825
 1058SOL    HW1 4073   3.483   2.092   2.879
 1058SOL    HW2 4074   3.640   2.049   2.883
 1059SOL     OW 4075   2.387   5.998   1.953
 1059SOL    HW1 4076   2.430   6.071   1.900
 1059SOL    HW2 4077   2.458   5.942   1.997
 1060SOL     OW 4078   0.151   5.597   5.145
 1060SOL    HW1 4079   0.240   5.593   5.192
 1060SOL    HW2 4080   0.134   5.690   5.114
 1061SOL     OW 4081   6.709   3.910   0.445
 1061SOL    HW1 4082   6.805   3.910   0.472
 1061SOL    HW2 4083   6.676   3.815   0.441
 1062SOL     OW 4084   3.961   6.413   4.805
 1062SOL    HW1 4085   4.048   6.459   4.821
 1062SOL    HW2 4086   3.888   6.481   4.794
 1063SOL     OW 4087   1.256   6.700   5.477
 1063SOL    HW1 4088   1.187   6.746   5.534
 1063SOL    HW2 4089   1.335   6.761   5.465
 1064SOL     OW 4090   0.529   4.343   0.941
 1064SOL    HW1 4091   0.626   4.355   0.962
 1064SOL    HW2 4092   0.476   4.417   0.984
 1065SOL     OW 4093   3.607   0.553   4.718
 1065SOL    HW1 4094   3.639   0.472   4.669
 1065SOL    HW2 4095   3.672   0.574   4.792
 1066SOL     OW 4096   4.397   0.791   2.061
 1066SOL    HW1 4097   4.318   0.758   2.113
 1066SOL    HW2 4098   4.481   0.767   2.109
 1067SOL     OW 4099   2.926   1.149   0.577
 1067SOL    HW1 4100   2.930   1.198   0.491
 1067SOL    HW2 4101   2.985   1.068   0.572
 1068SOL     OW 4102   6.079   3.287   0.966
 1068SOL    HW1 4103   6.006   3.263   0.903
 1068SOL    HW2 4104   6.068   3.236   1.052
 1069SOL     OW 4105   6.109   4.406   0.913
 1069SOL    HW1 4106   6.119   4.353   0.997
 1069SOL    HW2 4107   6.110   4.344   0.835
 1070SOL     OW 4108   2.422   0.676   2.398
 1070SOL    HW1 4109   2.450   0.581   2.382
 1070SOL    HW2 4110   2.422   0.695   2.496
 1071SOL     OW 4111   6.709   2.378   4.851
 1071SOL    HW1 4112   6.612   2.374   4.872
 1071SOL    HW2 4113   6.735   2.473   4.832
 1072SOL     OW 4114   3.409   1.212   2.142
 1072SOL    HW1 4115   3.335   1.235   2.080
 1072SOL    HW2 4116   3.372   1.191   2.233
 1073SOL     OW 4117   5.474   1.667   3.168
 1073SOL    HW1 4118   5.455   1.748   3.223
 1073SOL    HW2 4119   5.406   1.658   3.096
 1074SOL     OW 4120   3.345   5.060   1.703
 1074SOL    HW1 4121   3.313   5.153   1.726
 1074SOL    HW2 4122   3.385   5.018   1.785
 1075SOL     OW 4123   5.794   2.038   5.223
 1075SOL    HW1 4124   5.746   1.950   5.220
 1075SOL    HW2 4125   5.794   2.079   5.132
 1076SOL     OW 4126   2.164   3.767   4.982
 1076SOL    HW1 4127   2.196   3.847   5.032
 1076SOL    HW2 4128   2.208   3.764   4.892
 1077SOL     OW 4129   6.896   0.468   0.021
 1077SOL    HW1 4130   6.856   0.446   6.950
 1077SOL    HW2 4131   6.835   0.436   0.094
 1078SOL     OW 4132   0.026   6.497   3.856
 1078SOL    HW1 4133   6.993   6.438   3.795
 1078SOL    HW2 4134   0.119   6.461   3.867
 1079SOL     OW 4135   1.416   5.882   2.369
 1079SOL    HW1 4136   1.390   5.844   2.458
 1079SOL    HW2 4137   1.496   5.834   2.335
 1080SOL     OW 4138   2.180   5.402   5.109
 1080SOL    HW1 4139   2.153   5.445   5.195
 1080SOL    HW2 4140   2.101   5.356   5.068
 1081SOL     OW 4141   6.247   5.790   4.489
 1081SOL    HW1 4142   6.219   5.721   4.421
 1081SOL    HW2 4143   6.300   5.862   4.443
 1082SOL     OW 4144   5.502   6.937   5.828
 1082SOL    HW1 4145   5.540   7.017   5.781
 1082SOL    HW2 4146   5.405   6.953   5.848
 1083SOL     OW 4147   5.007   3.828   0.940
 1083SOL    HW1 4148   5.100   3.821   0.905
 1083SOL    HW2 4149   4.985   3.924   0.957
 1084SOL     OW 4150   0.018   6.956   6.601
 1084SOL    HW1 4151   0.079   0.015   6.618
 1084SOL    HW2 4152   6.973   6.947   6.678
 1085SOL     OW 4153   1.796   3.891   4.056
 1085SOL    HW1 4154   1.766   3.819   4.118
 1085SOL    HW2 4155   1.719   3.921   3.999
 1086SOL     OW 4156   6.669   4.484   6.360
 1086SOL    HW1 4157   6.737   4.432   6.410
 1086SOL    HW2 4158   6.706   4.512   6.272
 1087SOL     OW 4159   1.826   0.432   5.867
 1087SOL    HW1 4160   1.838   0.531   5.873
 1087SOL    HW2 4161   1.735   0.408   5.901
 1088SOL     OW 4162   0.180   4.831   3.618
 1088SOL    HW1 4163   0.194   4.768   3.695
 1088SOL    HW2 4164   0.082   4.836   3.596
 1089SOL     OW 4165   6.714   4.979   4.525
 1089SOL    HW1 4166   6.781   4.910   4.552
 1089SOL    HW2 4167   6.693   4.969   4.428
 1090SOL     OW 4168   5.559   1.681   4.464
 1090SOL    HW1 4169   5.500   1.600   4.457
 1090SOL    HW2 4170   5.558   1.715   4.558
 1091SOL     OW 4171   2.085   3.489   3.706
 1091SOL    HW1 4172   2.150   3.414   3.694
 1091SOL    HW2 4173   2.103   3.535   3.793
 1092SOL     OW 4174   1.066   4.858   0.853
 1092SOL    HW1 4175   1.065   4.914   0.935
 1092SOL    HW2 4176   0.989   4.884   0.793
 1093SOL     OW 4177   2.554   6.541   1.396
 1093SOL    HW1 4178   2.588   6.609   1.461
 1093SOL    HW2 4179   2.461   6.565   1.368
 1094SOL     OW 4180   0.844   0.156   2.723
 1094SOL    HW1 4181   0.792   0.078   2.757
 1094SOL    HW2 4182   0.795   0.241   2.744
 1095SOL     OW 4183   6.908   2.877   6.835
 1095SOL    HW1 4184   6.905   2.959   6.892
 1095SOL    HW2 4185   6.819   2.862   6.792
 1096SOL     OW 4186   2.756   5.455   0.847
 1096SOL    HW1 4187   2.792   5.529   0.903
 1096SOL    HW2 4188   2.769   5.477   0.751
 1097SOL     OW 4189   2.480   5.258   3.687
 1097SOL    HW1 4190   2.442   5.279   3.777
 1097SOL    HW2 4191   2.431   5.179   3.648
 1098SOL     OW 4192   5.990   4.403   0.175
 1098SOL    HW1 4193   6.066   4.347   0.141
 1098SOL    HW2 4194   5.905   4.374   0.131
 1099SOL     OW 4195   4.561   1.472   6.444
 1099SOL    HW1 4196   4.637   1.501   6.502
 1099SOL    HW2 4197   4.516   1.553   6.405
 1100SOL     OW 4198   4.128   1.125   3.989
 1100SOL    HW1 4199   4.069   1.203   4.010
 1100SOL    HW2 4200   4.128   1.061   4.065
 1101SOL     OW 4201   6.034   3.238   5.575
 1101SOL    HW1 4202   6.043   3.198   5.484
 1101SOL    HW2 4203   5.963   3.191   5.626
 1102SOL     OW 4204   2.425   0.795   4.557
 1102SOL    HW1 4205   2.363   0.773   4.633
 1102SOL    HW2 4206   2.375   0.791   4.471
 1103SOL     OW 4207   2.841   0.975   6.451
 1103SOL    HW1 4208   2.854   1.070   6.425
 1103SOL    HW2 4209   2.816   0.921   6.371
 1104SOL     OW 4210   0.744   4.539   3.097
 1104SOL    HW1 4211   0.839   4.562   3.074
 1104SOL    HW2 4212   0.742   4.490   3.184
 1105SOL     OW 4213   5.764   1.581   4.985
 1105SOL    HW1 4214   5.833   1.618   5.047
 1105SOL    HW2 4215   5.695   1.532   5.037
 1106SOL     OW 4216   0.837   1.304   0.400
 1106SOL    HW1 4217   0.769   1.249   0.352
 1106SOL    HW2 4218   0.831   1.399   0.369
 1107SOL     OW 4219   1.123   0.992   6.675
 1107SOL    HW1 4220   1.027   0.965   6.666
 1107SOL    HW2 4221   1.132   1.089   6.655
 1108SOL     OW 4222   3.138   6.417   4.251
 1108SOL    HW1 4223   3.135   6.496   4.313
 1108SOL    HW2 4224   3.119   6.447   4.158
 1109SOL     OW 4225   5.371   1.291   4.214
 1109SOL    HW1 4226   5.311   1.306   4.135
 1109SOL    HW2 4227   5.437   1.219   4.193
 1110SOL     OW 4228   3.397   0.911   2.819
 1110SOL    HW1 4229   3.447   0.851   2.881
 1110SOL    HW2 4230   3.327   0.962   2.870
 1111SOL     OW 4231   5.115   3.668   6.015
 1111SOL    HW1 4232   5.061   3.699   5.938
 1111SOL    HW2 4233   5.062   3.604   6.070
 1112SOL     OW 4234   6.172   0.624   2.402
 1112SOL    HW1 4235   6.118   0.702   2.369
 1112SOL    HW2 4236   6.234   0.655   2.474
 1113SOL     OW 4237   6.383   4.244   3.089
 1113SOL    HW1 4238   6.432   4.330   3.075
 1113SOL    HW2 4239   6.442   4.181   3.139
 1114SOL     OW 4240   4.302   2.650   6.144
 1114SOL    HW1 4241   4.299   2.748   6.126
 1114SOL    HW2 4242   4.301   2.634   6.243
 1115SOL     OW 4243   3.131   4.138   5.926
 1115SOL    HW1 4244   3.138   4.235   5.949
 1115SOL    HW2 4245   3.222   4.101   5.908
 1116SOL     OW 4246   5.321   0.911   6.824
 1116SOL    HW1 4247   5.334   0.964   6.741
 1116SOL    HW2 4248   5.374   0.826   6.818
 1117SOL     OW 4249   1.132   2.759   1.705
 1117SOL    HW1 4250   1.212   2.788   1.653
 1117SOL    HW2 4251   1.099   2.836   1.760
 1118SOL     OW 4252   2.908   5.361   6.940
 1118SOL    HW1 4253   2.985   5.298   6.952
 1118SOL    HW2 4254   2.937   5.437   6.882
 1119SOL     OW 4255   4.265   4.675   3.430
 1119SOL    HW1 4256   4.289   4.764   3.468
 1119SOL    HW2 4257   4.346   4.616   3.430
 1120SOL     OW 4258   6.361   5.118   0.984
 1120SOL    HW1 4259   6.420   5.083   0.911
 1120SOL    HW2 4260   6.412   5.182   1.041
 1121SOL     OW 4261   0.815   5.328   3.994
 1121SOL    HW1 4262   0.814   5.258   4.065
 1121SOL    HW2 4263   0.880   5.400   4.019
 1122SOL     OW 4264   5.651   2.669   2.256
 1122SOL    HW1 4265   5.633   2.765   2.276
 1122SOL    HW2 4266   5.565   2.621   2.239
 1123SOL     OW 4267   4.198   1.975   3.212
 1123SOL    HW1 4268   4.120   2.011   3.161
 1123SOL    HW2 4269   4.207   2.025   3.298
 1124SOL     OW 4270   2.050   2.842   5.062
 1124SOL    HW1 4271   1.980   2.811   5.126
 1124SOL    HW2 4272   2.114   2.768   5.044
 1125SOL     OW 4273   1.689   3.671   4.213
 1125SOL    HW1 4274   1.776   3.646   4.256
 1125SOL    HW2 4275   1.628   3.709   4.282
 1126SOL     OW 4276   4.239   5.927   5.640
 1126SOL    HW1 4277   4.221   5.860   5.711
 1126SOL    HW2 4278   4.338   5.943   5.634
 1127SOL     OW 4279   5.495   5.831   3.860
 1127SOL    HW1 4280   5.550   5.779   3.793
 1127SOL    HW2 4281   5.462   5.915   3.817
 1128SOL     OW 4282   6.176   1.463   3.781
 1128SOL    HW1 4283   6.079   1.466   3.806
 1128SOL    HW2 4284   6.226   1.533   3.831
 1129SOL     OW 4285   2.053   7.016   1.429
 1129SOL    HW1 4286   1.999   0.016   1.347
 1129SOL    HW2 4287   2.052   6.918   1.448
 1130SOL     OW 4288   1.986   5.182   3.304
 1130SOL    HW1 4289   2.069   5.235   3.324
 1130SOL    HW2 4290   1.950   5.209   3.215
 1131SOL     OW 4291   1.093   6.766   3.531
 1131SOL    HW1 4292   1.061   6.689   3.586
 1131SOL    HW2 4293   1.158   6.820   3.585
 1132SOL     OW 4294   3.849   1.037   3.285
 1132SOL    HW1 4295   3.804   0.974   3.222
 1132SOL    HW2 4296   3.921   1.086   3.236
 1133SOL     OW 4297   1.163   6.644   5.084
 1133SOL    HW1 4298   1.189   6.732   5.044
 1133SOL    HW2 4299   1.156   6.576   5.012
 1134SOL     OW 4300   4.708   0.026   1.442
 1134SOL    HW1 4301   4.642   6.975   1.471
 1134SOL    HW2 4302   4.801   7.007   1.452
 1135SOL     OW 4303   2.028   6.654   3.632
 1135SOL    HW1 4304   2.099   6.722   3.614
 1135SOL    HW2 4305   2.037   6.577   3.569
 1136SOL     OW 4306   2.755   6.041   2.700
 1136SOL    HW1 4307   2.704   6.114   2.656
 1136SOL    HW2 4308   2.721   5.952   2.668
 1137SOL     OW 4309   0.365   5.964   6.584
 1137SOL    HW1 4310   0.319   5.962   6.673
 1137SOL    HW2 4311   0.461   5.989   6.596
 1138SOL     OW 4312   2.325   2.915   5.348
 1138SOL    HW1 4313   2.374   2.980   5.291
 1138SOL    HW2 4314   2.326   2.825   5.304
 1139SOL     OW 4315   2.805   4.727   4.027
 1139SOL    HW1 4316   2.869   4.779   3.969
 1139SOL    HW2 4317   2.741   4.790   4.070
 1140SOL     OW 4318   2.141   1.207   1.870
 1140SOL    HW1 4319   2.096   1.266   1.802
 1140SOL    HW2 4320   2.180   1.264   1.942
 1141SOL     OW 4321   5.564   4.981   6.248
 1141SOL    HW1 4322   5.637   4.989   6.180
 1141SOL    HW2 4323   5.539   4.885   6.259
 1142SOL     OW 4324   2.486   0.045   3.131
 1142SOL    HW1 4325   2.515   0.135   3.100
 1142SOL    HW2 4326   2.477   0.045   3.230
 1143SOL     OW 4327   0.819   3.882   1.502
 1143SOL    HW1 4328   0.814   3.879   1.602
 1143SOL    HW2 4329   0.897   3.828   1.471
 1144SOL     OW 4330   5.548   4.398   2.515
 1144SOL    HW1 4331   5.645   4.422   2.507
 1144SOL    HW2 4332   5.534   4.305   2.480
 1145SOL     OW 4333   1.207   1.951   0.774
 1145SOL    HW1 4334   1.168   1.991   0.857
 1145SOL    HW2 4335   1.206   1.851   0.782
 1146SOL     OW 4336   0.686   1.086   1.727
 1146SOL    HW1 4337   0.698   1.145   1.807
 1146SOL    HW2 4338   0.745   1.118   1.653
 1147SOL     OW 4339   3.123   6.119   1.151
 1147SOL    HW1 4340   3.094   6.056   1.224
 1147SOL    HW2 4341   3.222   6.121   1.146
 1148SOL     OW 4342   3.775   5.975   2.045
 1148SOL    HW1 4343   3.779   5.908   2.119
 1148SOL    HW2 4344   3.796   6.066   2.081
 1149SOL     OW 4345   6.011   2.348   1.496
 1149SOL    HW1 4346   6.075   2.339   1.420
 1149SOL    HW2 4347   6.046   2.413   1.563
 1150SOL     OW 4348   1.464   4.070   6.682
 1150SOL    HW1 4349   1.536   4.006   6.656
 1150SOL    HW2 4350   1.375   4.030   6.661
 1151SOL     OW 4351   6.382   5.175   3.439
 1151SOL    HW1 4352   6.443   5.226   3.379
 1151SOL    HW2 4353   6.415   5.081   3.448
 1152SOL     OW 4354   4.924   0.811   6.993
 1152SOL    HW1 4355   4.985   0.736   7.017
 1152SOL    HW2 4356   4.943   0.841   6.899
 1153SOL     OW 4357   6.910   6.763   1.350
 1153SOL    HW1 4358   6.996   6.713   1.335
 1153SOL    HW2 4359   6.912   6.848   1.297
 1154SOL     OW 4360   1.409   3.636   2.392
 1154SOL    HW1 4361   1.375   3.544   2.373
 1154SOL    HW2 4362   1.502   3.645   2.357
 1155SOL     OW 4363   2.062   6.855   4.829
 1155SOL    HW1 4364   2.022   6.771   4.792
 1155SOL    HW2 4365   2.144   6.878   4.778
 1156SOL     OW 4366   3.772   1.719   4.609
 1156SOL    HW1 4367   3.723   1.637   4.638
 1156SOL    HW2 4368   3.870   1.708   4.628
 1157SOL     OW 4369   4.087   0.484   5.709
 1157SOL    HW1 4370   4.130   0.398   5.683
 1157SOL    HW2 4371   4.029   0.516   5.634
 1158SOL     OW 4372   5.432   5.980   3.326
 1158SOL    HW1 4373   5.354   6.022   3.372
 1158SOL    HW2 4374   5.403   5.897   3.279
 1159SOL     OW 4375   6.614   6.079   2.958
 1159SOL    HW1 4376   6.603   6.097   2.861
 1159SOL    HW2 4377   6.620   6.166   3.007
 1160SOL     OW 4378   4.062   6.909   0.834
 1160SOL    HW1 4379   4.070   6.949   0.925
 1160SOL    HW2 4380   4.042   6.982   0.768
 1161SOL     OW 4381   6.922   5.582   6.669
 1161SOL    HW1 4382   6.978   5.531   6.734
 1161SOL    HW2 4383   6.877   5.518   6.606
 1162SOL     OW 4384   2.264   3.107   5.507
 1162SOL    HW1 4385   2.288   3.079   5.600
 1162SOL    HW2 4386   2.269   3.028   5.446
 1163SOL     OW 4387   6.058   4.200   1.697
 1163SOL    HW1 4388   6.156   4.219   1.707
 1163SOL    HW2 4389   6.006   4.267   1.749
 1164SOL     OW 4390   5.559   2.106   4.353
 1164SOL    HW1 4391   5.486   2.037   4.355
 1164SOL    HW2 4392   5.645   2.062   4.328
 1165SOL     OW 4393   4.525   6.487   3.347
 1165SOL    HW1 4394   4.547   6.578   3.313
 1165SOL    HW2 4395   4.474   6.437   3.277
 1166SOL     OW 4396   2.062   6.454   6.237
 1166SOL    HW1 4397   2.089   6.416   6.326
 1166SOL    HW2 4398   1.984   6.515   6.249
 1167SOL     OW 4399   5.094   3.938   1.823
 1167SOL    HW1 4400   5.125   4.020   1.776
 1167SOL    HW2 4401   5.157   3.916   1.897
 1168SOL     OW 4402   5.717   2.765   2.785
 1168SOL    HW1 4403   5.782   2.784   2.712
 1168SOL    HW2 4404   5.659   2.688   2.758
 1169SOL     OW 4405   5.590   1.015   5.758
 1169SOL    HW1 4406   5.497   0.979   5.763
 1169SOL    HW2 4407   5.590   1.101   5.707
 1170SOL     OW 4408   5.159   0.361   3.205
 1170SOL    HW1 4409   5.232   0.341   3.139
 1170SOL    HW2 4410   5.071   0.337   3.165
 1171SOL     OW 4411   1.722   0.047   0.909
 1171SOL    HW1 4412   1.817   0.052   0.879
 1171SOL    HW2 4413   1.697   0.132   0.956
 1172SOL     OW 4414   6.479   3.664   0.627
 1172SOL    HW1 4415   6.391   3.618   0.632
 1172SOL    HW2 4416   6.518   3.671   0.719
 1173SOL     OW 4417   2.902   1.116   1.439
 1173SOL    HW1 4418   2.949   1.143   1.523
 1173SOL    HW2 4419   2.961   1.133   1.360
 1174SOL     OW 4420   3.697   3.856   1.382
 1174SOL    HW1 4421   3.654   3.890   1.298
 1174SOL    HW2 4422   3.627   3.822   1.444
 1175SOL     OW 4423   4.119   3.085   5.519
 1175SOL    HW1 4424   4.193   3.118   5.577
 1175SOL    HW2 4425   4.035   3.077   5.575
 1176SOL     OW 4426   5.250   3.442   5.864
 1176SOL    HW1 4427   5.278   3.492   5.782
 1176SOL    HW2 4428   5.229   3.507   5.937
 1177SOL     OW 4429   5.920   2.332   4.659
 1177SOL    HW1 4430   5.946   2.418   4.615
 1177SOL    HW2 4431   5.993   2.266   4.650
 1178SOL     OW 4432   3.235   4.307   0.723
 1178SOL    HW1 4433   3.174   4.318   0.801
 1178SOL    HW2 4434   3.312   4.370   0.731
 1179SOL     OW 4435   2.524   6.030   0.619
 1179SOL    HW1 4436   2.480   6.067   0.701
 1179SOL    HW2 4437   2.495   6.083   0.539
 1180SOL     OW 4438   3.368   5.483   1.552
 1180SOL    HW1 4439   3.344   5.481   1.455
 1180SOL    HW2 4440   3.463   5.514   1.562
 1181SOL     OW 4441   0.465   5.328   6.640
 1181SOL    HW1 4442   0.398   5.266   6.681
 1181SOL    HW2 4443   0.556   5.287   6.647
 1182SOL     OW 4444   3.299   5.472   2.882
 1182SOL    HW1 4445   3.295   5.376   2.908
 1182SOL    HW2 4446   3.350   5.482   2.797
 1183SOL     OW 4447   1.864   4.430   6.894
 1183SOL    HW1 4448   1.819   4.391   6.814
 1183SOL    HW2 4449   1.858   4.366   6.971
 1184SOL     OW 4450   0.910   0.576   4.517
 1184SOL    HW1 4451   0.838   0.558   4.585
 1184SOL    HW2 4452   0.916   0.500   4.453
 1185SOL     OW 4453   7.003   1.111   6.236
 1185SOL    HW1 4454   6.988   1.031   6.295
 1185SOL    HW2 4455   6.915   1.149   6.208
 1186SOL     OW 4456   4.923   5.733   4.395
 1186SOL    HW1 4457   4.959   5.783   4.316
 1186SOL    HW2 4458   4.938   5.786   4.478
 1187SOL     OW 4459   6.883   6.906   6.848
 1187SOL    HW1 4460   6.945   6.882   6.922
 1187SOL    HW2 4461   6.812   6.835   6.839
 1188SOL     OW 4462   2.788   6.166   4.711
 1188SOL    HW1 4463   2.885   6.147   4.724
 1188SOL    HW2 4464   2.741   6.082   4.683
 1189SOL     OW 4465   6.814   3.608   2.563
 1189SOL    HW1 4466   6.763   3.529   2.597
 1189SOL    HW2 4467   6.783   3.631   2.471
 1190SOL     OW 4468   2.132   5.681   3.701
 1190SOL    HW1 4469   2.227   5.678   3.669
 1190SOL    HW2 4470   2.084   5.755   3.655
 1191SOL     OW 4471   4.145   5.067   3.252
 1191SOL    HW1 4472   4.153   5.081   3.154
 1191SOL    HW2 4473   4.132   4.970   3.271
 1192SOL     OW 4474   3.631   5.973   3.029
 1192SOL    HW1 4475   3.668   5.918   3.103
 1192SOL    HW2 4476   3.539   5.942   3.007
 1193SOL     OW 4477   5.852   4.565   4.471
 1193SOL    HW1 4478   5.802   4.633   4.524
 1193SOL    HW2 4479   5.911   4.610   4.404
 1194SOL     OW 4480   5.340   0.329   1.835
 1194SOL    HW1 4481   5.438   0.338   1.848
 1194SOL    HW2 4482   5.321   0.287   1.746
 1195SOL     OW 4483   5.810   4.614   1.970
 1195SOL    HW1 4484   5.822   4.684   2.040
 1195SOL    HW2 4485   5.732   4.555   1.994
 1196SOL     OW 4486   0.361   6.255   3.117
 1196SOL    HW1 4487   0.391   6.265   3.022
 1196SOL    HW2 4488   0.365   6.159   3.144
 1197SOL     OW 4489   3.286   0.906   0.039
 1197SOL    HW1 4490   3.284   0.924   6.959
 1197SOL    HW2 4491   3.204   0.856   0.066
 1198SOL     OW 4492   1.113   2.848   1.351
 1198SOL    HW1 4493   1.026   2.830   1.398
 1198SOL    HW2 4494   1.150   2.935   1.382
 1199SOL     OW 4495   4.553   5.041   1.646
 1199SOL    HW1 4496   4.603   5.022   1.562
 1199SOL    HW2 4497   4.539   4.957   1.698
 1200SOL     OW 4498   3.568   3.158   2.521
 1200SOL    HW1 4499   3.539   3.075   2.472
 1200SOL    HW2 4500   3.661   3.146   2.554
 1201SOL     OW 4501   0.991   0.907   4.747
 1201SOL    HW1 4502   0.989   0.807   4.748
 1201SOL    HW2 4503   1.082   0.939   4.718
 1202SOL     OW 4504   1.121   5.944   6.372
 1202SOL    HW1 4505   1.085   5.995   6.450
 1202SOL    HW2 4506   1.087   5.984   6.287
 1203SOL     OW 4507   5.122   5.977   6.433
 1203SOL    HW1 4508   5.044   5.929   6.393
 1203SOL    HW2 4509   5.204   5.959   6.378
 1204SOL     OW 4510   2.438   0.143   1.504
 1204SOL    HW1 4511   2.524   0.193   1.515
 1204SOL    HW2 4512   2.362   0.202   1.530
 1205SOL     OW 4513   4.724   4.349   1.616
 1205SOL    HW1 4514   4.676   4.266   1.590
 1205SOL    HW2 4515   4.788   4.329   1.689
 1206SOL     OW 4516   3.254   3.030   4.795
 1206SOL    HW1 4517   3.268   2.951   4.736
 1206SOL    HW2 4518   3.341   3.055   4.838
 1207SOL     OW 4519   2.543   6.902   1.442
 1207SOL    HW1 4520   2.493   6.979   1.480
 1207SOL    HW2 4521   2.623   6.936   1.392
 1208SOL     OW 4522   3.545   3.782   0.204
 1208SOL    HW1 4523   3.513   3.852   0.140
 1208SOL    HW2 4524   3.640   3.801   0.229
 1209SOL     OW 4525   3.773   0.510   5.677
 1209SOL    HW1 4526   3.811   0.597   5.647
 1209SOL    HW2 4527   3.706   0.477   5.610
 1210SOL     OW 4528   2.625   0.221   3.362
 1210SOL    HW1 4529   2.599   0.248   3.269
 1210SOL    HW2 4530   2.584   0.133   3.384
 1211SOL     OW 4531   1.455   3.720   1.026
 1211SOL    HW1 4532   1.467   3.622   1.040
 1211SOL    HW2 4533   1.544   3.764   1.019
 1212SOL     OW 4534   0.433   0.469   6.189
 1212SOL    HW1 4535   0.403   0.524   6.112
 1212SOL    HW2 4536   0.533   0.469   6.194
 1213SOL     OW 4537   5.780   2.698   0.237
 1213SOL    HW1 4538   5.734   2.643   0.167
 1213SOL    HW2 4539   5.862   2.739   0.198
 1214SOL     OW 4540   6.853   2.153   1.058
 1214SOL    HW1 4541   6.907   2.174   0.976
 1214SOL    HW2 4542   6.905   2.179   1.139
 1215SOL     OW 4543   1.682   4.434   4.414
 1215SOL    HW1 4544   1.733   4.509   4.455
 1215SOL    HW2 4545   1.607   4.470   4.359
 1216SOL     OW 4546   4.252   0.386   0.084
 1216SOL    HW1 4547   4.255   0.424   0.177
 1216SOL    HW2 4548   4.210   0.295   0.086
 1217SOL     OW 4549   1.562   4.588   0.362
 1217SOL    HW1 4550   1.594   4.677   0.393
 1217SOL    HW2 4551   1.467   4.595   0.331
 1218SOL     OW 4552   1.430   4.763   4.527
 1218SOL    HW1 4553   1.509   4.784   4.584
 1218SOL    HW2 4554   1.458   4.761   4.431
 1219SOL     OW 4555   5.299   5.896   2.161
 1219SOL    HW1 4556   5.298   5.926   2.066
 1219SOL    HW2 4557   5.312   5.797   2.165
 1220SOL     OW 4558   1.239   5.223   2.939
 1220SOL    HW1 4559   1.232   5.210   2.840
 1220SOL    HW2 4560   1.151   5.201   2.982
 1221SOL     OW 4561   5.310   2.931   5.722
 1221SOL    HW1 4562   5.347   2.839   5.729
 1221SOL    HW2 4563   5.360   2.982   5.652
 1222SOL     OW 4564   5.872   6.846   6.775
 1222SOL    HW1 4565   5.957   6.863   6.723
 1222SOL    HW2 4566   5.832   6.759   6.746
 1223SOL     OW 4567   4.082   0.531   0.624
 1223SOL    HW1 4568   4.025   0.614   0.624
 1223SOL    HW2 4569   4.048   0.467   0.693
 1224SOL     OW 4570   2.319   6.758   1.384
 1224SOL    HW1 4571   2.253   6.813   1.332
 1224SOL    HW2 4572   2.398   6.814   1.408
 1225SOL     OW 4573   3.176   4.303   6.258
 1225SOL    HW1 4574   3.170   4.361   6.178
 1225SOL    HW2 4575   3.092   4.250   6.268
 1226SOL     OW 4576   2.429   4.106   1.300
 1226SOL    HW1 4577   2.453   4.081   1.393
 1226SOL    HW2 4578   2.347   4.165   1.301
 1227SOL     OW 4579   6.578   3.199   6.753
 1227SOL    HW1 4580   6.539   3.166   6.667
 1227SOL    HW2 4581   6.556   3.296   6.764
 1228SOL     OW 4582   3.729   2.788   6.645
 1228SOL    HW1 4583   3.746   2.856   6.573
 1228SOL    HW2 4584   3.693   2.834   6.726
 1229SOL     OW 4585   4.653   4.700   6.222
 1229SOL    HW1 4586   4.708   4.783   6.220
 1229SOL    HW2 4587   4.625   4.677   6.129
 1230SOL     OW 4588   4.153   0.375   4.463
 1230SOL    HW1 4589   4.125   0.287   4.503
 1230SOL    HW2 4590   4.123   0.378   4.368
 1231SOL     OW 4591   1.891   3.721   5.015
 1231SOL    HW1 4592   1.861   3.807   5.057
 1231SOL    HW2 4593   1.991   3.723   5.003
 1232SOL     OW 4594   1.021   2.515   5.362
 1232SOL    HW1 4595   0.978   2.509   5.452
 1232SOL    HW2 4596   0.994   2.601   5.318
 1233SOL     OW 4597   1.645   2.973   5.604
 1233SOL    HW1 4598   1.590   3.057   5.599
 1233SOL    HW2 4599   1.739   2.993   5.577
 1234SOL     OW 4600   6.846   4.443   4.323
 1234SOL    HW1 4601   6.811   4.394   4.402
 1234SOL    HW2 4602   6.810   4.536   4.322
 1235SOL     OW 4603   6.823   5.511   2.503
 1235SOL    HW1 4604   6.765   5.548   2.430
 1235SOL    HW2 4605   6.778   5.434   2.546
 1236SOL     OW 4606   5.284   0.969   6.220
 1236SOL    HW1 4607   5.198   0.968   6.169
 1236SOL    HW2 4608   5.298   1.060   6.259
 1237SOL     OW 4609   2.621   4.832   6.081
 1237SOL    HW1 4610   2.680   4.788   6.014
 1237SOL    HW2 4611   2.666   4.914   6.116
 1238SOL     OW 4612   2.022   0.915   1.266
 1238SOL    HW1 4613   2.067   0.945   1.182
 1238SOL    HW2 4614   1.923   0.930   1.259
 1239SOL     OW 4615   0.058   6.126   6.612
 1239SOL    HW1 4616   0.050   6.160   6.706
 1239SOL    HW2 4617   0.154   6.131   6.583
 1240SOL     OW 4618   5.628   6.397   1.664
 1240SOL    HW1 4619   5.706   6.402   1.726
 1240SOL    HW2 4620   5.654   6.435   1.575
 1241SOL     OW 4621   6.432   3.572   4.245
 1241SOL    HW1 4622   6.467   3.524   4.326
 1241SOL    HW2 4623   6.339   3.603   4.262
 1242SOL     OW 4624   1.847   3.479   0.099
 1242SOL    HW1 4625   1.912   3.543   0.138
 1242SOL    HW2 4626   1.790   3.526   0.032
 1243SOL     OW 4627   2.028   5.165   5.333
 1243SOL    HW1 4628   2.094   5.211   5.274
 1243SOL    HW2 4629   2.026   5.068   5.311
 1244SOL     OW 4630   0.161   0.718   2.958
 1244SOL    HW1 4631   0.243   0.679   3.000
 1244SOL    HW2 4632   0.187   0.776   2.880
 1245SOL     OW 4633   2.902   3.392   6.797
 1245SOL    HW1 4634   2.875   3.298   6.818
 1245SOL    HW2 4635   2.848   3.426   6.720
 1246SOL     OW 4636   2.256   6.434   2.293
 1246SOL    HW1 4637   2.193   6.369   2.251
 1246SOL    HW2 4638   2.235   6.526   2.261
 1247SOL     OW 4639   2.793   0.047   6.246
 1247SOL    HW1 4640   2.780   0.043   6.147
 1247SOL    HW2 4641   2.839   6.982   6.277
 1248SOL     OW 4642   1.457   6.306   3.666
 1248SOL    HW1 4643   1.470   6.308   3.567
 1248SOL    HW2 4644   1.370   6.349   3.689
 1249SOL     OW 4645   5.777   3.348   3.002
 1249SOL    HW1 4646   5.698   3.383   3.053
 1249SOL    HW2 4647   5.745   3.289   2.928
 1250SOL     OW 4648   1.282   4.663   4.757
 1250SOL    HW1 4649   1.341   4.667   4.677
 1250SOL    HW2 4650   1.240   4.573   4.765
 1251SOL     OW 4651   3.878   0.849   4.679
 1251SOL    HW1 4652   3.960   0.889   4.638
 1251SOL    HW2 4653   3.845   0.774   4.621
 1252SOL     OW 4654   3.544   3.673   6.174
 1252SOL    HW1 4655   3.447   3.653   6.157
 1252SOL    HW2 4656   3.556   3.696   6.270
 1253SOL     OW 4657   3.595   5.142   2.361
 1253SOL    HW1 4658   3.557   5.057   2.325
 1253SOL    HW2 4659   3.639   5.124   2.449
 1254SOL     OW 4660   6.100   2.222   3.299
 1254SOL    HW1 4661   6.126   2.306   3.253
 1254SOL    HW2 4662   6.127   2.226   3.395
 1255SOL     OW 4663   0.346   0.182   5.325
 1255SOL    HW1 4664   0.411   0.124   5.275
 1255SOL    HW2 4665   0.283   0.224   5.261
 1256SOL     OW 4666   6.850   0.488   2.277
 1256SOL    HW1 4667   6.917   0.544   2.229
 1256SOL    HW2 4668   6.766   0.484   2.223
 1257SOL     OW 4669   7.008   0.756   3.351
 1257SOL    HW1 4670   6.957   0.677   3.318
 1257SOL    HW2 4671   7.009   0.757   3.451
 1258SOL     OW 4672   1.417   5.931   3.219
 1258SOL    HW1 4673   1.504   5.971   3.246
 1258SOL    HW2 4674   1.413   5.924   3.119
 1259SOL     OW 4675   4.302   2.114   5.341
 1259SOL    HW1 4676   4.249   2.029   5.338
 1259SOL    HW2 4677   4.329   2.139   5.248
 1260SOL     OW 4678   1.039   1.298   6.916
 1260SOL    HW1 4679   1.029   1.198   6.923
 1260SOL    HW2 4680   1.081   1.334   6.999
 1261SOL     OW 4681   0.267   5.114   0.299
 1261SOL    HW1 4682   0.253   5.143   0.204
 1261SOL    HW2 4683   0.241   5.018   0.310
 1262SOL     OW 4684   5.649   5.539   1.957
 1262SOL    HW1 4685   5.621   5.506   1.867
 1262SOL    HW2 4686   5.596   5.621   1.980
 1263SOL     OW 4687   0.882   2.002   2.330
 1263SOL    HW1 4688   0.948   2.006   2.405
 1263SOL    HW2 4689   0.931   1.989   2.244
 1264SOL     OW 4690   1.178   3.674   5.409
 1264SOL    HW1 4691   1.196   3.749   5.346
 1264SOL    HW2 4692   1.212   3.698   5.500
 1265SOL     OW 4693   6.182   5.630   5.517
 1265SOL    HW1 4694   6.112   5.674   5.574
 1265SOL    HW2 4695   6.251   5.588   5.577
 1266SOL     OW 4696   1.398   0.892   4.872
 1266SOL    HW1 4697   1.493   0.865   4.892
 1266SOL    HW2 4698   1.339   0.864   4.947
 1267SOL     OW 4699   4.875   0.666   1.843
 1267SOL    HW1 4700   4.945   0.640   1.776
 1267SOL    HW2 4701   4.895   0.622   1.931
 1268SOL     OW 4702   4.168   2.403   5.423
 1268SOL    HW1 4703   4.243   2.344   5.392
 1268SOL    HW2 4704   4.137   2.459   5.346
 1269SOL     OW 4705   5.555   2.394   3.877
 1269SOL    HW1 4706   5.505   2.476   3.902
 1269SOL    HW2 4707   5.649   2.418   3.854
 1270SOL     OW 4708   1.347   4.620   2.583
 1270SOL    HW1 4709   1.284   4.543   2.576
 1270SOL    HW2 4710   1.395   4.632   2.496
 1271SOL     OW 4711   1.776   1.114   1.513
 1271SOL    HW1 4712   1.814   1.136   1.423
 1271SOL    HW2 4713   1.679   1.140   1.516
 1272SOL     OW 4714   6.488   4.017   0.121
 1272SOL    HW1 4715   6.523   4.072   0.045
 1272SOL    HW2 4716   6.502   3.920   0.102
 1273SOL     OW 4717   1.423   4.362   5.059
 1273SOL    HW1 4718   1.381   4.443   5.101
 1273SOL    HW2 4719   1.495   4.391   4.995
 1274SOL     OW 4720   0.354   4.997   2.108
 1274SOL    HW1 4721   0.404   5.083   2.119
 1274SOL    HW2 4722   0.278   4.995   2.173
 1275SOL     OW 4723   2.859   0.797   3.262
 1275SOL    HW1 4724   2.953   0.768   3.241
 1275SOL    HW2 4725   2.798   0.770   3.188
 1276SOL     OW 4726   5.528   4.687   4.420
 1276SOL    HW1 4727   5.432   4.705   4.400
 1276SOL    HW2 4728   5.565   4.762   4.474
 1277SOL     OW 4729   0.583   5.527   6.784
 1277SOL    HW1 4730   0.542   5.455   6.728
 1277SOL    HW2 4731   0.522   5.548   6.861
 1278SOL     OW 4732   1.111   6.366   2.856
 1278SOL    HW1 4733   1.052   6.348   2.778
 1278SOL    HW2 4734   1.097   6.460   2.887
 1279SOL     OW 4735   3.016   2.552   6.440
 1279SOL    HW1 4736   3.029   2.548   6.340
 1279SOL    HW2 4737   2.920   2.536   6.461
 1280SOL     OW 4738   3.274   1.402   3.367
 1280SOL    HW1 4739   3.183   1.437   3.388
 1280SOL    HW2 4740   3.266   1.309   3.331
 1281SOL     OW 4741   3.430   6.398   3.739
 1281SOL    HW1 4742   3.484   6.339   3.799
 1281SOL    HW2 4743   3.340   6.357   3.725
 1282SOL     OW 4744   6.846   3.138   0.896
 1282SOL    HW1 4745   6.944   3.123   0.907
 1282SOL    HW2 4746   6.810   3.185   0.977
 1283SOL     OW 4747   5.918   3.394   5.232
 1283SOL    HW1 4748   5.871   3.431   5.152
 1283SOL    HW2 4749   5.851   3.351   5.293
 1284SOL     OW 4750   3.612   1.480   1.410
 1284SOL    HW1 4751   3.581   1.517   1.498
 1284SOL    HW2 4752   3.712   1.474   1.409
 1285SOL     OW 4753   3.430   1.748   4.542
 1285SOL    HW1 4754   3.347   1.760   4.488
 1285SOL    HW2 4755   3.510   1.762   4.483
 1286SOL     OW 4756   5.290   2.154   1.499
 1286SOL    HW1 4757   5.227   2.195   1.433
 1286SOL    HW2 4758   5.358   2.221   1.526
 1287SOL     OW 4759   6.899   4.627   4.775
 1287SOL    HW1 4760   6.915   4.673   4.688
 1287SOL    HW2 4761   6.987   4.612   4.821
 1288SOL     OW 4762   4.481   3.976   6.193
 1288SOL    HW1 4763   4.388   3.948   6.213
 1288SOL    HW2 4764   4.482   4.038   6.115
 1289SOL     OW 4765   6.203   0.676   1.211
 1289SOL    HW1 4766   6.190   0.602   1.278
 1289SOL    HW2 4767   6.124   0.680   1.151
 1290SOL     OW 4768   1.621   0.341   6.996
 1290SOL    HW1 4769   1.560   0.275   6.953
 1290SOL    HW2 4770   1.582   0.370   0.066
 1291SOL     OW 4771   6.656   4.792   3.343
 1291SOL    HW1 4772   6.724   4.860   3.315
 1291SOL    HW2 4773   6.606   4.760   3.263
 1292SOL     OW 4774   0.802   6.096   2.089
 1292SOL    HW1 4775   0.843   6.005   2.080
 1292SOL    HW2 4776   0.726   6.093   2.153
 1293SOL     OW 4777   2.418   1.590   6.908
 1293SOL    HW1 4778   2.495   1.645   6.876
 1293SOL    HW2 4779   2.414   1.592   7.008
 1294SOL     OW 4780   2.097   3.991   5.877
 1294SOL    HW1 4781   2.107   3.999   5.778
 1294SOL    HW2 4782   2.164   4.050   5.922
 1295SOL     OW 4783   0.071   3.452   1.511
 1295SOL    HW1 4784   0.071   3.493   1.420
 1295SOL    HW2 4785   0.162   3.462   1.552
 1296SOL     OW 4786   5.313   6.588   5.972
 1296SOL    HW1 4787   5.298   6.684   5.948
 1296SOL    HW2 4788   5.368   6.545   5.901
 1297SOL     OW 4789   0.446   0.552   2.677
 1297SOL    HW1 4790   0.470   0.620   2.747
 1297SOL    HW2 4791   0.447   0.596   2.587
 1298SOL     OW 4792   5.783   5.374   2.829
 1298SOL    HW1 4793   5.716   5.319   2.879
 1298SOL    HW2 4794   5.740   5.415   2.749
 1299SOL     OW 4795   2.045   3.375   4.153
 1299SOL    HW1 4796   1.955   3.337   4.173
 1299SOL    HW2 4797   2.072   3.351   4.060
 1300SOL     OW 4798   2.006   4.028   0.932
 1300SOL    HW1 4799   1.986   4.121   0.901
 1300SOL    HW2 4800   2.104   4.020   0.951
 1301SOL     OW 4801   1.141   1.015   1.710
 1301SOL    HW1 4802   1.095   0.957   1.643
 1301SOL    HW2 4803   1.113   0.988   1.802
 1302SOL     OW 4804   5.596   6.305   6.247
 1302SOL    HW1 4805   5.678   6.320   6.302
 1302SOL    HW2 4806   5.540   6.388   6.248
 1303SOL     OW 4807   4.352   7.002   1.824
 1303SOL    HW1 4808   4.369   6.907   1.846
 1303SOL    HW2 4809   4.402   0.043   1.887
 1304SOL     OW 4810   0.975   1.410   1.457
 1304SOL    HW1 4811   1.031   1.441   1.380
 1304SOL    HW2 4812   1.032   1.405   1.539
 1305SOL     OW 4813   5.021   4.757   6.571
 1305SOL    HW1 4814   5.014   4.672   6.621
 1305SOL    HW2 4815   4.932   4.804   6.573
 1306SOL     OW 4816   1.233   5.298   4.932
 1306SOL    HW1 4817   1.273   5.297   5.024
 1306SOL    HW2 4818   1.293   5.249   4.869
 1307SOL     OW 4819   1.876   3.094   3.588
 1307SOL    HW1 4820   1.839   3.159   3.521
 1307SOL    HW2 4821   1.897   3.008   3.542
 1308SOL     OW 4822   6.598   5.469   6.483
 1308SOL    HW1 4823   6.679   5.421   6.517
 1308SOL    HW2 4824   6.518   5.441   6.537
 1309SOL     OW 4825   5.205   4.478   5.978
 1309SOL    HW1 4826   5.236   4.423   6.056
 1309SOL    HW2 4827   5.157   4.559   6.012
 1310SOL     OW 4828   1.347   3.462   3.956
 1310SOL    HW1 4829   1.418   3.459   4.026
 1310SOL    HW2 4830   1.324   3.558   3.935
 1311SOL     OW 4831   6.631   5.721   0.582
 1311SOL    HW1 4832   6.675   5.809   0.566
 1311SOL    HW2 4833   6.660   5.656   0.512
 1312SOL     OW 4834   1.393   0.763   5.482
 1312SOL    HW1 4835   1.399   0.854   5.442
 1312SOL    HW2 4836   1.298   0.730   5.476
 1313SOL     OW 4837   6.523   5.317   3.214
 1313SOL    HW1 4838   6.544   5.414   3.231
 1313SOL    HW2 4839   6.604   5.273   3.175
 1314SOL     OW 4840   2.442   1.704   4.813
 1314SOL    HW1 4841   2.450   1.803   4.817
 1314SOL    HW2 4842   2.534   1.663   4.816
 1315SOL     OW 4843   6.114   0.234   3.877
 1315SOL    HW1 4844   6.042   0.192   3.821
 1315SOL    HW2 4845   6.108   0.199   3.970
 1316SOL     OW 4846   4.030   0.772   5.028
 1316SOL    HW1 4847   4.100   0.789   4.959
 1316SOL    HW2 4848   4.039   0.838   5.102
 1317SOL     OW 4849   3.089   3.547   5.900
 1317SOL    HW1 4850   3.180   3.579   5.872
 1317SOL    HW2 4851   3.061   3.472   5.841
 1318SOL     OW 4852   2.193   2.810   0.076
 1318SOL    HW1 4853   2.172   2.839   0.170
 1318SOL    HW2 4854   2.292   2.803   0.064
 1319SOL     OW 4855   0.047   6.095   0.073
 1319SOL    HW1 4856   0.106   6.150   0.132
 1319SOL    HW2 4857   0.045   6.001   0.106
 1320SOL     OW 4858   3.468   2.777   6.347
 1320SOL    HW1 4859   3.509   2.855   6.394
 1320SOL    HW2 4860   3.384   2.750   6.394
 1321SOL     OW 4861   5.961   2.052   6.814
 1321SOL    HW1 4862   5.984   1.959   6.784
 1321SOL    HW2 4863   5.896   2.093   6.750
 1322SOL     OW 4864   2.912   1.215   6.352
 1322SOL    HW1 4865   2.816   1.239   6.339
 1322SOL    HW2 4866   2.968   1.298   6.345
 1323SOL     OW 4867   3.378   0.321   0.555
 1323SOL    HW1 4868   3.461   0.315   0.611
 1323SOL    HW2 4869   3.390   0.391   0.485
 1324SOL     OW 4870   1.548   3.718   0.183
 1324SOL    HW1 4871   1.568   3.779   0.106
 1324SOL    HW2 4872   1.494   3.640   0.150
 1325SOL     OW 4873   2.238   5.853   5.904
 1325SOL    HW1 4874   2.288   5.940   5.904
 1325SOL    HW2 4875   2.200   5.837   5.812
 1326SOL     OW 4876   4.867   4.117   4.485
 1326SOL    HW1 4877   4.848   4.120   4.387
 1326SOL    HW2 4878   4.859   4.022   4.517
 1327SOL     OW 4879   0.380   6.519   0.790
 1327SOL    HW1 4880   0.396   6.601   0.846
 1327SOL    HW2 4881   0.450   6.514   0.718
 1328SOL     OW 4882   1.052   3.418   5.836
 1328SOL    HW1 4883   1.014   3.507   5.812
 1328SOL    HW2 4884   0.977   3.352   5.849
 1329SOL     OW 4885   0.310   2.773   3.258
 1329SOL    HW1 4886   0.253   2.701   3.218
 1329SOL    HW2 4887   0.270   2.801   3.346
 1330SOL     OW 4888   6.676   2.341   1.125
 1330SOL    HW1 4889   6.590   2.335   1.176
 1330SOL    HW2 4890   6.708   2.249   1.103
 1331SOL     OW 4891   4.201   2.330   2.643
 1331SOL    HW1 4892   4.139   2.405   2.623
 1331SOL    HW2 4893   4.215   2.323   2.742
 1332SOL     OW 4894   1.859   0.378   1.396
 1332SOL    HW1 4895   1.760   0.381   1.384
 1332SOL    HW2 4896   1.903   0.371   1.307
 1333SOL     OW 4897   3.995   3.807   3.071
 1333SOL    HW1 4898   3.970   3.842   3.161
 1333SOL    HW2 4899   3.912   3.786   3.018
 1334SOL     OW 4900   6.829   1.341   2.638
 1334SOL    HW1 4901   6.790   1.375   2.553
 1334SOL    HW2 4902   6.760   1.343   2.710
 1335SOL     OW 4903   1.950   3.813   1.439
 1335SOL    HW1 4904   1.994   3.723   1.438
 1335SOL    HW2 4905   1.851   3.801   1.437
 1336SOL     OW 4906   3.579   0.883   5.637
 1336SOL    HW1 4907   3.507   0.851   5.575
 1336SOL    HW2 4908   3.551   0.869   5.732
 1337SOL     OW 4909   6.056   1.774   3.598
 1337SOL    HW1 4910   6.156   1.767   3.590
 1337SOL    HW2 4911   6.032   1.861   3.641
 1338SOL     OW 4912   6.137   4.035   4.084
 1338SOL    HW1 4913   6.099   4.032   4.177
 1338SOL    HW2 4914   6.226   3.990   4.084
 1339SOL     OW 4915   6.929   0.138   6.920
 1339SOL    HW1 4916   6.937   0.135   0.001
 1339SOL    HW2 4917   6.918   0.045   6.885
 1340SOL     OW 4918   5.270   0.929   1.783
 1340SOL    HW1 4919   5.214   0.963   1.859
 1340SOL    HW2 4920   5.212   0.915   1.703
 1341SOL     OW 4921   4.635   6.810   6.925
 1341SOL    HW1 4922   4.611   6.875   6.997
 1341SOL    HW2 4923   4.607   6.718   6.953
 1342SOL     OW 4924   3.115   5.415   0.416
 1342SOL    HW1 4925   3.051   5.406   0.340
 1342SOL    HW2 4926   3.122   5.511   0.442
 1343SOL     OW 4927   5.098   5.110   3.161
 1343SOL    HW1 4928   5.130   5.142   3.251
 1343SOL    HW2 4929   5.139   5.022   3.140
 1344SOL     OW 4930   0.026   0.050   4.529
 1344SOL    HW1 4931   7.008   6.994   4.473
 1344SOL    HW2 4932   0.126   0.048   4.525
 1345SOL     OW 4933   0.404   5.548   1.740
 1345SOL    HW1 4934   0.328   5.488   1.761
 1345SOL    HW2 4935   0.481   5.528   1.801
 1346SOL     OW 4936   2.226   5.298   5.595
 1346SOL    HW1 4937   2.272   5.215   5.565
 1346SOL    HW2 4938   2.237   5.308   5.694
 1347SOL     OW 4939   1.820   0.417   6.471
 1347SOL    HW1 4940   1.817   0.335   6.529
 1347SOL    HW2 4941   1.845   0.496   6.527
 1348SOL     OW 4942   7.006   5.860   5.148
 1348SOL    HW1 4943   6.990   5.953   5.181
 1348SOL    HW2 4944   6.948   5.796   5.198
 1349SOL     OW 4945   5.522   3.391   3.988
 1349SOL    HW1 4946   5.467   3.389   3.905
 1349SOL    HW2 4947   5.473   3.345   4.062
 1350SOL     OW 4948   3.505   3.548   0.446
 1350SOL    HW1 4949   3.576   3.500   0.396
 1350SOL    HW2 4950   3.501   3.643   0.416
 1351SOL     OW 4951   6.303   2.249   4.159
 1351SOL    HW1 4952   6.344   2.260   4.068
 1351SOL    HW2 4953   6.233   2.319   4.172
 1352SOL     OW 4954   6.715   0.014   2.588
 1352SOL    HW1 4955   6.813   0.033   2.600
 1352SOL    HW2 4956   6.701   6.933   2.591
 1353SOL     OW 4957   0.246   1.665   0.987
 1353SOL    HW1 4958   0.164   1.710   1.021
 1353SOL    HW2 4959   0.249   1.671   0.887
 1354SOL     OW 4960   6.387   4.196   2.477
 1354SOL    HW1 4961   6.312   4.260   2.461
 1354SOL    HW2 4962   6.433   4.219   2.563
 1355SOL     OW 4963   5.791   3.477   4.413
 1355SOL    HW1 4964   5.753   3.482   4.505
 1355SOL    HW2 4965   5.721   3.446   4.349
 1356SOL     OW 4966   3.572   2.806   2.089
 1356SOL    HW1 4967   3.627   2.725   2.109
 1356SOL    HW2 4968   3.567   2.820   1.990
 1357SOL     OW 4969   6.645   3.537   5.516
 1357SOL    HW1 4970   6.647   3.449   5.468
 1357SOL    HW2 4971   6.552   3.575   5.511
 1358SOL     OW 4972   1.034   6.509   6.910
 1358SOL    HW1 4973   1.087   6.562   6.976
 1358SOL    HW2 4974   1.090   6.435   6.874
 1359SOL     OW 4975   6.692   4.096   1.347
 1359SOL    HW1 4976   6.672   4.181   1.396
 1359SOL    HW2 4977   6.683   4.111   1.249
 1360SOL     OW 4978   3.231   3.054   6.493
 1360SOL    HW1 4979   3.152   3.076   6.436
 1360SOL    HW2 4980   3.301   3.125   6.482
 1361SOL     OW 4981   0.442   4.072   4.803
 1361SOL    HW1 4982   0.450   4.051   4.706
 1361SOL    HW2 4983   0.351   4.047   4.836
 1362SOL     OW 4984   3.588   2.863   2.615
 1362SOL    HW1 4985   3.492   2.861   2.587
 1362SOL    HW2 4986   3.593   2.870   2.714
 1363SOL     OW 4987   6.807   5.613   5.356
 1363SOL    HW1 4988   6.758   5.644   5.274
 1363SOL    HW2 4989   6.843   5.521   5.340
 1364SOL     OW 4990   4.311   4.345   0.236
 1364SOL    HW1 4991   4.309   4.365   0.138
 1364SOL    HW2 4992   4.221   4.316   0.266
 1365SOL     OW 4993   0.749   3.775   6.427
 1365SOL    HW1 4994   0.691   3.695   6.440
 1365SOL    HW2 4995   0.845   3.748   6.436
 1366SOL     OW 4996   1.948   0.401   4.880
 1366SOL    HW1 4997   1.899   0.342   4.816
 1366SOL    HW2 4998   1.912   0.494   4.874
 1367SOL     OW 4999   1.903   1.198   2.418
 1367SOL    HW1 5000   1.899   1.298   2.414
 1367SOL    HW2 5001   1.897   1.169   2.514
 1368SOL     OW 5002   6.078   0.063   4.106
 1368SOL    HW1 5003   6.023   7.004   4.074
 1368SOL    HW2 5004   6.024   0.118   4.170
 1369SOL     OW 5005   0.562   0.575   3.268
 1369SOL    HW1 5006   0.516   0.658   3.298
 1369SOL    HW2 5007   0.584   0.518   3.348
 1370SOL     OW 5008   2.958   0.610   1.833
 1370SOL    HW1 5009   2.983   0.658   1.749
 1370SOL    HW2 5010   3.041   0.583   1.882
 1371SOL     OW 5011   3.412   0.236   5.786
 1371SOL    HW1 5012   3.405   0.225   5.687
 1371SOL    HW2 5013   3.327   0.207   5.829
 1372SOL     OW 5014   2.382   1.894   2.124
 1372SOL    HW1 5015   2.310   1.936   2.179
 1372SOL    HW2 5016   2.418   1.960   2.059
 1373SOL     OW 5017   0.702   5.247   1.313
 1373SOL    HW1 5018   0.800   5.259   1.322
 1373SOL    HW2 5019   0.660   5.334   1.286
 1374SOL     OW 5020   4.568   2.102   0.767
 1374SOL    HW1 5021   4.508   2.051   0.705
 1374SOL    HW2 5022   4.524   2.188   0.792
 1375SOL     OW 5023   0.305   4.429   6.206
 1375SOL    HW1 5024   0.274   4.519   6.235
 1375SOL    HW2 5025   0.292   4.362   6.279
 1376SOL     OW 5026   4.832   3.061   3.218
 1376SOL    HW1 5027   4.782   3.132   3.268
 1376SOL    HW2 5028   4.827   2.975   3.267
 1377SOL     OW 5029   6.717   5.161   5.380
 1377SOL    HW1 5030   6.698   5.251   5.339
 1377SOL    HW2 5031   6.766   5.174   5.466
 1378SOL     OW 5032   1.258   2.478   0.215
 1378SOL    HW1 5033   1.329   2.544   0.240
 1378SOL    HW2 5034   1.293   2.385   0.226
 1379SOL     OW 5035   3.981   6.845   2.629
 1379SOL    HW1 5036   3.881   6.851   2.625
 1379SOL    HW2 5037   4.011   6.854   2.724
 1380SOL     OW 5038   6.383   0.379   2.377
 1380SOL    HW1 5039   6.451   0.340   2.314
 1380SOL    HW2 5040   6.374   0.477   2.358
 1381SOL     OW 5041   6.449   2.236   0.769
 1381SOL    HW1 5042   6.515   2.296   0.814
 1381SOL    HW2 5043   6.446   2.148   0.817
 1382SOL     OW 5044   5.450   4.737   6.274
 1382SOL    HW1 5045   5.422   4.758   6.181
 1382SOL    HW2 5046   5.369   4.725   6.332
 1383SOL     OW 5047   2.275   0.245   0.568
 1383SOL    HW1 5048   2.179   0.228   0.590
 1383SOL    HW2 5049   2.311   0.167   0.518
 1384SOL     OW 5050   3.121   2.034   2.701
 1384SOL    HW1 5051   3.064   2.084   2.637
 1384SOL    HW2 5052   3.196   1.989   2.651
 1385SOL     OW 5053   6.809   3.281   3.223
 1385SOL    HW1 5054   6.860   3.359   3.258
 1385SOL    HW2 5055   6.767   3.232   3.299
 1386SOL     OW 5056   1.907   2.698   4.093
 1386SOL    HW1 5057   1.826   2.732   4.046
 1386SOL    HW2 5058   1.909   2.733   4.187
 1387SOL     OW 5059   2.469   7.007   5.057
 1387SOL    HW1 5060   2.512   0.075   5.032
 1387SOL    HW2 5061   2.378   0.007   5.095
 1388SOL     OW 5062   6.235   0.902   4.082
 1388SOL    HW1 5063   6.303   0.849   4.132
 1388SOL    HW2 5064   6.155   0.844   4.062
 1389SOL     OW 5065   5.649   0.112   4.428
 1389SOL    HW1 5066   5.684   0.046   4.494
 1389SOL    HW2 5067   5.610   0.065   4.349
 1390SOL     OW 5068   4.839   2.387   2.217
 1390SOL    HW1 5069   4.826   2.484   2.200
 1390SOL    HW2 5070   4.834   2.370   2.316
 1391SOL     OW 5071   5.069   0.692   4.705
 1391SOL    HW1 5072   5.051   0.618   4.640
 1391SOL    HW2 5073   5.020   0.675   4.790
 1392SOL     OW 5074   5.042   5.782   6.728
 1392SOL    HW1 5075   5.118   5.746   6.781
 1392SOL    HW2 5076   5.063   5.876   6.699
 1393SOL     OW 5077   6.583   1.050   6.472
 1393SOL    HW1 5078   6.654   1.031   6.539
 1393SOL    HW2 5079   6.523   0.970   6.462
 1394SOL     OW 5080   4.587   6.836   3.990
 1394SOL    HW1 5081   4.577   6.747   3.946
 1394SOL    HW2 5082   4.541   6.836   4.078
 1395SOL     OW 5083   1.327   4.901   2.215
 1395SOL    HW1 5084   1.365   4.858   2.134
 1395SOL    HW2 5085   1.228   4.912   2.204
 1396SOL     OW 5086   1.937   1.273   3.972
 1396SOL    HW1 5087   1.956   1.218   4.053
 1396SOL    HW2 5088   1.987   1.236   3.893
 1397SOL     OW 5089   0.354   5.465   4.099
 1397SOL    HW1 5090   0.425   5.409   4.143
 1397SOL    HW2 5091   0.365   5.461   4.000
 1398SOL     OW 5092   0.809   0.828   0.937
 1398SOL    HW1 5093   0.907   0.823   0.954
 1398SOL    HW2 5094   0.775   0.918   0.966
 1399SOL     OW 5095   4.094   0.140   0.070
 1399SOL    HW1 5096   4.026   0.066   0.068
 1399SOL    HW2 5097   4.177   0.111   0.023
 1400SOL     OW 5098   5.955   0.092   4.805
 1400SOL    HW1 5099   5.987   0.174   4.758
 1400SOL    HW2 5100   6.033   0.039   4.837
 1401SOL     OW 5101   5.264   0.472   3.429
 1401SOL    HW1 5102   5.355   0.487   3.391
 1401SOL    HW2 5103   5.205   0.431   3.358
 1402SOL     OW 5104   6.661   4.510   2.035
 1402SOL    HW1 5105   6.600   4.477   2.107
 1402SOL    HW2 5106   6.739   4.557   2.077
 1403SOL     OW 5107   2.942   2.973   6.726
 1403SOL    HW1 5108   2.986   3.028   6.654
 1403SOL    HW2 5109   2.857   3.017   6.753
 1404SOL     OW 5110   4.521   6.852   0.356
 1404SOL    HW1 5111   4.438   6.890   0.397
 1404SOL    HW2 5112   4.537   6.761   0.394
 1405SOL     OW 5113   1.464   3.002   0.788
 1405SOL    HW1 5114   1.373   3.021   0.825
 1405SOL    HW2 5115   1.477   3.052   0.702
 1406SOL     OW 5116   2.459   2.940   1.432
 1406SOL    HW1 5117   2.544   2.895   1.404
 1406SOL    HW2 5118   2.435   3.010   1.365
 1407SOL     OW 5119   0.431   3.007   0.923
 1407SOL    HW1 5120   0.342   2.985   0.963
 1407SOL    HW2 5121   0.446   3.106   0.929
 1408SOL     OW 5122   5.990   6.155   0.426
 1408SOL    HW1 5123   6.046   6.074   0.409
 1408SOL    HW2 5124   5.917   6.132   0.490
 1409SOL     OW 5125   6.765   1.781   5.906
 1409SOL    HW1 5126   6.817   1.799   5.823
 1409SOL    HW2 5127   6.778   1.857   5.971
 1410SOL     OW 5128   3.623   2.003   5.837
 1410SOL    HW1 5129   3.576   2.042   5.916
 1410SOL    HW2 5130   3.672   1.920   5.865
 1411SOL     OW 5131   3.939   4.999   0.073
 1411SOL    HW1 5132   3.899   4.987   0.164
 1411SOL    HW2 5133   3.883   4.951   0.005
 1412SOL     OW 5134   1.657   2.556   0.354
 1412SOL    HW1 5135   1.696   2.642   0.387
 1412SOL    HW2 5136   1.637   2.563   0.256
 1413SOL     OW 5137   1.817   1.804   5.401
 1413SOL    HW1 5138   1.840   1.710   5.426
 1413SOL    HW2 5139   1.767   1.848   5.476
 1414SOL     OW 5140   1.342   4.484   2.189
 1414SOL    HW1 5141   1.407   4.546   2.232
 1414SOL    HW2 5142   1.257   4.483   2.242
 1415SOL     OW 5143   1.941   1.855   4.347
 1415SOL    HW1 5144   1.879   1.883   4.274
 1415SOL    HW2 5145   1.942   1.755   4.352
 1416SOL     OW 5146   3.705   0.135   5.360
 1416SOL    HW1 5147   3.614   0.105   5.387
 1416SOL    HW2 5148   3.744   0.069   5.295
 1417SOL     OW 5149   3.660   3.222   6.166
 1417SOL    HW1 5150   3.654   3.145   6.102
 1417SOL    HW2 5151   3.640   3.307   6.117
 1418SOL     OW 5152   3.074   4.133   6.805
 1418SOL    HW1 5153   3.084   4.200   6.731
 1418SOL    HW2 5154   3.099   4.043   6.772
 1419SOL     OW 5155   1.932   4.623   2.515
 1419SOL    HW1 5156   2.029   4.599   2.510
 1419SOL    HW2 5157   1.883   4.577   2.440
 1420SOL     OW 5158   2.966   6.554   3.349
 1420SOL    HW1 5159   3.024   6.486   3.305
 1420SOL    HW2 5160   2.878   6.514   3.371
 1421SOL     OW 5161   1.465   4.901   5.951
 1421SOL    HW1 5162   1.421   4.811   5.948
 1421SOL    HW2 5163   1.493   4.928   5.859
 1422SOL     OW 5164   2.314   4.080   6.067
 1422SOL    HW1 5165   2.274   4.128   6.145
 1422SOL    HW2 5166   2.327   3.984   6.089
 1423SOL     OW 5167   4.226   0.576   5.293
 1423SOL    HW1 5168   4.141   0.571   5.241
 1423SOL    HW2 5169   4.213   0.637   5.371
 1424SOL     OW 5170   6.101   3.213   6.619
 1424SOL    HW1 5171   6.034   3.142   6.641
 1424SOL    HW2 5172   6.103   3.281   6.692
 1425SOL     OW 5173   4.934   6.527   3.552
 1425SOL    HW1 5174   4.838   6.551   3.564
 1425SOL    HW2 5175   4.987   6.609   3.531
 1426SOL     OW 5176   3.271   2.185   6.960
 1426SOL    HW1 5177   3.196   2.243   6.929
 1426SOL    HW2 5178   3.248   2.142   0.029
 1427SOL     OW 5179   1.526   1.180   3.625
 1427SOL    HW1 5180   1.490   1.088   3.637
 1427SOL    HW2 5181   1.545   1.221   3.715
 1428SOL     OW 5182   0.601   4.016   3.900
 1428SOL    HW1 5183   0.592   4.057   3.991
 1428SOL    HW2 5184   0.533   3.943   3.891
 1429SOL     OW 5185   5.939   1.034   0.783
 1429SOL    HW1 5186   5.981   1.022   0.873
 1429SOL    HW2 5187   5.989   1.104   0.732
 1430SOL     OW 5188   1.870   4.081   3.552
 1430SOL    HW1 5189   1.792   4.130   3.591
 1430SOL    HW2 5190   1.944   4.145   3.533
 1431SOL     OW 5191   2.455   0.872   6.028
 1431SOL    HW1 5192   2.471   0.884   6.126
 1431SOL    HW2 5193   2.412   0.954   5.990
 1432SOL     OW 5194   2.592   1.485   2.259
 1432SOL    HW1 5195   2.570   1.405   2.314
 1432SOL    HW2 5196   2.653   1.546   2.310
 1433SOL     OW 5197   2.641   0.039   3.784
 1433SOL    HW1 5198   2.662   0.104   3.857
 1433SOL    HW2 5199   2.702   0.054   3.706
 1434SOL     OW 5200   0.192   3.199   0.582
 1434SOL    HW1 5201   0.112   3.159   0.537
 1434SOL    HW2 5202   0.261   3.128   0.596
 1435SOL     OW 5203   1.241   6.902   4.186
 1435SOL    HW1 5204   1.276   6.811   4.165
 1435SOL    HW2 5205   1.143   6.896   4.206
 1436SOL     OW 5206   5.405   1.898   6.829
 1436SOL    HW1 5207   5.444   1.989   6.821
 1436SOL    HW2 5208   5.342   1.895   6.907
 1437SOL     OW 5209   4.025   0.234   6.222
 1437SOL    HW1 5210   3.935   0.224   6.179
 1437SOL    HW2 5211   4.077   0.304   6.173
 1438SOL     OW 5212   2.609   0.027   2.291
 1438SOL    HW1 5213   2.685   6.981   2.290
 1438SOL    HW2 5214   2.604   0.075   2.203
 1439SOL     OW 5215   0.528   5.128   6.965
 1439SOL    HW1 5216   0.548   5.164   0.038
 1439SOL    HW2 5217   0.551   5.031   6.962
 1440SOL     OW 5218   3.278   3.127   3.286
 1440SOL    HW1 5219   3.263   3.142   3.188
 1440SOL    HW2 5220   3.321   3.038   3.300
 1441SOL     OW 5221   6.090   2.941   3.667
 1441SOL    HW1 5222   6.123   3.034   3.687
 1441SOL    HW2 5223   6.001   2.946   3.623
 1442SOL     OW 5224   4.920   4.566   0.056
 1442SOL    HW1 5225   4.978   4.624   0.112
 1442SOL    HW2 5226   4.921   4.599   6.980
 1443SOL     OW 5227   0.540   2.762   2.671
 1443SOL    HW1 5228   0.522   2.678   2.620
 1443SOL    HW2 5229   0.492   2.758   2.759
 1444SOL     OW 5230   4.485   1.088   3.670
 1444SOL    HW1 5231   4.507   1.169   3.725
 1444SOL    HW2 5232   4.469   1.116   3.575
 1445SOL     OW 5233   6.204   1.963   1.353
 1445SOL    HW1 5234   6.188   2.056   1.321
 1445SOL    HW2 5235   6.196   1.899   1.277
 1446SOL     OW 5236   4.613   0.889   1.382
 1446SOL    HW1 5237   4.526   0.865   1.426
 1446SOL    HW2 5238   4.660   0.805   1.355
 1447SOL     OW 5239   6.590   0.787   5.176
 1447SOL    HW1 5240   6.537   0.866   5.206
 1447SOL    HW2 5241   6.586   0.780   5.077
 1448SOL     OW 5242   5.436   0.676   6.538
 1448SOL    HW1 5243   5.461   0.666   6.635
 1448SOL    HW2 5244   5.517   0.657   6.482
 1449SOL     OW 5245   4.806   5.917   1.133
 1449SOL    HW1 5246   4.837   5.966   1.215
 1449SOL    HW2 5247   4.827   5.972   1.052
 1450SOL     OW 5248   5.543   2.990   3.246
 1450SOL    HW1 5249   5.622   3.021   3.194
 1450SOL    HW2 5250   5.459   3.007   3.194
 1451SOL     OW 5251   1.412   6.149   2.984
 1451SOL    HW1 5252   1.348   6.095   2.928
 1451SOL    HW2 5253   1.487   6.090   3.014
 1452SOL     OW 5254   4.479   1.193   5.453
 1452SOL    HW1 5255   4.432   1.140   5.524
 1452SOL    HW2 5256   4.411   1.241   5.397
 1453SOL     OW 5257   5.413   4.864   5.429
 1453SOL    HW1 5258   5.467   4.904   5.355
 1453SOL    HW2 5259   5.468   4.795   5.477
 1454SOL     OW 5260   4.176   4.150   1.107
 1454SOL    HW1 5261   4.247   4.082   1.125
 1454SOL    HW2 5262   4.136   4.133   1.017
 1455SOL     OW 5263   1.821   2.249   1.380
 1455SOL    HW1 5264   1.756   2.324   1.389
 1455SOL    HW2 5265   1.775   2.162   1.398
 1456SOL     OW 5266   6.062   6.112   3.538
 1456SOL    HW1 5267   6.030   6.203   3.567
 1456SOL    HW2 5268   6.076   6.054   3.618
 1457SOL     OW 5269   1.110   0.505   3.256
 1457SOL    HW1 5270   1.168   0.430   3.285
 1457SOL    HW2 5271   1.158   0.561   3.188
 1458SOL     OW 5272   5.520   5.404   6.747
 1458SOL    HW1 5273   5.543   5.328   6.809
 1458SOL    HW2 5274   5.579   5.401   6.667
 1459SOL     OW 5275   2.190   0.104   6.925
 1459SOL    HW1 5276   2.193   0.008   6.953
 1459SOL    HW2 5277   2.264   0.122   6.860
 1460SOL     OW 5278   1.524   0.351   0.236
 1460SOL    HW1 5279   1.477   0.328   0.322
 1460SOL    HW2 5280   1.533   0.450   0.229
 1461SOL     OW 5281   5.560   4.512   1.584
 1461SOL    HW1 5282   5.620   4.569   1.641
 1461SOL    HW2 5283   5.585   4.522   1.488
 1462SOL     OW 5284   6.080   0.842   6.363
 1462SOL    HW1 5285   6.161   0.829   6.306
 1462SOL    HW2 5286   5.998   0.845   6.306
 1463SOL     OW 5287   0.495   1.423   5.047
 1463SOL    HW1 5288   0.570   1.357   5.049
 1463SOL    HW2 5289   0.520   1.504   5.100
 1464SOL     OW 5290   0.363   6.253   0.866
 1464SOL    HW1 5291   0.412   6.244   0.952
 1464SOL    HW2 5292   0.343   6.349   0.848
 1465SOL     OW 5293   6.896   6.498   4.777
 1465SOL    HW1 5294   6.993   6.516   4.796
 1465SOL    HW2 5295   6.883   6.489   4.679
 1466SOL     OW 5296   5.423   5.226   3.696
 1466SOL    HW1 5297   5.410   5.161   3.771
 1466SOL    HW2 5298   5.515   5.215   3.658
 1467SOL     OW 5299   0.726   2.546   3.099
 1467SOL    HW1 5300   0.681   2.522   3.014
 1467SOL    HW2 5301   0.797   2.479   3.119
 1468SOL     OW 5302   5.725   5.815   3.407
 1468SOL    HW1 5303   5.627   5.833   3.413
 1468SOL    HW2 5304   5.772   5.894   3.369
 1469SOL     OW 5305   0.616   1.377   2.953
 1469SOL    HW1 5306   0.677   1.317   2.902
 1469SOL    HW2 5307   0.626   1.471   2.919
 1470SOL     OW 5308   0.209   1.493   3.364
 1470SOL    HW1 5309   0.118   1.512   3.400
 1470SOL    HW2 5310   0.202   1.438   3.281
 1471SOL     OW 5311   0.326   6.881   6.931
 1471SOL    HW1 5312   0.402   6.924   6.981
 1471SOL    HW2 5313   0.244   6.882   6.988
 1472SOL     OW 5314   3.853   0.779   5.679
 1472SOL    HW1 5315   3.945   0.802   5.712
 1472SOL    HW2 5316   3.789   0.783   5.756
 1473SOL     OW 5317   6.389   3.977   3.763
 1473SOL    HW1 5318   6.334   3.904   3.722
 1473SOL    HW2 5319   6.417   4.042   3.692
 1474SOL     OW 5320   4.590   5.700   3.807
 1474SOL    HW1 5321   4.571   5.750   3.723
 1474SOL    HW2 5322   4.656   5.627   3.789
 1475SOL     OW 5323   0.430   1.028   2.286
 1475SOL    HW1 5324   0.373   1.072   2.355
 1475SOL    HW2 5325   0.432   1.085   2.203
 1476SOL     OW 5326   6.444   1.765   2.325
 1476SOL    HW1 5327   6.509   1.720   2.263
 1476SOL    HW2 5328   6.484   1.851   2.358
 1477SOL     OW 5329   2.397   5.792   3.981
 1477SOL    HW1 5330   2.325   5.856   4.004
 1477SOL    HW2 5331   2.478   5.842   3.951
 1478SOL     OW 5332   6.378   4.244   1.297
 1478SOL    HW1 5333   6.342   4.166   1.349
 1478SOL    HW2 5334   6.455   4.284   1.346
 1479SOL     OW 5335   1.718   4.765   0.904
 1479SOL    HW1 5336   1.621   4.756   0.929
 1479SOL    HW2 5337   1.751   4.855   0.931
 1480SOL     OW 5338   2.681   1.264   0.043
 1480SOL    HW1 5339   2.683   1.345   0.102
 1480SOL    HW2 5340   2.616   1.279   6.986
 1481SOL     OW 5341   5.988   2.696   6.321
 1481SOL    HW1 5342   5.937   2.667   6.402
 1481SOL    HW2 5343   6.059   2.761   6.347
 1482SOL     OW 5344   6.438   0.686   6.315
 1482SOL    HW1 5345   6.490   0.603   6.334
 1482SOL    HW2 5346   6.435   0.742   6.398
 1483SOL     OW 5347   6.072   1.839   0.124
 1483SOL    HW1 5348   6.160   1.865   0.083
 1483SOL    HW2 5349   6.084   1.823   0.222
 1484SOL     OW 5350   6.357   5.248   2.338
 1484SOL    HW1 5351   6.444   5.292   2.314
 1484SOL    HW2 5352   6.350   5.239   2.437
 1485SOL     OW 5353   4.961   2.753   3.957
 1485SOL    HW1 5354   4.893   2.770   4.029
 1485SOL    HW2 5355   5.012   2.670   3.978
 1486SOL     OW 5356   4.799   2.037   2.213
 1486SOL    HW1 5357   4.707   2.075   2.205
 1486SOL    HW2 5358   4.830   2.006   2.123
 1487SOL     OW 5359   6.270   1.263   5.546
 1487SOL    HW1 5360   6.323   1.199   5.600
 1487SOL    HW2 5361   6.304   1.356   5.561
 1488SOL     OW 5362   4.348   1.754   3.113
 1488SOL    HW1 5363   4.290   1.696   3.056
 1488SOL    HW2 5364   4.290   1.816   3.166
 1489SOL     OW 5365   4.033   5.805   5.029
 1489SOL    HW1 5366   4.098   5.745   5.076
 1489SOL    HW2 5367   4.008   5.880   5.090
 1490SOL     OW 5368   1.721   2.877   0.136
 1490SOL    HW1 5369   1.716   2.878   0.236
 1490SOL    HW2 5370   1.728   2.783   0.104
 1491SOL     OW 5371   0.315   2.994   4.372
 1491SOL    HW1 5372   0.356   2.904   4.380
 1491SOL    HW2 5373   0.318   3.041   4.460
 1492SOL     OW 5374   5.032   2.181   1.962
 1492SOL    HW1 5375   5.119   2.192   1.914
 1492SOL    HW2 5376   5.037   2.226   2.051
 1493SOL     OW 5377   5.027   1.002   5.316
 1493SOL    HW1 5378   5.122   0.984   5.294
 1493SOL    HW2 5379   4.990   0.927   5.371
 1494SOL     OW 5380   4.694   2.881   6.063
 1494SOL    HW1 5381   4.786   2.894   6.101
 1494SOL    HW2 5382   4.660   2.791   6.090
 1495SOL     OW 5383   1.754   3.185   2.396
 1495SOL    HW1 5384   1.754   3.187   2.496
 1495SOL    HW2 5385   1.842   3.218   2.361
 1496SOL     OW 5386   0.489   0.364   2.285
 1496SOL    HW1 5387   0.440   0.281   2.261
 1496SOL    HW2 5388   0.571   0.341   2.338
 1497SOL     OW 5389   6.196   5.649   5.000
 1497SOL    HW1 5390   6.158   5.556   4.997
 1497SOL    HW2 5391   6.145   5.707   4.937
 1498SOL     OW 5392   2.884   6.294   0.383
 1498SOL    HW1 5393   2.862   6.251   0.295
 1498SOL    HW2 5394   2.924   6.384   0.367
 1499SOL     OW 5395   0.808   4.093   5.728
 1499SOL    HW1 5396   0.880   4.028   5.701
 1499SOL    HW2 5397   0.719   4.050   5.718
 1500SOL     OW 5398   5.068   0.407   6.290
 1500SOL    HW1 5399   5.149   0.457   6.321
 1500SOL    HW2 5400   4.987   0.445   6.334
 1501SOL     OW 5401   3.909   6.608   6.145
 1501SOL    HW1 5402   3.952   6.697   6.162
 1501SOL    HW2 5403   3.836   6.594   6.212
 1502SOL     OW 5404   6.408   6.295   0.360
 1502SOL    HW1 5405   6.500   6.277   0.325
 1502SOL    HW2 5406   6.341   6.244   0.306
 1503SOL     OW 5407   3.646   2.997   6.009
 1503SOL    HW1 5408   3.603   3.052   5.937
 1503SOL    HW2 5409   3.688   2.916   5.968
 1504SOL     OW 5410   3.235   6.013   4.918
 1504SOL    HW1 5411   3.218   5.942   4.850
 1504SOL    HW2 5412   3.230   5.974   5.010
 1505SOL     OW 5413   5.199   5.520   0.336
 1505SOL    HW1 5414   5.154   5.601   0.298
 1505SOL    HW2 5415   5.235   5.541   0.427
 1506SOL     OW 5416   0.759   5.988   4.267
 1506SOL    HW1 5417   0.777   6.084   4.245
 1506SOL    HW2 5418   0.738   5.938   4.183
 1507SOL     OW 5419   1.912   1.932   6.255
 1507SOL    HW1 5420   1.944   2.024   6.233
 1507SOL    HW2 5421   1.862   1.894   6.177
 1508SOL     OW 5422   5.442   0.025   0.241
 1508SOL    HW1 5423   5.453   7.014   0.336
 1508SOL    HW2 5424   5.450   0.125   0.236
 1509SOL     OW 5425   4.814   1.936   0.394
 1509SOL    HW1 5426   4.842   2.026   0.425
 1509SOL    HW2 5427   4.716   1.924   0.411
 1510SOL     OW 5428   6.589   1.944   4.039
 1510SOL    HW1 5429   6.581   1.897   4.127
 1510SOL    HW2 5430   6.659   1.899   3.984
 1511SOL     OW 5431   1.769   2.424   0.588
 1511SOL    HW1 5432   1.751   2.447   0.492
 1511SOL    HW2 5433   1.690   2.450   0.643
 1512SOL     OW 5434   6.922   0.673   1.876
 1512SOL    HW1 5435   6.915   0.730   1.958
 1512SOL    HW2 5436   6.939   0.731   1.796
 1513SOL     OW 5437   3.485   0.632   2.571
 1513SOL    HW1 5438   3.411   0.565   2.584
 1513SOL    HW2 5439   3.549   0.625   2.647
 1514SOL     OW 5440   5.080   1.661   5.278
 1514SOL    HW1 5441   5.115   1.570   5.301
 1514SOL    HW2 5442   5.092   1.677   5.180
 1515SOL     OW 5443   0.110   4.655   4.217
 1515SOL    HW1 5444   0.117   4.751   4.192
 1515SOL    HW2 5445   0.051   4.607   4.153
 1516SOL     OW 5446   1.033   1.281   0.596
 1516SOL    HW1 5447   1.107   1.330   0.550
 1516SOL    HW2 5448   0.949   1.289   0.541
 1517SOL     OW 5449   4.175   6.042   3.272
 1517SOL    HW1 5450   4.225   6.024   3.357
 1517SOL    HW2 5451   4.162   5.956   3.222
 1518SOL     OW 5452   0.755   4.480   1.016
 1518SOL    HW1 5453   0.736   4.530   1.100
 1518SOL    HW2 5454   0.853   4.467   1.006
 1519SOL     OW 5455   6.373   4.392   0.678
 1519SOL    HW1 5456   6.336   4.313   0.629
 1519SOL    HW2 5457   6.308   4.468   0.673
 1520SOL     OW 5458   1.230   3.767   3.039
 1520SOL    HW1 5459   1.323   3.750   3.005
 1520SOL    HW2 5460   1.216   3.866   3.050
 1521SOL     OW 5461   2.843   3.821   6.756
 1521SOL    HW1 5462   2.853   3.846   6.659
 1521SOL    HW2 5463   2.750   3.788   6.772
 1522SOL     OW 5464   6.625   2.185   6.956
 1522SOL    HW1 5465   6.673   2.242   0.004
 1522SOL    HW2 5466   6.534   2.222   6.940
 1523SOL     OW 5467   0.500   1.743   1.082
 1523SOL    HW1 5468   0.404   1.723   1.061
 1523SOL    HW2 5469   0.541   1.664   1.128
 1524SOL     OW 5470   0.056   0.704   2.410
 1524SOL    HW1 5471   0.114   0.751   2.476
 1524SOL    HW2 5472   7.006   0.649   2.458
 1525SOL     OW 5473   4.449   2.141   6.315
 1525SOL    HW1 5474   4.383   2.207   6.352
 1525SOL    HW2 5475   4.408   2.095   6.236
 1526SOL     OW 5476   6.798   2.117   1.802
 1526SOL    HW1 5477   6.850   2.202   1.792
 1526SOL    HW2 5478   6.721   2.132   1.863
 1527SOL     OW 5479   3.284   1.810   5.934
 1527SOL    HW1 5480   3.332   1.820   5.847
 1527SOL    HW2 5481   3.201   1.866   5.933
 1528SOL     OW 5482   4.932   6.339   3.347
 1528SOL    HW1 5483   4.905   6.250   3.383
 1528SOL    HW2 5484   4.951   6.401   3.423
 1529SOL     OW 5485   3.306   0.448   6.075
 1529SOL    HW1 5486   3.241   0.417   6.006
 1529SOL    HW2 5487   3.399   0.440   6.039
 1530SOL     OW 5488   3.884   6.297   1.795
 1530SOL    HW1 5489   3.856   6.257   1.882
 1530SOL    HW2 5490   3.815   6.364   1.765
 1531SOL     OW 5491   6.743   6.909   4.809
 1531SOL    HW1 5492   6.782   6.851   4.737
 1531SOL    HW2 5493   6.644   6.894   4.813
 1532SOL     OW 5494   3.096   1.950   5.280
 1532SOL    HW1 5495   3.135   1.984   5.366
 1532SOL    HW2 5496   3.007   1.992   5.265
 1533SOL     OW 5497   6.195   2.593   0.051
 1533SOL    HW1 5498   6.148   2.593   6.981
 1533SOL    HW2 5499   6.293   2.609   0.037
 1534SOL     OW 5500   6.886   6.141   1.274
 1534SOL    HW1 5501   6.965   6.194   1.301
 1534SOL    HW2 5502   6.803   6.180   1.315
 1535SOL     OW 5503   3.984   5.531   3.988
 1535SOL    HW1 5504   4.054   5.523   3.917
 1535SOL    HW2 5505   3.993   5.455   4.053
 1536SOL     OW 5506   2.856   6.200   5.034
 1536SOL    HW1 5507   2.929   6.236   4.977
 1536SOL    HW2 5508   2.895   6.156   5.115
 1537SOL     OW 5509   1.703   5.535   4.318
 1537SOL    HW1 5510   1.679   5.454   4.265
 1537SOL    HW2 5511   1.623   5.595   4.326
 1538SOL     OW 5512   2.113   5.673   6.671
 1538SOL    HW1 5513   2.109   5.768   6.640
 1538SOL    HW2 5514   2.040   5.657   6.737
 1539SOL     OW 5515   3.537   4.849   1.634
 1539SOL    HW1 5516   3.453   4.897   1.661
 1539SOL    HW2 5517   3.558   4.778   1.700
 1540SOL     OW 5518   0.453   6.693   4.885
 1540SOL    HW1 5519   0.408   6.682   4.796
 1540SOL    HW2 5520   0.486   6.605   4.917
 1541SOL     OW 5521   5.153   2.392   0.967
 1541SOL    HW1 5522   5.125   2.426   0.877
 1541SOL    HW2 5523   5.111   2.302   0.983
 1542SOL     OW 5524   0.956   6.563   1.078
 1542SOL    HW1 5525   0.930   6.658   1.096
 1542SOL    HW2 5526   0.924   6.536   0.987
 1543SOL     OW 5527   3.005   3.904   3.990
 1543SOL    HW1 5528   2.981   3.897   4.087
 1543SOL    HW2 5529   3.088   3.959   3.980
 1544SOL     OW 5530   3.472   4.151   2.783
 1544SOL    HW1 5531   3.428   4.146   2.693
 1544SOL    HW2 5532   3.569   4.132   2.774
 1545SOL     OW 5533   5.685   0.195   4.812
 1545SOL    HW1 5534   5.780   0.162   4.808
 1545SOL    HW2 5535   5.623   0.116   4.809
 1546SOL     OW 5536   0.663   6.494   6.065
 1546SOL    HW1 5537   0.648   6.438   6.146
 1546SOL    HW2 5538   0.669   6.435   5.984
 1547SOL     OW 5539   3.381   6.201   0.551
 1547SOL    HW1 5540   3.438   6.250   0.484
 1547SOL    HW2 5541   3.432   6.192   0.637
 1548SOL     OW 5542   5.546   4.231   4.568
 1548SOL    HW1 5543   5.510   4.320   4.595
 1548SOL    HW2 5544   5.548   4.224   4.468
 1549SOL     OW 5545   6.954   1.758   1.064
 1549SOL    HW1 5546   6.944   1.666   1.103
 1549SOL    HW2 5547   7.001   1.817   1.130
 1550SOL     OW 5548   2.429   6.062   4.517
 1550SOL    HW1 5549   2.426   6.051   4.616
 1550SOL    HW2 5550   2.379   6.146   4.492
 1551SOL     OW 5551   1.962   1.966   0.596
 1551SOL    HW1 5552   1.907   2.042   0.631
 1551SOL    HW2 5553   1.918   1.928   0.515
 1552SOL     OW 5554   1.010   0.567   0.510
 1552SOL    HW1 5555   1.079   0.603   0.447
 1552SOL    HW2 5556   1.005   0.468   0.502
 1553SOL     OW 5557   5.984   1.357   6.234
 1553SOL    HW1 5558   5.884   1.360   6.231
 1553SOL    HW2 5559   6.013   1.274   6.281
 1554SOL     OW 5560   3.401   1.703   1.818
 1554SOL    HW1 5561   3.482   1.759   1.837
 1554SOL    HW2 5562   3.420   1.608   1.842
 1555SOL     OW 5563   4.104   1.646   5.776
 1555SOL    HW1 5564   4.093   1.744   5.789
 1555SOL    HW2 5565   4.090   1.598   5.863
 1556SOL     OW 5566   3.498   1.524   0.971
 1556SOL    HW1 5567   3.411   1.569   0.987
 1556SOL    HW2 5568   3.488   1.425   0.987
 1557SOL     OW 5569   2.180   1.763   0.723
 1557SOL    HW1 5570   2.146   1.856   0.710
 1557SOL    HW2 5571   2.273   1.757   0.688
 1558SOL     OW 5572   6.632   3.394   6.333
 1558SOL    HW1 5573   6.611   3.330   6.259
 1558SOL    HW2 5574   6.553   3.453   6.349
 1559SOL     OW 5575   1.764   4.767   3.228
 1559SOL    HW1 5576   1.763   4.804   3.321
 1559SOL    HW2 5577   1.703   4.689   3.223
 1560SOL     OW 5578   4.034   1.511   1.525
 1560SOL    HW1 5579   4.118   1.455   1.528
 1560SOL    HW2 5580   3.964   1.468   1.581
 1561SOL     OW 5581   6.387   5.827   1.225
 1561SOL    HW1 5582   6.472   5.877   1.207
 1561SOL    HW2 5583   6.372   5.820   1.323
 1562SOL     OW 5584   3.829   6.550   2.111
 1562SOL    HW1 5585   3.837   6.566   2.210
 1562SOL    HW2 5586   3.913   6.578   2.066
 1563SOL     OW 5587   4.110   2.186   4.366
 1563SOL    HW1 5588   4.194   2.213   4.414
 1563SOL    HW2 5589   4.107   2.231   4.277
 1564SOL     OW 5590   1.598   2.222   2.869
 1564SOL    HW1 5591   1.627   2.293   2.933
 1564SOL    HW2 5592   1.505   2.244   2.836
 1565SOL     OW 5593   3.865   1.104   5.027
 1565SOL    HW1 5594   3.823   1.094   5.117
 1565SOL    HW2 5595   3.964   1.093   5.036
 1566SOL     OW 5596   4.547   4.754   3.257
 1566SOL    HW1 5597   4.531   4.670   3.205
 1566SOL    HW2 5598   4.464   4.777   3.307
 1567SOL     OW 5599   5.237   6.783   4.676
 1567SOL    HW1 5600   5.176   6.862   4.670
 1567SOL    HW2 5601   5.241   6.751   4.771
 1568SOL     OW 5602   2.673   5.441   2.320
 1568SOL    HW1 5603   2.734   5.362   2.321
 1568SOL    HW2 5604   2.578   5.410   2.321
 1569SOL     OW 5605   2.853   0.281   3.209
 1569SOL    HW1 5606   2.946   0.290   3.244
 1569SOL    HW2 5607   2.788   0.280   3.286
 1570SOL     OW 5608   3.475   6.848   6.876
 1570SOL    HW1 5609   3.528   6.871   6.957
 1570SOL    HW2 5610   3.535   6.847   6.796
 1571SOL     OW 5611   0.621   2.326   4.449
 1571SOL    HW1 5612   0.656   2.353   4.539
 1571SOL    HW2 5613   0.558   2.396   4.415
 1572SOL     OW 5614   1.718   5.175   1.752
 1572SOL    HW1 5615   1.644   5.151   1.815
 1572SOL    HW2 5616   1.702   5.133   1.663
 1573SOL     OW 5617   5.111   5.110   0.133
 1573SOL    HW1 5618   5.024   5.061   0.126
 1573SOL    HW2 5619   5.096   5.197   0.181
 1574SOL     OW 5620   6.885   3.459   2.954
 1574SOL    HW1 5621   6.832   3.421   2.878
 1574SOL    HW2 5622   6.976   3.418   2.956
 1575SOL     OW 5623   0.285   1.005   0.612
 1575SOL    HW1 5624   0.205   0.960   0.571
 1575SOL    HW2 5625   0.315   1.079   0.553
 1576SOL     OW 5626   0.195   0.379   2.486
 1576SOL    HW1 5627   0.164   0.439   2.560
 1576SOL    HW2 5628   0.192   0.428   2.399
 1577SOL     OW 5629   4.588   6.244   5.215
 1577SOL    HW1 5630   4.533   6.323   5.243
 1577SOL    HW2 5631   4.637   6.266   5.131
 1578SOL     OW 5632   4.976   0.612   0.294
 1578SOL    HW1 5633   4.940   0.635   0.385
 1578SOL    HW2 5634   4.920   0.655   0.224
 1579SOL     OW 5635   1.503   2.259   1.349
 1579SOL    HW1 5636   1.554   2.345   1.341
 1579SOL    HW2 5637   1.534   2.194   1.280
 1580SOL     OW 5638   3.185   3.647   2.554
 1580SOL    HW1 5639   3.116   3.711   2.520
 1580SOL    HW2 5640   3.271   3.663   2.505
 1581SOL     OW 5641   6.634   4.495   5.724
 1581SOL    HW1 5642   6.549   4.470   5.678
 1581SOL    HW2 5643   6.640   4.449   5.813
 1582SOL     OW 5644   4.500   6.519   5.243
 1582SOL    HW1 5645   4.483   6.569   5.328
 1582SOL    HW2 5646   4.536   6.582   5.174
 1583SOL     OW 5647   1.174   5.835   4.989
 1583SOL    HW1 5648   1.217   5.754   5.029
 1583SOL    HW2 5649   1.201   5.916   5.041
 1584SOL     OW 5650   0.125   4.998   6.946
 1584SOL    HW1 5651   0.104   4.991   6.849
 1584SOL    HW2 5652   0.212   4.952   6.965
 1585SOL     OW 5653   3.892   0.043   2.977
 1585SOL    HW1 5654   3.896   0.137   3.011
 1585SOL    HW2 5655   3.823   0.036   2.905
 1586SOL     OW 5656   2.705   4.632   3.785
 1586SOL    HW1 5657   2.616   4.677   3.781
 1586SOL    HW2 5658   2.743   4.641   3.877
 1587SOL     OW 5659   2.075   6.095   5.352
 1587SOL    HW1 5660   2.167   6.067   5.325
 1587SOL    HW2 5661   2.012   6.019   5.338
 1588SOL     OW 5662   6.056   0.899   2.619
 1588SOL    HW1 5663   6.040   0.818   2.677
 1588SOL    HW2 5664   6.010   0.978   2.659
 1589SOL     OW 5665   5.988   4.701   4.276
 1589SOL    HW1 5666   6.075   4.749   4.287
 1589SOL    HW2 5667   5.953   4.717   4.184
 1590SOL     OW 5668   6.399   2.610   3.848
 1590SOL    HW1 5669   6.355   2.685   3.896
 1590SOL    HW2 5670   6.496   2.631   3.834
 1591SOL     OW 5671   0.682   6.465   2.042
 1591SOL    HW1 5672   0.706   6.368   2.036
 1591SOL    HW2 5673   0.594   6.480   1.998
 1592SOL     OW 5674   0.660   3.901   6.907
 1592SOL    HW1 5675   0.689   3.953   6.827
 1592SOL    HW2 5676   0.575   3.940   6.943
 1593SOL     OW 5677   2.304   0.458   6.967
 1593SOL    HW1 5678   2.213   0.419   6.956
 1593SOL    HW2 5679   2.300   0.557   6.950
 1594SOL     OW 5680   6.384   0.423   2.037
 1594SOL    HW1 5681   6.428   0.336   2.057
 1594SOL    HW2 5682   6.291   0.424   2.075
 1595SOL     OW 5683   1.177   4.252   6.474
 1595SOL    HW1 5684   1.144   4.270   6.381
 1595SOL    HW2 5685   1.156   4.331   6.532
 1596SOL     OW 5686   5.136   4.758   2.301
 1596SOL    HW1 5687   5.144   4.659   2.303
 1596SOL    HW2 5688   5.054   4.786   2.352
 1597SOL     OW 5689   3.918   6.625   6.772
 1597SOL    HW1 5690   3.939   6.723   6.779
 1597SOL    HW2 5691   3.986   6.580   6.715
 1598SOL     OW 5692   2.046   5.587   0.100
 1598SOL    HW1 5693   1.960   5.567   0.147
 1598SOL    HW2 5694   2.123   5.560   0.158
 1599SOL     OW 5695   4.597   5.248   4.185
 1599SOL    HW1 5696   4.565   5.232   4.092
 1599SOL    HW2 5697   4.521   5.281   4.241
 1600SOL     OW 5698   3.939   0.713   2.727
 1600SOL    HW1 5699   4.031   0.720   2.767
 1600SOL    HW2 5700   3.940   0.750   2.634
 1601SOL     OW 5701   6.340   6.613   4.344
 1601SOL    HW1 5702   6.246   6.610   4.311
 1601SOL    HW2 5703   6.403   6.602   4.267
 1602SOL     OW 5704   3.848   5.254   3.719
 1602SOL    HW1 5705   3.823   5.260   3.622
 1602SOL    HW2 5706   3.936   5.208   3.728
 1603SOL     OW 5707   2.832   5.676   3.219
 1603SOL    HW1 5708   2.753   5.721   3.258
 1603SOL    HW2 5709   2.803   5.614   3.146
 1604SOL     OW 5710   4.018   5.192   1.962
 1604SOL    HW1 5711   3.922   5.171   1.981
 1604SOL    HW2 5712   4.024   5.251   1.882
 1605SOL     OW 5713   5.005   5.378   1.382
 1605SOL    HW1 5714   5.037   5.441   1.311
 1605SOL    HW2 5715   4.930   5.322   1.345
 1606SOL     OW 5716   4.194   6.543   4.852
 1606SOL    HW1 5717   4.248   6.498   4.781
 1606SOL    HW2 5718   4.190   6.641   4.835
 1607SOL     OW 5719   4.121   5.841   2.906
 1607SOL    HW1 5720   4.167   5.930   2.905
 1607SOL    HW2 5721   4.058   5.835   2.829
 1608SOL     OW 5722   6.493   0.939   3.213
 1608SOL    HW1 5723   6.464   0.940   3.309
 1608SOL    HW2 5724   6.443   0.867   3.165
 1609SOL     OW 5725   3.820   6.274   0.614
 1609SOL    HW1 5726   3.762   6.304   0.689
 1609SOL    HW2 5727   3.899   6.335   0.607
 1610SOL     OW 5728   4.882   0.168   0.166
 1610SOL    HW1 5729   4.967   0.211   0.136
 1610SOL    HW2 5730   4.903   0.096   0.232
 1611SOL     OW 5731   1.229   4.179   1.178
 1611SOL    HW1 5732   1.268   4.110   1.118
 1611SOL    HW2 5733   1.294   4.199   1.251
 1612SOL     OW 5734   3.917   6.876   1.991
 1612SOL    HW1 5735   3.819   6.862   2.001
 1612SOL    HW2 5736   3.935   6.938   1.915
 1613SOL     OW 5737   7.000   5.614   2.238
 1613SOL    HW1 5738   6.977   5.607   2.141
 1613SOL    HW2 5739   6.971   5.531   2.285
 1614SOL     OW 5740   6.531   2.034   6.195
 1614SOL    HW1 5741   6.449   2.018   6.140
 1614SOL    HW2 5742   6.521   1.990   6.283
 1615SOL     OW 5743   1.303   5.301   6.176
 1615SOL    HW1 5744   1.213   5.259   6.190
 1615SOL    HW2 5745   1.309   5.384   6.232
 1616SOL     OW 5746   2.014   1.358   4.807
 1616SOL    HW1 5747   1.997   1.335   4.903
 1616SOL    HW2 5748   1.980   1.450   4.788
 1617SOL     OW 5749   5.419   6.169   3.117
 1617SOL    HW1 5750   5.436   6.263   3.147
 1617SOL    HW2 5751   5.428   6.107   3.195
 1618SOL     OW 5752   3.140   5.235   2.887
 1618SOL    HW1 5753   3.109   5.167   2.954
 1618SOL    HW2 5754   3.072   5.308   2.879
 1619SOL     OW 5755   1.253   5.387   0.057
 1619SOL    HW1 5756   1.233   5.424   6.984
 1619SOL    HW2 5757   1.284   5.461   0.117
 1620SOL     OW 5758   3.925   5.280   6.315
 1620SOL    HW1 5759   3.942   5.182   6.321
 1620SOL    HW2 5760   3.979   5.328   6.384
 1621SOL     OW 5761   5.137   6.022   0.487
 1621SOL    HW1 5762   5.179   6.073   0.561
 1621SOL    HW2 5763   5.204   6.008   0.414
 1622SOL     OW 5764   0.637   4.294   4.640
 1622SOL    HW1 5765   0.671   4.203   4.666
 1622SOL    HW2 5766   0.562   4.283   4.575
 1623SOL     OW 5767   0.790   1.961   4.157
 1623SOL    HW1 5768   0.769   2.051   4.195
 1623SOL    HW2 5769   0.842   1.908   4.224
 1624SOL     OW 5770   4.281   1.072   0.840
 1624SOL    HW1 5771   4.295   1.111   0.931
 1624SOL    HW2 5772   4.333   1.124   0.773
 1625SOL     OW 5773   1.648   5.476   1.070
 1625SOL    HW1 5774   1.689   5.492   1.160
 1625SOL    HW2 5775   1.605   5.385   1.068
 1626SOL     OW 5776   3.273   1.467   1.619
 1626SOL    HW1 5777   3.187   1.517   1.631
 1626SOL    HW2 5778   3.330   1.478   1.700
 1627SOL     OW 5779   4.582   1.366   4.641
 1627SOL    HW1 5780   4.557   1.365   4.544
 1627SOL    HW2 5781   4.502   1.392   4.695
 1628SOL     OW 5782   5.495   6.445   6.957
 1628SOL    HW1 5783   5.586   6.403   6.958
 1628SOL    HW2 5784   5.486   6.503   6.877
 1629SOL     OW 5785   1.836   0.833   3.272
 1629SOL    HW1 5786   1.892   0.773   3.215
 1629SOL    HW2 5787   1.746   0.844   3.230
 1630SOL     OW 5788   0.663   3.533   6.883
 1630SOL    HW1 5789   0.665   3.476   6.965
 1630SOL    HW2 5790   0.755   3.562   6.859
 1631SOL     OW 5791   0.087   3.176   0.974
 1631SOL    HW1 5792   0.075   3.175   1.074
 1631SOL    HW2 5793   0.133   3.092   0.946
 1632SOL     OW 5794   6.753   4.757   2.938
 1632SOL    HW1 5795   6.720   4.827   2.875
 1632SOL    HW2 5796   6.696   4.756   3.020
 1633SOL     OW 5797   5.168   2.971   3.783
 1633SOL    HW1 5798   5.134   2.878   3.774
 1633SOL    HW2 5799   5.127   3.014   3.864
 1634SOL     OW 5800   5.056   0.517   4.486
 1634SOL    HW1 5801   5.073   0.548   4.393
 1634SOL    HW2 5802   4.994   0.439   4.485
 1635SOL     OW 5803   3.319   5.716   4.451
 1635SOL    HW1 5804   3.247   5.657   4.488
 1635SOL    HW2 5805   3.405   5.665   4.448
 1636SOL     OW 5806   5.738   6.757   1.497
 1636SOL    HW1 5807   5.678   6.807   1.433
 1636SOL    HW2 5808   5.816   6.815   1.521
 1637SOL     OW 5809   6.800   0.142   2.063
 1637SOL    HW1 5810   6.895   0.167   2.047
 1637SOL    HW2 5811   6.795   0.071   2.133
 1638SOL     OW 5812   0.054   2.812   1.982
 1638SOL    HW1 5813   0.112   2.743   2.023
 1638SOL    HW2 5814   0.105   2.863   1.913
 1639SOL     OW 5815   4.817   3.055   2.707
 1639SOL    HW1 5816   4.807   2.984   2.637
 1639SOL    HW2 5817   4.798   3.016   2.797
 1640SOL     OW 5818   6.235   0.002   0.066
 1640SOL    HW1 5819   6.231   6.983   6.992
 1640SOL    HW2 5820   6.325   7.002   0.106
 1641SOL     OW 5821   6.267   2.279   3.010
 1641SOL    HW1 5822   6.333   2.337   2.963
 1641SOL    HW2 5823   6.202   2.337   3.060
 1642SOL     OW 5824   5.756   1.966   5.571
 1642SOL    HW1 5825   5.771   1.873   5.539
 1642SOL    HW2 5826   5.843   2.017   5.568
 1643SOL     OW 5827   2.761   5.606   4.231
 1643SOL    HW1 5828   2.726   5.544   4.161
 1643SOL    HW2 5829   2.851   5.639   4.204
 1644SOL     OW 5830   6.024   2.960   0.735
 1644SOL    HW1 5831   5.989   2.873   0.699
 1644SOL    HW2 5832   6.114   2.979   0.696
 1645SOL     OW 5833   2.114   0.647   5.540
 1645SOL    HW1 5834   2.062   0.698   5.609
 1645SOL    HW2 5835   2.208   0.681   5.537
 1646SOL     OW 5836   0.786   5.411   0.924
 1646SOL    HW1 5837   0.824   5.470   0.996
 1646SOL    HW2 5838   0.701   5.451   0.890
 1647SOL     OW 5839   6.491   2.625   4.674
 1647SOL    HW1 5840   6.529   2.611   4.583
 1647SOL    HW2 5841   6.393   2.605   4.673
 1648SOL     OW 5842   5.271   6.221   0.955
 1648SOL    HW1 5843   5.295   6.315   0.981
 1648SOL    HW2 5844   5.171   6.214   0.946
 1649SOL     OW 5845   2.985   0.513   3.501
 1649SOL    HW1 5846   2.895   0.472   3.486
 1649SOL    HW2 5847   2.983   0.568   3.584
 1650SOL     OW 5848   2.720   4.765   6.511
 1650SOL    HW1 5849   2.792   4.782   6.444
 1650SOL    HW2 5850   2.742   4.812   6.597
 1651SOL     OW 5851   0.761   2.773   3.925
 1651SOL    HW1 5852   0.747   2.809   4.017
 1651SOL    HW2 5853   0.679   2.791   3.869
 1652SOL     OW 5854   0.448   2.677   1.274
 1652SOL    HW1 5855   0.480   2.630   1.192
 1652SOL    HW2 5856   0.486   2.770   1.277
 1653SOL     OW 5857   6.861   4.964   3.249
 1653SOL    HW1 5858   6.829   5.019   3.172
 1653SOL    HW2 5859   6.920   5.019   3.308
 1654SOL     OW 5860   0.878   3.006   2.218
 1654SOL    HW1 5861   0.807   2.980   2.152
 1654SOL    HW2 5862   0.864   2.954   2.302
 1655SOL     OW 5863   0.216   6.947   4.731
 1655SOL    HW1 5864   0.152   6.911   4.798
 1655SOL    HW2 5865   0.202   0.027   4.720
 1656SOL     OW 5866   1.971   4.838   4.196
 1656SOL    HW1 5867   1.998   4.800   4.107
 1656SOL    HW2 5868   1.962   4.937   4.187
 1657SOL     OW 5869   1.278   0.426   5.351
 1657SOL    HW1 5870   1.180   0.422   5.371
 1657SOL    HW2 5871   1.327   0.459   5.432
 1658SOL     OW 5872   6.578   0.077   6.503
 1658SOL    HW1 5873   6.665   0.123   6.484
 1658SOL    HW2 5874   6.594   6.997   6.509
 1659SOL     OW 5875   5.196   6.811   6.173
 1659SOL    HW1 5876   5.205   6.787   6.076
 1659SOL    HW2 5877   5.099   6.813   6.198
 1660SOL     OW 5878   2.011   0.053   2.085
 1660SOL    HW1 5879   2.064   6.989   2.101
 1660SOL    HW2 5880   2.025   0.117   2.161
 1661SOL     OW 5881   3.802   4.814   2.663
 1661SOL    HW1 5882   3.901   4.817   2.646
 1661SOL    HW2 5883   3.760   4.750   2.599
 1662SOL     OW 5884   0.220   0.757   4.740
 1662SOL    HW1 5885   0.261   0.799   4.820
 1662SOL    HW2 5886   0.270   0.785   4.658
 1663SOL     OW 5887   4.812   4.906   0.990
 1663SOL    HW1 5888   4.731   4.850   0.975
 1663SOL    HW2 5889   4.862   4.873   1.070
 1664SOL     OW 5890   0.952   0.203   5.412
 1664SOL    HW1 5891   0.990   0.175   5.500
 1664SOL    HW2 5892   0.975   0.299   5.395
 1665SOL     OW 5893   2.278   4.085   0.544
 1665SOL    HW1 5894   2.370   4.083   0.507
 1665SOL    HW2 5895   2.244   3.991   0.554
 1666SOL     OW 5896   5.687   6.771   6.341
 1666SOL    HW1 5897   5.766   6.812   6.385
 1666SOL    HW2 5898   5.672   6.814   6.252
 1667SOL     OW 5899   0.626   6.335   1.278
 1667SOL    HW1 5900   0.723   6.351   1.297
 1667SOL    HW2 5901   0.576   6.334   1.365
 1668SOL     OW 5902   5.293   4.444   3.924
 1668SOL    HW1 5903   5.324   4.524   3.974
 1668SOL    HW2 5904   5.276   4.468   3.828
 1669SOL     OW 5905   6.618   3.897   5.339
 1669SOL    HW1 5906   6.651   3.846   5.260
 1669SOL    HW2 5907   6.660   3.861   5.422
 1670SOL     OW 5908   1.792   4.753   5.822
 1670SOL    HW1 5909   1.766   4.706   5.907
 1670SOL    HW2 5910   1.851   4.831   5.845
 1671SOL     OW 5911   6.016   1.577   1.309
 1671SOL    HW1 5912   6.081   1.508   1.277
 1671SOL    HW2 5913   6.008   1.573   1.408
 1672SOL     OW 5914   1.031   3.105   6.846
 1672SOL    HW1 5915   0.960   3.036   6.841
 1672SOL    HW2 5916   0.989   3.196   6.852
 1673SOL     OW 5917   2.604   1.530   4.428
 1673SOL    HW1 5918   2.611   1.484   4.339
 1673SOL    HW2 5919   2.514   1.514   4.467
 1674SOL     OW 5920   4.847   2.629   2.776
 1674SOL    HW1 5921   4.786   2.666   2.846
 1674SOL    HW2 5922   4.874   2.701   2.713
 1675SOL     OW 5923   5.102   1.078   0.960
 1675SOL    HW1 5924   5.088   1.044   1.053
 1675SOL    HW2 5925   5.192   1.122   0.954
 1676SOL     OW 5926   1.799   1.438   2.892
 1676SOL    HW1 5927   1.800   1.535   2.919
 1676SOL    HW2 5928   1.891   1.400   2.901
 1677SOL     OW 5929   3.960   3.927   3.333
 1677SOL    HW1 5930   3.949   3.828   3.346
 1677SOL    HW2 5931   3.941   3.974   3.419
 1678SOL     OW 5932   0.581   6.524   0.632
 1678SOL    HW1 5933   0.659   6.524   0.695
 1678SOL    HW2 5934   0.606   6.476   0.548
 1679SOL     OW 5935   1.790   1.564   5.950
 1679SOL    HW1 5936   1.808   1.657   5.919
 1679SOL    HW2 5937   1.872   1.508   5.938
 1680SOL     OW 5938   4.733   2.553   4.106
 1680SOL    HW1 5939   4.752   2.648   4.134
 1680SOL    HW2 5940   4.801   2.493   4.147
 1681SOL     OW 5941   2.013   6.266   3.668
 1681SOL    HW1 5942   1.959   6.315   3.600
 1681SOL    HW2 5943   2.089   6.219   3.622
 1682SOL     OW 5944   2.268   0.052   5.455
 1682SOL    HW1 5945   2.294   6.987   5.407
 1682SOL    HW2 5946   2.276   0.131   5.393
 1683SOL     OW 5947   5.745   4.745   2.407
 1683SOL    HW1 5948   5.815   4.805   2.368
 1683SOL    HW2 5949   5.789   4.662   2.442
 1684SOL     OW 5950   2.597   4.466   1.766
 1684SOL    HW1 5951   2.596   4.455   1.865
 1684SOL    HW2 5952   2.656   4.543   1.741
 1685SOL     OW 5953   0.466   0.980   5.750
 1685SOL    HW1 5954   0.487   0.884   5.770
 1685SOL    HW2 5955   0.522   1.039   5.807
 1686SOL     OW 5956   4.617   6.172   3.098
 1686SOL    HW1 5957   4.552   6.203   3.167
 1686SOL    HW2 5958   4.595   6.077   3.073
 1687SOL     OW 5959   6.522   4.218   2.703
 1687SOL    HW1 5960   6.588   4.148   2.729
 1687SOL    HW2 5961   6.542   4.303   2.752
 1688SOL     OW 5962   2.091   1.949   3.507
 1688SOL    HW1 5963   2.182   1.920   3.476
 1688SOL    HW2 5964   2.095   1.978   3.602
 1689SOL     OW 5965   5.660   0.936   1.560
 1689SOL    HW1 5966   5.674   0.898   1.652
 1689SOL    HW2 5967   5.627   1.030   1.568
 1690SOL     OW 5968   0.546   4.061   4.188
 1690SOL    HW1 5969   0.568   3.980   4.241
 1690SOL    HW2 5970   0.450   4.087   4.204
 1691SOL     OW 5971   4.919   2.621   5.215
 1691SOL    HW1 5972   4.933   2.624   5.314
 1691SOL    HW2 5973   4.857   2.694   5.188
 1692SOL     OW 5974   5.917   5.200   1.396
 1692SOL    HW1 5975   5.838   5.170   1.449
 1692SOL    HW2 5976   6.001   5.178   1.446
 1693SOL     OW 5977   5.867   0.168   5.178
 1693SOL    HW1 5978   5.842   0.090   5.121
 1693SOL    HW2 5979   5.812   0.167   5.261
 1694SOL     OW 5980   4.949   0.744   5.448
 1694SOL    HW1 5981   5.047   0.758   5.431
 1694SOL    HW2 5982   4.920   0.656   5.410
 1695SOL     OW 5983   3.726   0.578   6.303
 1695SOL    HW1 5984   3.690   0.487   6.324
 1695SOL    HW2 5985   3.689   0.609   6.215
 1696SOL     OW 5986   4.145   6.048   0.105
 1696SOL    HW1 5987   4.214   6.056   0.177
 1696SOL    HW2 5988   4.071   6.114   0.123
 1697SOL     OW 5989   6.067   2.229   1.202
 1697SOL    HW1 5990   6.053   2.318   1.158
 1697SOL    HW2 5991   5.984   2.174   1.193
 1698SOL     OW 5992   3.548   0.764   1.824
 1698SOL    HW1 5993   3.473   0.758   1.890
 1698SOL    HW2 5994   3.510   0.785   1.733
 1699SOL     OW 5995   2.458   0.062   0.196
 1699SOL    HW1 5996   2.456   0.145   0.140
 1699SOL    HW2 5997   2.396   0.073   0.273
 1700SOL     OW 5998   6.162   3.565   3.469
 1700SOL    HW1 5999   6.222   3.642   3.491
 1700SOL    HW2 6000   6.218   3.485   3.445
 1701SOL     OW 6001   0.160   5.341   4.679
 1701SOL    HW1 6002   0.146   5.409   4.750
 1701SOL    HW2 6003   0.074   5.325   4.631
 1702SOL     OW 6004   1.970   2.793   5.714
 1702SOL    HW1 6005   1.884   2.743   5.705
 1702SOL    HW2 6006   2.045   2.738   5.676
 1703SOL     OW 6007   3.163   2.128   0.198
 1703SOL    HW1 6008   3.147   2.159   0.291
 1703SOL    HW2 6009   3.086   2.073   0.167
 1704SOL     OW 6010   2.433   1.758   0.929
 1704SOL    HW1 6011   2.374   1.688   0.969
 1704SOL    HW2 6012   2.525   1.750   0.969
 1705SOL     OW 6013   4.468   1.411   0.496
 1705SOL    HW1 6014   4.462   1.497   0.545
 1705SOL    HW2 6015   4.505   1.427   0.404
 1706SOL     OW 6016   4.184   2.128   0.826
 1706SOL    HW1 6017   4.260   2.184   0.858
 1706SOL    HW2 6018   4.113   2.125   0.897
 1707SOL     OW 6019   4.426   1.917   2.273
 1707SOL    HW1 6020   4.363   1.922   2.351
 1707SOL    HW2 6021   4.443   1.822   2.250
 1708SOL     OW 6022   2.955   5.122   1.579
 1708SOL    HW1 6023   2.990   5.192   1.642
 1708SOL    HW2 6024   3.029   5.060   1.553
 1709SOL     OW 6025   4.320   5.710   0.578
 1709SOL    HW1 6026   4.227   5.743   0.590
 1709SOL    HW2 6027   4.357   5.743   0.491
 1710SOL     OW 6028   3.761   5.316   3.126
 1710SOL    HW1 6029   3.829   5.247   3.152
 1710SOL    HW2 6030   3.674   5.270   3.106
 1711SOL     OW 6031   3.570   5.055   6.035
 1711SOL    HW1 6032   3.497   5.043   5.968
 1711SOL    HW2 6033   3.529   5.080   6.123
 1712SOL     OW 6034   6.730   1.828   3.837
 1712SOL    HW1 6035   6.817   1.781   3.824
 1712SOL    HW2 6036   6.726   1.908   3.778
 1713SOL     OW 6037   3.998   0.959   2.569
 1713SOL    HW1 6038   4.043   0.942   2.481
 1713SOL    HW2 6039   4.068   0.970   2.640
 1714SOL     OW 6040   3.477   2.716   0.156
 1714SOL    HW1 6041   3.557   2.664   0.186
 1714SOL    HW2 6042   3.396   2.687   0.208
 1715SOL     OW 6043   1.680   6.624   2.966
 1715SOL    HW1 6044   1.593   6.669   2.985
 1715SOL    HW2 6045   1.713   6.579   3.049
 1716SOL     OW 6046   4.354   0.470   3.457
 1716SOL    HW1 6047   4.260   0.479   3.490
 1716SOL    HW2 6048   4.373   0.375   3.435
 1717SOL     OW 6049   3.983   5.979   5.381
 1717SOL    HW1 6050   3.973   6.065   5.430
 1717SOL    HW2 6051   3.964   5.994   5.284
 1718SOL     OW 6052   1.362   2.732   1.299
 1718SOL    HW1 6053   1.393   2.723   1.394
 1718SOL    HW2 6054   1.274   2.778   1.297
 1719SOL     OW 6055   0.760   5.276   1.639
 1719SOL    HW1 6056   0.681   5.325   1.601
 1719SOL    HW2 6057   0.832   5.342   1.661
 1720SOL     OW 6058   6.406   2.557   5.364
 1720SOL    HW1 6059   6.346   2.528   5.289
 1720SOL    HW2 6060   6.353   2.613   5.428
 1721SOL     OW 6061   1.443   2.098   1.577
 1721SOL    HW1 6062   1.530   2.054   1.601
 1721SOL    HW2 6063   1.453   2.148   1.492
 1722SOL     OW 6064   2.905   2.154   3.054
 1722SOL    HW1 6065   2.928   2.110   2.967
 1722SOL    HW2 6066   2.986   2.154   3.114
 1723SOL     OW 6067   5.432   2.909   0.182
 1723SOL    HW1 6068   5.336   2.902   0.207
 1723SOL    HW2 6069   5.440   2.958   0.095
 1724SOL     OW 6070   6.814   2.463   1.359
 1724SOL    HW1 6071   6.753   2.436   1.434
 1724SOL    HW2 6072   6.759   2.485   1.279
 1725SOL     OW 6073   2.111   6.156   6.753
 1725SOL    HW1 6074   2.080   6.123   6.842
 1725SOL    HW2 6075   2.081   6.251   6.741
 1726SOL     OW 6076   5.504   3.928   3.957
 1726SOL    HW1 6077   5.579   3.988   3.985
 1726SOL    HW2 6078   5.524   3.890   3.866
 1727SOL     OW 6079   3.252   3.442   3.145
 1727SOL    HW1 6080   3.244   3.515   3.077
 1727SOL    HW2 6081   3.230   3.354   3.103
 1728SOL     OW 6082   4.800   2.261   4.439
 1728SOL    HW1 6083   4.704   2.234   4.432
 1728SOL    HW2 6084   4.852   2.187   4.481
 1729SOL     OW 6085   1.831   3.903   1.957
 1729SOL    HW1 6086   1.909   3.915   2.018
 1729SOL    HW2 6087   1.855   3.935   1.865
 1730SOL     OW 6088   2.836   5.001   5.916
 1730SOL    HW1 6089   2.802   5.017   6.008
 1730SOL    HW2 6090   2.808   5.076   5.857
 1731SOL     OW 6091   5.871   4.320   4.289
 1731SOL    HW1 6092   5.826   4.378   4.357
 1731SOL    HW2 6093   5.812   4.310   4.209
 1732SOL     OW 6094   2.042   4.246   6.118
 1732SOL    HW1 6095   2.020   4.298   6.035
 1732SOL    HW2 6096   2.113   4.294   6.170
 1733SOL     OW 6097   2.654   4.114   0.242
 1733SOL    HW1 6098   2.623   4.028   0.202
 1733SOL    HW2 6099   2.752   4.125   0.226
 1734SOL     OW 6100   6.740   3.266   1.149
 1734SOL    HW1 6101   6.674   3.235   1.217
 1734SOL    HW2 6102   6.693   3.327   1.083
 1735SOL     OW 6103   3.764   4.875   6.000
 1735SOL    HW1 6104   3.704   4.955   6.001
 1735SOL    HW2 6105   3.712   4.794   5.971
 1736SOL     OW 6106   4.587   3.211   0.971
 1736SOL    HW1 6107   4.574   3.136   1.036
 1736SOL    HW2 6108   4.509   3.273   0.976
 1737SOL     OW 6109   4.689   1.423   5.091
 1737SOL    HW1 6110   4.621   1.457   5.156
 1737SOL    HW2 6111   4.663   1.449   4.999
 1738SOL     OW 6112   1.145   3.107   4.600
 1738SOL    HW1 6113   1.047   3.090   4.611
 1738SOL    HW2 6114   1.197   3.028   4.633
 1739SOL     OW 6115   5.511   0.306   4.169
 1739SOL    HW1 6116   5.501   0.324   4.071
 1739SOL    HW2 6117   5.481   0.213   4.189
 1740SOL     OW 6118   6.338   2.943   4.497
 1740SOL    HW1 6119   6.318   3.039   4.480
 1740SOL    HW2 6120   6.436   2.926   4.483
 1741SOL     OW 6121   1.127   2.112   4.415
 1741SOL    HW1 6122   1.166   2.148   4.331
 1741SOL    HW2 6123   1.081   2.025   4.396
 1742SOL     OW 6124   5.991   6.078   6.781
 1742SOL    HW1 6125   6.080   6.119   6.763
 1742SOL    HW2 6126   5.925   6.151   6.803
 1743SOL     OW 6127   1.183   0.753   3.067
 1743SOL    HW1 6128   1.270   0.799   3.083
 1743SOL    HW2 6129   1.109   0.821   3.066
 1744SOL     OW 6130   3.624   1.841   4.115
 1744SOL    HW1 6131   3.615   1.933   4.154
 1744SOL    HW2 6132   3.712   1.834   4.068
 1745SOL     OW 6133   6.848   6.492   1.390
 1745SOL    HW1 6134   6.781   6.504   1.464
 1745SOL    HW2 6135   6.868   6.582   1.349
 1746SOL     OW 6136   1.746   4.447   4.013
 1746SOL    HW1 6137   1.797   4.406   3.937
 1746SOL    HW2 6138   1.809   4.469   4.087
 1747SOL     OW 6139   3.783   0.364   2.434
 1747SOL    HW1 6140   3.828   0.282   2.468
 1747SOL    HW2 6141   3.852   0.434   2.413
 1748SOL     OW 6142   6.762   2.124   4.768
 1748SOL    HW1 6143   6.821   2.124   4.687
 1748SOL    HW2 6144   6.749   2.218   4.800
 1749SOL     OW 6145   1.695   5.130   1.173
 1749SOL    HW1 6146   1.674   5.070   1.250
 1749SOL    HW2 6147   1.610   5.167   1.135
 1750SOL     OW 6148   4.573   6.965   5.269
 1750SOL    HW1 6149   4.561   6.903   5.347
 1750SOL    HW2 6150   4.558   0.041   5.299
 1751SOL     OW 6151   5.487   2.432   5.184
 1751SOL    HW1 6152   5.527   2.346   5.216
 1751SOL    HW2 6153   5.400   2.448   5.230
 1752SOL     OW 6154   6.333   0.633   1.473
 1752SOL    HW1 6155   6.428   0.664   1.477
 1752SOL    HW2 6156   6.273   0.711   1.457
 1753SOL     OW 6157   6.519   1.870   1.704
 1753SOL    HW1 6158   6.587   1.806   1.740
 1753SOL    HW2 6159   6.562   1.931   1.637
 1754SOL     OW 6160   3.215   5.497   5.096
 1754SOL    HW1 6161   3.252   5.580   5.054
 1754SOL    HW2 6162   3.148   5.523   5.166
 1755SOL     OW 6163   6.352   6.658   5.256
 1755SOL    HW1 6164   6.326   6.753   5.238
 1755SOL    HW2 6165   6.451   6.648   5.243
 1756SOL     OW 6166   5.204   0.154   5.800
 1756SOL    HW1 6167   5.266   0.174   5.877
 1756SOL    HW2 6168   5.247   0.087   5.739
 1757SOL     OW 6169   2.320   4.819   5.305
 1757SOL    HW1 6170   2.345   4.812   5.208
 1757SOL    HW2 6171   2.336   4.730   5.349
 1758SOL     OW 6172   2.235   6.405   4.651
 1758SOL    HW1 6173   2.155   6.450   4.612
 1758SOL    HW2 6174   2.303   6.390   4.580
 1759SOL     OW 6175   1.511   6.561   6.899
 1759SOL    HW1 6176   1.540   6.646   6.854
 1759SOL    HW2 6177   1.572   6.486   6.871
 1760SOL     OW 6178   6.255   1.097   5.170
 1760SOL    HW1 6179   6.195   1.124   5.246
 1760SOL    HW2 6180   6.237   1.155   5.091
 1761SOL     OW 6181   6.140   1.865   2.382
 1761SOL    HW1 6182   6.108   1.820   2.465
 1761SOL    HW2 6183   6.078   1.843   2.306
 1762SOL     OW 6184   0.135   1.589   5.727
 1762SOL    HW1 6185   0.070   1.514   5.718
 1762SOL    HW2 6186   0.086   1.675   5.739
 1763SOL     OW 6187   0.939   3.931   4.086
 1763SOL    HW1 6188   1.039   3.935   4.087
 1763SOL    HW2 6189   0.908   3.879   4.007
 1764SOL     OW 6190   0.633   5.151   2.936
 1764SOL    HW1 6191   0.686   5.154   2.852
 1764SOL    HW2 6192   0.664   5.075   2.993
 1765SOL     OW 6193   5.161   3.520   2.688
 1765SOL    HW1 6194   5.192   3.534   2.594
 1765SOL    HW2 6195   5.192   3.431   2.721
 1766SOL     OW 6196   4.452   5.379   4.573
 1766SOL    HW1 6197   4.457   5.280   4.585
 1766SOL    HW2 6198   4.451   5.423   4.664
 1767SOL     OW 6199   0.757   4.883   1.791
 1767SOL    HW1 6200   0.846   4.922   1.813
 1767SOL    HW2 6201   0.686   4.952   1.805
 1768SOL     OW 6202   5.257   6.595   2.303
 1768SOL    HW1 6203   5.201   6.648   2.368
 1768SOL    HW2 6204   5.249   6.498   2.325
 1769SOL     OW 6205   5.084   0.594   6.703
 1769SOL    HW1 6206   5.099   0.630   6.795
 1769SOL    HW2 6207   5.138   0.511   6.690
 1770SOL     OW 6208   2.194   5.240   6.369
 1770SOL    HW1 6209   2.139   5.205   6.445
 1770SOL    HW2 6210   2.268   5.176   6.349
 1771SOL     OW 6211   0.942   3.735   6.185
 1771SOL    HW1 6212   0.978   3.728   6.278
 1771SOL    HW2 6213   1.012   3.770   6.124
 1772SOL     OW 6214   2.450   4.431   3.761
 1772SOL    HW1 6215   2.448   4.344   3.811
 1772SOL    HW2 6216   2.542   4.468   3.762
 1773SOL     OW 6217   0.797   6.705   5.086
 1773SOL    HW1 6218   0.728   6.740   5.149
 1773SOL    HW2 6219   0.863   6.650   5.136
 1774SOL     OW 6220   5.459   5.078   0.880
 1774SOL    HW1 6221   5.553   5.113   0.876
 1774SOL    HW2 6222   5.433   5.063   0.976
 1775SOL     OW 6223   2.552   5.522   6.477
 1775SOL    HW1 6224   2.455   5.535   6.496
 1775SOL    HW2 6225   2.582   5.589   6.409
 1776SOL     OW 6226   4.943   1.267   6.175
 1776SOL    HW1 6227   5.038   1.288   6.199
 1776SOL    HW2 6228   4.931   1.275   6.077
 1777SOL     OW 6229   4.966   6.447   6.628
 1777SOL    HW1 6230   5.025   6.413   6.555
 1777SOL    HW2 6231   5.007   6.528   6.670
 1778SOL     OW 6232   5.942   6.800   3.920
 1778SOL    HW1 6233   6.018   6.816   3.857
 1778SOL    HW2 6234   5.856   6.826   3.876
 1779SOL     OW 6235   5.768   6.022   3.762
 1779SOL    HW1 6236   5.862   6.056   3.750
 1779SOL    HW2 6237   5.766   5.924   3.743
 1780SOL     OW 6238   1.988   5.639   4.723
 1780SOL    HW1 6239   2.025   5.725   4.688
 1780SOL    HW2 6240   2.063   5.586   4.764
 1781SOL     OW 6241   3.913   0.878   4.217
 1781SOL    HW1 6242   3.944   0.953   4.275
 1781SOL    HW2 6243   3.920   0.791   4.267
 1782SOL     OW 6244   0.980   1.681   2.638
 1782SOL    HW1 6245   0.967   1.711   2.733
 1782SOL    HW2 6246   1.057   1.731   2.598
 1783SOL     OW 6247   2.179   4.076   6.487
 1783SOL    HW1 6248   2.154   4.149   6.551
 1783SOL    HW2 6249   2.254   4.107   6.429
 1784SOL     OW 6250   2.741   6.979   1.267
 1784SOL    HW1 6251   2.834   7.016   1.264
 1784SOL    HW2 6252   2.737   6.896   1.211
 1785SOL     OW 6253   1.035   6.524   4.059
 1785SOL    HW1 6254   1.103   6.596   4.073
 1785SOL    HW2 6255   1.066   6.440   4.103
 1786SOL     OW 6256   1.007   6.047   0.525
 1786SOL    HW1 6257   1.054   6.128   0.490
 1786SOL    HW2 6258   1.050   6.018   0.611
 1787SOL     OW 6259   2.926   4.017   6.068
 1787SOL    HW1 6260   2.986   4.045   5.993
 1787SOL    HW2 6261   2.886   3.927   6.046
 1788SOL     OW 6262   4.611   3.551   0.816
 1788SOL    HW1 6263   4.662   3.490   0.756
 1788SOL    HW2 6264   4.517   3.518   0.824
 1789SOL     OW 6265   6.667   4.026   2.118
 1789SOL    HW1 6266   6.606   3.995   2.190
 1789SOL    HW2 6267   6.740   3.958   2.104
 1790SOL     OW 6268   2.480   2.593   4.820
 1790SOL    HW1 6269   2.515   2.509   4.779
 1790SOL    HW2 6270   2.539   2.620   4.896
 1791SOL     OW 6271   5.002   6.748   3.207
 1791SOL    HW1 6272   5.067   6.819   3.183
 1791SOL    HW2 6273   4.988   6.747   3.306
 1792SOL     OW 6274   0.335   1.363   5.702
 1792SOL    HW1 6275   0.280   1.446   5.703
 1792SOL    HW2 6276   0.340   1.327   5.609
 1793SOL     OW 6277   7.009   1.547   6.178
 1793SOL    HW1 6278   6.928   1.514   6.129
 1793SOL    HW2 6279   0.031   1.624   6.127
 1794SOL     OW 6280   1.272   0.019   6.192
 1794SOL    HW1 6281   1.285   0.098   6.132
 1794SOL    HW2 6282   1.234   6.961   6.139
 1795SOL     OW 6283   5.974   4.038   1.090
 1795SOL    HW1 6284   6.029   4.103   1.141
 1795SOL    HW2 6285   5.880   4.039   1.126
 1796SOL     OW 6286   1.077   0.162   6.456
 1796SOL    HW1 6287   1.040   0.071   6.471
 1796SOL    HW2 6288   1.174   0.155   6.430
 1797SOL     OW 6289   2.581   5.194   5.386
 1797SOL    HW1 6290   2.654   5.139   5.345
 1797SOL    HW2 6291   2.526   5.235   5.313
 1798SOL     OW 6292   3.029   3.310   4.240
 1798SOL    HW1 6293   3.112   3.362   4.255
 1798SOL    HW2 6294   2.986   3.339   4.155
 1799SOL     OW 6295   3.308   1.075   0.463
 1799SOL    HW1 6296   3.361   1.048   0.384
 1799SOL    HW2 6297   3.368   1.111   0.534
 1800SOL     OW 6298   5.649   3.706   4.634
 1800SOL    HW1 6299   5.582   3.705   4.560
 1800SOL    HW2 6300   5.658   3.614   4.672
 1801SOL     OW 6301   1.481   1.334   1.973
 1801SOL    HW1 6302   1.559   1.277   1.947
 1801SOL    HW2 6303   1.480   1.418   1.919
 1802SOL     OW 6304   6.769   4.828   3.747
 1802SOL    HW1 6305   6.789   4.752   3.685
 1802SOL    HW2 6306   6.670   4.830   3.766
 1803SOL     OW 6307   0.829   6.730   3.171
 1803SOL    HW1 6308   0.866   6.791   3.241
 1803SOL    HW2 6309   0.871   6.751   3.082
 1804SOL     OW 6310   2.257   3.387   5.713
 1804SOL    HW1 6311   2.205   3.362   5.631
 1804SOL    HW2 6312   2.265   3.308   5.773
 1805SOL     OW 6313   0.255   5.660   6.670
 1805SOL    HW1 6314   0.240   5.571   6.712
 1805SOL    HW2 6315   0.189   5.673   6.595
 1806SOL     OW 6316   6.747   1.735   2.263
 1806SOL    HW1 6317   6.732   1.765   2.357
 1806SOL    HW2 6318   6.831   1.775   2.228
 1807SOL     OW 6319   0.137   3.073   2.230
 1807SOL    HW1 6320   0.049   3.034   2.202
 1807SOL    HW2 6321   0.144   3.069   2.330
 1808SOL     OW 6322   4.682   1.785   5.965
 1808SOL    HW1 6323   4.751   1.834   6.018
 1808SOL    HW2 6324   4.596   1.781   6.017
 1809SOL     OW 6325   4.038   1.165   5.753
 1809SOL    HW1 6326   4.041   1.259   5.721
 1809SOL    HW2 6327   3.946   1.128   5.739
 1810SOL     OW 6328   0.434   6.955   4.268
 1810SOL    HW1 6329   0.362   0.006   4.265
 1810SOL    HW2 6330   0.443   6.912   4.178
 1811SOL     OW 6331   4.339   5.721   1.784
 1811SOL    HW1 6332   4.309   5.630   1.755
 1811SOL    HW2 6333   4.259   5.778   1.802
 1812SOL     OW 6334   4.439   6.573   5.512
 1812SOL    HW1 6335   4.417   6.478   5.492
 1812SOL    HW2 6336   4.510   6.577   5.583
 1813SOL     OW 6337   4.303   4.802   2.708
 1813SOL    HW1 6338   4.329   4.897   2.692
 1813SOL    HW2 6339   4.347   4.744   2.640
 1814SOL     OW 6340   0.007   5.554   0.604
 1814SOL    HW1 6341   6.994   5.570   0.698
 1814SOL    HW2 6342   0.004   5.640   0.553
 1815SOL     OW 6343   5.712   6.489   1.414
 1815SOL    HW1 6344   5.711   6.588   1.407
 1815SOL    HW2 6345   5.637   6.451   1.359
 1816SOL     OW 6346   4.175   5.086   5.563
 1816SOL    HW1 6347   4.142   5.179   5.550
 1816SOL    HW2 6348   4.265   5.088   5.608
 1817SOL     OW 6349   0.767   1.912   3.621
 1817SOL    HW1 6350   0.805   1.833   3.574
 1817SOL    HW2 6351   0.735   1.885   3.712
 1818SOL     OW 6352   2.091   6.830   1.098
 1818SOL    HW1 6353   2.150   6.910   1.091
 1818SOL    HW2 6354   2.130   6.754   1.046
 1819SOL     OW 6355   2.159   4.831   3.657
 1819SOL    HW1 6356   2.110   4.860   3.574
 1819SOL    HW2 6357   2.198   4.740   3.643
 1820SOL     OW 6358   3.941   7.006   4.990
 1820SOL    HW1 6359   4.012   6.941   5.016
 1820SOL    HW2 6360   3.906   0.034   5.072
 1821SOL     OW 6361   3.264   2.058   2.963
 1821SOL    HW1 6362   3.206   2.058   2.881
 1821SOL    HW2 6363   3.248   2.141   3.016
 1822SOL     OW 6364   6.687   2.890   2.581
 1822SOL    HW1 6365   6.776   2.889   2.626
 1822SOL    HW2 6366   6.677   2.975   2.530
 1823SOL     OW 6367   3.750   6.163   2.388
 1823SOL    HW1 6368   3.833   6.149   2.334
 1823SOL    HW2 6369   3.739   6.261   2.407
 1824SOL     OW 6370   4.032   2.955   1.283
 1824SOL    HW1 6371   4.104   2.954   1.353
 1824SOL    HW2 6372   3.968   3.029   1.303
 1825SOL     OW 6373   2.342   1.539   5.218
 1825SOL    HW1 6374   2.314   1.443   5.228
 1825SOL    HW2 6375   2.297   1.579   5.139
 1826SOL     OW 6376   3.542   2.184   1.685
 1826SOL    HW1 6377   3.575   2.208   1.777
 1826SOL    HW2 6378   3.602   2.225   1.617
 1827SOL     OW 6379   5.705   4.028   1.235
 1827SOL    HW1 6380   5.652   3.959   1.187
 1827SOL    HW2 6381   5.722   3.998   1.329
 1828SOL     OW 6382   1.568   2.963   5.047
 1828SOL    HW1 6383   1.629   2.930   4.975
 1828SOL    HW2 6384   1.623   2.993   5.125
 1829SOL     OW 6385   3.425   0.523   3.546
 1829SOL    HW1 6386   3.356   0.452   3.559
 1829SOL    HW2 6387   3.489   0.494   3.474
 1830SOL     OW 6388   4.675   6.837   4.549
 1830SOL    HW1 6389   4.686   6.931   4.517
 1830SOL    HW2 6390   4.765   6.793   4.556
 1831SOL     OW 6391   4.299   5.414   1.176
 1831SOL    HW1 6392   4.363   5.361   1.119
 1831SOL    HW2 6393   4.214   5.362   1.187
 1832SOL     OW 6394   2.272   3.150   0.249
 1832SOL    HW1 6395   2.243   3.061   0.284
 1832SOL    HW2 6396   2.197   3.215   0.254
 1833SOL     OW 6397   5.158   0.383   0.313
 1833SOL    HW1 6398   5.139   0.481   0.322
 1833SOL    HW2 6399   5.102   0.332   0.378
 1834SOL     OW 6400   1.750   2.270   5.835
 1834SOL    HW1 6401   1.808   2.352   5.839
 1834SOL    HW2 6402   1.658   2.293   5.866
 1835SOL     OW 6403   6.501   6.288   1.008
 1835SOL    HW1 6404   6.548   6.370   0.975
 1835SOL    HW2 6405   6.445   6.312   1.088
 1836SOL     OW 6406   5.077   2.469   1.678
 1836SOL    HW1 6407   5.087   2.519   1.592
 1836SOL    HW2 6408   4.980   2.453   1.695
 1837SOL     OW 6409   3.363   2.876   6.105
 1837SOL    HW1 6410   3.365   2.831   6.194
 1837SOL    HW2 6411   3.457   2.899   6.077
 1838SOL     OW 6412   6.316   1.015   0.554
 1838SOL    HW1 6413   6.365   1.064   0.483
 1838SOL    HW2 6414   6.275   0.933   0.515
 1839SOL     OW 6415   0.249   1.156   6.694
 1839SOL    HW1 6416   0.329   1.163   6.754
 1839SOL    HW2 6417   0.166   1.161   6.748
 1840SOL     OW 6418   4.646   6.662   3.067
 1840SOL    HW1 6419   4.636   6.696   3.161
 1840SOL    HW2 6420   4.726   6.602   3.061
 1841SOL     OW 6421   2.313   0.990   2.522
 1841SOL    HW1 6422   2.318   1.019   2.618
 1841SOL    HW2 6423   2.229   1.026   2.481
 1842SOL     OW 6424   1.607   5.569   0.156
 1842SOL    HW1 6425   1.524   5.568   0.211
 1842SOL    HW2 6426   1.687   5.565   0.215
 1843SOL     OW 6427   3.151   1.367   4.830
 1843SOL    HW1 6428   3.064   1.323   4.851
 1843SOL    HW2 6429   3.161   1.375   4.731
 1844SOL     OW 6430   5.658   2.435   6.438
 1844SOL    HW1 6431   5.700   2.344   6.431
 1844SOL    HW2 6432   5.567   2.427   6.477
 1845SOL     OW 6433   1.434   1.695   3.166
 1845SOL    HW1 6434   1.459   1.631   3.093
 1845SOL    HW2 6435   1.337   1.685   3.188
 1846SOL     OW 6436   4.161   1.705   2.087
 1846SOL    HW1 6437   4.112   1.771   2.145
 1846SOL    HW2 6438   4.257   1.732   2.081
 1847SOL     OW 6439   2.187   6.344   5.386
 1847SOL    HW1 6440   2.165   6.246   5.394
 1847SOL    HW2 6441   2.216   6.364   5.292
 1848SOL     OW 6442   2.758   5.833   3.618
 1848SOL    HW1 6443   2.853   5.860   3.604
 1848SOL    HW2 6444   2.733   5.761   3.553
 1849SOL     OW 6445   4.714   2.711   1.950
 1849SOL    HW1 6446   4.659   2.664   1.881
 1849SOL    HW2 6447   4.711   2.810   1.935
 1850SOL     OW 6448   5.351   1.307   1.089
 1850SOL    HW1 6449   5.369   1.289   1.186
 1850SOL    HW2 6450   5.383   1.399   1.066
 1851SOL     OW 6451   0.164   3.807   5.081
 1851SOL    HW1 6452   0.128   3.830   5.171
 1851SOL    HW2 6453   0.209   3.717   5.085
 1852SOL     OW 6454   0.845   6.794   2.564
 1852SOL    HW1 6455   0.746   6.792   2.574
 1852SOL    HW2 6456   0.871   6.872   2.506
 1853SOL     OW 6457   6.870   2.805   4.570
 1853SOL    HW1 6458   6.905   2.716   4.599
 1853SOL    HW2 6459   6.909   2.876   4.628
 1854SOL     OW 6460   0.387   0.208   3.378
 1854SOL    HW1 6461   0.308   0.167   3.332
 1854SOL    HW2 6462   0.462   0.142   3.381
 1855SOL     OW 6463   4.640   2.478   4.434
 1855SOL    HW1 6464   4.703   2.401   4.434
 1855SOL    HW2 6465   4.692   2.564   4.436
 1856SOL     OW 6466   3.551   2.637   0.490
 1856SOL    HW1 6467   3.606   2.679   0.418
 1856SOL    HW2 6468   3.490   2.569   0.451
 1857SOL     OW 6469   4.336   1.758   1.198
 1857SOL    HW1 6470   4.401   1.683   1.207
 1857SOL    HW2 6471   4.245   1.727   1.223
 1858SOL     OW 6472   4.488   2.461   4.008
 1858SOL    HW1 6473   4.460   2.477   3.913
 1858SOL    HW2 6474   4.575   2.506   4.026
 1859SOL     OW 6475   6.163   2.006   4.200
 1859SOL    HW1 6476   6.103   2.009   4.280
 1859SOL    HW2 6477   6.213   2.092   4.193
 1860SOL     OW 6478   1.172   1.415   4.588
 1860SOL    HW1 6479   1.226   1.362   4.653
 1860SOL    HW2 6480   1.109   1.475   4.639
 1861SOL     OW 6481   6.662   6.823   3.647
 1861SOL    HW1 6482   6.570   6.863   3.640
 1861SOL    HW2 6483   6.720   6.883   3.702
 1862SOL     OW 6484   2.991   5.604   6.420
 1862SOL    HW1 6485   2.928   5.549   6.474
 1862SOL    HW2 6486   2.961   5.605   6.325
 1863SOL     OW 6487   0.379   3.013   0.639
 1863SOL    HW1 6488   0.393   3.024   0.738
 1863SOL    HW2 6489   0.349   2.920   0.620
 1864SOL     OW 6490   3.955   5.263   2.682
 1864SOL    HW1 6491   3.950   5.224   2.589
 1864SOL    HW2 6492   3.920   5.196   2.747
 1865SOL     OW 6493   5.702   1.615   5.775
 1865SOL    HW1 6494   5.694   1.594   5.873
 1865SOL    HW2 6495   5.614   1.598   5.731
 1866SOL     OW 6496   0.963   4.875   3.595
 1866SOL    HW1 6497   1.017   4.862   3.678
 1866SOL    HW2 6498   0.945   4.786   3.553
 1867SOL     OW 6499   1.723   2.536   1.612
 1867SOL    HW1 6500   1.735   2.444   1.649
 1867SOL    HW2 6501   1.724   2.603   1.687
 1868SOL     OW 6502   6.273   3.751   5.751
 1868SOL    HW1 6503   6.260   3.847   5.727
 1868SOL    HW2 6504   6.291   3.699   5.667
 1869SOL     OW 6505   4.369   1.288   4.036
 1869SOL    HW1 6506   4.331   1.336   4.115
 1869SOL    HW2 6507   4.299   1.230   3.995
 1870SOL     OW 6508   6.963   5.394   4.384
 1870SOL    HW1 6509   6.943   5.297   4.377
 1870SOL    HW2 6510   0.042   5.410   4.365
 1871SOL     OW 6511   0.208   6.294   0.508
 1871SOL    HW1 6512   0.289   6.236   0.517
 1871SOL    HW2 6513   0.156   6.292   0.593
 1872SOL     OW 6514   2.727   2.443   1.515
 1872SOL    HW1 6515   2.774   2.385   1.582
 1872SOL    HW2 6516   2.671   2.510   1.564
 1873SOL     OW 6517   0.149   1.372   0.712
 1873SOL    HW1 6518   0.115   1.281   0.691
 1873SOL    HW2 6519   0.082   1.440   0.681
 1874SOL     OW 6520   0.377   6.180   7.001
 1874SOL    HW1 6521   0.337   6.169   6.910
 1874SOL    HW2 6522   0.318   6.239   0.038
 1875SOL     OW 6523   6.482   5.156   0.008
 1875SOL    HW1 6524   6.545   5.105   6.968
 1875SOL    HW2 6525   6.531   5.191   0.088
 1876SOL     OW 6526   6.814   5.809   0.032
 1876SOL    HW1 6527   6.854   5.806   6.958
 1876SOL    HW2 6528   6.885   5.790   0.099
 1877SOL     OW 6529   0.736   1.270   2.468
 1877SOL    HW1 6530   0.680   1.251   2.549
 1877SOL    HW2 6531   0.829   1.236   2.484
 1878SOL     OW 6532   6.743   3.711   3.659
 1878SOL    HW1 6533   6.701   3.738   3.746
 1878SOL    HW2 6534   6.838   3.741   3.657
 1879SOL     OW 6535   4.555   6.071   4.652
 1879SOL    HW1 6536   4.553   6.168   4.677
 1879SOL    HW2 6537   4.511   6.017   4.723
 1880SOL     OW 6538   0.118   1.794   4.131
 1880SOL    HW1 6539   0.180   1.786   4.053
 1880SOL    HW2 6540   0.070   1.707   4.144
 1881SOL     OW 6541   1.192   1.633   4.264
 1881SOL    HW1 6542   1.285   1.600   4.280
 1881SOL    HW2 6543   1.190   1.687   4.179
 1882SOL     OW 6544   1.926   5.619   6.853
 1882SOL    HW1 6545   1.954   5.527   6.878
 1882SOL    HW2 6546   1.836   5.617   6.811
 1883SOL     OW 6547   1.672   2.886   2.320
 1883SOL    HW1 6548   1.741   2.958   2.313
 1883SOL    HW2 6549   1.613   2.904   2.398
 1884SOL     OW 6550   2.885   1.300   0.340
 1884SOL    HW1 6551   2.929   1.245   0.268
 1884SOL    HW2 6552   2.829   1.372   0.297
 1885SOL     OW 6553   0.341   2.172   1.101
 1885SOL    HW1 6554   0.389   2.154   1.187
 1885SOL    HW2 6555   0.299   2.263   1.104
 1886SOL     OW 6556   2.992   2.538   6.168
 1886SOL    HW1 6557   3.050   2.597   6.112
 1886SOL    HW2 6558   3.003   2.443   6.140
 1887SOL     OW 6559   0.167   7.007   5.484
 1887SOL    HW1 6560   0.223   6.975   5.560
 1887SOL    HW2 6561   0.222   0.048   5.425
 1888SOL     OW 6562   2.216   2.052   5.598
 1888SOL    HW1 6563   2.312   2.032   5.619
 1888SOL    HW2 6564   2.185   1.993   5.523
 1889SOL     OW 6565   3.478   2.987   0.169
 1889SOL    HW1 6566   3.511   2.909   0.116
 1889SOL    HW2 6567   3.460   2.958   0.263
 1890SOL     OW 6568   6.382   5.593   6.355
 1890SOL    HW1 6569   6.465   5.539   6.367
 1890SOL    HW2 6570   6.338   5.568   6.269
 1891SOL     OW 6571   5.915   4.152   5.172
 1891SOL    HW1 6572   5.815   4.151   5.167
 1891SOL    HW2 6573   5.953   4.171   5.081
 1892SOL     OW 6574   4.013   6.046   1.219
 1892SOL    HW1 6575   3.975   6.096   1.141
 1892SOL    HW2 6576   4.069   5.970   1.186
 1893SOL     OW 6577   4.089   1.917   4.376
 1893SOL    HW1 6578   3.993   1.901   4.354
 1893SOL    HW2 6579   4.110   2.014   4.366
 1894SOL     OW 6580   3.984   3.968   0.928
 1894SOL    HW1 6581   3.990   3.938   1.024
 1894SOL    HW2 6582   3.919   3.910   0.879
 1895SOL     OW 6583   5.236   0.675   2.811
 1895SOL    HW1 6584   5.183   0.750   2.770
 1895SOL    HW2 6585   5.333   0.688   2.790
 1896SOL     OW 6586   6.751   1.048   5.857
 1896SOL    HW1 6587   6.844   1.068   5.886
 1896SOL    HW2 6588   6.698   1.016   5.935
 1897SOL     OW 6589   5.832   5.054   3.506
 1897SOL    HW1 6590   5.767   5.119   3.546
 1897SOL    HW2 6591   5.923   5.094   3.503
 1898SOL     OW 6592   5.752   5.140   0.129
 1898SOL    HW1 6593   5.716   5.063   0.078
 1898SOL    HW2 6594   5.852   5.139   0.125
 1899SOL     OW 6595   0.926   3.275   3.277
 1899SOL    HW1 6596   0.952   3.361   3.321
 1899SOL    HW2 6597   0.855   3.292   3.209
 1900SOL     OW 6598   2.589   5.757   0.368
 1900SOL    HW1 6599   2.511   5.783   0.312
 1900SOL    HW2 6600   2.562   5.754   0.464
 1901SOL     OW 6601   1.542   1.577   7.017
 1901SOL    HW1 6602   1.465   1.595   6.956
 1901SOL    HW2 6603   1.626   1.614   6.976
 1902SOL     OW 6604   1.314   2.768   4.950
 1902SOL    HW1 6605   1.298   2.670   4.960
 1902SOL    HW2 6606   1.366   2.801   5.030
 1903SOL     OW 6607   6.298   3.206   4.104
 1903SOL    HW1 6608   6.299   3.109   4.130
 1903SOL    HW2 6609   6.225   3.253   4.153
 1904SOL     OW 6610   6.798   0.019   3.771
 1904SOL    HW1 6611   6.866   0.005   3.843
 1904SOL    HW2 6612   6.833   0.086   3.706
 1905SOL     OW 6613   6.581   2.934   3.889
 1905SOL    HW1 6614   6.544   3.010   3.942
 1905SOL    HW2 6615   6.563   2.948   3.792
 1906SOL     OW 6616   2.608   6.737   0.542
 1906SOL    HW1 6617   2.596   6.697   0.451
 1906SOL    HW2 6618   2.549   6.689   0.607
 1907SOL     OW 6619   3.372   6.184   3.321
 1907SOL    HW1 6620   3.421   6.250   3.265
 1907SOL    HW2 6621   3.433   6.110   3.347
 1908SOL     OW 6622   4.893   1.341   6.755
 1908SOL    HW1 6623   4.905   1.344   6.656
 1908SOL    HW2 6624   4.807   1.297   6.777
 1909SOL     OW 6625   3.023   4.960   4.484
 1909SOL    HW1 6626   3.086   4.953   4.562
 1909SOL    HW2 6627   2.958   5.035   4.500
 1910SOL     OW 6628   4.826   1.567   5.663
 1910SOL    HW1 6629   4.821   1.578   5.564
 1910SOL    HW2 6630   4.821   1.657   5.707
 1911SOL     OW 6631   6.301   3.762   6.120
 1911SOL    HW1 6632   6.289   3.801   6.028
 1911SOL    HW2 6633   6.348   3.674   6.113
 1912SOL     OW 6634   3.784   6.787   3.501
 1912SOL    HW1 6635   3.861   6.732   3.533
 1912SOL    HW2 6636   3.711   6.727   3.470
 1913SOL     OW 6637   1.312   4.192   5.437
 1913SOL    HW1 6638   1.395   4.230   5.397
 1913SOL    HW2 6639   1.242   4.264   5.442
 1914SOL     OW 6640   3.937   1.814   5.573
 1914SOL    HW1 6641   4.004   1.851   5.637
 1914SOL    HW2 6642   3.928   1.875   5.494
 1915SOL     OW 6643   3.045   0.104   5.437
 1915SOL    HW1 6644   3.109   0.029   5.456
 1915SOL    HW2 6645   3.058   0.176   5.506
 1916SOL     OW 6646   3.805   6.452   0.976
 1916SOL    HW1 6647   3.875   6.523   0.972
 1916SOL    HW2 6648   3.833   6.374   0.919
 1917SOL     OW 6649   3.138   3.033   4.054
 1917SOL    HW1 6650   3.103   2.939   4.056
 1917SOL    HW2 6651   3.078   3.090   3.998
 1918SOL     OW 6652   5.741   6.896   4.163
 1918SOL    HW1 6653   5.790   6.835   4.101
 1918SOL    HW2 6654   5.759   6.870   4.258
 1919SOL     OW 6655   6.650   6.833   1.303
 1919SOL    HW1 6656   6.741   6.798   1.283
 1919SOL    HW2 6657   6.590   6.758   1.330
 1920SOL     OW 6658   6.767   5.829   4.174
 1920SOL    HW1 6659   6.851   5.776   4.175
 1920SOL    HW2 6660   6.739   5.850   4.267
 1921SOL     OW 6661   1.317   0.002   7.016
 1921SOL    HW1 6662   1.325   6.934   0.047
 1921SOL    HW2 6663   1.275   7.004   6.926
 1922SOL     OW 6664   3.265   4.225   0.273
 1922SOL    HW1 6665   3.222   4.234   0.183
 1922SOL    HW2 6666   3.262   4.312   0.321
 1923SOL     OW 6667   1.855   1.750   0.767
 1923SOL    HW1 6668   1.893   1.660   0.743
 1923SOL    HW2 6669   1.900   1.821   0.712
 1924SOL     OW 6670   0.434   4.684   1.432
 1924SOL    HW1 6671   0.471   4.628   1.357
 1924SOL    HW2 6672   0.499   4.756   1.455
 1925SOL     OW 6673   3.096   4.365   0.962
 1925SOL    HW1 6674   3.095   4.429   1.039
 1925SOL    HW2 6675   3.005   4.359   0.922
 1926SOL     OW 6676   1.111   0.218   3.721
 1926SOL    HW1 6677   1.019   0.257   3.719
 1926SOL    HW2 6678   1.160   0.252   3.801
 1927SOL     OW 6679   3.927   2.924   6.933
 1927SOL    HW1 6680   3.971   2.841   6.899
 1927SOL    HW2 6681   3.983   3.003   6.907
 1928SOL     OW 6682   5.959   4.632   6.045
 1928SOL    HW1 6683   5.975   4.541   6.083
 1928SOL    HW2 6684   5.863   4.657   6.056
 1929SOL     OW 6685   1.424   6.663   2.070
 1929SOL    HW1 6686   1.360   6.738   2.086
 1929SOL    HW2 6687   1.388   6.603   1.998
 1930SOL     OW 6688   5.617   3.940   6.173
 1930SOL    HW1 6689   5.709   3.972   6.152
 1930SOL    HW2 6690   5.604   3.848   6.136
 1931SOL     OW 6691   0.376   2.393   4.888
 1931SOL    HW1 6692   0.401   2.327   4.959
 1931SOL    HW2 6693   0.284   2.429   4.906
 1932SOL     OW 6694   6.098   3.655   1.473
 1932SOL    HW1 6695   6.119   3.728   1.538
 1932SOL    HW2 6696   6.131   3.681   1.382
 1933SOL     OW 6697   3.274   4.054   1.301
 1933SOL    HW1 6698   3.230   4.139   1.329
 1933SOL    HW2 6699   3.224   4.014   1.224
 1934SOL     OW 6700   1.170   6.009   5.233
 1934SOL    HW1 6701   1.215   5.931   5.276
 1934SOL    HW2 6702   1.237   6.080   5.214
 1935SOL     OW 6703   2.086   1.255   3.548
 1935SOL    HW1 6704   2.021   1.323   3.582
 1935SOL    HW2 6705   2.088   1.256   3.448
 1936SOL     OW 6706   6.222   5.447   5.309
 1936SOL    HW1 6707   6.286   5.393   5.363
 1936SOL    HW2 6708   6.186   5.522   5.365
 1937SOL     OW 6709   3.879   6.585   1.753
 1937SOL    HW1 6710   3.925   6.643   1.821
 1937SOL    HW2 6711   3.921   6.495   1.752
 1938SOL     OW 6712   4.606   0.846   3.609
 1938SOL    HW1 6713   4.562   0.928   3.647
 1938SOL    HW2 6714   4.560   0.764   3.643
 1939SOL     OW 6715   1.914   0.798   3.527
 1939SOL    HW1 6716   1.878   0.864   3.593
 1939SOL    HW2 6717   1.864   0.806   3.441
 1940SOL     OW 6718   0.184   5.535   6.921
 1940SOL    HW1 6719   0.114   5.602   6.945
 1940SOL    HW2 6720   0.269   5.556   6.969
 1941SOL     OW 6721   4.740   4.084   2.956
 1941SOL    HW1 6722   4.760   4.030   3.038
 1941SOL    HW2 6723   4.744   4.025   2.875
 1942SOL     OW 6724   6.201   4.869   2.779
 1942SOL    HW1 6725   6.157   4.951   2.743
 1942SOL    HW2 6726   6.180   4.860   2.877
 1943SOL     OW 6727   2.644   5.140   2.534
 1943SOL    HW1 6728   2.573   5.210   2.535
 1943SOL    HW2 6729   2.693   5.140   2.621
 1944SOL     OW 6730   6.757   1.097   1.038
 1944SOL    HW1 6731   6.733   1.187   1.002
 1944SOL    HW2 6732   6.818   1.108   1.117
 1945SOL     OW 6733   3.172   4.964   4.108
 1945SOL    HW1 6734   3.080   4.942   4.139
 1945SOL    HW2 6735   3.230   4.986   4.186
 1946SOL     OW 6736   1.376   0.598   0.106
 1946SOL    HW1 6737   1.376   0.618   0.008
 1946SOL    HW2 6738   1.465   0.623   0.145
 1947SOL     OW 6739   5.781   5.483   3.740
 1947SOL    HW1 6740   5.834   5.543   3.800
 1947SOL    HW2 6741   5.733   5.415   3.795
 1948SOL     OW 6742   6.142   5.113   4.706
 1948SOL    HW1 6743   6.234   5.094   4.741
 1948SOL    HW2 6744   6.078   5.119   4.783
 1949SOL     OW 6745   4.495   3.984   6.552
 1949SOL    HW1 6746   4.571   4.048   6.550
 1949SOL    HW2 6747   4.461   3.969   6.459
 1950SOL     OW 6748   3.103   3.668   6.795
 1950SOL    HW1 6749   3.014   3.713   6.795
 1950SOL    HW2 6750   3.124   3.636   6.887
 1951SOL     OW 6751   6.181   1.580   6.776
 1951SOL    HW1 6752   6.199   1.663   6.723
 1951SOL    HW2 6753   6.084   1.577   6.802
 1952SOL     OW 6754   3.636   1.984   6.922
 1952SOL    HW1 6755   3.587   2.036   6.851
 1952SOL    HW2 6756   3.735   1.993   6.907
 1953SOL     OW 6757   0.017   2.791   6.414
 1953SOL    HW1 6758   0.086   2.765   6.482
 1953SOL    HW2 6759   6.995   2.879   6.440
 1954SOL     OW 6760   3.152   2.168   4.077
 1954SOL    HW1 6761   3.188   2.174   4.169
 1954SOL    HW2 6762   3.088   2.243   4.060
 1955SOL     OW 6763   0.201   6.601   3.085
 1955SOL    HW1 6764   0.234   6.683   3.133
 1955SOL    HW2 6765   0.280   6.548   3.053
 1956SOL     OW 6766   6.044   5.398   2.739
 1956SOL    HW1 6767   6.027   5.460   2.663
 1956SOL    HW2 6768   5.960   5.350   2.763
 1957SOL     OW 6769   0.193   6.514   5.566
 1957SOL    HW1 6770   0.104   6.499   5.608
 1957SOL    HW2 6771   0.211   6.441   5.499
 1958SOL     OW 6772   5.555   3.257   5.918
 1958SOL    HW1 6773   5.484   3.241   5.850
 1958SOL    HW2 6774   5.567   3.175   5.974
 1959SOL     OW 6775   1.516   2.049   6.258
 1959SOL    HW1 6776   1.530   2.017   6.164
 1959SOL    HW2 6777   1.582   2.121   6.279
 1960SOL     OW 6778   5.514   5.461   0.893
 1960SOL    HW1 6779   5.586   5.510   0.943
 1960SOL    HW2 6780   5.551   5.376   0.856
 1961SOL     OW 6781   5.683   4.200   3.758
 1961SOL    HW1 6782   5.585   4.220   3.757
 1961SOL    HW2 6783   5.697   4.102   3.753
 1962SOL     OW 6784   1.070   6.595   3.779
 1962SOL    HW1 6785   1.082   6.508   3.828
 1962SOL    HW2 6786   1.076   6.671   3.844
 1963SOL     OW 6787   0.858   0.383   3.298
 1963SOL    HW1 6788   0.804   0.339   3.226
 1963SOL    HW2 6789   0.937   0.428   3.258
 1964SOL     OW 6790   5.153   3.567   2.954
 1964SOL    HW1 6791   5.240   3.612   2.975
 1964SOL    HW2 6792   5.146   3.553   2.855
 1965SOL     OW 6793   1.360   4.057   3.305
 1965SOL    HW1 6794   1.415   4.006   3.371
 1965SOL    HW2 6795   1.414   4.132   3.267
 1966SOL     OW 6796   6.421   5.262   5.413
 1966SOL    HW1 6797   6.437   5.277   5.510
 1966SOL    HW2 6798   6.507   5.239   5.368
 1967SOL     OW 6799   4.786   3.002   5.294
 1967SOL    HW1 6800   4.762   2.922   5.239
 1967SOL    HW2 6801   4.752   2.990   5.387
 1968SOL     OW 6802   3.447   6.054   6.389
 1968SOL    HW1 6803   3.347   6.062   6.383
 1968SOL    HW2 6804   3.474   5.960   6.371
 1969SOL     OW 6805   0.161   2.373   1.104
 1969SOL    HW1 6806   0.186   2.458   1.150
 1969SOL    HW2 6807   0.100   2.319   1.162
 1970SOL     OW 6808   1.690   0.916   4.226
 1970SOL    HW1 6809   1.671   0.940   4.321
 1970SOL    HW2 6810   1.614   0.946   4.169
 1971SOL     OW 6811   0.394   6.603   6.880
 1971SOL    HW1 6812   0.488   6.619   6.909
 1971SOL    HW2 6813   0.345   6.689   6.878
 1972SOL     OW 6814   0.724   4.696   3.741
 1972SOL    HW1 6815   0.787   4.621   3.758
 1972SOL    HW2 6816   0.721   4.716   3.643
 1973SOL     OW 6817   3.347   3.342   1.623
 1973SOL    HW1 6818   3.319   3.268   1.684
 1973SOL    HW2 6819   3.269   3.371   1.568
 1974SOL     OW 6820   5.065   0.727   3.908
 1974SOL    HW1 6821   5.072   0.800   3.976
 1974SOL    HW2 6822   5.124   0.651   3.935
 1975SOL     OW 6823   3.410   0.245   4.136
 1975SOL    HW1 6824   3.430   0.191   4.055
 1975SOL    HW2 6825   3.332   0.305   4.118
 1976SOL     OW 6826   0.301   5.672   0.524
 1976SOL    HW1 6827   0.213   5.631   0.548
 1976SOL    HW2 6828   0.293   5.720   0.437
 1977SOL     OW 6829   1.039   2.395   4.870
 1977SOL    HW1 6830   0.986   2.421   4.950
 1977SOL    HW2 6831   0.984   2.409   4.788
 1978SOL     OW 6832   6.279   1.747   4.197
 1978SOL    HW1 6833   6.238   1.837   4.212
 1978SOL    HW2 6834   6.378   1.754   4.205
 1979SOL     OW 6835   6.099   4.585   3.990
 1979SOL    HW1 6836   6.088   4.501   4.043
 1979SOL    HW2 6837   6.018   4.642   3.999
 1980SOL     OW 6838   4.202   0.519   1.300
 1980SOL    HW1 6839   4.168   0.499   1.208
 1980SOL    HW2 6840   4.258   0.602   1.298
 1981SOL     OW 6841   5.008   2.937   2.073
 1981SOL    HW1 6842   5.075   2.961   2.004
 1981SOL    HW2 6843   4.920   2.978   2.049
 1982SOL     OW 6844   5.582   5.868   4.570
 1982SOL    HW1 6845   5.616   5.777   4.592
 1982SOL    HW2 6846   5.514   5.896   4.638
 1983SOL     OW 6847   0.990   3.484   3.444
 1983SOL    HW1 6848   0.936   3.468   3.526
 1983SOL    HW2 6849   1.085   3.505   3.470
 1984SOL     OW 6850   4.185   1.503   6.624
 1984SOL    HW1 6851   4.087   1.484   6.618
 1984SOL    HW2 6852   4.219   1.533   6.535
 1985SOL     OW 6853   1.377   0.689   1.619
 1985SOL    HW1 6854   1.428   0.690   1.705
 1985SOL    HW2 6855   1.433   0.729   1.546
 1986SOL     OW 6856   1.724   1.673   6.633
 1986SOL    HW1 6857   1.748   1.585   6.674
 1986SOL    HW2 6858   1.787   1.694   6.558
 1987SOL     OW 6859   2.641   3.498   0.791
 1987SOL    HW1 6860   2.555   3.447   0.789
 1987SOL    HW2 6861   2.718   3.435   0.778
 1988SOL     OW 6862   4.557   3.805   0.678
 1988SOL    HW1 6863   4.593   3.733   0.738
 1988SOL    HW2 6864   4.599   3.892   0.701
 1989SOL     OW 6865   2.267   0.188   4.013
 1989SOL    HW1 6866   2.324   0.110   3.989
 1989SOL    HW2 6867   2.263   0.252   3.937
 1990SOL     OW 6868   3.293   0.600   1.635
 1990SOL    HW1 6869   3.355   0.666   1.676
 1990SOL    HW2 6870   3.328   0.507   1.649
 1991SOL     OW 6871   3.017   5.399   4.224
 1991SOL    HW1 6872   2.978   5.318   4.180
 1991SOL    HW2 6873   2.946   5.468   4.236
 1992SOL     OW 6874   2.263   6.332   5.650
 1992SOL    HW1 6875   2.208   6.347   5.567
 1992SOL    HW2 6876   2.235   6.398   5.720
 1993SOL     OW 6877   3.884   3.629   5.694
 1993SOL    HW1 6878   3.891   3.606   5.791
 1993SOL    HW2 6879   3.814   3.700   5.682
 1994SOL     OW 6880   6.414   2.226   2.158
 1994SOL    HW1 6881   6.332   2.169   2.154
 1994SOL    HW2 6882   6.397   2.306   2.216
 1995SOL     OW 6883   5.765   1.990   1.962
 1995SOL    HW1 6884   5.714   2.063   1.915
 1995SOL    HW2 6885   5.701   1.928   2.006
 1996SOL     OW 6886   3.549   4.085   0.073
 1996SOL    HW1 6887   3.649   4.078   0.082
 1996SOL    HW2 6888   3.526   4.169   0.024
 1997SOL     OW 6889   4.860   0.783   3.747
 1997SOL    HW1 6890   4.857   0.715   3.674
 1997SOL    HW2 6891   4.939   0.766   3.806
 1998SOL     OW 6892   2.917   4.413   5.549
 1998SOL    HW1 6893   2.911   4.391   5.451
 1998SOL    HW2 6894   2.889   4.333   5.602
 1999SOL     OW 6895   2.082   0.067   2.405
 1999SOL    HW1 6896   2.156   0.122   2.368
 1999SOL    HW2 6897   2.097   0.052   2.503
 2000SOL     OW 6898   4.120   1.419   4.814
 2000SOL    HW1 6899   4.102   1.347   4.747
 2000SOL    HW2 6900   4.059   1.407   4.892
 2001SOL     OW 6901   2.768   1.269   1.085
 2001SOL    HW1 6902   2.709   1.197   1.121
 2001SOL    HW2 6903   2.777   1.258   0.986
 2002SOL     OW 6904   1.700   5.331   5.538
 2002SOL    HW1 6905   1.780   5.277   5.564
 2002SOL    HW2 6906   1.715   5.426   5.562
 2003SOL     OW 6907   5.942   5.969   3.343
 2003SOL    HW1 6908   5.975   5.882   3.381
 2003SOL    HW2 6909   5.968   6.044   3.404
 2004SOL     OW 6910   2.988   0.927   5.831
 2004SOL    HW1 6911   3.052   0.998   5.800
 2004SOL    HW2 6912   3.001   0.911   5.929
 2005SOL     OW 6913   1.968   5.863   5.575
 2005SOL    HW1 6914   2.013   5.773   5.581
 2005SOL    HW2 6915   1.904   5.863   5.499
 2006SOL     OW 6916   4.151   5.129   4.360
 2006SOL    HW1 6917   4.123   5.199   4.427
 2006SOL    HW2 6918   4.094   5.048   4.371
 2007SOL     OW 6919   5.286   5.569   0.983
 2007SOL    HW1 6920   5.374   5.526   0.967
 2007SOL    HW2 6921   5.221   5.540   0.913
 2008SOL     OW 6922   6.958   6.315   3.659
 2008SOL    HW1 6923   6.918   6.253   3.726
 2008SOL    HW2 6924   7.003   6.263   3.587
 2009SOL     OW 6925   6.766   0.228   1.801
 2009SOL    HW1 6926   6.735   0.324   1.802
 2009SOL    HW2 6927   6.781   0.197   1.895
 2010SOL     OW 6928   0.736   0.292   0.424
 2010SOL    HW1 6929   0.664   0.228   0.397
 2010SOL    HW2 6930   0.694   0.374   0.465
 2011SOL     OW 6931   6.801   1.739   4.626
 2011SOL    HW1 6932   6.886   1.775   4.665
 2011SOL    HW2 6933   6.723   1.778   4.676
 2012SOL     OW 6934   1.853   4.209   0.634
 2012SOL    HW1 6935   1.874   4.232   0.729
 2012SOL    HW2 6936   1.932   4.165   0.592
 2013SOL     OW 6937   5.692   1.895   2.391
 2013SOL    HW1 6938   5.740   1.961   2.335
 2013SOL    HW2 6939   5.650   1.941   2.469
 2014SOL     OW 6940   1.929   5.497   3.464
 2014SOL    HW1 6941   1.999   5.564   3.436
 2014SOL    HW2 6942   1.942   5.474   3.561
 2015SOL     OW 6943   3.044   0.288   0.132
 2015SOL    HW1 6944   3.097   0.355   0.080
 2015SOL    HW2 6945   2.991   0.334   0.203
 2016SOL     OW 6946   0.692   5.655   4.401
 2016SOL    HW1 6947   0.715   5.599   4.322
 2016SOL    HW2 6948   0.766   5.720   4.419
 2017SOL     OW 6949   2.911   5.921   3.087
 2017SOL    HW1 6950   2.845   5.995   3.096
 2017SOL    HW2 6951   2.874   5.838   3.130
 2018SOL     OW 6952   0.351   5.250   6.118
 2018SOL    HW1 6953   0.379   5.336   6.075
 2018SOL    HW2 6954   0.433   5.196   6.139
 2019SOL     OW 6955   6.046   2.179   1.998
 2019SOL    HW1 6956   6.013   2.140   1.912
 2019SOL    HW2 6957   5.974   2.235   2.038
 2020SOL     OW 6958   2.326   5.431   3.128
 2020SOL    HW1 6959   2.245   5.417   3.071
 2020SOL    HW2 6960   2.388   5.353   3.117
 2021SOL     OW 6961   1.654   0.633   2.330
 2021SOL    HW1 6962   1.691   0.628   2.422
 2021SOL    HW2 6963   1.654   0.729   2.299
 2022SOL     OW 6964   2.377   3.646   1.642
 2022SOL    HW1 6965   2.364   3.733   1.688
 2022SOL    HW2 6966   2.374   3.572   1.709
 2023SOL     OW 6967   6.617   0.965   6.063
 2023SOL    HW1 6968   6.661   0.891   6.115
 2023SOL    HW2 6969   6.519   0.948   6.056
 2024SOL     OW 6970   5.808   0.944   3.473
 2024SOL    HW1 6971   5.850   0.913   3.558
 2024SOL    HW2 6972   5.823   1.042   3.462
 2025SOL     OW 6973   0.120   1.489   2.009
 2025SOL    HW1 6974   0.184   1.416   1.987
 2025SOL    HW2 6975   0.132   1.517   2.104
 2026SOL     OW 6976   2.293   1.762   5.430
 2026SOL    HW1 6977   2.226   1.835   5.419
 2026SOL    HW2 6978   2.287   1.699   5.353
 2027SOL     OW 6979   1.365   1.335   2.442
 2027SOL    HW1 6980   1.334   1.430   2.436
 2027SOL    HW2 6981   1.338   1.297   2.530
 2028SOL     OW 6982   3.699   2.586   0.235
 2028SOL    HW1 6983   3.707   2.489   0.256
 2028SOL    HW2 6984   3.791   2.624   0.220
 2029SOL     OW 6985   0.857   1.425   6.780
 2029SOL    HW1 6986   0.939   1.381   6.817
 2029SOL    HW2 6987   0.801   1.460   6.855
 2030SOL     OW 6988   1.939   2.167   3.412
 2030SOL    HW1 6989   1.996   2.086   3.420
 2030SOL    HW2 6990   1.935   2.196   3.316
 2031SOL     OW 6991   5.627   6.645   1.838
 2031SOL    HW1 6992   5.605   6.588   1.759
 2031SOL    HW2 6993   5.703   6.706   1.815
 2032SOL     OW 6994   4.686   6.157   1.033
 2032SOL    HW1 6995   4.621   6.095   0.987
 2032SOL    HW2 6996   4.660   6.167   1.129
 2033SOL     OW 6997   5.223   4.698   6.419
 2033SOL    HW1 6998   5.149   4.731   6.478
 2033SOL    HW2 6999   5.212   4.600   6.403
 2034SOL     OW 7000   2.021   6.991   3.140
 2034SOL    HW1 7001   1.928   0.009   3.149
 2034SOL    HW2 7002   2.078   0.037   3.088
 2035SOL     OW 7003   0.594   1.938   2.339
 2035SOL    HW1 7004   0.692   1.960   2.344
 2035SOL    HW2 7005   0.575   1.859   2.397
 2036SOL     OW 7006   0.708   5.380   0.519
 2036SOL    HW1 7007   0.687   5.293   0.474
 2036SOL    HW2 7008   0.627   5.414   0.567
 2037SOL     OW 7009   6.919   2.106   5.783
 2037SOL    HW1 7010   6.917   2.070   5.876
 2037SOL    HW2 7011   6.924   2.031   5.718
 2038SOL     OW 7012   0.285   1.237   4.537
 2038SOL    HW1 7013   0.321   1.327   4.561
 2038SOL    HW2 7014   0.196   1.223   4.580
 2039SOL     OW 7015   6.907   5.843   3.211
 2039SOL    HW1 7016   6.890   5.757   3.259
 2039SOL    HW2 7017   6.897   5.829   3.113
 2040SOL     OW 7018   3.967   3.394   4.653
 2040SOL    HW1 7019   3.984   3.404   4.555
 2040SOL    HW2 7020   3.971   3.484   4.697
 2041SOL     OW 7021   5.837   4.811   5.492
 2041SOL    HW1 7022   5.796   4.850   5.575
 2041SOL    HW2 7023   5.888   4.882   5.444
 2042SOL     OW 7024   4.750   5.461   0.274
 2042SOL    HW1 7025   4.743   5.410   0.359
 2042SOL    HW2 7026   4.664   5.455   0.223
 2043SOL     OW 7027   5.665   4.374   2.150
 2043SOL    HW1 7028   5.706   4.294   2.107
 2043SOL    HW2 7029   5.700   4.383   2.244
 2044SOL     OW 7030   6.130   0.043   1.628
 2044SOL    HW1 7031   6.104   0.138   1.609
 2044SOL    HW2 7032   6.117   0.024   1.725
 2045SOL     OW 7033   2.392   4.808   5.670
 2045SOL    HW1 7034   2.296   4.781   5.662
 2045SOL    HW2 7035   2.450   4.726   5.663
 2046SOL     OW 7036   6.332   0.128   4.107
 2046SOL    HW1 7037   6.238   0.100   4.127
 2046SOL    HW2 7038   6.343   0.139   4.009
 2047SOL     OW 7039   5.129   2.465   0.703
 2047SOL    HW1 7040   5.071   2.406   0.647
 2047SOL    HW2 7041   5.148   2.550   0.653
 2048SOL     OW 7042   4.729   0.858   6.433
 2048SOL    HW1 7043   4.807   0.804   6.401
 2048SOL    HW2 7044   4.763   0.937   6.485
 2049SOL     OW 7045   4.081   1.213   0.199
 2049SOL    HW1 7046   4.073   1.114   0.215
 2049SOL    HW2 7047   4.143   1.229   0.122
 2050SOL     OW 7048   6.200   2.970   4.175
 2050SOL    HW1 7049   6.130   3.013   4.118
 2050SOL    HW2 7050   6.159   2.939   4.261
 2051SOL     OW 7051   1.301   6.148   0.363
 2051SOL    HW1 7052   1.266   6.162   0.271
 2051SOL    HW2 7053   1.234   6.182   0.429
 2052SOL     OW 7054   1.107   2.887   6.577
 2052SOL    HW1 7055   1.045   2.837   6.516
 2052SOL    HW2 7056   1.089   2.861   6.672
 2053SOL     OW 7057   6.257   0.821   6.701
 2053SOL    HW1 7058   6.163   0.832   6.667
 2053SOL    HW2 7059   6.255   0.789   6.796
 2054SOL     OW 7060   5.617   2.581   0.436
 2054SOL    HW1 7061   5.661   2.525   0.507
 2054SOL    HW2 7062   5.685   2.644   0.398
 2055SOL     OW 7063   5.257   2.400   3.578
 2055SOL    HW1 7064   5.257   2.331   3.650
 2055SOL    HW2 7065   5.243   2.490   3.617
 2056SOL     OW 7066   2.158   1.009   2.941
 2056SOL    HW1 7067   2.208   0.963   3.014
 2056SOL    HW2 7068   2.066   1.031   2.972
 2057SOL     OW 7069   6.512   2.942   4.261
 2057SOL    HW1 7070   6.540   2.851   4.232
 2057SOL    HW2 7071   6.412   2.945   4.269
 2058SOL     OW 7072   6.849   2.150   2.668
 2058SOL    HW1 7073   6.912   2.217   2.628
 2058SOL    HW2 7074   6.901   2.079   2.715
 2059SOL     OW 7075   2.204   1.104   6.980
 2059SOL    HW1 7076   2.204   1.146   6.889
 2059SOL    HW2 7077   2.296   1.110   0.001
 2060SOL     OW 7078   0.036   4.516   1.974
 2060SOL    HW1 7079   0.005   4.445   1.911
 2060SOL    HW2 7080   0.009   4.492   2.068
 2061SOL     OW 7081   6.745   1.409   2.360
 2061SOL    HW1 7082   6.720   1.396   2.265
 2061SOL    HW2 7083   6.813   1.482   2.367
 2062SOL     OW 7084   4.738   0.353   2.479
 2062SOL    HW1 7085   4.733   0.403   2.393
 2062SOL    HW2 7086   4.782   0.411   2.548
 2063SOL     OW 7087   1.598   3.177   6.344
 2063SOL    HW1 7088   1.691   3.205   6.320
 2063SOL    HW2 7089   1.553   3.138   6.264
 2064SOL     OW 7090   0.838   2.339   6.217
 2064SOL    HW1 7091   0.741   2.317   6.218
 2064SOL    HW2 7092   0.873   2.338   6.311
 2065SOL     OW 7093   6.147   3.707   2.136
 2065SOL    HW1 7094   6.099   3.671   2.216
 2065SOL    HW2 7095   6.201   3.635   2.094
 2066SOL     OW 7096   6.986   6.895   4.940
 2066SOL    HW1 7097   0.008   6.966   4.998
 2066SOL    HW2 7098   6.902   6.931   4.898
 2067SOL     OW 7099   6.192   6.535   0.882
 2067SOL    HW1 7100   6.116   6.518   0.818
 2067SOL    HW2 7101   6.272   6.567   0.831
 2068SOL     OW 7102   2.106   1.700   5.628
 2068SOL    HW1 7103   2.170   1.703   5.552
 2068SOL    HW2 7104   2.153   1.671   5.711
 2069SOL     OW 7105   1.137   2.742   2.171
 2069SOL    HW1 7106   1.176   2.711   2.258
 2069SOL    HW2 7107   1.204   2.799   2.124
 2070SOL     OW 7108   1.354   1.550   2.854
 2070SOL    HW1 7109   1.297   1.506   2.924
 2070SOL    HW2 7110   1.392   1.480   2.793
 2071SOL     OW 7111   0.506   6.857   4.023
 2071SOL    HW1 7112   0.508   6.937   3.963
 2071SOL    HW2 7113   0.565   6.785   3.985
 2072SOL     OW 7114   4.805   6.117   1.743
 2072SOL    HW1 7115   4.822   6.026   1.781
 2072SOL    HW2 7116   4.713   6.120   1.703
 2073SOL     OW 7117   3.051   6.651   5.703
 2073SOL    HW1 7118   3.041   6.628   5.606
 2073SOL    HW2 7119   2.964   6.685   5.738
 2074SOL     OW 7120   6.694   1.407   1.032
 2074SOL    HW1 7121   6.629   1.416   1.107
 2074SOL    HW2 7122   6.787   1.425   1.066
 2075SOL     OW 7123   4.235   3.140   0.613
 2075SOL    HW1 7124   4.311   3.127   0.549
 2075SOL    HW2 7125   4.218   3.054   0.662
 2076SOL     OW 7126   5.052   5.864   0.713
 2076SOL    HW1 7127   5.085   5.909   0.630
 2076SOL    HW2 7128   4.981   5.921   0.755
 2077SOL     OW 7129   5.820   1.794   2.750
 2077SOL    HW1 7130   5.789   1.758   2.838
 2077SOL    HW2 7131   5.782   1.738   2.676
 2078SOL     OW 7132   3.068   5.213   6.525
 2078SOL    HW1 7133   3.091   5.215   6.428
 2078SOL    HW2 7134   3.118   5.286   6.573
 2079SOL     OW 7135   5.951   1.194   3.448
 2079SOL    HW1 7136   5.982   1.144   3.367
 2079SOL    HW2 7137   5.956   1.292   3.431
 2080SOL     OW 7138   2.673   2.214   4.954
 2080SOL    HW1 7139   2.680   2.302   4.999
 2080SOL    HW2 7140   2.764   2.176   4.939
 2081SOL     OW 7141   1.313   6.497   4.894
 2081SOL    HW1 7142   1.389   6.504   4.959
 2081SOL    HW2 7143   1.274   6.405   4.899
 2082SOL     OW 7144   5.659   1.077   0.739
 2082SOL    HW1 7145   5.651   1.175   0.718
 2082SOL    HW2 7146   5.756   1.054   0.749
 2083SOL     OW 7147   3.683   4.880   6.494
 2083SOL    HW1 7148   3.730   4.835   6.417
 2083SOL    HW2 7149   3.698   4.978   6.489
 2084SOL     OW 7150   0.001   2.249   3.234
 2084SOL    HW1 7151   0.045   2.302   3.162
 2084SOL    HW2 7152   0.022   2.152   3.220
 2085SOL     OW 7153   4.899   0.577   5.699
 2085SOL    HW1 7154   4.912   0.661   5.646
 2085SOL    HW2 7155   4.821   0.587   5.760
 2086SOL     OW 7156   3.223   4.936   0.348
 2086SOL    HW1 7157   3.244   4.957   0.252
 2086SOL    HW2 7158   3.181   5.016   0.391
 2087SOL     OW 7159   5.774   7.013   2.492
 2087SOL    HW1 7160   5.715   6.947   2.538
 2087SOL    HW2 7161   5.774   0.081   2.543
 2088SOL     OW 7162   3.323   6.420   0.809
 2088SOL    HW1 7163   3.228   6.401   0.833
 2088SOL    HW2 7164   3.362   6.485   0.875
 2089SOL     OW 7165   5.169   1.433   0.086
 2089SOL    HW1 7166   5.253   1.391   0.120
 2089SOL    HW2 7167   5.184   1.530   0.070
 2090SOL     OW 7168   3.691   3.498   4.764
 2090SOL    HW1 7169   3.778   3.546   4.771
 2090SOL    HW2 7170   3.694   3.415   4.819
 2091SOL     OW 7171   0.381   5.862   0.689
 2091SOL    HW1 7172   0.359   5.786   0.627
 2091SOL    HW2 7173   0.320   5.859   0.768
 2092SOL     OW 7174   6.344   6.344   1.219
 2092SOL    HW1 7175   6.363   6.366   1.315
 2092SOL    HW2 7176   6.267   6.400   1.187
 2093SOL     OW 7177   1.274   3.004   1.583
 2093SOL    HW1 7178   1.327   2.967   1.660
 2093SOL    HW2 7179   1.307   3.096   1.561
 2094SOL     OW 7180   6.046   0.078   1.893
 2094SOL    HW1 7181   6.107   0.154   1.870
 2094SOL    HW2 7182   5.960   0.113   1.930
 2095SOL     OW 7183   6.002   5.898   4.137
 2095SOL    HW1 7184   5.965   5.984   4.101
 2095SOL    HW2 7185   6.101   5.895   4.121
 2096SOL     OW 7186   4.752   4.075   2.594
 2096SOL    HW1 7187   4.754   4.174   2.607
 2096SOL    HW2 7188   4.725   4.054   2.500
 2097SOL     OW 7189   0.172   2.580   0.003
 2097SOL    HW1 7190   0.219   2.492   0.009
 2097SOL    HW2 7191   0.082   2.566   6.981
 2098SOL     OW 7192   4.266   6.761   3.776
 2098SOL    HW1 7193   4.320   6.695   3.828
 2098SOL    HW2 7194   4.310   6.779   3.688
 2099SOL     OW 7195   2.592   1.188   4.697
 2099SOL    HW1 7196   2.535   1.246   4.754
 2099SOL    HW2 7197   2.675   1.237   4.671
 2100SOL     OW 7198   4.224   4.057   6.852
 2100SOL    HW1 7199   4.312   4.012   6.866
 2100SOL    HW2 7200   4.186   4.029   6.763
 2101SOL     OW 7201   0.405   0.566   3.031
 2101SOL    HW1 7202   0.381   0.469   3.023
 2101SOL    HW2 7203   0.467   0.578   3.109
 2102SOL     OW 7204   0.168   5.628   2.830
 2102SOL    HW1 7205   0.174   5.728   2.830
 2102SOL    HW2 7206   0.105   5.598   2.758
 2103SOL     OW 7207   3.235   3.067   0.066
 2103SOL    HW1 7208   3.307   3.011   0.108
 2103SOL    HW2 7209   3.181   3.010   0.004
 2104SOL     OW 7210   1.715   3.357   5.694
 2104SOL    HW1 7211   1.783   3.405   5.638
 2104SOL    HW2 7212   1.762   3.286   5.748
 2105SOL     OW 7213   5.354   4.958   3.081
 2105SOL    HW1 7214   5.346   5.032   3.013
 2105SOL    HW2 7215   5.278   4.895   3.070
 2106SOL     OW 7216   4.561   5.765   6.724
 2106SOL    HW1 7217   4.487   5.815   6.679
 2106SOL    HW2 7218   4.649   5.805   6.699
 2107SOL     OW 7219   3.918   4.215   5.500
 2107SOL    HW1 7220   3.861   4.269   5.439
 2107SOL    HW2 7221   4.013   4.221   5.470
 2108SOL     OW 7222   6.048   5.442   5.941
 2108SOL    HW1 7223   6.028   5.507   5.868
 2108SOL    HW2 7224   5.963   5.414   5.985
 2109SOL     OW 7225   5.889   5.894   2.668
 2109SOL    HW1 7226   5.930   5.843   2.592
 2109SOL    HW2 7227   5.942   5.977   2.685
 2110SOL     OW 7228   2.760   4.395   6.297
 2110SOL    HW1 7229   2.687   4.387   6.230
 2110SOL    HW2 7230   2.830   4.458   6.264
 2111SOL     OW 7231   1.180   2.592   6.311
 2111SOL    HW1 7232   1.257   2.572   6.250
 2111SOL    HW2 7233   1.119   2.658   6.267
 2112SOL     OW 7234   4.613   2.452   1.534
 2112SOL    HW1 7235   4.528   2.425   1.488
 2112SOL    HW2 7236   4.689   2.402   1.493
 2113SOL     OW 7237   1.291   0.545   2.810
 2113SOL    HW1 7238   1.220   0.615   2.816
 2113SOL    HW2 7239   1.358   0.572   2.741
 2114SOL     OW 7240   1.370   4.254   0.078
 2114SOL    HW1 7241   1.286   4.303   0.058
 2114SOL    HW2 7242   1.405   4.281   0.168
 2115SOL     OW 7243   2.095   4.888   2.607
 2115SOL    HW1 7244   2.066   4.906   2.701
 2115SOL    HW2 7245   2.063   4.798   2.579
 2116SOL     OW 7246   0.089   3.585   2.601
 2116SOL    HW1 7247   7.008   3.595   2.602
 2116SOL    HW2 7248   0.131   3.676   2.600
 2117SOL     OW 7249   0.284   4.517   1.615
 2117SOL    HW1 7250   0.287   4.419   1.597
 2117SOL    HW2 7251   0.358   4.562   1.566
 2118SOL     OW 7252   6.773   3.864   2.615
 2118SOL    HW1 7253   6.686   3.877   2.568
 2118SOL    HW2 7254   6.801   3.768   2.607
 2119SOL     OW 7255   2.447   5.857   1.268
 2119SOL    HW1 7256   2.465   5.806   1.352
 2119SOL    HW2 7257   2.354   5.893   1.271
 2120SOL     OW 7258   6.294   4.521   1.749
 2120SOL    HW1 7259   6.203   4.530   1.789
 2120SOL    HW2 7260   6.302   4.433   1.703
 2121SOL     OW 7261   0.349   5.233   5.086
 2121SOL    HW1 7262   0.291   5.169   5.037
 2121SOL    HW2 7263   0.396   5.293   5.021
 2122SOL     OW 7264   5.337   4.641   5.099
 2122SOL    HW1 7265   5.411   4.575   5.084
 2122SOL    HW2 7266   5.292   4.621   5.186
 2123SOL     OW 7267   6.860   4.657   2.645
 2123SOL    HW1 7268   6.930   4.686   2.711
 2123SOL    HW2 7269   6.900   4.651   2.554
 2124SOL     OW 7270   2.034   1.454   1.425
 2124SOL    HW1 7271   1.976   1.504   1.360
 2124SOL    HW2 7272   2.006   1.358   1.427
 2125SOL     OW 7273   2.456   0.844   0.231
 2125SOL    HW1 7274   2.494   0.880   0.317
 2125SOL    HW2 7275   2.375   0.789   0.251
 2126SOL     OW 7276   2.868   0.881   6.702
 2126SOL    HW1 7277   2.850   0.914   6.609
 2126SOL    HW2 7278   2.789   0.903   6.760
 2127SOL     OW 7279   5.780   2.940   4.471
 2127SOL    HW1 7280   5.831   2.918   4.555
 2127SOL    HW2 7281   5.845   2.955   4.396
 2128SOL     OW 7282   0.642   4.499   5.049
 2128SOL    HW1 7283   0.567   4.447   5.008
 2128SOL    HW2 7284   0.717   4.437   5.072
 2129SOL     OW 7285   4.818   3.249   5.175
 2129SOL    HW1 7286   4.801   3.150   5.177
 2129SOL    HW2 7287   4.754   3.295   5.236
 2130SOL     OW 7288   4.890   6.854   2.390
 2130SOL    HW1 7289   4.914   6.825   2.297
 2130SOL    HW2 7290   4.840   6.940   2.386
 2131SOL     OW 7291   0.203   0.667   0.681
 2131SOL    HW1 7292   0.148   0.722   0.619
 2131SOL    HW2 7293   0.291   0.711   0.697
 2132SOL     OW 7294   2.880   2.768   1.170
 2132SOL    HW1 7295   2.822   2.716   1.108
 2132SOL    HW2 7296   2.965   2.793   1.123
 2133SOL     OW 7297   3.201   2.305   6.303
 2133SOL    HW1 7298   3.198   2.258   6.391
 2133SOL    HW2 7299   3.297   2.319   6.277
 2134SOL     OW 7300   6.922   1.486   1.102
 2134SOL    HW1 7301   7.003   1.437   1.070
 2134SOL    HW2 7302   6.900   1.456   1.195
 2135SOL     OW 7303   1.085   3.921   4.635
 2135SOL    HW1 7304   1.160   3.987   4.633
 2135SOL    HW2 7305   1.002   3.963   4.598
 2136SOL     OW 7306   2.186   5.395   1.739
 2136SOL    HW1 7307   2.284   5.377   1.733
 2136SOL    HW2 7308   2.143   5.379   1.651
 2137SOL     OW 7309   3.379   5.702   4.998
 2137SOL    HW1 7310   3.453   5.734   4.939
 2137SOL    HW2 7311   3.375   5.759   5.080
 2138SOL     OW 7312   6.194   1.333   2.674
 2138SOL    HW1 7313   6.263   1.283   2.727
 2138SOL    HW2 7314   6.213   1.322   2.577
 2139SOL     OW 7315   3.316   0.818   5.504
 2139SOL    HW1 7316   3.222   0.787   5.488
 2139SOL    HW2 7317   3.375   0.785   5.431
 2140SOL     OW 7318   2.787   0.823   4.794
 2140SOL    HW1 7319   2.739   0.865   4.717
 2140SOL    HW2 7320   2.853   0.757   4.760
 2141SOL     OW 7321   6.004   4.344   2.062
 2141SOL    HW1 7322   6.011   4.374   1.966
 2141SOL    HW2 7323   5.986   4.423   2.120
 2142SOL     OW 7324   1.906   2.838   3.453
 2142SOL    HW1 7325   1.926   2.754   3.503
 2142SOL    HW2 7326   1.818   2.829   3.407
 2143SOL     OW 7327   2.664   4.789   1.372
 2143SOL    HW1 7328   2.614   4.705   1.391
 2143SOL    HW2 7329   2.739   4.799   1.437
 2144SOL     OW 7330   6.682   5.722   3.961
 2144SOL    HW1 7331   6.588   5.689   3.972
 2144SOL    HW2 7332   6.717   5.755   4.049
 2145SOL     OW 7333   4.288   6.627   4.256
 2145SOL    HW1 7334   4.355   6.697   4.283
 2145SOL    HW2 7335   4.311   6.540   4.300
 2146SOL     OW 7336   2.551   3.018   1.142
 2146SOL    HW1 7337   2.615   2.981   1.209
 2146SOL    HW2 7338   2.493   2.944   1.108
 2147SOL     OW 7339   6.500   1.478   5.653
 2147SOL    HW1 7340   6.544   1.412   5.592
 2147SOL    HW2 7341   6.557   1.492   5.734
 2148SOL     OW 7342   6.961   3.233   6.622
 2148SOL    HW1 7343   6.886   3.295   6.645
 2148SOL    HW2 7344   0.025   3.285   6.601
 2149SOL     OW 7345   0.928   0.011   6.932
 2149SOL    HW1 7346   0.839   0.052   6.952
 2149SOL    HW2 7347   0.980   0.071   6.871
 2150SOL     OW 7348   2.412   2.802   1.820
 2150SOL    HW1 7349   2.340   2.832   1.757
 2150SOL    HW2 7350   2.371   2.776   1.908
 2151SOL     OW 7351   0.820   6.347   7.005
 2151SOL    HW1 7352   0.837   6.252   6.980
 2151SOL    HW2 7353   0.901   6.402   6.985
 2152SOL     OW 7354   4.015   6.138   2.270
 2152SOL    HW1 7355   4.029   6.225   2.223
 2152SOL    HW2 7356   4.065   6.066   2.222
 2153SOL     OW 7357   4.509   1.202   2.617
 2153SOL    HW1 7358   4.474   1.285   2.661
 2153SOL    HW2 7359   4.514   1.217   2.519
 2154SOL     OW 7360   3.558   6.579   3.530
 2154SOL    HW1 7361   3.489   6.645   3.501
 2154SOL    HW2 7362   3.513   6.495   3.560
 2155SOL     OW 7363   4.299   6.517   0.491
 2155SOL    HW1 7364   4.324   6.451   0.420
 2155SOL    HW2 7365   4.258   6.598   0.448
 2156SOL     OW 7366   5.269   1.642   4.120
 2156SOL    HW1 7367   5.259   1.728   4.169
 2156SOL    HW2 7368   5.300   1.660   4.026
 2157SOL     OW 7369   4.246   4.945   3.767
 2157SOL    HW1 7370   4.235   4.975   3.862
 2157SOL    HW2 7371   4.195   4.860   3.754
 2158SOL     OW 7372   3.181   0.293   0.745
 2158SOL    HW1 7373   3.244   0.343   0.686
 2158SOL    HW2 7374   3.195   0.195   0.735
 2159SOL     OW 7375   1.587   0.385   6.094
 2159SOL    HW1 7376   1.565   0.448   6.019
 2159SOL    HW2 7377   1.540   0.298   6.078
 2160SOL     OW 7378   4.918   6.086   0.165
 2160SOL    HW1 7379   4.841   6.075   0.101
 2160SOL    HW2 7380   5.003   6.066   0.117
 2161SOL     OW 7381   1.412   4.110   2.428
 2161SOL    HW1 7382   1.474   4.035   2.404
 2161SOL    HW2 7383   1.387   4.103   2.524
 2162SOL     OW 7384   1.643   6.849   3.320
 2162SOL    HW1 7385   1.653   6.795   3.236
 2162SOL    HW2 7386   1.668   6.792   3.398
 2163SOL     OW 7387   1.371   3.362   0.941
 2163SOL    HW1 7388   1.321   3.372   1.027
 2163SOL    HW2 7389   1.336   3.284   0.890
 2164SOL     OW 7390   2.306   2.773   1.559
 2164SOL    HW1 7391   2.372   2.709   1.597
 2164SOL    HW2 7392   2.354   2.843   1.505
 2165SOL     OW 7393   0.102   1.983   3.765
 2165SOL    HW1 7394   0.052   2.060   3.806
 2165SOL    HW2 7395   0.111   1.998   3.667
 2166SOL     OW 7396   0.727   4.282   3.568
 2166SOL    HW1 7397   0.666   4.294   3.646
 2166SOL    HW2 7398   0.814   4.242   3.598
 2167SOL     OW 7399   1.739   2.795   3.897
 2167SOL    HW1 7400   1.739   2.794   3.797
 2167SOL    HW2 7401   1.647   2.772   3.930
 2168SOL     OW 7402   1.634   2.084   3.190
 2168SOL    HW1 7403   1.598   2.167   3.234
 2168SOL    HW2 7404   1.726   2.102   3.156
 2169SOL     OW 7405   0.370   0.771   1.451
 2169SOL    HW1 7406   0.452   0.721   1.425
 2169SOL    HW2 7407   0.299   0.706   1.480
 2170SOL     OW 7408   0.944   3.707   5.800
 2170SOL    HW1 7409   0.990   3.785   5.758
 2170SOL    HW2 7410   0.846   3.723   5.802
 2171SOL     OW 7411   0.270   5.348   1.339
 2171SOL    HW1 7412   0.298   5.262   1.381
 2171SOL    HW2 7413   0.177   5.371   1.369
 2172SOL     OW 7414   6.953   1.721   5.000
 2172SOL    HW1 7415   7.002   1.634   5.010
 2172SOL    HW2 7416   6.855   1.706   5.018
 2173SOL     OW 7417   6.044   0.373   5.162
 2173SOL    HW1 7418   6.123   0.347   5.107
 2173SOL    HW2 7419   5.982   0.294   5.171
 2174SOL     OW 7420   0.094   6.069   4.784
 2174SOL    HW1 7421   0.050   5.991   4.829
 2174SOL    HW2 7422   0.177   6.039   4.738
 2175SOL     OW 7423   3.209   2.838   5.351
 2175SOL    HW1 7424   3.226   2.936   5.366
 2175SOL    HW2 7425   3.189   2.795   5.439
 2176SOL     OW 7426   5.555   2.713   1.094
 2176SOL    HW1 7427   5.496   2.772   1.039
 2176SOL    HW2 7428   5.501   2.636   1.128
 2177SOL     OW 7429   0.055   1.273   3.512
 2177SOL    HW1 7430   0.141   1.249   3.467
 2177SOL    HW2 7431   0.039   1.210   3.589
 2178SOL     OW 7432   0.823   1.644   2.052
 2178SOL    HW1 7433   0.866   1.649   2.142
 2178SOL    HW2 7434   0.883   1.594   1.989
 2179SOL     OW 7435   2.115   4.277   6.658
 2179SOL    HW1 7436   2.028   4.324   6.674
 2179SOL    HW2 7437   2.186   4.345   6.640
 2180SOL     OW 7438   1.389   4.732   2.009
 2180SOL    HW1 7439   1.436   4.751   1.923
 2180SOL    HW2 7440   1.394   4.635   2.029
 2181SOL     OW 7441   4.965   5.068   4.333
 2181SOL    HW1 7442   4.917   5.121   4.263
 2181SOL    HW2 7443   4.899   5.036   4.402
 2182SOL     OW 7444   0.768   5.324   3.482
 2182SOL    HW1 7445   0.778   5.226   3.464
 2182SOL    HW2 7446   0.745   5.371   3.397
 2183SOL     OW 7447   3.374   3.378   0.196
 2183SOL    HW1 7448   3.342   3.300   0.250
 2183SOL    HW2 7449   3.470   3.395   0.215
 2184SOL     OW 7450   6.583   0.082   0.202
 2184SOL    HW1 7451   6.501   0.138   0.218
 2184SOL    HW2 7452   6.630   0.068   0.289
 2185SOL     OW 7453   0.581   1.739   6.715
 2185SOL    HW1 7454   0.506   1.713   6.655
 2185SOL    HW2 7455   0.558   1.824   6.763
 2186SOL     OW 7456   6.832   5.525   4.706
 2186SOL    HW1 7457   6.828   5.625   4.708
 2186SOL    HW2 7458   6.822   5.494   4.612
 2187SOL     OW 7459   0.906   5.406   2.740
 2187SOL    HW1 7460   0.811   5.427   2.720
 2187SOL    HW2 7461   0.963   5.426   2.661
 2188SOL     OW 7462   2.049   6.620   0.163
 2188SOL    HW1 7463   1.956   6.609   0.127
 2188SOL    HW2 7464   2.050   6.598   0.261
 2189SOL     OW 7465   1.980   1.466   2.422
 2189SOL    HW1 7466   2.035   1.514   2.490
 2189SOL    HW2 7467   2.019   1.481   2.331
 2190SOL     OW 7468   6.652   4.497   2.684
 2190SOL    HW1 7469   6.568   4.543   2.656
 2190SOL    HW2 7470   6.724   4.565   2.699
 2191SOL     OW 7471   2.049   1.105   5.714
 2191SOL    HW1 7472   2.136   1.134   5.675
 2191SOL    HW2 7473   2.039   1.006   5.704
 2192SOL     OW 7474   5.451   0.843   2.128
 2192SOL    HW1 7475   5.369   0.894   2.154
 2192SOL    HW2 7476   5.503   0.896   2.061
 2193SOL     OW 7477   6.975   6.862   6.313
 2193SOL    HW1 7478   0.003   6.909   6.238
 2193SOL    HW2 7479   6.996   6.910   6.399
 2194SOL     OW 7480   0.653   4.252   5.393
 2194SOL    HW1 7481   0.742   4.236   5.351
 2194SOL    HW2 7482   0.657   4.232   5.490
 2195SOL     OW 7483   1.011   4.867   6.603
 2195SOL    HW1 7484   1.079   4.937   6.623
 2195SOL    HW2 7485   0.961   4.845   6.687
 2196SOL     OW 7486   2.378   5.999   5.327
 2196SOL    HW1 7487   2.455   5.958   5.279
 2196SOL    HW2 7488   2.364   5.951   5.414
 2197SOL     OW 7489   3.281   3.340   5.565
 2197SOL    HW1 7490   3.199   3.384   5.527
 2197SOL    HW2 7491   3.362   3.384   5.526
 2198SOL     OW 7492   0.517   0.231   6.371
 2198SOL    HW1 7493   0.489   0.316   6.327
 2198SOL    HW2 7494   0.617   0.223   6.369
 2199SOL     OW 7495   4.918   6.970   4.081
 2199SOL    HW1 7496   4.941   6.959   3.984
 2199SOL    HW2 7497   4.998   6.950   4.137
 2200SOL     OW 7498   2.999   0.744   4.348
 2200SOL    HW1 7499   2.939   0.824   4.339
 2200SOL    HW2 7500   2.946   0.668   4.386
 2201SOL     OW 7501   6.750   2.728   3.486
 2201SOL    HW1 7502   6.743   2.646   3.430
 2201SOL    HW2 7503   6.674   2.790   3.465
 2202SOL     OW 7504   3.404   4.984   2.654
 2202SOL    HW1 7505   3.366   5.072   2.684
 2202SOL    HW2 7506   3.503   4.991   2.646
 2203SOL     OW 7507   2.508   3.955   0.886
 2203SOL    HW1 7508   2.428   4.008   0.913
 2203SOL    HW2 7509   2.499   3.861   0.919
 2204SOL     OW 7510   4.538   2.961   1.050
 2204SOL    HW1 7511   4.556   2.863   1.036
 2204SOL    HW2 7512   4.441   2.980   1.035
 2205SOL     OW 7513   1.296   6.285   0.916
 2205SOL    HW1 7514   1.355   6.363   0.897
 2205SOL    HW2 7515   1.242   6.304   0.998
 2206SOL     OW 7516   2.871   3.138   6.494
 2206SOL    HW1 7517   2.942   3.117   6.426
 2206SOL    HW2 7518   2.814   3.058   6.509
 2207SOL     OW 7519   4.222   5.510   0.805
 2207SOL    HW1 7520   4.189   5.574   0.736
 2207SOL    HW2 7521   4.300   5.550   0.853
 2208SOL     OW 7522   1.094   5.528   3.812
 2208SOL    HW1 7523   1.080   5.431   3.793
 2208SOL    HW2 7524   1.133   5.539   3.903
 2209SOL     OW 7525   2.825   5.435   5.155
 2209SOL    HW1 7526   2.870   5.474   5.075
 2209SOL    HW2 7527   2.836   5.336   5.155
 2210SOL     OW 7528   5.794   5.902   1.424
 2210SOL    HW1 7529   5.891   5.889   1.401
 2210SOL    HW2 7530   5.781   5.887   1.522
 2211SOL     OW 7531   6.234   0.490   0.740
 2211SOL    HW1 7532   6.272   0.570   0.786
 2211SOL    HW2 7533   6.138   0.479   0.765
 2212SOL     OW 7534   2.596   6.287   6.648
 2212SOL    HW1 7535   2.609   6.269   6.746
 2212SOL    HW2 7536   2.550   6.375   6.636
 2213SOL     OW 7537   4.421   2.393   4.280
 2213SOL    HW1 7538   4.493   2.447   4.324
 2213SOL    HW2 7539   4.428   2.404   4.180
 2214SOL     OW 7540   4.386   3.026   5.807
 2214SOL    HW1 7541   4.356   3.118   5.784
 2214SOL    HW2 7542   4.370   2.965   5.729
 2215SOL     OW 7543   5.297   1.370   6.574
 2215SOL    HW1 7544   5.267   1.339   6.664
 2215SOL    HW2 7545   5.301   1.470   6.572
 2216SOL     OW 7546   0.596   5.402   6.415
 2216SOL    HW1 7547   0.531   5.409   6.491
 2216SOL    HW2 7548   0.623   5.307   6.402
 2217SOL     OW 7549   4.492   0.779   3.107
 2217SOL    HW1 7550   4.438   0.702   3.139
 2217SOL    HW2 7551   4.515   0.838   3.185
 2218SOL     OW 7552   0.692   5.169   6.765
 2218SOL    HW1 7553   0.641   5.158   6.851
 2218SOL    HW2 7554   0.743   5.086   6.746
 2219SOL     OW 7555   5.989   1.551   0.428
 2219SOL    HW1 7556   5.990   1.558   0.328
 2219SOL    HW2 7557   5.945   1.632   0.467
 2220SOL     OW 7558   1.709   6.237   5.396
 2220SOL    HW1 7559   1.802   6.244   5.358
 2220SOL    HW2 7560   1.711   6.256   5.494
 2221SOL     OW 7561   6.572   1.214   4.653
 2221SOL    HW1 7562   6.634   1.136   4.668
 2221SOL    HW2 7563   6.505   1.190   4.583
 2222SOL     OW 7564   6.100   6.898   0.291
 2222SOL    HW1 7565   6.041   6.966   0.334
 2222SOL    HW2 7566   6.120   6.925   0.197
 2223SOL     OW 7567   6.868   0.690   5.524
 2223SOL    HW1 7568   6.800   0.617   5.536
 2223SOL    HW2 7569   6.827   0.778   5.550
 2224SOL     OW 7570   5.877   3.763   1.951
 2224SOL    HW1 7571   5.943   3.825   1.992
 2224SOL    HW2 7572   5.919   3.673   1.937
 2225SOL     OW 7573   0.385   6.400   3.990
 2225SOL    HW1 7574   0.431   6.314   4.012
 2225SOL    HW2 7575   0.384   6.412   3.891
 2226SOL     OW 7576   3.552   5.187   0.779
 2226SOL    HW1 7577   3.529   5.283   0.761
 2226SOL    HW2 7578   3.482   5.146   0.837
 2227SOL     OW 7579   4.337   2.312   1.443
 2227SOL    HW1 7580   4.297   2.295   1.533
 2227SOL    HW2 7581   4.264   2.312   1.374
 2228SOL     OW 7582   4.460   5.387   0.244
 2228SOL    HW1 7583   4.430   5.330   0.168
 2228SOL    HW2 7584   4.380   5.428   0.289
 2229SOL     OW 7585   3.178   3.481   4.587
 2229SOL    HW1 7586   3.250   3.414   4.607
 2229SOL    HW2 7587   3.102   3.435   4.540
 2230SOL     OW 7588   5.109   6.174   1.384
 2230SOL    HW1 7589   5.208   6.157   1.382
 2230SOL    HW2 7590   5.085   6.240   1.313
 2231SOL     OW 7591   0.486   1.199   6.825
 2231SOL    HW1 7592   0.541   1.200   6.908
 2231SOL    HW2 7593   0.527   1.260   6.757
 2232SOL     OW 7594   1.261   0.501   5.095
 2232SOL    HW1 7595   1.168   0.537   5.086
 2232SOL    HW2 7596   1.274   0.465   5.187
 2233SOL     OW 7597   3.298   3.226   0.752
 2233SOL    HW1 7598   3.309   3.139   0.801
 2233SOL    HW2 7599   3.217   3.221   0.694
 2234SOL     OW 7600   3.838   1.701   0.820
 2234SOL    HW1 7601   3.863   1.605   0.803
 2234SOL    HW2 7602   3.761   1.704   0.884
 2235SOL     OW 7603   2.530   0.206   2.491
 2235SOL    HW1 7604   2.534   0.125   2.433
 2235SOL    HW2 7605   2.510   0.179   2.585
 2236SOL     OW 7606   2.036   3.715   6.190
 2236SOL    HW1 7607   2.010   3.675   6.102
 2236SOL    HW2 7608   1.998   3.807   6.197
 2237SOL     OW 7609   6.245   5.328   5.045
 2237SOL    HW1 7610   6.339   5.343   5.017
 2237SOL    HW2 7611   6.223   5.386   5.123
 2238SOL     OW 7612   4.541   4.740   2.839
 2238SOL    HW1 7613   4.486   4.808   2.888
 2238SOL    HW2 7614   4.480   4.669   2.801
 2239SOL     OW 7615   3.491   5.936   3.901
 2239SOL    HW1 7616   3.450   6.027   3.909
 2239SOL    HW2 7617   3.591   5.944   3.906
 2240SOL     OW 7618   3.648   5.662   2.919
 2240SOL    HW1 7619   3.564   5.708   2.889
 2240SOL    HW2 7620   3.662   5.580   2.864
 2241SOL     OW 7621   6.981   6.542   1.711
 2241SOL    HW1 7622   6.882   6.528   1.702
 2241SOL    HW2 7623   6.999   6.640   1.720
 2242SOL     OW 7624   5.271   3.309   2.806
 2242SOL    HW1 7625   5.222   3.354   2.881
 2242SOL    HW2 7626   5.279   3.211   2.826
 2243SOL     OW 7627   2.878   6.174   0.131
 2243SOL    HW1 7628   2.849   6.078   0.127
 2243SOL    HW2 7629   2.909   6.203   0.040
 2244SOL     OW 7630   3.152   0.260   1.372
 2244SOL    HW1 7631   3.207   0.269   1.455
 2244SOL    HW2 7632   3.206   0.216   1.300
 2245SOL     OW 7633   0.683   1.400   0.641
 2245SOL    HW1 7634   0.726   1.490   0.638
 2245SOL    HW2 7635   0.663   1.371   0.547
 2246SOL     OW 7636   1.950   0.477   4.222
 2246SOL    HW1 7637   1.942   0.471   4.322
 2246SOL    HW2 7638   1.875   0.532   4.186
 2247SOL     OW 7639   3.368   4.094   2.530
 2247SOL    HW1 7640   3.269   4.083   2.537
 2247SOL    HW2 7641   3.392   4.114   2.435
 2248SOL     OW 7642   6.092   4.341   4.117
 2248SOL    HW1 7643   6.012   4.334   4.177
 2248SOL    HW2 7644   6.132   4.251   4.104
 2249SOL     OW 7645   3.183   6.575   3.659
 2249SOL    HW1 7646   3.111   6.537   3.601
 2249SOL    HW2 7647   3.200   6.513   3.736
 2250SOL     OW 7648   3.722   3.823   5.633
 2250SOL    HW1 7649   3.794   3.861   5.575
 2250SOL    HW2 7650   3.689   3.894   5.695
 2251SOL     OW 7651   5.272   6.572   6.418
 2251SOL    HW1 7652   5.258   6.671   6.428
 2251SOL    HW2 7653   5.345   6.556   6.351
 2252SOL     OW 7654   5.637   1.684   2.923
 2252SOL    HW1 7655   5.621   1.638   3.011
 2252SOL    HW2 7656   5.645   1.782   2.938
 2253SOL     OW 7657   0.595   3.377   0.120
 2253SOL    HW1 7658   0.590   3.429   0.205
 2253SOL    HW2 7659   0.510   3.325   0.108
 2254SOL     OW 7660   3.469   4.171   3.059
 2254SOL    HW1 7661   3.453   4.195   2.963
 2254SOL    HW2 7662   3.521   4.245   3.103
 2255SOL     OW 7663   3.016   4.045   5.687
 2255SOL    HW1 7664   3.084   4.075   5.620
 2255SOL    HW2 7665   3.046   4.070   5.779
 2256SOL     OW 7666   4.456   6.191   2.274
 2256SOL    HW1 7667   4.406   6.217   2.191
 2256SOL    HW2 7668   4.508   6.107   2.256
 2257SOL     OW 7669   0.376   1.839   4.869
 2257SOL    HW1 7670   0.307   1.821   4.798
 2257SOL    HW2 7671   0.368   1.933   4.900
 2258SOL     OW 7672   2.334   6.295   4.416
 2258SOL    HW1 7673   2.386   6.327   4.337
 2258SOL    HW2 7674   2.237   6.290   4.391
 2259SOL     OW 7675   5.948   2.651   4.803
 2259SOL    HW1 7676   5.975   2.615   4.714
 2259SOL    HW2 7677   6.012   2.618   4.872
 2260SOL     OW 7678   0.790   3.507   1.307
 2260SOL    HW1 7679   0.841   3.537   1.387
 2260SOL    HW2 7680   0.736   3.583   1.271
 2261SOL     OW 7681   6.355   4.048   0.950
 2261SOL    HW1 7682   6.371   4.011   1.042
 2261SOL    HW2 7683   6.439   4.041   0.896
 2262SOL     OW 7684   6.432   0.661   3.448
 2262SOL    HW1 7685   6.403   0.748   3.490
 2262SOL    HW2 7686   6.525   0.671   3.414
 2263SOL     OW 7687   1.513   5.445   0.816
 2263SOL    HW1 7688   1.473   5.485   0.734
 2263SOL    HW2 7689   1.609   5.473   0.824
 2264SOL     OW 7690   2.573   6.890   6.800
 2264SOL    HW1 7691   2.673   6.889   6.803
 2264SOL    HW2 7692   2.543   6.892   6.705
 2265SOL     OW 7693   1.438   0.717   4.176
 2265SOL    HW1 7694   1.381   0.724   4.094
 2265SOL    HW2 7695   1.519   0.662   4.155
 2266SOL     OW 7696   5.486   1.117   6.033
 2266SOL    HW1 7697   5.517   1.154   5.945
 2266SOL    HW2 7698   5.397   1.156   6.056
 2267SOL     OW 7699   4.737   2.688   4.717
 2267SOL    HW1 7700   4.735   2.716   4.621
 2267SOL    HW2 7701   4.769   2.764   4.773
 2268SOL     OW 7702   6.151   3.818   6.639
 2268SOL    HW1 7703   6.194   3.734   6.606
 2268SOL    HW2 7704   6.159   3.889   6.569
 2269SOL     OW 7705   0.425   3.460   5.359
 2269SOL    HW1 7706   0.349   3.396   5.369
 2269SOL    HW2 7707   0.478   3.463   5.444
 2270SOL     OW 7708   4.271   3.329   6.119
 2270SOL    HW1 7709   4.342   3.294   6.181
 2270SOL    HW2 7710   4.222   3.404   6.164
 2271SOL     OW 7711   5.865   4.210   6.983
 2271SOL    HW1 7712   5.784   4.196   6.927
 2271SOL    HW2 7713   5.927   4.274   6.937
 2272SOL     OW 7714   6.667   1.476   6.416
 2272SOL    HW1 7715   6.665   1.576   6.429
 2272SOL    HW2 7716   6.752   1.439   6.451
 2273SOL     OW 7717   2.001   2.285   2.046
 2273SOL    HW1 7718   2.046   2.253   1.963
 2273SOL    HW2 7719   1.906   2.253   2.048
 2274SOL     OW 7720   0.441   1.752   7.007
 2274SOL    HW1 7721   0.377   1.746   0.066
 2274SOL    HW2 7722   0.461   1.848   6.988
 2275SOL     OW 7723   5.781   5.356   2.260
 2275SOL    HW1 7724   5.839   5.317   2.331
 2275SOL    HW2 7725   5.831   5.428   2.211
 2276SOL     OW 7726   1.569   6.444   1.347
 2276SOL    HW1 7727   1.483   6.484   1.313
 2276SOL    HW2 7728   1.610   6.388   1.275
 2277SOL     OW 7729   3.456   3.852   4.162
 2277SOL    HW1 7730   3.505   3.771   4.128
 2277SOL    HW2 7731   3.368   3.823   4.201
 2278SOL     OW 7732   6.769   3.031   4.232
 2278SOL    HW1 7733   6.797   3.103   4.169
 2278SOL    HW2 7734   6.672   3.010   4.217
 2279SOL     OW 7735   6.725   5.920   5.677
 2279SOL    HW1 7736   6.678   5.959   5.756
 2279SOL    HW2 7737   6.731   5.988   5.605
 2280SOL     OW 7738   6.340   0.510   4.830
 2280SOL    HW1 7739   6.328   0.524   4.731
 2280SOL    HW2 7740   6.309   0.591   4.879
 2281SOL     OW 7741   4.229   0.362   2.272
 2281SOL    HW1 7742   4.276   0.368   2.184
 2281SOL    HW2 7743   4.262   0.282   2.322
 2282SOL     OW 7744   4.682   5.927   5.235
 2282SOL    HW1 7745   4.619   6.005   5.241
 2282SOL    HW2 7746   4.724   5.926   5.144
 2283SOL     OW 7747   1.436   0.528   2.557
 2283SOL    HW1 7748   1.444   0.465   2.479
 2283SOL    HW2 7749   1.509   0.595   2.553
 2284SOL     OW 7750   0.663   3.505   5.526
 2284SOL    HW1 7751   0.683   3.440   5.600
 2284SOL    HW2 7752   0.748   3.524   5.476
 2285SOL     OW 7753   1.355   3.483   6.773
 2285SOL    HW1 7754   1.326   3.387   6.770
 2285SOL    HW2 7755   1.360   3.519   6.680
 2286SOL     OW 7756   5.089   6.993   2.868
 2286SOL    HW1 7757   4.994   7.008   2.896
 2286SOL    HW2 7758   5.102   6.896   2.846
 2287SOL     OW 7759   2.621   1.202   3.502
 2287SOL    HW1 7760   2.526   1.221   3.527
 2287SOL    HW2 7761   2.663   1.143   3.570
 2288SOL     OW 7762   0.399   4.979   3.879
 2288SOL    HW1 7763   0.354   4.892   3.859
 2288SOL    HW2 7764   0.422   4.984   3.976
 2289SOL     OW 7765   6.965   4.561   1.306
 2289SOL    HW1 7766   6.978   4.473   1.261
 2289SOL    HW2 7767   0.004   4.564   1.389
 2290SOL     OW 7768   1.164   4.106   0.742
 2290SOL    HW1 7769   1.109   4.051   0.679
 2290SOL    HW2 7770   1.107   4.175   0.786
 2291SOL     OW 7771   3.068   1.996   5.994
 2291SOL    HW1 7772   3.022   2.039   6.072
 2291SOL    HW2 7773   3.034   2.037   5.909
 2292SOL     OW 7774   1.373   1.333   4.780
 2292SOL    HW1 7775   1.318   1.341   4.862
 2292SOL    HW2 7776   1.452   1.395   4.786
 2293SOL     OW 7777   5.577   5.705   1.683
 2293SOL    HW1 7778   5.564   5.608   1.702
 2293SOL    HW2 7779   5.529   5.729   1.598
 2294SOL     OW 7780   3.524   6.878   0.659
 2294SOL    HW1 7781   3.510   6.896   0.562
 2294SOL    HW2 7782   3.613   6.834   0.672
 2295SOL     OW 7783   0.198   1.806   2.546
 2295SOL    HW1 7784   0.240   1.874   2.485
 2295SOL    HW2 7785   0.255   1.794   2.627
 2296SOL     OW 7786   3.175   0.015   0.699
 2296SOL    HW1 7787   3.257   7.013   0.753
 2296SOL    HW2 7788   3.202   0.040   0.606
 2297SOL     OW 7789   4.144   4.143   5.783
 2297SOL    HW1 7790   4.219   4.162   5.720
 2297SOL    HW2 7791   4.098   4.059   5.755
 2298SOL     OW 7792   4.042   2.302   1.353
 2298SOL    HW1 7793   3.978   2.351   1.411
 2298SOL    HW2 7794   4.026   2.204   1.361
 2299SOL     OW 7795   5.332   6.872   6.900
 2299SOL    HW1 7796   5.345   6.783   6.856
 2299SOL    HW2 7797   5.419   6.903   6.938
 2300SOL     OW 7798   1.501   5.342   1.329
 2300SOL    HW1 7799   1.470   5.291   1.249
 2300SOL    HW2 7800   1.568   5.288   1.380
 2301SOL     OW 7801   3.076   3.356   2.787
 2301SOL    HW1 7802   3.162   3.400   2.814
 2301SOL    HW2 7803   3.095   3.291   2.713
 2302SOL     OW 7804   4.277   6.441   2.637
 2302SOL    HW1 7805   4.190   6.490   2.632
 2302SOL    HW2 7806   4.270   6.356   2.584
 2303SOL     OW 7807   1.207   3.379   5.445
 2303SOL    HW1 7808   1.186   3.471   5.412
 2303SOL    HW2 7809   1.245   3.324   5.370
 2304SOL     OW 7810   2.690   0.360   3.716
 2304SOL    HW1 7811   2.769   0.382   3.774
 2304SOL    HW2 7812   2.715   0.287   3.652
 2305SOL     OW 7813   3.866   5.567   3.027
 2305SOL    HW1 7814   3.839   5.473   3.051
 2305SOL    HW2 7815   3.790   5.613   2.982
 2306SOL     OW 7816   2.109   5.297   1.506
 2306SOL    HW1 7817   2.038   5.262   1.445
 2306SOL    HW2 7818   2.182   5.339   1.451
 2307SOL     OW 7819   2.338   4.265   2.924
 2307SOL    HW1 7820   2.371   4.322   2.849
 2307SOL    HW2 7821   2.296   4.183   2.888
 2308SOL     OW 7822   0.736   0.620   6.727
 2308SOL    HW1 7823   0.670   0.630   6.652
 2308SOL    HW2 7824   0.765   0.711   6.757
 2309SOL     OW 7825   2.858   5.939   6.647
 2309SOL    HW1 7826   2.906   5.913   6.731
 2309SOL    HW2 7827   2.897   6.024   6.611
 2310SOL     OW 7828   6.625   6.807   0.996
 2310SOL    HW1 7829   6.608   6.852   1.083
 2310SOL    HW2 7830   6.571   6.850   0.924
 2311SOL     OW 7831   2.656   6.877   3.046
 2311SOL    HW1 7832   2.585   6.934   3.088
 2311SOL    HW2 7833   2.642   6.782   3.071
 2312SOL     OW 7834   3.093   6.806   3.342
 2312SOL    HW1 7835   3.045   6.722   3.319
 2312SOL    HW2 7836   3.051   6.884   3.296
 2313SOL     OW 7837   4.806   5.017   1.901
 2313SOL    HW1 7838   4.879   4.992   1.837
 2313SOL    HW2 7839   4.800   5.117   1.907
 2314SOL     OW 7840   6.141   0.784   3.297
 2314SOL    HW1 7841   6.177   0.860   3.352
 2314SOL    HW2 7842   6.092   0.720   3.356
 2315SOL     OW 7843   5.121   3.565   5.294
 2315SOL    HW1 7844   5.076   3.514   5.220
 2315SOL    HW2 7845   5.070   3.554   5.379
 2316SOL     OW 7846   2.564   1.237   5.622
 2316SOL    HW1 7847   2.622   1.161   5.651
 2316SOL    HW2 7848   2.469   1.206   5.615
 2317SOL     OW 7849   6.837   6.653   3.861
 2317SOL    HW1 7850   6.917   6.594   3.854
 2317SOL    HW2 7851   6.755   6.603   3.833
 2318SOL     OW 7852   1.938   3.588   4.313
 2318SOL    HW1 7853   1.970   3.515   4.253
 2318SOL    HW2 7854   2.014   3.622   4.368
 2319SOL     OW 7855   3.532   5.284   5.021
 2319SOL    HW1 7856   3.517   5.241   5.110
 2319SOL    HW2 7857   3.560   5.214   4.955
 2320SOL     OW 7858   1.255   2.482   5.653
 2320SOL    HW1 7859   1.295   2.571   5.628
 2320SOL    HW2 7860   1.328   2.415   5.663
 2321SOL     OW 7861   2.716   5.352   6.182
 2321SOL    HW1 7862   2.652   5.338   6.105
 2321SOL    HW2 7863   2.741   5.448   6.187
 2322SOL     OW 7864   1.708   4.442   2.130
 2322SOL    HW1 7865   1.760   4.362   2.102
 2322SOL    HW2 7866   1.699   4.505   2.053
 2323SOL     OW 7867   3.402   4.988   1.968
 2323SOL    HW1 7868   3.452   4.901   1.966
 2323SOL    HW2 7869   3.317   4.976   2.020
 2324SOL     OW 7870   0.109   5.981   1.223
 2324SOL    HW1 7871   0.171   6.024   1.288
 2324SOL    HW2 7872   0.017   6.019   1.233
 2325SOL     OW 7873   0.211   4.846   1.357
 2325SOL    HW1 7874   0.265   4.769   1.391
 2325SOL    HW2 7875   0.139   4.867   1.422
 2326SOL     OW 7876   1.880   6.095   6.468
 2326SOL    HW1 7877   1.829   6.120   6.386
 2326SOL    HW2 7878   1.944   6.021   6.447
 2327SOL     OW 7879   0.584   1.005   3.216
 2327SOL    HW1 7880   0.504   0.950   3.240
 2327SOL    HW2 7881   0.628   0.966   3.135
 2328SOL     OW 7882   1.536   1.932   2.869
 2328SOL    HW1 7883   1.511   2.028   2.879
 2328SOL    HW2 7884   1.599   1.906   2.943
 2329SOL     OW 7885   1.172   4.263   4.739
 2329SOL    HW1 7886   1.074   4.281   4.749
 2329SOL    HW2 7887   1.204   4.213   4.820
 2330SOL     OW 7888   0.318   2.786   0.536
 2330SOL    HW1 7889   0.383   2.795   0.460
 2330SOL    HW2 7890   0.271   2.698   0.529
 2331SOL     OW 7891   3.034   5.040   6.726
 2331SOL    HW1 7892   3.097   5.085   6.789
 2331SOL    HW2 7893   3.043   5.080   6.635
 2332SOL     OW 7894   6.924   6.890   5.893
 2332SOL    HW1 7895   6.945   6.792   5.903
 2332SOL    HW2 7896   6.909   6.911   5.797
 2333SOL     OW 7897   0.325   5.340   3.139
 2333SOL    HW1 7898   0.267   5.421   3.143
 2333SOL    HW2 7899   0.354   5.315   3.231
 2334SOL     OW 7900   1.327   1.606   6.809
 2334SOL    HW1 7901   1.354   1.637   6.718
 2334SOL    HW2 7902   1.229   1.616   6.821
 2335SOL     OW 7903   5.914   0.396   3.729
 2335SOL    HW1 7904   5.996   0.377   3.676
 2335SOL    HW2 7905   5.924   0.484   3.775
 2336SOL     OW 7906   3.187   1.435   4.220
 2336SOL    HW1 7907   3.267   1.390   4.179
 2336SOL    HW2 7908   3.104   1.396   4.181
 2337SOL     OW 7909   4.245   1.115   1.690
 2337SOL    HW1 7910   4.159   1.119   1.741
 2337SOL    HW2 7911   4.291   1.028   1.710
 2338SOL     OW 7912   0.972   3.368   4.294
 2338SOL    HW1 7913   1.031   3.349   4.372
 2338SOL    HW2 7914   1.027   3.368   4.210
 2339SOL     OW 7915   2.986   3.523   3.239
 2339SOL    HW1 7916   3.081   3.490   3.237
 2339SOL    HW2 7917   2.936   3.484   3.162
 2340SOL     OW 7918   0.419   4.633   6.888
 2340SOL    HW1 7919   0.474   4.569   6.942
 2340SOL    HW2 7920   0.462   4.648   6.799
 2341SOL     OW 7921   2.888   4.809   2.053
 2341SOL    HW1 7922   2.865   4.715   2.027
 2341SOL    HW2 7923   2.900   4.864   1.970
 2342SOL     OW 7924   1.834   6.992   4.917
 2342SOL    HW1 7925   1.793   6.917   4.864
 2342SOL    HW2 7926   1.932   6.996   4.899
 2343SOL     OW 7927   2.106   5.398   2.942
 2343SOL    HW1 7928   2.091   5.299   2.935
 2343SOL    HW2 7929   2.033   5.446   2.892
 2344SOL     OW 7930   0.202   5.878   6.843
 2344SOL    HW1 7931   0.228   5.795   6.795
 2344SOL    HW2 7932   0.104   5.896   6.827
 2345SOL     OW 7933   2.510   5.273   4.772
 2345SOL    HW1 7934   2.533   5.186   4.728
 2345SOL    HW2 7935   2.491   5.258   4.868
 2346SOL     OW 7936   3.881   3.209   5.919
 2346SOL    HW1 7937   3.891   3.173   5.826
 2346SOL    HW2 7938   3.784   3.217   5.941
 2347SOL     OW 7939   2.561   1.955   1.403
 2347SOL    HW1 7940   2.513   1.985   1.321
 2347SOL    HW2 7941   2.569   2.031   1.467
 2348SOL     OW 7942   1.487   6.212   3.921
 2348SOL    HW1 7943   1.576   6.219   3.967
 2348SOL    HW2 7944   1.500   6.222   3.822
 2349SOL     OW 7945   0.935   4.530   6.289
 2349SOL    HW1 7946   1.023   4.507   6.249
 2349SOL    HW2 7947   0.938   4.624   6.325
 2350SOL     OW 7948   5.991   5.090   6.214
 2350SOL    HW1 7949   5.935   5.013   6.184
 2350SOL    HW2 7950   6.015   5.079   6.310
 2351SOL     OW 7951   3.312   5.009   4.338
 2351SOL    HW1 7952   3.315   5.107   4.357
 2351SOL    HW2 7953   3.225   4.972   4.369
 2352SOL     OW 7954   0.713   2.997   2.702
 2352SOL    HW1 7955   0.668   3.086   2.699
 2352SOL    HW2 7956   0.648   2.925   2.679
 2353SOL     OW 7957   3.489   5.016   4.535
 2353SOL    HW1 7958   3.583   5.040   4.510
 2353SOL    HW2 7959   3.437   4.997   4.452
 2354SOL     OW 7960   2.373   2.076   4.425
 2354SOL    HW1 7961   2.363   2.140   4.349
 2354SOL    HW2 7962   2.310   1.999   4.412
 2355SOL     OW 7963   2.093   6.508   5.821
 2355SOL    HW1 7964   2.029   6.431   5.828
 2355SOL    HW2 7965   2.044   6.590   5.791
 2356SOL     OW 7966   1.449   3.078   6.158
 2356SOL    HW1 7967   1.369   3.021   6.175
 2356SOL    HW2 7968   1.437   3.129   6.073
 2357SOL     OW 7969   4.459   1.056   2.125
 2357SOL    HW1 7970   4.421   1.124   2.062
 2357SOL    HW2 7971   4.417   0.967   2.107
 2358SOL     OW 7972   3.268   5.428   5.548
 2358SOL    HW1 7973   3.191   5.373   5.514
 2358SOL    HW2 7974   3.304   5.484   5.473
 2359SOL     OW 7975   0.022   0.731   5.774
 2359SOL    HW1 7976   6.990   0.684   5.846
 2359SOL    HW2 7977   7.010   0.697   5.685
 2360SOL     OW 7978   6.001   3.596   6.994
 2360SOL    HW1 7979   6.064   3.662   0.017
 2360SOL    HW2 7980   5.915   3.642   6.973
 2361SOL     OW 7981   2.522   0.699   6.880
 2361SOL    HW1 7982   2.543   0.602   6.869
 2361SOL    HW2 7983   2.426   0.709   6.907
 2362SOL     OW 7984   2.529   5.832   4.365
 2362SOL    HW1 7985   2.473   5.912   4.385
 2362SOL    HW2 7986   2.601   5.856   4.299
 2363SOL     OW 7987   3.659   2.157   4.567
 2363SOL    HW1 7988   3.713   2.240   4.555
 2363SOL    HW2 7989   3.697   2.102   4.642
 2364SOL     OW 7990   1.233   2.710   2.428
 2364SOL    HW1 7991   1.289   2.640   2.471
 2364SOL    HW2 7992   1.153   2.729   2.485
 2365SOL     OW 7993   6.549   2.538   6.735
 2365SOL    HW1 7994   6.495   2.607   6.687
 2365SOL    HW2 7995   6.565   2.460   6.674
 2366SOL     OW 7996   2.211   5.939   6.615
 2366SOL    HW1 7997   2.299   5.906   6.651
 2366SOL    HW2 7998   2.173   6.006   6.678
 2367SOL     OW 7999   2.097   3.509   0.879
 2367SOL    HW1 8000   1.999   3.520   0.862
 2367SOL    HW2 8001   2.110   3.454   0.962
 2368SOL     OW 8002   5.412   6.384   4.446
 2368SOL    HW1 8003   5.315   6.381   4.469
 2368SOL    HW2 8004   5.443   6.293   4.418
 2369SOL     OW 8005   1.647   0.510   4.575
 2369SOL    HW1 8006   1.637   0.601   4.616
 2369SOL    HW2 8007   1.560   0.481   4.535
 2370SOL     OW 8008   5.745   3.209   0.199
 2370SOL    HW1 8009   5.668   3.247   0.147
 2370SOL    HW2 8010   5.719   3.119   0.235
 2371SOL     OW 8011   1.732   6.863   1.626
 2371SOL    HW1 8012   1.823   6.874   1.668
 2371SOL    HW2 8013   1.737   6.795   1.553
 2372SOL     OW 8014   6.804   2.780   2.333
 2372SOL    HW1 8015   6.808   2.848   2.259
 2372SOL    HW2 8016   6.753   2.819   2.410
 2373SOL     OW 8017   0.523   3.148   5.936
 2373SOL    HW1 8018   0.560   3.057   5.915
 2373SOL    HW2 8019   0.427   3.152   5.907
 2374SOL     OW 8020   6.098   1.686   4.486
 2374SOL    HW1 8021   6.129   1.591   4.501
 2374SOL    HW2 8022   6.029   1.687   4.414
 2375SOL     OW 8023   3.628   5.992   5.231
 2375SOL    HW1 8024   3.627   5.899   5.268
 2375SOL    HW2 8025   3.618   6.057   5.307
 2376SOL     OW 8026   6.372   3.248   4.419
 2376SOL    HW1 8027   6.337   3.269   4.328
 2376SOL    HW2 8028   6.451   3.306   4.439
 2377SOL     OW 8029   3.417   4.132   3.756
 2377SOL    HW1 8030   3.434   4.159   3.662
 2377SOL    HW2 8031   3.504   4.120   3.804
 2378SOL     OW 8032   5.227   1.976   7.016
 2378SOL    HW1 8033   5.248   2.041   0.070
 2378SOL    HW2 8034   5.140   2.001   6.973
 2379SOL     OW 8035   0.083   0.844   0.509
 2379SOL    HW1 8036   7.005   0.833   0.534
 2379SOL    HW2 8037   0.095   0.824   0.412
 2380SOL     OW 8038   0.287   2.049   6.540
 2380SOL    HW1 8039   0.262   2.012   6.629
 2380SOL    HW2 8040   0.278   2.149   6.542
 2381SOL     OW 8041   1.948   5.200   4.215
 2381SOL    HW1 8042   1.961   5.158   4.125
 2381SOL    HW2 8043   2.012   5.276   4.227
 2382SOL     OW 8044   1.768   3.543   4.524
 2382SOL    HW1 8045   1.741   3.449   4.547
 2382SOL    HW2 8046   1.833   3.541   4.448
 2383SOL     OW 8047   5.421   6.896   0.813
 2383SOL    HW1 8048   5.471   6.832   0.754
 2383SOL    HW2 8049   5.420   6.987   0.770
 2384SOL     OW 8050   6.007   1.135   2.774
 2384SOL    HW1 8051   6.059   1.212   2.735
 2384SOL    HW2 8052   6.060   1.095   2.849
 2385SOL     OW 8053   0.630   0.536   0.531
 2385SOL    HW1 8054   0.567   0.604   0.571
 2385SOL    HW2 8055   0.717   0.580   0.511
 2386SOL     OW 8056   5.326   6.064   4.723
 2386SOL    HW1 8057   5.256   6.026   4.784
 2386SOL    HW2 8058   5.416   6.053   4.765
 2387SOL     OW 8059   1.509   1.847   4.105
 2387SOL    HW1 8060   1.457   1.789   4.043
 2387SOL    HW2 8061   1.467   1.846   4.196
 2388SOL     OW 8062   0.011   2.037   4.142
 2388SOL    HW1 8063   7.011   2.066   4.048
 2388SOL    HW2 8064   0.045   1.943   4.143
 2389SOL     OW 8065   4.644   4.288   3.542
 2389SOL    HW1 8066   4.680   4.315   3.453
 2389SOL    HW2 8067   4.697   4.211   3.578
 2390SOL     OW 8068   3.818   3.476   3.729
 2390SOL    HW1 8069   3.833   3.396   3.787
 2390SOL    HW2 8070   3.725   3.473   3.692
 2391SOL     OW 8071   5.471   4.093   5.603
 2391SOL    HW1 8072   5.542   4.038   5.560
 2391SOL    HW2 8073   5.468   4.183   5.560
 2392SOL     OW 8074   3.379   6.430   5.485
 2392SOL    HW1 8075   3.428   6.458   5.568
 2392SOL    HW2 8076   3.327   6.347   5.504
 2393SOL     OW 8077   5.406   3.847   5.740
 2393SOL    HW1 8078   5.368   3.855   5.832
 2393SOL    HW2 8079   5.436   3.937   5.708
 2394SOL     OW 8080   1.009   4.078   4.907
 2394SOL    HW1 8081   1.103   4.051   4.889
 2394SOL    HW2 8082   0.947   4.006   4.875
 2395SOL     OW 8083   5.172   0.462   5.956
 2395SOL    HW1 8084   5.169   0.422   5.865
 2395SOL    HW2 8085   5.101   0.532   5.964
 2396SOL     OW 8086   3.664   4.980   1.177
 2396SOL    HW1 8087   3.693   4.951   1.086
 2396SOL    HW2 8088   3.744   5.004   1.232
 2397SOL     OW 8089   6.985   3.840   5.696
 2397SOL    HW1 8090   6.990   3.789   5.782
 2397SOL    HW2 8091   0.039   3.810   5.635
 2398SOL     OW 8092   4.277   4.295   6.498
 2398SOL    HW1 8093   4.263   4.294   6.399
 2398SOL    HW2 8094   4.370   4.264   6.519
 2399SOL     OW 8095   4.412   0.573   0.982
 2399SOL    HW1 8096   4.418   0.527   0.893
 2399SOL    HW2 8097   4.394   0.670   0.968
 2400SOL     OW 8098   2.925   4.104   1.308
 2400SOL    HW1 8099   2.842   4.102   1.253
 2400SOL    HW2 8100   2.997   4.052   1.262
 2401SOL     OW 8101   5.248   5.984   0.030
 2401SOL    HW1 8102   5.204   6.055   6.994
 2401SOL    HW2 8103   5.284   5.913   6.988
 2402SOL     OW 8104   0.427   0.291   3.914
 2402SOL    HW1 8105   0.347   0.245   3.954
 2402SOL    HW2 8106   0.422   0.286   3.815
 2403SOL     OW 8107   1.691   2.199   6.434
 2403SOL    HW1 8108   1.689   2.110   6.479
 2403SOL    HW2 8109   1.643   2.267   6.490
 2404SOL     OW 8110   2.453   0.447   0.903
 2404SOL    HW1 8111   2.516   0.515   0.939
 2404SOL    HW2 8112   2.492   0.405   0.822
 2405SOL     OW 8113   3.207   3.668   2.151
 2405SOL    HW1 8114   3.253   3.702   2.069
 2405SOL    HW2 8115   3.219   3.734   2.226
 2406SOL     OW 8116   3.357   0.317   1.618
 2406SOL    HW1 8117   3.326   0.328   1.712
 2406SOL    HW2 8118   3.453   0.342   1.611
 2407SOL     OW 8119   5.599   1.981   2.949
 2407SOL    HW1 8120   5.520   2.043   2.953
 2407SOL    HW2 8121   5.657   1.995   3.030
 2408SOL     OW 8122   4.426   4.510   3.158
 2408SOL    HW1 8123   4.484   4.443   3.110
 2408SOL    HW2 8124   4.423   4.487   3.255
 2409SOL     OW 8125   2.331   4.658   1.897
 2409SOL    HW1 8126   2.415   4.687   1.944
 2409SOL    HW2 8127   2.304   4.567   1.928
 2410SOL     OW 8128   4.061   3.087   5.271
 2410SOL    HW1 8129   4.015   3.000   5.253
 2410SOL    HW2 8130   4.092   3.090   5.366
 2411SOL     OW 8131   5.074   6.001   4.320
 2411SOL    HW1 8132   5.147   6.061   4.287
 2411SOL    HW2 8133   4.989   6.025   4.273
 2412SOL     OW 8134   6.036   4.063   1.480
 2412SOL    HW1 8135   6.045   4.114   1.565
 2412SOL    HW2 8136   5.941   4.036   1.467
 2413SOL     OW 8137   6.732   0.848   0.855
 2413SOL    HW1 8138   6.746   0.914   0.928
 2413SOL    HW2 8139   6.683   0.768   0.890
 2414SOL     OW 8140   4.820   4.081   3.621
 2414SOL    HW1 8141   4.855   3.987   3.631
 2414SOL    HW2 8142   4.880   4.144   3.670
 2415SOL     OW 8143   6.407   1.611   3.378
 2415SOL    HW1 8144   6.319   1.649   3.350
 2415SOL    HW2 8145   6.392   1.525   3.427
 2416SOL     OW 8146   4.912   2.476   4.713
 2416SOL    HW1 8147   4.885   2.413   4.639
 2416SOL    HW2 8148   4.845   2.550   4.719
 2417SOL     OW 8149   3.497   3.696   4.860
 2417SOL    HW1 8150   3.552   3.645   4.794
 2417SOL    HW2 8151   3.499   3.793   4.836
 2418SOL     OW 8152   3.771   3.232   4.346
 2418SOL    HW1 8153   3.756   3.321   4.303
 2418SOL    HW2 8154   3.816   3.171   4.280
 2419SOL     OW 8155   0.151   6.752   4.228
 2419SOL    HW1 8156   0.235   6.699   4.211
 2419SOL    HW2 8157   0.153   6.834   4.171
 2420SOL     OW 8158   3.214   0.863   3.440
 2420SOL    HW1 8159   3.221   0.962   3.447
 2420SOL    HW2 8160   3.303   0.821   3.460
 2421SOL     OW 8161   2.262   2.374   4.816
 2421SOL    HW1 8162   2.163   2.360   4.827
 2421SOL    HW2 8163   2.282   2.472   4.824
 2422SOL     OW 8164   5.228   1.751   0.461
 2422SOL    HW1 8165   5.212   1.686   0.535
 2422SOL    HW2 8166   5.168   1.728   0.384
 2423SOL     OW 8167   1.818   5.972   2.150
 2423SOL    HW1 8168   1.768   6.041   2.202
 2423SOL    HW2 8169   1.848   6.010   2.063
 2424SOL     OW 8170   6.427   6.696   6.960
 2424SOL    HW1 8171   6.427   6.722   0.039
 2424SOL    HW2 8172   6.388   6.605   6.950
 2425SOL     OW 8173   5.721   0.236   3.843
 2425SOL    HW1 8174   5.756   0.160   3.897
 2425SOL    HW2 8175   5.795   0.301   3.825
 2426SOL     OW 8176   1.359   5.525   5.500
 2426SOL    HW1 8177   1.260   5.532   5.486
 2426SOL    HW2 8178   1.386   5.429   5.499
 2427SOL     OW 8179   5.652   5.985   5.574
 2427SOL    HW1 8180   5.628   5.903   5.625
 2427SOL    HW2 8181   5.671   6.060   5.638
 2428SOL     OW 8182   0.296   0.628   2.019
 2428SOL    HW1 8183   0.337   0.637   1.929
 2428SOL    HW2 8184   0.328   0.703   2.078
 2429SOL     OW 8185   6.036   5.574   1.942
 2429SOL    HW1 8186   6.013   5.521   1.860
 2429SOL    HW2 8187   6.090   5.654   1.916
 2430SOL     OW 8188   6.216   1.234   1.963
 2430SOL    HW1 8189   6.147   1.274   1.903
 2430SOL    HW2 8190   6.218   1.284   2.049
 2431SOL     OW 8191   4.205   0.728   2.464
 2431SOL    HW1 8192   4.274   0.656   2.466
 2431SOL    HW2 8193   4.249   0.817   2.458
 2432SOL     OW 8194   4.307   6.647   2.123
 2432SOL    HW1 8195   4.355   6.596   2.195
 2432SOL    HW2 8196   4.364   6.651   2.042
 2433SOL     OW 8197   4.526   1.670   0.643
 2433SOL    HW1 8198   4.596   1.643   0.709
 2433SOL    HW2 8199   4.467   1.740   0.684
 2434SOL     OW 8200   4.169   1.519   6.331
 2434SOL    HW1 8201   4.250   1.566   6.296
 2434SOL    HW2 8202   4.173   1.422   6.307
 2435SOL     OW 8203   4.941   5.748   5.410
 2435SOL    HW1 8204   5.018   5.740   5.473
 2435SOL    HW2 8205   4.865   5.792   5.458
 2436SOL     OW 8206   1.762   5.854   6.248
 2436SOL    HW1 8207   1.755   5.953   6.258
 2436SOL    HW2 8208   1.805   5.815   6.330
 2437SOL     OW 8209   5.607   6.914   6.118
 2437SOL    HW1 8210   5.701   6.946   6.106
 2437SOL    HW2 8211   5.565   6.900   6.029
 2438SOL     OW 8212   3.311   2.107   0.773
 2438SOL    HW1 8213   3.328   2.157   0.858
 2438SOL    HW2 8214   3.379   2.034   0.763
 2439SOL     OW 8215   0.612   4.167   6.266
 2439SOL    HW1 8216   0.618   4.242   6.200
 2439SOL    HW2 8217   0.549   4.191   6.339
 2440SOL     OW 8218   5.032   5.784   5.900
 2440SOL    HW1 8219   4.959   5.754   5.961
 2440SOL    HW2 8220   5.016   5.879   5.873
 2441SOL     OW 8221   7.017   2.716   0.956
 2441SOL    HW1 8222   6.944   2.784   0.960
 2441SOL    HW2 8223   6.977   2.624   0.961
 2442SOL     OW 8224   1.347   3.731   5.633
 2442SOL    HW1 8225   1.422   3.791   5.604
 2442SOL    HW2 8226   1.354   3.714   5.731
 2443SOL     OW 8227   2.933   4.158   6.281
 2443SOL    HW1 8228   2.851   4.210   6.306
 2443SOL    HW2 8229   2.914   4.101   6.201
 2444SOL     OW 8230   2.523   4.548   5.715
 2444SOL    HW1 8231   2.583   4.516   5.641
 2444SOL    HW2 8232   2.488   4.469   5.766
 2445SOL     OW 8233   0.590   0.732   0.833
 2445SOL    HW1 8234   0.519   0.770   0.891
 2445SOL    HW2 8235   0.679   0.766   0.862
 2446SOL     OW 8236   6.012   4.098   4.326
 2446SOL    HW1 8237   5.982   4.191   4.307
 2446SOL    HW2 8238   6.013   4.084   4.425
 2447SOL     OW 8239   1.526   2.323   0.053
 2447SOL    HW1 8240   1.493   2.297   6.980
 2447SOL    HW2 8241   1.474   2.274   0.123
 2448SOL     OW 8242   0.345   0.190   4.559
 2448SOL    HW1 8243   0.440   0.159   4.562
 2448SOL    HW2 8244   0.336   0.276   4.610
 2449SOL     OW 8245   0.456   3.649   7.011
 2449SOL    HW1 8246   0.449   3.599   0.079
 2449SOL    HW2 8247   0.540   3.623   6.964
 2450SOL     OW 8248   2.790   4.810   2.729
 2450SOL    HW1 8249   2.693   4.824   2.709
 2450SOL    HW2 8250   2.834   4.899   2.744
 2451SOL     OW 8251   1.852   6.822   3.789
 2451SOL    HW1 8252   1.910   6.747   3.758
 2451SOL    HW2 8253   1.898   6.909   3.770
 2452SOL     OW 8254   0.877   3.601   2.808
 2452SOL    HW1 8255   0.844   3.506   2.800
 2452SOL    HW2 8256   0.799   3.663   2.795
 2453SOL     OW 8257   6.563   4.525   1.755
 2453SOL    HW1 8258   6.463   4.521   1.761
 2453SOL    HW2 8259   6.603   4.502   1.844
 2454SOL     OW 8260   3.195   0.319   1.835
 2454SOL    HW1 8261   3.202   0.288   1.930
 2454SOL    HW2 8262   3.107   0.290   1.798
 2455SOL     OW 8263   5.435   5.244   1.202
 2455SOL    HW1 8264   5.385   5.328   1.180
 2455SOL    HW2 8265   5.533   5.265   1.208
 2456SOL     OW 8266   5.112   6.407   1.885
 2456SOL    HW1 8267   5.200   6.380   1.925
 2456SOL    HW2 8268   5.096   6.356   1.801
 2457SOL     OW 8269   5.578   0.038   1.248
 2457SOL    HW1 8270   5.587   0.092   1.164
 2457SOL    HW2 8271   5.495   7.000   1.243
 2458SOL     OW 8272   2.539   5.798   2.857
 2458SOL    HW1 8273   2.545   5.824   2.761
 2458SOL    HW2 8274   2.486   5.866   2.907
 2459SOL     OW 8275   2.177   0.363   0.908
 2459SOL    HW1 8276   2.266   0.401   0.934
 2459SOL    HW2 8277   2.160   0.381   0.811
 2460SOL     OW 8278   3.495   6.210   2.102
 2460SOL    HW1 8279   3.502   6.136   2.036
 2460SOL    HW2 8280   3.451   6.177   2.186
 2461SOL     OW 8281   5.631   0.446   1.904
 2461SOL    HW1 8282   5.634   0.487   1.995
 2461SOL    HW2 8283   5.667   0.511   1.837
 2462SOL     OW 8284   2.522   5.338   6.692
 2462SOL    HW1 8285   2.527   5.363   6.595
 2462SOL    HW2 8286   2.609   5.360   6.737
 2463SOL     OW 8287   6.591   1.956   3.542
 2463SOL    HW1 8288   6.566   1.981   3.448
 2463SOL    HW2 8289   6.674   1.901   3.541
 2464SOL     OW 8290   1.184   3.688   1.297
 2464SOL    HW1 8291   1.108   3.703   1.235
 2464SOL    HW2 8292   1.151   3.649   1.383
 2465SOL     OW 8293   0.040   6.191   2.552
 2465SOL    HW1 8294   6.968   6.230   2.540
 2465SOL    HW2 8295   0.098   6.216   2.475
 2466SOL     OW 8296   4.032   1.846   2.711
 2466SOL    HW1 8297   4.023   1.803   2.620
 2466SOL    HW2 8298   3.951   1.902   2.730
 2467SOL     OW 8299   6.912   0.756   6.049
 2467SOL    HW1 8300   6.932   0.853   6.036
 2467SOL    HW2 8301   6.845   0.746   6.122
 2468SOL     OW 8302   6.654   5.897   1.246
 2468SOL    HW1 8303   6.636   5.854   1.334
 2468SOL    HW2 8304   6.744   5.867   1.212
 2469SOL     OW 8305   2.514   3.305   5.605
 2469SOL    HW1 8306   2.432   3.350   5.640
 2469SOL    HW2 8307   2.497   3.276   5.510
 2470SOL     OW 8308   4.693   3.594   0.001
 2470SOL    HW1 8309   4.790   3.598   6.996
 2470SOL    HW2 8310   4.673   3.657   0.076
 2471SOL     OW 8311   0.781   6.515   2.901
 2471SOL    HW1 8312   0.749   6.493   2.993
 2471SOL    HW2 8313   0.703   6.520   2.838
 2472SOL     OW 8314   5.691   2.329   4.428
 2472SOL    HW1 8315   5.760   2.273   4.475
 2472SOL    HW2 8316   5.614   2.271   4.402
 2473SOL     OW 8317   1.065   6.031   4.733
 2473SOL    HW1 8318   0.966   6.025   4.728
 2473SOL    HW2 8319   1.101   5.952   4.783
 2474SOL     OW 8320   6.603   4.593   5.125
 2474SOL    HW1 8321   6.655   4.678   5.114
 2474SOL    HW2 8322   6.659   4.525   5.172
 2475SOL     OW 8323   3.988   2.530   0.456
 2475SOL    HW1 8324   3.962   2.576   0.371
 2475SOL    HW2 8325   4.037   2.594   0.515
 2476SOL     OW 8326   0.463   2.136   3.925
 2476SOL    HW1 8327   0.440   2.195   3.848
 2476SOL    HW2 8328   0.473   2.191   4.008
 2477SOL     OW 8329   5.241   4.865   0.925
 2477SOL    HW1 8330   5.294   4.915   0.993
 2477SOL    HW2 8331   5.172   4.925   0.886
 2478SOL     OW 8332   5.907   0.001   3.000
 2478SOL    HW1 8333   5.956   6.936   3.022
 2478SOL    HW2 8334   5.855   7.007   2.916
 2479SOL     OW 8335   0.678   2.687   0.660
 2479SOL    HW1 8336   0.648   2.748   0.587
 2479SOL    HW2 8337   0.623   2.703   0.742
 2480SOL     OW 8338   0.862   3.674   0.794
 2480SOL    HW1 8339   0.940   3.732   0.815
 2480SOL    HW2 8340   0.777   3.725   0.810
 2481SOL     OW 8341   4.353   5.114   2.050
 2481SOL    HW1 8342   4.298   5.188   2.089
 2481SOL    HW2 8343   4.307   5.027   2.066
 2482SOL     OW 8344   4.716   2.805   5.112
 2482SOL    HW1 8345   4.639   2.741   5.104
 2482SOL    HW2 8346   4.752   2.827   5.021
 2483SOL     OW 8347   1.014   2.069   6.735
 2483SOL    HW1 8348   0.976   1.977   6.730
 2483SOL    HW2 8349   1.004   2.104   6.828
 2484SOL     OW 8350   3.123   1.635   0.200
 2484SOL    HW1 8351   3.052   1.704   0.215
 2484SOL    HW2 8352   3.133   1.580   0.283
 2485SOL     OW 8353   0.252   5.344   2.419
 2485SOL    HW1 8354   0.306   5.337   2.503
 2485SOL    HW2 8355   0.159   5.313   2.436
 2486SOL     OW 8356   1.503   5.341   2.885
 2486SOL    HW1 8357   1.570   5.358   2.958
 2486SOL    HW2 8358   1.419   5.304   2.925
 2487SOL     OW 8359   3.665   0.579   0.784
 2487SOL    HW1 8360   3.588   0.619   0.736
 2487SOL    HW2 8361   3.734   0.649   0.802
 2488SOL     OW 8362   3.001   5.404   1.282
 2488SOL    HW1 8363   3.041   5.314   1.262
 2488SOL    HW2 8364   3.039   5.472   1.219
 2489SOL     OW 8365   1.400   5.713   4.362
 2489SOL    HW1 8366   1.381   5.811   4.364
 2489SOL    HW2 8367   1.447   5.687   4.446
 2490SOL     OW 8368   5.428   3.468   1.029
 2490SOL    HW1 8369   5.439   3.376   0.992
 2490SOL    HW2 8370   5.405   3.463   1.126
 2491SOL     OW 8371   2.844   5.221   2.329
 2491SOL    HW1 8372   2.777   5.181   2.391
 2491SOL    HW2 8373   2.844   5.170   2.243
 2492SOL     OW 8374   4.809   3.335   6.768
 2492SOL    HW1 8375   4.728   3.307   6.820
 2492SOL    HW2 8376   4.788   3.334   6.670
 2493SOL     OW 8377   6.381   1.799   3.670
 2493SOL    HW1 8378   6.402   1.702   3.655
 2493SOL    HW2 8379   6.447   1.855   3.620
 2494SOL     OW 8380   4.912   3.561   2.404
 2494SOL    HW1 8381   4.901   3.462   2.401
 2494SOL    HW2 8382   4.910   3.597   2.310
 2495SOL     OW 8383   5.527   0.970   5.122
 2495SOL    HW1 8384   5.480   0.984   5.209
 2495SOL    HW2 8385   5.478   1.019   5.050
 2496SOL     OW 8386   1.336   6.536   0.472
 2496SOL    HW1 8387   1.265   6.470   0.499
 2496SOL    HW2 8388   1.401   6.490   0.411
 2497SOL     OW 8389   6.119   1.594   6.416
 2497SOL    HW1 8390   6.180   1.544   6.354
 2497SOL    HW2 8391   6.073   1.529   6.477
 2498SOL     OW 8392   1.932   3.416   4.855
 2498SOL    HW1 8393   1.935   3.395   4.758
 2498SOL    HW2 8394   1.848   3.465   4.877
 2499SOL     OW 8395   6.002   0.667   4.588
 2499SOL    HW1 8396   5.931   0.607   4.553
 2499SOL    HW2 8397   6.087   0.651   4.538
 2500SOL     OW 8398   4.464   3.465   0.037
 2500SOL    HW1 8399   4.556   3.493   0.010
 2500SOL    HW2 8400   4.419   3.419   6.979
 2501SOL     OW 8401   0.080   3.967   0.263
 2501SOL    HW1 8402   7.013   4.020   0.263
 2501SOL    HW2 8403   0.155   4.023   0.298
 2502SOL     OW 8404   1.822   6.408   3.529
 2502SOL    HW1 8405   1.815   6.364   3.440
 2502SOL    HW2 8406   1.758   6.364   3.593
 2503SOL     OW 8407   4.485   4.887   4.942
 2503SOL    HW1 8408   4.579   4.864   4.965
 2503SOL    HW2 8409   4.467   4.983   4.968
 2504SOL     OW 8410   1.272   4.419   4.172
 2504SOL    HW1 8411   1.291   4.325   4.146
 2504SOL    HW2 8412   1.174   4.429   4.192
 2505SOL     OW 8413   4.606   5.670   4.318
 2505SOL    HW1 8414   4.650   5.729   4.250
 2505SOL    HW2 8415   4.666   5.593   4.339
 2506SOL     OW 8416   0.253   2.330   6.482
 2506SOL    HW1 8417   0.193   2.383   6.543
 2506SOL    HW2 8418   0.198   2.274   6.421
 2507SOL     OW 8419   6.690   6.053   0.106
 2507SOL    HW1 8420   6.744   5.978   0.067
 2507SOL    HW2 8421   6.640   6.099   0.034
 2508SOL     OW 8422   2.310   2.647   2.431
 2508SOL    HW1 8423   2.318   2.663   2.530
 2508SOL    HW2 8424   2.288   2.733   2.385
 2509SOL     OW 8425   4.821   2.889   3.740
 2509SOL    HW1 8426   4.838   2.829   3.818
 2509SOL    HW2 8427   4.754   2.847   3.679
 2510SOL     OW 8428   4.044   5.674   0.634
 2510SOL    HW1 8429   3.978   5.747   0.652
 2510SOL    HW2 8430   3.995   5.590   0.610
 2511SOL     OW 8431   1.594   0.428   4.876
 2511SOL    HW1 8432   1.506   0.476   4.880
 2511SOL    HW2 8433   1.619   0.412   4.781
 2512SOL     OW 8434   5.227   3.691   5.082
 2512SOL    HW1 8435   5.190   3.652   5.166
 2512SOL    HW2 8436   5.217   3.790   5.084
 2513SOL     OW 8437   0.735   3.474   0.522
 2513SOL    HW1 8438   0.834   3.490   0.527
 2513SOL    HW2 8439   0.698   3.517   0.440
 2514SOL     OW 8440   1.208   1.201   3.778
 2514SOL    HW1 8441   1.222   1.104   3.758
 2514SOL    HW2 8442   1.130   1.236   3.726
 2515SOL     OW 8443   0.699   5.797   0.340
 2515SOL    HW1 8444   0.624   5.849   0.300
 2515SOL    HW2 8445   0.715   5.828   0.434
 2516SOL     OW 8446   5.388   6.395   3.882
 2516SOL    HW1 8447   5.312   6.350   3.836
 2516SOL    HW2 8448   5.353   6.465   3.945
 2517SOL     OW 8449   2.160   4.837   0.003
 2517SOL    HW1 8450   2.233   4.887   6.973
 2517SOL    HW2 8451   2.156   4.744   6.987
 2518SOL     OW 8452   2.261   2.257   6.594
 2518SOL    HW1 8453   2.307   2.176   6.558
 2518SOL    HW2 8454   2.201   2.295   6.523
 2519SOL     OW 8455   4.735   4.499   4.471
 2519SOL    HW1 8456   4.739   4.450   4.384
 2519SOL    HW2 8457   4.639   4.517   4.495
 2520SOL     OW 8458   2.121   4.250   2.114
 2520SOL    HW1 8459   2.207   4.238   2.164
 2520SOL    HW2 8460   2.076   4.162   2.102
 2521SOL     OW 8461   5.332   6.706   5.155
 2521SOL    HW1 8462   5.371   6.632   5.100
 2521SOL    HW2 8463   5.261   6.753   5.103
 2522SOL     OW 8464   1.265   2.882   4.708
 2522SOL    HW1 8465   1.295   2.834   4.791
 2522SOL    HW2 8466   1.252   2.815   4.634
 2523SOL     OW 8467   0.589   3.188   6.820
 2523SOL    HW1 8468   0.679   3.170   6.860
 2523SOL    HW2 8469   0.583   3.284   6.793
 2524SOL     OW 8470   1.010   6.998   4.465
 2524SOL    HW1 8471   0.975   6.933   4.533
 2524SOL    HW2 8472   1.110   6.993   4.463
 2525SOL     OW 8473   1.301   3.495   3.567
 2525SOL    HW1 8474   1.351   3.567   3.616
 2525SOL    HW2 8475   1.279   3.528   3.475
 2526SOL     OW 8476   6.748   1.382   4.991
 2526SOL    HW1 8477   6.791   1.390   4.902
 2526SOL    HW2 8478   6.757   1.289   5.025
 2527SOL     OW 8479   5.722   6.397   3.838
 2527SOL    HW1 8480   5.660   6.333   3.792
 2527SOL    HW2 8481   5.676   6.485   3.849
 2528SOL     OW 8482   6.419   5.540   0.320
 2528SOL    HW1 8483   6.343   5.479   0.343
 2528SOL    HW2 8484   6.506   5.495   0.338
 2529SOL     OW 8485   4.902   3.788   4.588
 2529SOL    HW1 8486   4.949   3.863   4.635
 2529SOL    HW2 8487   4.880   3.717   4.654
 2530SOL     OW 8488   0.224   0.627   4.272
 2530SOL    HW1 8489   0.257   0.659   4.361
 2530SOL    HW2 8490   0.299   0.583   4.223
 2531SOL     OW 8491   3.853   1.948   6.258
 2531SOL    HW1 8492   3.858   2.006   6.176
 2531SOL    HW2 8493   3.894   1.997   6.335
 2532SOL     OW 8494   1.571   4.799   6.833
 2532SOL    HW1 8495   1.533   4.706   6.836
 2532SOL    HW2 8496   1.665   4.797   6.869
 2533SOL     OW 8497   5.605   6.676   5.863
 2533SOL    HW1 8498   5.581   6.600   5.803
 2533SOL    HW2 8499   5.562   6.760   5.830
 2534SOL     OW 8500   0.884   2.229   3.729
 2534SOL    HW1 8501   0.893   2.237   3.828
 2534SOL    HW2 8502   0.797   2.270   3.700
 2535SOL     OW 8503   1.657   0.982   2.922
 2535SOL    HW1 8504   1.658   1.076   2.957
 2535SOL    HW2 8505   1.639   0.919   2.998
 2536SOL     OW 8506   5.877   1.066   4.363
 2536SOL    HW1 8507   5.819   1.098   4.287
 2536SOL    HW2 8508   5.971   1.059   4.331
 2537SOL     OW 8509   4.699   5.430   1.300
 2537SOL    HW1 8510   4.765   5.498   1.266
 2537SOL    HW2 8511   4.624   5.477   1.346
 2538SOL     OW 8512   2.347   4.697   5.062
 2538SOL    HW1 8513   2.344   4.611   5.113
 2538SOL    HW2 8514   2.263   4.706   5.008
 2539SOL     OW 8515   2.887   7.013   5.185
 2539SOL    HW1 8516   2.803   6.959   5.186
 2539SOL    HW2 8517   2.932   7.006   5.273
 2540SOL     OW 8518   5.373   2.027   2.375
 2540SOL    HW1 8519   5.395   2.108   2.321
 2540SOL    HW2 8520   5.450   2.003   2.434
 2541SOL     OW 8521   0.879   6.348   5.784
 2541SOL    HW1 8522   0.872   6.448   5.780
 2541SOL    HW2 8523   0.790   6.308   5.762
 2542SOL     OW 8524   3.533   2.161   4.095
 2542SOL    HW1 8525   3.438   2.186   4.110
 2542SOL    HW2 8526   3.545   2.128   4.001
 2543SOL     OW 8527   0.296   1.881   3.935
 2543SOL    HW1 8528   0.372   1.944   3.952
 2543SOL    HW2 8529   0.231   1.923   3.872
 2544SOL     OW 8530   6.384   5.255   1.853
 2544SOL    HW1 8531   6.383   5.232   1.756
 2544SOL    HW2 8532   6.389   5.171   1.908
 2545SOL     OW 8533   6.838   1.715   1.551
 2545SOL    HW1 8534   6.875   1.808   1.555
 2545SOL    HW2 8535   6.846   1.680   1.458
 2546SOL     OW 8536   0.034   4.391   2.825
 2546SOL    HW1 8537   6.998   4.435   2.897
 2546SOL    HW2 8538   0.066   4.302   2.857
 2547SOL     OW 8539   5.799   3.564   1.200
 2547SOL    HW1 8540   5.769   3.580   1.294
 2547SOL    HW2 8541   5.849   3.644   1.167
 2548SOL     OW 8542   6.787   6.816   5.393
 2548SOL    HW1 8543   6.867   6.852   5.441
 2548SOL    HW2 8544   6.797   6.717   5.381
 2549SOL     OW 8545   2.549   2.437   0.863
 2549SOL    HW1 8546   2.450   2.428   0.867
 2549SOL    HW2 8547   2.587   2.360   0.812
 2550SOL     OW 8548   4.483   0.046   6.203
 2550SOL    HW1 8549   4.454   0.141   6.198
 2550SOL    HW2 8550   4.405   7.006   6.224
 2551SOL     OW 8551   3.371   5.246   0.080
 2551SOL    HW1 8552   3.347   5.229   0.175
 2551SOL    HW2 8553   3.427   5.329   0.074
 2552SOL     OW 8554   2.734   6.059   0.816
 2552SOL    HW1 8555   2.707   6.073   0.911
 2552SOL    HW2 8556   2.654   6.033   0.762
 2553SOL     OW 8557   4.564   0.953   6.960
 2553SOL    HW1 8558   4.614   1.001   6.888
 2553SOL    HW2 8559   4.527   0.867   6.925
 2554SOL     OW 8560   1.358   5.899   1.606
 2554SOL    HW1 8561   1.334   5.988   1.568
 2554SOL    HW2 8562   1.457   5.888   1.607
 2555SOL     OW 8563   5.472   6.052   5.104
 2555SOL    HW1 8564   5.403   6.111   5.147
 2555SOL    HW2 8565   5.516   5.995   5.174
 2556SOL     OW 8566   3.995   0.363   0.834
 2556SOL    HW1 8567   4.003   0.403   0.925
 2556SOL    HW2 8568   3.904   0.322   0.823
 2557SOL     OW 8569   3.273   0.165   0.179
 2557SOL    HW1 8570   3.180   0.201   0.171
 2557SOL    HW2 8571   3.276   0.073   0.140
 2558SOL     OW 8572   5.970   3.748   6.159
 2558SOL    HW1 8573   6.042   3.714   6.099
 2558SOL    HW2 8574   5.901   3.676   6.171
 2559SOL     OW 8575   1.019   4.524   4.555
 2559SOL    HW1 8576   1.002   4.489   4.647
 2559SOL    HW2 8577   0.934   4.560   4.517
 2560SOL     OW 8578   5.068   1.961   3.359
 2560SOL    HW1 8579   5.023   1.985   3.273
 2560SOL    HW2 8580   5.079   2.044   3.415
 2561SOL     OW 8581   3.664   0.747   4.514
 2561SOL    HW1 8582   3.656   0.844   4.538
 2561SOL    HW2 8583   3.632   0.691   4.591
 2562SOL     OW 8584   3.282   0.011   3.163
 2562SOL    HW1 8585   3.314   0.067   3.087
 2562SOL    HW2 8586   3.189   6.997   3.144
 2563SOL     OW 8587   3.730   1.394   7.009
 2563SOL    HW1 8588   3.756   1.313   6.957
 2563SOL    HW2 8589   3.645   1.431   6.972
 2564SOL     OW 8590   1.881   1.459   0.802
 2564SOL    HW1 8591   1.822   1.396   0.853
 2564SOL    HW2 8592   1.916   1.413   0.721
 2565SOL     OW 8593   1.325   2.181   0.187
 2565SOL    HW1 8594   1.256   2.160   0.118
 2565SOL    HW2 8595   1.340   2.101   0.245
 2566SOL     OW 8596   2.403   0.746   1.276
 2566SOL    HW1 8597   2.387   0.650   1.299
 2566SOL    HW2 8598   2.404   0.757   1.176
 2567SOL     OW 8599   1.629   0.387   0.552
 2567SOL    HW1 8600   1.581   0.303   0.527
 2567SOL    HW2 8601   1.607   0.412   0.646
 2568SOL     OW 8602   2.899   6.491   1.182
 2568SOL    HW1 8603   2.929   6.459   1.092
 2568SOL    HW2 8604   2.973   6.543   1.225
 2569SOL     OW 8605   0.973   0.304   1.189
 2569SOL    HW1 8606   1.063   0.261   1.199
 2569SOL    HW2 8607   0.964   0.379   1.254
 2570SOL     OW 8608   5.984   6.720   6.030
 2570SOL    HW1 8609   5.995   6.749   5.935
 2570SOL    HW2 8610   6.041   6.639   6.047
 2571SOL     OW 8611   3.477   3.384   4.279
 2571SOL    HW1 8612   3.553   3.392   4.214
 2571SOL    HW2 8613   3.497   3.441   4.359
 2572SOL     OW 8614   1.948   6.568   1.808
 2572SOL    HW1 8615   1.936   6.507   1.729
 2572SOL    HW2 8616   2.045   6.570   1.834
 2573SOL     OW 8617   0.092   2.276   4.766
 2573SOL    HW1 8618   0.171   2.220   4.793
 2573SOL    HW2 8619   0.045   2.234   4.689
 2574SOL     OW 8620   0.848   3.936   1.805
 2574SOL    HW1 8621   0.943   3.967   1.805
 2574SOL    HW2 8622   0.814   3.933   1.898
 2575SOL     OW 8623   6.433   3.931   0.497
 2575SOL    HW1 8624   6.520   3.945   0.450
 2575SOL    HW2 8625   6.424   3.835   0.523
 2576SOL     OW 8626   1.632   6.952   3.736
 2576SOL    HW1 8627   1.554   6.949   3.799
 2576SOL    HW2 8628   1.708   6.900   3.775
 2577SOL     OW 8629   2.320   5.990   2.601
 2577SOL    HW1 8630   2.254   6.066   2.594
 2577SOL    HW2 8631   2.380   6.005   2.679
 2578SOL     OW 8632   5.034   2.616   4.327
 2578SOL    HW1 8633   5.128   2.611   4.361
 2578SOL    HW2 8634   5.025   2.559   4.246
 2579SOL     OW 8635   6.911   2.510   6.464
 2579SOL    HW1 8636   6.908   2.602   6.428
 2579SOL    HW2 8637   6.820   2.469   6.460
 2580SOL     OW 8638   1.454   2.518   6.459
 2580SOL    HW1 8639   1.426   2.538   6.553
 2580SOL    HW2 8640   1.386   2.458   6.417
 2581SOL     OW 8641   6.646   6.544   3.672
 2581SOL    HW1 8642   6.709   6.492   3.615
 2581SOL    HW2 8643   6.668   6.642   3.665
 2582SOL     OW 8644   0.756   5.264   2.272
 2582SOL    HW1 8645   0.798   5.212   2.197
 2582SOL    HW2 8646   0.764   5.362   2.252
 2583SOL     OW 8647   1.592   6.963   0.678
 2583SOL    HW1 8648   1.634   7.003   0.759
 2583SOL    HW2 8649   1.529   6.891   0.706
 2584SOL     OW 8650   4.320   6.531   1.720
 2584SOL    HW1 8651   4.287   6.445   1.760
 2584SOL    HW2 8652   4.266   6.554   1.640
 2585SOL     OW 8653   3.785   0.532   1.060
 2585SOL    HW1 8654   3.709   0.552   1.122
 2585SOL    HW2 8655   3.754   0.539   0.966
 2586SOL     OW 8656   6.438   2.288   3.915
 2586SOL    HW1 8657   6.406   2.198   3.886
 2586SOL    HW2 8658   6.418   2.355   3.843
 2587SOL     OW 8659   5.873   6.408   3.235
 2587SOL    HW1 8660   5.926   6.370   3.311
 2587SOL    HW2 8661   5.905   6.366   3.149
 2588SOL     OW 8662   5.678   1.203   1.206
 2588SOL    HW1 8663   5.685   1.146   1.124
 2588SOL    HW2 8664   5.704   1.297   1.183
 2589SOL     OW 8665   6.633   6.467   6.744
 2589SOL    HW1 8666   6.705   6.452   6.812
 2589SOL    HW2 8667   6.661   6.538   6.679
 2590SOL     OW 8668   4.499   0.259   2.615
 2590SOL    HW1 8669   4.598   0.269   2.603
 2590SOL    HW2 8670   4.457   0.349   2.622
 2591SOL     OW 8671   5.292   6.417   1.475
 2591SOL    HW1 8672   5.282   6.348   1.547
 2591SOL    HW2 8673   5.379   6.404   1.428
 2592SOL     OW 8674   3.964   5.348   1.706
 2592SOL    HW1 8675   3.882   5.301   1.741
 2592SOL    HW2 8676   3.940   5.443   1.683
 2593SOL     OW 8677   3.366   6.418   2.276
 2593SOL    HW1 8678   3.427   6.354   2.229
 2593SOL    HW2 8679   3.282   6.371   2.303
 2594SOL     OW 8680   0.524   6.420   6.344
 2594SOL    HW1 8681   0.575   6.350   6.294
 2594SOL    HW2 8682   0.490   6.382   6.430
 2595SOL     OW 8683   5.978   3.608   4.230
 2595SOL    HW1 8684   5.941   3.688   4.182
 2595SOL    HW2 8685   5.912   3.577   4.298
 2596SOL     OW 8686   3.951   2.162   2.099
 2596SOL    HW1 8687   3.935   2.169   2.001
 2596SOL    HW2 8688   3.878   2.109   2.142
 2597SOL     OW 8689   2.079   3.317   0.347
 2597SOL    HW1 8690   1.981   3.330   0.366
 2597SOL    HW2 8691   2.118   3.404   0.316
 2598SOL     OW 8692   6.427   3.450   3.664
 2598SOL    HW1 8693   6.361   3.418   3.597
 2598SOL    HW2 8694   6.384   3.456   3.754
 2599SOL     OW 8695   3.533   5.719   0.192
 2599SOL    HW1 8696   3.536   5.653   0.117
 2599SOL    HW2 8697   3.441   5.755   0.202
 2600SOL     OW 8698   5.932   3.669   3.388
 2600SOL    HW1 8699   6.006   3.614   3.427
 2600SOL    HW2 8700   5.971   3.744   3.335
 2601SOL     OW 8701   4.194   3.266   6.617
 2601SOL    HW1 8702   4.283   3.284   6.575
 2601SOL    HW2 8703   4.136   3.217   6.553
 2602SOL     OW 8704   6.254   5.307   3.651
 2602SOL    HW1 8705   6.300   5.263   3.575
 2602SOL    HW2 8706   6.173   5.356   3.618
 2603SOL     OW 8707   3.291   1.845   1.382
 2603SOL    HW1 8708   3.293   1.868   1.285
 2603SOL    HW2 8709   3.234   1.764   1.396
 2604SOL     OW 8710   6.132   0.173   1.234
 2604SOL    HW1 8711   6.117   0.268   1.259
 2604SOL    HW2 8712   6.113   0.161   1.136
 2605SOL     OW 8713   4.617   5.028   4.342
 2605SOL    HW1 8714   4.593   5.060   4.433
 2605SOL    HW2 8715   4.615   5.105   4.278
 2606SOL     OW 8716   0.089   4.428   0.225
 2606SOL    HW1 8717   0.005   4.445   0.174
 2606SOL    HW2 8718   0.069   4.368   0.302
 2607SOL     OW 8719   0.585   1.044   3.873
 2607SOL    HW1 8720   0.645   1.121   3.895
 2607SOL    HW2 8721   0.506   1.077   3.821
 2608SOL     OW 8722   5.056   0.838   1.208
 2608SOL    HW1 8723   5.069   0.753   1.157
 2608SOL    HW2 8724   5.138   0.894   1.202
 2609SOL     OW 8725   1.016   2.288   2.416
 2609SOL    HW1 8726   1.111   2.298   2.388
 2609SOL    HW2 8727   0.956   2.315   2.340
 2610SOL     OW 8728   5.868   6.218   4.812
 2610SOL    HW1 8729   5.849   6.257   4.902
 2610SOL    HW2 8730   5.919   6.132   4.823
 2611SOL     OW 8731   4.574   6.448   1.121
 2611SOL    HW1 8732   4.487   6.440   1.169
 2611SOL    HW2 8733   4.559   6.491   1.032
 2612SOL     OW 8734   5.928   6.618   3.004
 2612SOL    HW1 8735   5.909   6.567   3.088
 2612SOL    HW2 8736   5.855   6.604   2.938
 2613SOL     OW 8737   3.785   0.299   1.465
 2613SOL    HW1 8738   3.710   0.362   1.485
 2613SOL    HW2 8739   3.872   0.345   1.481
 2614SOL     OW 8740   6.980   6.428   6.110
 2614SOL    HW1 8741   0.019   6.375   6.172
 2614SOL    HW2 8742   6.884   6.408   6.129
 2615SOL     OW 8743   5.254   5.720   2.740
 2615SOL    HW1 8744   5.169   5.669   2.727
 2615SOL    HW2 8745   5.290   5.703   2.832
 2616SOL     OW 8746   3.770   2.911   3.087
 2616SOL    HW1 8747   3.811   2.937   3.000
 2616SOL    HW2 8748   3.688   2.857   3.071
 2617SOL     OW 8749   4.037   6.483   1.337
 2617SOL    HW1 8750   4.015   6.399   1.386
 2617SOL    HW2 8751   3.955   6.540   1.329
 2618SOL     OW 8752   1.399   0.249   0.794
 2618SOL    HW1 8753   1.496   0.262   0.775
 2618SOL    HW2 8754   1.363   0.331   0.839
 2619SOL     OW 8755   4.465   2.062   2.035
 2619SOL    HW1 8756   4.456   1.994   2.107
 2619SOL    HW2 8757   4.506   2.145   2.072
 2620SOL     OW 8758   0.943   4.630   4.205
 2620SOL    HW1 8759   0.963   4.532   4.204
 2620SOL    HW2 8760   1.017   4.679   4.251
 2621SOL     OW 8761   0.737   5.029   3.471
 2621SOL    HW1 8762   0.825   5.014   3.517
 2621SOL    HW2 8763   0.664   5.031   3.539
 2622SOL     OW 8764   2.625   2.688   6.656
 2622SOL    HW1 8765   2.535   2.657   6.688
 2622SOL    HW2 8766   2.620   2.784   6.629
 2623SOL     OW 8767   3.079   1.198   5.765
 2623SOL    HW1 8768   3.063   1.246   5.851
 2623SOL    HW2 8769   3.020   1.236   5.694
 2624SOL     OW 8770   5.862   2.419   3.624
 2624SOL    HW1 8771   5.934   2.351   3.612
 2624SOL    HW2 8772   5.901   2.510   3.620
 2625SOL     OW 8773   2.992   2.256   5.837
 2625SOL    HW1 8774   3.079   2.284   5.796
 2625SOL    HW2 8775   2.995   2.270   5.936
 2626SOL     OW 8776   2.038   6.745   3.032
 2626SOL    HW1 8777   2.031   6.840   3.063
 2626SOL    HW2 8778   1.963   6.692   3.070
 2627SOL     OW 8779   6.599   0.474   4.099
 2627SOL    HW1 8780   6.631   0.438   4.011
 2627SOL    HW2 8781   6.515   0.427   4.126
 2628SOL     OW 8782   3.987   6.120   6.879
 2628SOL    HW1 8783   3.908   6.067   6.909
 2628SOL    HW2 8784   3.967   6.217   6.887
 2629SOL     OW 8785   3.512   4.140   1.467
 2629SOL    HW1 8786   3.548   4.077   1.536
 2629SOL    HW2 8787   3.448   4.091   1.407
 2630SOL     OW 8788   2.906   2.119   2.548
 2630SOL    HW1 8789   2.946   2.170   2.471
 2630SOL    HW2 8790   2.854   2.041   2.514
 2631SOL     OW 8791   4.340   6.470   3.834
 2631SOL    HW1 8792   4.284   6.469   3.916
 2631SOL    HW2 8793   4.306   6.403   3.769
 2632SOL     OW 8794   3.493   2.094   0.343
 2632SOL    HW1 8795   3.478   2.116   0.247
 2632SOL    HW2 8796   3.574   2.035   0.352
 2633SOL     OW 8797   5.810   2.285   0.028
 2633SOL    HW1 8798   5.797   2.192   0.064
 2633SOL    HW2 8799   5.892   2.326   0.070
 2634SOL     OW 8800   1.941   4.097   1.415
 2634SOL    HW1 8801   1.864   4.137   1.366
 2634SOL    HW2 8802   1.929   3.998   1.422
 2635SOL     OW 8803   5.516   4.841   5.144
 2635SOL    HW1 8804   5.563   4.791   5.217
 2635SOL    HW2 8805   5.434   4.790   5.118
 2636SOL     OW 8806   4.471   0.092   5.749
 2636SOL    HW1 8807   4.503   0.047   5.832
 2636SOL    HW2 8808   4.542   0.084   5.678
 2637SOL     OW 8809   5.724   6.604   2.823
 2637SOL    HW1 8810   5.769   6.520   2.790
 2637SOL    HW2 8811   5.626   6.599   2.802
 2638SOL     OW 8812   5.484   6.074   1.184
 2638SOL    HW1 8813   5.467   6.037   1.092
 2638SOL    HW2 8814   5.582   6.088   1.197
 2639SOL     OW 8815   6.225   6.059   1.227
 2639SOL    HW1 8816   6.283   6.140   1.234
 2639SOL    HW2 8817   6.276   5.984   1.186
 2640SOL     OW 8818   6.825   6.098   5.332
 2640SOL    HW1 8819   6.755   6.039   5.371
 2640SOL    HW2 8820   6.785   6.188   5.312
 2641SOL     OW 8821   5.108   4.416   6.871
 2641SOL    HW1 8822   5.151   4.505   6.892
 2641SOL    HW2 8823   5.152   4.345   6.925
 2642SOL     OW 8824   4.903   0.595   3.547
 2642SOL    HW1 8825   4.845   0.516   3.526
 2642SOL    HW2 8826   4.933   0.638   3.462
 2643SOL     OW 8827   0.047   0.340   2.860
 2643SOL    HW1 8828   0.034   0.253   2.813
 2643SOL    HW2 8829   0.085   0.407   2.796
 2644SOL     OW 8830   0.474   4.543   6.040
 2644SOL    HW1 8831   0.405   4.489   6.089
 2644SOL    HW2 8832   0.561   4.493   6.041
 2645SOL     OW 8833   5.262   5.777   6.287
 2645SOL    HW1 8834   5.291   5.808   6.197
 2645SOL    HW2 8835   5.211   5.691   6.278
 2646SOL     OW 8836   6.792   0.217   6.378
 2646SOL    HW1 8837   6.816   0.158   6.301
 2646SOL    HW2 8838   6.852   0.298   6.378
 2647SOL     OW 8839   4.544   2.160   1.496
 2647SOL    HW1 8840   4.545   2.146   1.595
 2647SOL    HW2 8841   4.459   2.205   1.470
 2648SOL     OW 8842   5.514   0.285   2.311
 2648SOL    HW1 8843   5.434   0.276   2.253
 2648SOL    HW2 8844   5.516   0.376   2.352
 2649SOL     OW 8845   3.268   1.653   6.613
 2649SOL    HW1 8846   3.282   1.597   6.531
 2649SOL    HW2 8847   3.333   1.729   6.612
 2650SOL     OW 8848   6.897   6.221   2.972
 2650SOL    HW1 8849   6.816   6.253   3.021
 2650SOL    HW2 8850   6.881   6.127   2.940
 2651SOL     OW 8851   6.698   1.278   2.116
 2651SOL    HW1 8852   6.631   1.279   2.042
 2651SOL    HW2 8853   6.705   1.185   2.153
 2652SOL     OW 8854   3.211   3.159   3.014
 2652SOL    HW1 8855   3.114   3.136   3.000
 2652SOL    HW2 8856   3.254   3.175   2.925
 2653SOL     OW 8857   6.696   6.732   6.062
 2653SOL    HW1 8858   6.761   6.714   5.988
 2653SOL    HW2 8859   6.611   6.767   6.023
 2654SOL     OW 8860   5.066   2.515   5.693
 2654SOL    HW1 8861   5.022   2.453   5.759
 2654SOL    HW2 8862   5.083   2.603   5.736
 2655SOL     OW 8863   4.801   6.403   4.478
 2655SOL    HW1 8864   4.792   6.435   4.383
 2655SOL    HW2 8865   4.851   6.471   4.531
 2656SOL     OW 8866   5.301   3.737   3.552
 2656SOL    HW1 8867   5.254   3.825   3.546
 2656SOL    HW2 8868   5.236   3.663   3.532
 2657SOL     OW 8869   1.826   3.918   6.885
 2657SOL    HW1 8870   1.744   3.923   6.942
 2657SOL    HW2 8871   1.907   3.926   6.942
 2658SOL     OW 8872   6.358   4.495   5.549
 2658SOL    HW1 8873   6.328   4.437   5.625
 2658SOL    HW2 8874   6.343   4.591   5.573
 2659SOL     OW 8875   6.798   2.316   4.496
 2659SOL    HW1 8876   6.854   2.380   4.549
 2659SOL    HW2 8877   6.800   2.343   4.400
 2660SOL     OW 8878   6.019   2.513   2.610
 2660SOL    HW1 8879   5.983   2.477   2.696
 2660SOL    HW2 8880   5.962   2.481   2.534
 2661SOL     OW 8881   3.639   5.970   0.917
 2661SOL    HW1 8882   3.679   5.879   0.904
 2661SOL    HW2 8883   3.565   5.965   0.983
 2662SOL     OW 8884   3.949   6.702   4.537
 2662SOL    HW1 8885   3.876   6.690   4.605
 2662SOL    HW2 8886   3.952   6.621   4.478
 2663SOL     OW 8887   2.012   4.511   2.181
 2663SOL    HW1 8888   2.107   4.540   2.192
 2663SOL    HW2 8889   2.008   4.411   2.172
 2664SOL     OW 8890   3.877   3.592   2.702
 2664SOL    HW1 8891   3.904   3.660   2.770
 2664SOL    HW2 8892   3.917   3.503   2.727
 2665SOL     OW 8893   3.606   1.335   5.041
 2665SOL    HW1 8894   3.542   1.259   5.048
 2665SOL    HW2 8895   3.664   1.337   5.122
 2666SOL     OW 8896   5.325   4.227   0.837
 2666SOL    HW1 8897   5.377   4.175   0.906
 2666SOL    HW2 8898   5.389   4.278   0.779
 2667SOL     OW 8899   2.487   5.731   4.610
 2667SOL    HW1 8900   2.493   5.726   4.511
 2667SOL    HW2 8901   2.518   5.821   4.641
 2668SOL     OW 8902   0.055   3.413   5.381
 2668SOL    HW1 8903   0.122   3.355   5.428
 2668SOL    HW2 8904   6.985   3.406   5.426
 2669SOL     OW 8905   4.248   4.736   5.437
 2669SOL    HW1 8906   4.222   4.643   5.408
 2669SOL    HW2 8907   4.345   4.738   5.459
 2670SOL     OW 8908   1.066   1.552   0.111
 2670SOL    HW1 8909   1.158   1.586   0.129
 2670SOL    HW2 8910   1.037   1.494   0.187
 2671SOL     OW 8911   2.524   3.279   6.139
 2671SOL    HW1 8912   2.513   3.290   6.040
 2671SOL    HW2 8913   2.522   3.369   6.183
 2672SOL     OW 8914   1.947   5.529   0.567
 2672SOL    HW1 8915   2.028   5.586   0.552
 2672SOL    HW2 8916   1.975   5.440   0.604
 2673SOL     OW 8917   3.938   2.124   3.204
 2673SOL    HW1 8918   3.848   2.082   3.205
 2673SOL    HW2 8919   3.951   2.179   3.286
 2674SOL     OW 8920   6.920   5.135   4.652
 2674SOL    HW1 8921   6.848   5.132   4.582
 2674SOL    HW2 8922   7.002   5.091   4.617
 2675SOL     OW 8923   0.428   4.707   5.778
 2675SOL    HW1 8924   0.438   4.641   5.852
 2675SOL    HW2 8925   0.437   4.661   5.690
 2676SOL     OW 8926   4.824   1.696   1.604
 2676SOL    HW1 8927   4.806   1.597   1.603
 2676SOL    HW2 8928   4.799   1.733   1.694
 2677SOL     OW 8929   2.078   4.788   1.394
 2677SOL    HW1 8930   2.143   4.835   1.454
 2677SOL    HW2 8931   2.097   4.690   1.395
 2678SOL     OW 8932   0.874   5.163   6.525
 2678SOL    HW1 8933   0.970   5.136   6.518
 2678SOL    HW2 8934   0.865   5.260   6.499
 2679SOL     OW 8935   3.190   5.137   0.831
 2679SOL    HW1 8936   3.211   5.189   0.748
 2679SOL    HW2 8937   3.273   5.124   0.884
 2680SOL     OW 8938   2.020   1.179   1.431
 2680SOL    HW1 8939   1.958   1.161   1.508
 2680SOL    HW2 8940   2.095   1.113   1.434
 2681SOL     OW 8941   1.528   2.643   3.394
 2681SOL    HW1 8942   1.584   2.584   3.453
 2681SOL    HW2 8943   1.472   2.703   3.451
 2682SOL     OW 8944   5.423   2.991   2.554
 2682SOL    HW1 8945   5.490   2.953   2.490
 2682SOL    HW2 8946   5.373   3.065   2.510
 2683SOL     OW 8947   0.966   5.834   1.093
 2683SOL    HW1 8948   0.955   5.741   1.127
 2683SOL    HW2 8949   1.063   5.858   1.091
 2684SOL     OW 8950   2.373   6.372   3.259
 2684SOL    HW1 8951   2.412   6.404   3.173
 2684SOL    HW2 8952   2.387   6.442   3.330
 2685SOL     OW 8953   4.868   6.197   5.056
 2685SOL    HW1 8954   4.923   6.265   5.103
 2685SOL    HW2 8955   4.890   6.197   4.959
 2686SOL     OW 8956   2.147   3.173   3.971
 2686SOL    HW1 8957   2.158   3.167   3.872
 2686SOL    HW2 8958   2.063   3.126   3.998
 2687SOL     OW 8959   3.799   5.352   2.327
 2687SOL    HW1 8960   3.725   5.309   2.276
 2687SOL    HW2 8961   3.845   5.283   2.384
 2688SOL     OW 8962   4.558   4.525   6.413
 2688SOL    HW1 8963   4.572   4.571   6.325
 2688SOL    HW2 8964   4.627   4.556   6.478
 2689SOL     OW 8965   0.576   2.901   3.720
 2689SOL    HW1 8966   0.496   2.901   3.661
 2689SOL    HW2 8967   0.642   2.968   3.688
 2690SOL     OW 8968   4.061   3.481   3.922
 2690SOL    HW1 8969   4.070   3.530   3.835
 2690SOL    HW2 8970   4.079   3.384   3.907
 2691SOL     OW 8971   1.702   5.748   2.253
 2691SOL    HW1 8972   1.743   5.839   2.256
 2691SOL    HW2 8973   1.771   5.682   2.225
 2692SOL     OW 8974   6.897   6.494   3.301
 2692SOL    HW1 8975   6.799   6.493   3.320
 2692SOL    HW2 8976   6.921   6.415   3.245
 2693SOL     OW 8977   2.034   3.768   3.519
 2693SOL    HW1 8978   2.072   3.845   3.469
 2693SOL    HW2 8979   2.066   3.683   3.478
 2694SOL     OW 8980   1.979   6.736   3.351
 2694SOL    HW1 8981   1.920   6.717   3.430
 2694SOL    HW2 8982   2.055   6.793   3.379
 2695SOL     OW 8983   4.597   2.332   2.812
 2695SOL    HW1 8984   4.565   2.363   2.722
 2695SOL    HW2 8985   4.627   2.237   2.805
 2696SOL     OW 8986   3.930   3.939   5.475
 2696SOL    HW1 8987   3.906   4.037   5.476
 2696SOL    HW2 8988   4.021   3.927   5.513
 2697SOL     OW 8989   3.236   1.693   4.329
 2697SOL    HW1 8990   3.217   1.608   4.279
 2697SOL    HW2 8991   3.156   1.753   4.325
 2698SOL     OW 8992   1.448   4.236   0.531
 2698SOL    HW1 8993   1.438   4.159   0.468
 2698SOL    HW2 8994   1.396   4.219   0.615
 2699SOL     OW 8995   3.661   6.066   1.276
 2699SOL    HW1 8996   3.735   6.095   1.215
 2699SOL    HW2 8997   3.666   6.119   1.361
 2700SOL     OW 8998   1.622   3.527   2.616
 2700SOL    HW1 8999   1.525   3.534   2.639
 2700SOL    HW2 9000   1.642   3.435   2.583
 2701SOL     OW 9001   3.662   0.189   6.670
 2701SOL    HW1 9002   3.717   0.225   6.745
 2701SOL    HW2 9003   3.722   0.152   6.600
 2702SOL     OW 9004   0.112   1.080   3.783
 2702SOL    HW1 9005   0.094   1.132   3.867
 2702SOL    HW2 9006   0.135   0.986   3.806
 2703SOL     OW 9007   1.863   1.893   2.463
 2703SOL    HW1 9008   1.810   1.922   2.543
 2703SOL    HW2 9009   1.808   1.830   2.408
 2704SOL     OW 9010   2.609   5.197   1.445
 2704SOL    HW1 9011   2.573   5.105   1.430
 2704SOL    HW2 9012   2.587   5.255   1.366
 2705SOL     OW 9013   6.671   5.761   3.381
 2705SOL    HW1 9014   6.690   5.858   3.368
 2705SOL    HW2 9015   6.595   5.749   3.444
 2706SOL     OW 9016   6.377   1.581   1.974
 2706SOL    HW1 9017   6.459   1.556   2.025
 2706SOL    HW2 9018   6.327   1.652   2.023
 2707SOL     OW 9019   1.907   1.717   6.447
 2707SOL    HW1 9020   1.888   1.631   6.400
 2707SOL    HW2 9021   1.901   1.793   6.381
 2708SOL     OW 9022   1.498   2.731   1.548
 2708SOL    HW1 9023   1.534   2.638   1.543
 2708SOL    HW2 9024   1.478   2.754   1.643
 2709SOL     OW 9025   5.111   5.571   1.222
 2709SOL    HW1 9026   5.132   5.641   1.291
 2709SOL    HW2 9027   5.182   5.571   1.152
 2710SOL     OW 9028   6.949   3.954   2.407
 2710SOL    HW1 9029   6.912   3.914   2.324
 2710SOL    HW2 9030   6.891   3.930   2.485
 2711SOL     OW 9031   0.897   0.343   1.980
 2711SOL    HW1 9032   0.992   0.314   1.994
 2711SOL    HW2 9033   0.838   0.298   2.047
 2712SOL     OW 9034   2.516   4.419   0.606
 2712SOL    HW1 9035   2.566   4.463   0.680
 2712SOL    HW2 9036   2.576   4.355   0.557
 2713SOL     OW 9037   2.456   3.235   5.355
 2713SOL    HW1 9038   2.489   3.170   5.286
 2713SOL    HW2 9039   2.384   3.191   5.409
 2714SOL     OW 9040   4.877   0.480   6.087
 2714SOL    HW1 9041   4.939   0.436   6.152
 2714SOL    HW2 9042   4.927   0.548   6.034
 2715SOL     OW 9043   6.059   1.204   6.714
 2715SOL    HW1 9044   6.121   1.262   6.661
 2715SOL    HW2 9045   6.062   1.231   6.810
 2716SOL     OW 9046   0.607   5.783   2.106
 2716SOL    HW1 9047   0.593   5.756   2.201
 2716SOL    HW2 9048   0.697   5.825   2.096
 2717SOL     OW 9049   0.757   0.017   3.068
 2717SOL    HW1 9050   0.852   0.017   3.099
 2717SOL    HW2 9051   0.702   6.981   3.130
 2718SOL     OW 9052   2.070   4.311   4.080
 2718SOL    HW1 9053   2.034   4.243   4.016
 2718SOL    HW2 9054   2.030   4.296   4.171
 2719SOL     OW 9055   4.341   5.463   1.929
 2719SOL    HW1 9056   4.344   5.454   2.029
 2719SOL    HW2 9057   4.404   5.397   1.888
 2720SOL     OW 9058   1.432   6.934   3.940
 2720SOL    HW1 9059   1.504   6.993   3.976
 2720SOL    HW2 9060   1.385   6.888   4.016
 2721SOL     OW 9061   3.466   6.887   4.053
 2721SOL    HW1 9062   3.565   6.876   4.059
 2721SOL    HW2 9063   3.428   6.898   4.144
 2722SOL     OW 9064   1.014   5.941   2.820
 2722SOL    HW1 9065   0.962   5.996   2.754
 2722SOL    HW2 9066   0.986   5.967   2.913
 2723SOL     OW 9067   1.757   1.058   5.795
 2723SOL    HW1 9068   1.847   1.096   5.774
 2723SOL    HW2 9069   1.694   1.131   5.821
 2724SOL     OW 9070   3.889   5.778   6.397
 2724SOL    HW1 9071   3.964   5.716   6.421
 2724SOL    HW2 9072   3.802   5.739   6.428
 2725SOL     OW 9073   4.365   4.696   4.017
 2725SOL    HW1 9074   4.451   4.660   3.983
 2725SOL    HW2 9075   4.298   4.698   3.943
 2726SOL     OW 9076   5.025   5.540   2.230
 2726SOL    HW1 9077   5.093   5.467   2.220
 2726SOL    HW2 9078   5.071   5.623   2.261
 2727SOL     OW 9079   1.023   5.042   2.781
 2727SOL    HW1 9080   0.924   5.035   2.782
 2727SOL    HW2 9081   1.063   4.952   2.799
 2728SOL     OW 9082   2.391   6.587   5.387
 2728SOL    HW1 9083   2.314   6.524   5.393
 2728SOL    HW2 9084   2.468   6.542   5.341
 2729SOL     OW 9085   5.673   4.976   2.918
 2729SOL    HW1 9086   5.666   5.076   2.916
 2729SOL    HW2 9087   5.689   4.945   3.012
 2730SOL     OW 9088   1.977   0.281   1.149
 2730SOL    HW1 9089   1.991   0.273   1.051
 2730SOL    HW2 9090   1.983   0.191   1.191
 2731SOL     OW 9091   2.922   3.757   1.786
 2731SOL    HW1 9092   2.923   3.814   1.868
 2731SOL    HW2 9093   2.991   3.685   1.794
 2732SOL     OW 9094   5.519   2.302   2.643
 2732SOL    HW1 9095   5.589   2.247   2.689
 2732SOL    HW2 9096   5.429   2.275   2.676
 2733SOL     OW 9097   1.084   6.759   5.715
 2733SOL    HW1 9098   1.009   6.696   5.735
 2733SOL    HW2 9099   1.071   6.843   5.768
 2734SOL     OW 9100   1.711   6.257   4.063
 2734SOL    HW1 9101   1.759   6.343   4.079
 2734SOL    HW2 9102   1.705   6.206   4.149
 2735SOL     OW 9103   1.633   5.120   2.369
 2735SOL    HW1 9104   1.670   5.185   2.436
 2735SOL    HW2 9105   1.594   5.041   2.417
 2736SOL     OW 9106   4.099   0.433   4.940
 2736SOL    HW1 9107   4.195   0.438   4.969
 2736SOL    HW2 9108   4.040   0.442   5.020
 2737SOL     OW 9109   4.763   3.964   6.311
 2737SOL    HW1 9110   4.683   3.954   6.252
 2737SOL    HW2 9111   4.805   3.875   6.325
 2738SOL     OW 9112   5.554   5.096   4.844
 2738SOL    HW1 9113   5.603   5.105   4.758
 2738SOL    HW2 9114   5.611   5.129   4.919
 2739SOL     OW 9115   5.156   3.180   1.270
 2739SOL    HW1 9116   5.159   3.269   1.317
 2739SOL    HW2 9117   5.070   3.173   1.219
 2740SOL     OW 9118   5.850   2.689   3.453
 2740SOL    HW1 9119   5.760   2.659   3.423
 2740SOL    HW2 9120   5.842   2.738   3.540
 2741SOL     OW 9121   0.718   2.293   5.791
 2741SOL    HW1 9122   0.792   2.258   5.849
 2741SOL    HW2 9123   0.648   2.223   5.779
 2742SOL     OW 9124   1.817   6.607   6.836
 2742SOL    HW1 9125   1.828   6.696   6.790
 2742SOL    HW2 9126   1.862   6.536   6.782
 2743SOL     OW 9127   5.214   4.767   1.284
 2743SOL    HW1 9128   5.188   4.861   1.304
 2743SOL    HW2 9129   5.196   4.747   1.187
 2744SOL     OW 9130   4.080   2.534   6.038
 2744SOL    HW1 9131   4.163   2.587   6.052
 2744SOL    HW2 9132   4.082   2.453   6.097
 2745SOL     OW 9133   2.630   6.110   1.062
 2745SOL    HW1 9134   2.643   6.027   1.116
 2745SOL    HW2 9135   2.675   6.187   1.107
 2746SOL     OW 9136   2.007   2.151   6.073
 2746SOL    HW1 9137   1.943   2.099   6.016
 2746SOL    HW2 9138   2.059   2.214   6.016
 2747SOL     OW 9139   5.376   6.585   4.053
 2747SOL    HW1 9140   5.299   6.649   4.056
 2747SOL    HW2 9141   5.423   6.586   4.141
 2748SOL     OW 9142   3.757   1.378   2.697
 2748SOL    HW1 9143   3.782   1.300   2.640
 2748SOL    HW2 9144   3.762   1.462   2.643
 2749SOL     OW 9145   4.582   4.762   4.312
 2749SOL    HW1 9146   4.585   4.860   4.329
 2749SOL    HW2 9147   4.502   4.723   4.360
 2750SOL     OW 9148   0.583   5.898   2.544
 2750SOL    HW1 9149   0.492   5.886   2.584
 2750SOL    HW2 9150   0.652   5.894   2.616
 2751SOL     OW 9151   1.908   0.081   6.869
 2751SOL    HW1 9152   1.848   0.065   6.948
 2751SOL    HW2 9153   2.001   0.098   6.901
 2752SOL     OW 9154   5.747   6.194   5.436
 2752SOL    HW1 9155   5.712   6.105   5.467
 2752SOL    HW2 9156   5.842   6.204   5.464
 2753SOL     OW 9157   3.744   5.885   6.157
 2753SOL    HW1 9158   3.793   5.816   6.210
 2753SOL    HW2 9159   3.774   5.977   6.185
 2754SOL     OW 9160   0.481   0.997   4.658
 2754SOL    HW1 9161   0.433   1.083   4.641
 2754SOL    HW2 9162   0.447   0.955   4.742
 2755SOL     OW 9163   2.761   6.327   2.170
 2755SOL    HW1 9164   2.836   6.305   2.233
 2755SOL    HW2 9165   2.702   6.397   2.211
 2756SOL     OW 9166   0.066   2.830   5.781
 2756SOL    HW1 9167   0.072   2.752   5.844
 2756SOL    HW2 9168   6.994   2.873   5.789
 2757SOL     OW 9169   4.552   3.160   6.583
 2757SOL    HW1 9170   4.558   3.127   6.678
 2757SOL    HW2 9171   4.468   3.124   6.542
 2758SOL     OW 9172   6.019   5.945   2.311
 2758SOL    HW1 9173   6.080   5.981   2.380
 2758SOL    HW2 9174   6.049   5.973   2.220
 2759SOL     OW 9175   3.184   4.295   6.556
 2759SOL    HW1 9176   3.279   4.295   6.588
 2759SOL    HW2 9177   3.182   4.271   6.458
 2760SOL     OW 9178   5.221   6.122   3.417
 2760SOL    HW1 9179   5.185   6.117   3.324
 2760SOL    HW2 9180   5.230   6.218   3.444
 2761SOL     OW 9181   1.891   3.309   2.622
 2761SOL    HW1 9182   1.820   3.298   2.692
 2761SOL    HW2 9183   1.968   3.249   2.645
 2762SOL     OW 9184   2.397   2.381   0.547
 2762SOL    HW1 9185   2.356   2.309   0.604
 2762SOL    HW2 9186   2.494   2.362   0.535
 2763SOL     OW 9187   4.969   1.740   4.973
 2763SOL    HW1 9188   4.988   1.643   4.956
 2763SOL    HW2 9189   5.024   1.796   4.912
 2764SOL     OW 9190   1.054   3.929   2.121
 2764SOL    HW1 9191   1.100   3.962   2.038
 2764SOL    HW2 9192   0.956   3.942   2.112
 2765SOL     OW 9193   0.050   6.666   6.573
 2765SOL    HW1 9194   0.122   6.608   6.535
 2765SOL    HW2 9195   0.084   6.760   6.580
 2766SOL     OW 9196   5.542   1.038   6.691
 2766SOL    HW1 9197   5.536   1.138   6.699
 2766SOL    HW2 9198   5.544   1.012   6.595
 2767SOL     OW 9199   6.759   4.991   6.227
 2767SOL    HW1 9200   6.684   4.966   6.166
 2767SOL    HW2 9201   6.844   4.948   6.194
 2768SOL     OW 9202   4.824   0.297   0.737
 2768SOL    HW1 9203   4.765   0.305   0.656
 2768SOL    HW2 9204   4.799   0.214   0.787
 2769SOL     OW 9205   1.601   4.376   5.642
 2769SOL    HW1 9206   1.546   4.309   5.592
 2769SOL    HW2 9207   1.682   4.331   5.680
 2770SOL     OW 9208   2.729   6.366   0.870
 2770SOL    HW1 9209   2.707   6.349   0.774
 2770SOL    HW2 9210   2.809   6.312   0.896
 2771SOL     OW 9211   4.467   0.238   4.491
 2771SOL    HW1 9212   4.430   0.205   4.404
 2771SOL    HW2 9213   4.391   0.273   4.548
 2772SOL     OW 9214   3.656   0.209   3.171
 2772SOL    HW1 9215   3.673   0.277   3.243
 2772SOL    HW2 9216   3.708   0.126   3.192
 2773SOL     OW 9217   5.904   2.619   4.271
 2773SOL    HW1 9218   5.847   2.638   4.191
 2773SOL    HW2 9219   5.896   2.522   4.295
 2774SOL     OW 9220   5.122   1.614   3.747
 2774SOL    HW1 9221   5.047   1.587   3.807
 2774SOL    HW2 9222   5.201   1.642   3.802
 2775SOL     OW 9223   0.800   4.308   4.367
 2775SOL    HW1 9224   0.791   4.222   4.418
 2775SOL    HW2 9225   0.785   4.385   4.429
 2776SOL     OW 9226   4.933   4.177   5.994
 2776SOL    HW1 9227   4.916   4.259   5.940
 2776SOL    HW2 9228   5.031   4.159   5.999
 2777SOL     OW 9229   3.019   1.963   6.360
 2777SOL    HW1 9230   3.114   1.968   6.332
 2777SOL    HW2 9231   3.007   2.007   6.449
 2778SOL     OW 9232   2.805   6.273   6.219
 2778SOL    HW1 9233   2.810   6.348   6.153
 2778SOL    HW2 9234   2.729   6.212   6.195
 2779SOL     OW 9235   5.973   6.885   1.517
 2779SOL    HW1 9236   6.025   6.875   1.431
 2779SOL    HW2 9237   6.017   6.955   1.574
 2780SOL     OW 9238   0.591   1.720   5.310
 2780SOL    HW1 9239   0.590   1.737   5.211
 2780SOL    HW2 9240   0.583   1.806   5.359
 2781SOL     OW 9241   6.067   0.693   3.055
 2781SOL    HW1 9242   5.974   0.674   3.024
 2781SOL    HW2 9243   6.065   0.720   3.151
 2782SOL     OW 9244   4.385   0.777   6.807
 2782SOL    HW1 9245   4.371   0.694   6.860
 2782SOL    HW2 9246   4.299   0.805   6.765
 2783SOL     OW 9247   5.579   3.977   1.637
 2783SOL    HW1 9248   5.512   3.905   1.659
 2783SOL    HW2 9249   5.532   4.055   1.597
 2784SOL     OW 9250   1.536   1.612   1.105
 2784SOL    HW1 9251   1.633   1.630   1.091
 2784SOL    HW2 9252   1.524   1.518   1.137
 2785SOL     OW 9253   5.545   2.600   1.615
 2785SOL    HW1 9254   5.622   2.656   1.646
 2785SOL    HW2 9255   5.471   2.660   1.586
 2786SOL     OW 9256   0.030   6.654   0.171
 2786SOL    HW1 9257   6.949   6.646   0.168
 2786SOL    HW2 9258   0.067   6.595   0.243
 2787SOL     OW 9259   6.309   5.105   6.554
 2787SOL    HW1 9260   6.269   5.168   6.487
 2787SOL    HW2 9261   6.260   5.017   6.549
 2788SOL     OW 9262   2.930   6.301   5.623
 2788SOL    HW1 9263   2.857   6.369   5.623
 2788SOL    HW2 9264   2.934   6.256   5.713
 2789SOL     OW 9265   0.883   2.435   5.073
 2789SOL    HW1 9266   0.854   2.523   5.035
 2789SOL    HW2 9267   0.820   2.407   5.145
 2790SOL     OW 9268   1.669   5.590   1.566
 2790SOL    HW1 9269   1.623   5.511   1.608
 2790SOL    HW2 9270   1.668   5.581   1.467
 2791SOL     OW 9271   0.191   3.848   3.125
 2791SOL    HW1 9272   0.116   3.798   3.083
 2791SOL    HW2 9273   0.156   3.930   3.170
 2792SOL     OW 9274   3.278   1.611   5.587
 2792SOL    HW1 9275   3.186   1.602   5.548
 2792SOL    HW2 9276   3.325   1.688   5.545
 2793SOL     OW 9277   3.383   4.275   1.055
 2793SOL    HW1 9278   3.398   4.183   1.091
 2793SOL    HW2 9279   3.299   4.276   1.001
 2794SOL     OW 9280   0.888   2.767   6.429
 2794SOL    HW1 9281   0.819   2.832   6.460
 2794SOL    HW2 9282   0.908   2.703   6.504
 2795SOL     OW 9283   0.884   4.846   1.305
 2795SOL    HW1 9284   0.873   4.929   1.250
 2795SOL    HW2 9285   0.843   4.859   1.395
 2796SOL     OW 9286   1.534   6.224   5.870
 2796SOL    HW1 9287   1.447   6.223   5.820
 2796SOL    HW2 9288   1.516   6.244   5.966
 2797SOL     OW 9289   5.678   6.987   3.521
 2797SOL    HW1 9290   5.645   0.056   3.486
 2797SOL    HW2 9291   5.710   6.931   3.444
 2798SOL     OW 9292   5.808   0.202   1.974
 2798SOL    HW1 9293   5.779   0.282   1.922
 2798SOL    HW2 9294   5.748   0.190   2.053
 2799SOL     OW 9295   3.589   5.884   5.591
 2799SOL    HW1 9296   3.618   5.962   5.535
 2799SOL    HW2 9297   3.661   5.862   5.657
 2800SOL     OW 9298   5.854   6.995   6.447
 2800SOL    HW1 9299   5.902   0.043   6.504
 2800SOL    HW2 9300   5.920   6.945   6.391
 2801SOL     OW 9301   0.689   4.806   5.433
 2801SOL    HW1 9302   0.688   4.876   5.503
 2801SOL    HW2 9303   0.600   4.760   5.430
 2802SOL     OW 9304   0.064   5.387   5.774
 2802SOL    HW1 9305   0.087   5.318   5.842
 2802SOL    HW2 9306   6.983   5.388   5.760
 2803SOL     OW 9307   3.750   2.497   6.892
 2803SOL    HW1 9308   3.699   2.573   6.933
 2803SOL    HW2 9309   3.764   2.425   6.960
 2804SOL     OW 9310   0.266   2.686   3.907
 2804SOL    HW1 9311   0.322   2.657   3.829
 2804SOL    HW2 9312   0.225   2.775   3.888
 2805SOL     OW 9313   4.724   3.286   1.447
 2805SOL    HW1 9314   4.643   3.294   1.505
 2805SOL    HW2 9315   4.806   3.276   1.505
 2806SOL     OW 9316   0.158   3.986   5.949
 2806SOL    HW1 9317   0.174   3.909   5.887
 2806SOL    HW2 9318   0.207   3.970   6.035
 2807SOL     OW 9319   3.246   0.334   3.611
 2807SOL    HW1 9320   3.262   0.268   3.538
 2807SOL    HW2 9321   3.212   0.286   3.692
 2808SOL     OW 9322   6.672   5.049   6.839
 2808SOL    HW1 9323   6.658   5.035   6.742
 2808SOL    HW2 9324   6.754   5.106   6.853
 2809SOL     OW 9325   6.653   4.877   2.076
 2809SOL    HW1 9326   6.731   4.825   2.043
 2809SOL    HW2 9327   6.569   4.824   2.063
 2810SOL     OW 9328   2.731   5.500   3.014
 2810SOL    HW1 9329   2.663   5.497   2.941
 2810SOL    HW2 9330   2.742   5.408   3.052
 2811SOL     OW 9331   0.694   0.402   1.748
 2811SOL    HW1 9332   0.777   0.346   1.747
 2811SOL    HW2 9333   0.646   0.392   1.661
 2812SOL     OW 9334   0.594   2.830   1.467
 2812SOL    HW1 9335   0.668   2.794   1.524
 2812SOL    HW2 9336   0.630   2.853   1.377
 2813SOL     OW 9337   0.810   2.266   1.967
 2813SOL    HW1 9338   0.818   2.366   1.960
 2813SOL    HW2 9339   0.728   2.236   1.919
 2814SOL     OW 9340   2.170   4.301   0.054
 2814SOL    HW1 9341   2.245   4.299   0.120
 2814SOL    HW2 9342   2.185   4.230   7.003
 2815SOL     OW 9343   0.499   5.138   5.306
 2815SOL    HW1 9344   0.435   5.179   5.241
 2815SOL    HW2 9345   0.466   5.154   5.399
 2816SOL     OW 9346   0.642   5.984   6.281
 2816SOL    HW1 9347   0.645   5.921   6.203
 2816SOL    HW2 9348   0.616   5.933   6.364
 2817SOL     OW 9349   4.340   0.868   1.794
 2817SOL    HW1 9350   4.265   0.806   1.771
 2817SOL    HW2 9351   4.375   0.845   1.885
 2818SOL     OW 9352   1.276   0.401   1.033
 2818SOL    HW1 9353   1.320   0.466   0.971
 2818SOL    HW2 9354   1.179   0.394   1.011
 2819SOL     OW 9355   0.826   0.738   0.369
 2819SOL    HW1 9356   0.876   0.727   0.283
 2819SOL    HW2 9357   0.870   0.684   0.441
 2820SOL     OW 9358   0.857   2.759   1.487
 2820SOL    HW1 9359   0.890   2.692   1.552
 2820SOL    HW2 9360   0.853   2.719   1.395
 2821SOL     OW 9361   2.935   3.719   6.036
 2821SOL    HW1 9362   3.005   3.676   5.978
 2821SOL    HW2 9363   2.934   3.674   6.125
 2822SOL     OW 9364   4.820   2.505   0.986
 2822SOL    HW1 9365   4.830   2.421   0.933
 2822SOL    HW2 9366   4.863   2.581   0.938
 2823SOL     OW 9367   5.892   2.039   1.077
 2823SOL    HW1 9368   5.923   1.980   1.152
 2823SOL    HW2 9369   5.955   2.029   1.000
 2824SOL     OW 9370   1.279   3.885   5.049
 2824SOL    HW1 9371   1.368   3.838   5.046
 2824SOL    HW2 9372   1.216   3.842   4.984
 2825SOL     OW 9373   5.064   1.557   6.374
 2825SOL    HW1 9374   4.996   1.611   6.324
 2825SOL    HW2 9375   5.050   1.570   6.473
 2826SOL     OW 9376   2.181   3.081   6.875
 2826SOL    HW1 9377   2.236   3.013   6.925
 2826SOL    HW2 9378   2.202   3.172   6.910
 2827SOL     OW 9379   6.593   0.574   6.039
 2827SOL    HW1 9380   6.618   0.505   5.971
 2827SOL    HW2 9381   6.499   0.558   6.069
 2828SOL     OW 9382   1.575   3.622   0.442
 2828SOL    HW1 9383   1.617   3.692   0.500
 2828SOL    HW2 9384   1.567   3.656   0.349
 2829SOL     OW 9385   3.199   4.125   3.091
 2829SOL    HW1 9386   3.186   4.132   3.190
 2829SOL    HW2 9387   3.295   4.141   3.068
 2830SOL     OW 9388   3.089   4.760   5.523
 2830SOL    HW1 9389   3.133   4.793   5.606
 2830SOL    HW2 9390   2.993   4.740   5.542
 2831SOL     OW 9391   5.892   1.673   1.850
 2831SOL    HW1 9392   5.940   1.758   1.871
 2831SOL    HW2 9393   5.811   1.665   1.907
 2832SOL     OW 9394   0.674   3.750   1.216
 2832SOL    HW1 9395   0.635   3.743   1.308
 2832SOL    HW2 9396   0.602   3.732   1.149
 2833SOL     OW 9397   1.734   2.210   2.069
 2833SOL    HW1 9398   1.715   2.265   2.151
 2833SOL    HW2 9399   1.676   2.128   2.070
 2834SOL     OW 9400   2.942   6.160   5.849
 2834SOL    HW1 9401   2.870   6.101   5.885
 2834SOL    HW2 9402   3.031   6.116   5.862
 2835SOL     OW 9403   6.942   6.893   0.446
 2835SOL    HW1 9404   6.888   6.845   0.377
 2835SOL    HW2 9405   0.021   6.876   0.430
 2836SOL     OW 9406   3.691   6.213   2.661
 2836SOL    HW1 9407   3.711   6.202   2.564
 2836SOL    HW2 9408   3.743   6.145   2.713
 2837SOL     OW 9409   5.061   4.127   2.194
 2837SOL    HW1 9410   5.037   4.120   2.291
 2837SOL    HW2 9411   4.977   4.124   2.140
 2838SOL     OW 9412   5.305   4.381   5.745
 2838SOL    HW1 9413   5.264   4.421   5.827
 2838SOL    HW2 9414   5.302   4.281   5.752
 2839SOL     OW 9415   5.726   3.037   5.055
 2839SOL    HW1 9416   5.650   2.974   5.071
 2839SOL    HW2 9417   5.810   2.984   5.040
 2840SOL     OW 9418   6.942   6.119   4.128
 2840SOL    HW1 9419   7.017   6.152   4.070
 2840SOL    HW2 9420   6.859   6.108   4.074
 2841SOL     OW 9421   6.398   3.102   2.009
 2841SOL    HW1 9422   6.420   3.103   1.912
 2841SOL    HW2 9423   6.327   3.171   2.028
 2842SOL     OW 9424   1.081   0.090   2.863
 2842SOL    HW1 9425   1.162   0.140   2.832
 2842SOL    HW2 9426   0.998   0.134   2.829
 2843SOL     OW 9427   2.162   2.655   3.189
 2843SOL    HW1 9428   2.118   2.621   3.272
 2843SOL    HW2 9429   2.202   2.578   3.139
 2844SOL     OW 9430   4.898   4.599   0.641
 2844SOL    HW1 9431   4.913   4.537   0.564
 2844SOL    HW2 9432   4.940   4.688   0.621
 2845SOL     OW 9433   3.290   1.925   3.223
 2845SOL    HW1 9434   3.248   1.835   3.214
 2845SOL    HW2 9435   3.327   1.954   3.135
 2846SOL     OW 9436   5.724   0.408   0.179
 2846SOL    HW1 9437   5.717   0.462   0.095
 2846SOL    HW2 9438   5.737   0.312   0.155
 2847SOL     OW 9439   4.425   5.164   2.395
 2847SOL    HW1 9440   4.473   5.179   2.309
 2847SOL    HW2 9441   4.338   5.118   2.377
 2848SOL     OW 9442   0.651   3.719   5.314
 2848SOL    HW1 9443   0.741   3.748   5.348
 2848SOL    HW2 9444   0.658   3.625   5.280
 2849SOL     OW 9445   5.162   0.510   2.504
 2849SOL    HW1 9446   5.133   0.606   2.500
 2849SOL    HW2 9447   5.128   0.468   2.588
 2850SOL     OW 9448   1.801   6.850   2.867
 2850SOL    HW1 9449   1.893   6.831   2.900
 2850SOL    HW2 9450   1.757   6.765   2.839
 2851SOL     OW 9451   3.977   3.160   0.504
 2851SOL    HW1 9452   3.921   3.232   0.545
 2851SOL    HW2 9453   4.070   3.166   0.540
 2852SOL     OW 9454   5.986   4.200   6.031
 2852SOL    HW1 9455   6.031   4.280   6.070
 2852SOL    HW2 9456   6.053   4.146   5.980
 2853SOL     OW 9457   0.255   3.752   6.847
 2853SOL    HW1 9458   0.297   3.727   6.760
 2853SOL    HW2 9459   0.275   3.682   6.915
 2854SOL     OW 9460   3.615   1.452   5.846
 2854SOL    HW1 9461   3.671   1.512   5.789
 2854SOL    HW2 9462   3.536   1.502   5.881
 2855SOL     OW 9463   2.058   1.304   5.466
 2855SOL    HW1 9464   2.021   1.320   5.558
 2855SOL    HW2 9465   2.014   1.224   5.426
 2856SOL     OW 9466   1.033   5.601   3.168
 2856SOL    HW1 9467   1.027   5.630   3.073
 2856SOL    HW2 9468   1.128   5.597   3.196
 2857SOL     OW 9469   0.373   3.554   0.245
 2857SOL    HW1 9470   0.348   3.461   0.273
 2857SOL    HW2 9471   0.291   3.611   0.243
 2858SOL     OW 9472   4.654   5.119   2.912
 2858SOL    HW1 9473   4.563   5.114   2.954
 2858SOL    HW2 9474   4.719   5.157   2.977
 2859SOL     OW 9475   4.922   4.526   0.956
 2859SOL    HW1 9476   4.886   4.452   1.014
 2859SOL    HW2 9477   4.854   4.550   0.887
 2860SOL     OW 9478   0.423   6.647   2.162
 2860SOL    HW1 9479   0.415   6.572   2.096
 2860SOL    HW2 9480   0.517   6.682   2.162
 2861SOL     OW 9481   4.452   5.400   6.888
 2861SOL    HW1 9482   4.520   5.465   6.920
 2861SOL    HW2 9483   4.360   5.437   6.903
 2862SOL     OW 9484   4.113   2.672   0.652
 2862SOL    HW1 9485   4.209   2.657   0.631
 2862SOL    HW2 9486   4.084   2.608   0.723
 2863SOL     OW 9487   5.343   6.685   5.632
 2863SOL    HW1 9488   5.322   6.689   5.534
 2863SOL    HW2 9489   5.345   6.590   5.662
 2864SOL     OW 9490   3.777   3.853   0.305
 2864SOL    HW1 9491   3.874   3.839   0.325
 2864SOL    HW2 9492   3.735   3.908   0.377
 2865SOL     OW 9493   5.183   5.821   4.094
 2865SOL    HW1 9494   5.230   5.890   4.040
 2865SOL    HW2 9495   5.161   5.857   4.184
 2866SOL     OW 9496   4.459   4.732   0.202
 2866SOL    HW1 9497   4.367   4.755   0.168
 2866SOL    HW2 9498   4.505   4.674   0.135
 2867SOL     OW 9499   5.334   6.347   2.046
 2867SOL    HW1 9500   5.346   6.281   2.120
 2867SOL    HW2 9501   5.420   6.396   2.031
 2868SOL     OW 9502   0.930   1.821   5.942
 2868SOL    HW1 9503   0.872   1.848   6.019
 2868SOL    HW2 9504   0.988   1.898   5.916
 2869SOL     OW 9505   5.583   5.461   4.812
 2869SOL    HW1 9506   5.590   5.399   4.733
 2869SOL    HW2 9507   5.587   5.408   4.896
 2870SOL     OW 9508   6.565   1.767   1.355
 2870SOL    HW1 9509   6.621   1.789   1.275
 2870SOL    HW2 9510   6.565   1.845   1.418
 2871SOL     OW 9511   5.395   1.545   1.312
 2871SOL    HW1 9512   5.370   1.639   1.335
 2871SOL    HW2 9513   5.435   1.543   1.220
 2872SOL     OW 9514   2.597   2.350   2.149
 2872SOL    HW1 9515   2.556   2.260   2.166
 2872SOL    HW2 9516   2.696   2.340   2.141
 2873SOL     OW 9517   0.995   5.965   0.808
 2873SOL    HW1 9518   1.080   6.017   0.805
 2873SOL    HW2 9519   1.000   5.898   0.883
 2874SOL     OW 9520   2.340   0.630   2.840
 2874SOL    HW1 9521   2.248   0.598   2.862
 2874SOL    HW2 9522   2.381   0.569   2.773
 2875SOL     OW 9523   2.919   6.691   3.053
 2875SOL    HW1 9524   2.829   6.664   3.019
 2875SOL    HW2 9525   2.921   6.790   3.069
 2876SOL     OW 9526   1.235   6.190   1.832
 2876SOL    HW1 9527   1.149   6.241   1.837
 2876SOL    HW2 9528   1.221   6.098   1.868
 2877SOL     OW 9529   1.035   2.051   6.366
 2877SOL    HW1 9530   1.076   2.093   6.285
 2877SOL    HW2 9531   1.098   2.060   6.443
 2878SOL     OW 9532   3.871   3.877   4.160
 2878SOL    HW1 9533   3.826   3.834   4.082
 2878SOL    HW2 9534   3.837   3.971   4.170
 2879SOL     OW 9535   4.315   3.901   0.617
 2879SOL    HW1 9536   4.293   3.899   0.519
 2879SOL    HW2 9537   4.410   3.872   0.630
 2880SOL     OW 9538   1.844   1.575   4.337
 2880SOL    HW1 9539   1.764   1.616   4.382
 2880SOL    HW2 9540   1.844   1.599   4.240
 2881SOL     OW 9541   4.597   6.478   6.422
 2881SOL    HW1 9542   4.667   6.449   6.356
 2881SOL    HW2 9543   4.641   6.516   6.503
 2882SOL     OW 9544   4.659   6.397   0.503
 2882SOL    HW1 9545   4.752   6.411   0.537
 2882SOL    HW2 9546   4.641   6.299   0.495
 2883SOL     OW 9547   6.072   6.060   3.794
 2883SOL    HW1 9548   6.056   5.962   3.803
 2883SOL    HW2 9549   6.119   6.094   3.875
 2884SOL     OW 9550   6.731   5.129   3.037
 2884SOL    HW1 9551   6.668   5.063   2.997
 2884SOL    HW2 9552   6.779   5.178   2.965
 2885SOL     OW 9553   1.105   2.820   3.085
 2885SOL    HW1 9554   1.192   2.868   3.078
 2885SOL    HW2 9555   1.030   2.887   3.083
 2886SOL     OW 9556   2.161   4.639   6.150
 2886SOL    HW1 9557   2.090   4.691   6.197
 2886SOL    HW2 9558   2.127   4.548   6.126
 2887SOL     OW 9559   1.074   5.251   3.724
 2887SOL    HW1 9560   0.982   5.211   3.721
 2887SOL    HW2 9561   1.133   5.203   3.659
 2888SOL     OW 9562   6.430   6.819   0.176
 2888SOL    HW1 9563   6.406   6.811   0.273
 2888SOL    HW2 9564   6.521   6.861   0.168
 2889SOL     OW 9565   3.514   6.715   3.099
 2889SOL    HW1 9566   3.593   6.659   3.123
 2889SOL    HW2 9567   3.497   6.782   3.172
 2890SOL     OW 9568   2.880   0.355   1.409
 2890SOL    HW1 9569   2.974   0.326   1.395
 2890SOL    HW2 9570   2.841   0.387   1.323
 2891SOL     OW 9571   0.530   2.052   4.442
 2891SOL    HW1 9572   0.441   2.093   4.460
 2891SOL    HW2 9573   0.600   2.124   4.440
 2892SOL     OW 9574   6.791   4.267   2.600
 2892SOL    HW1 9575   6.741   4.353   2.609
 2892SOL    HW2 9576   6.768   4.207   2.677
 2893SOL     OW 9577   6.653   5.299   4.335
 2893SOL    HW1 9578   6.698   5.380   4.370
 2893SOL    HW2 9579   6.585   5.266   4.401
 2894SOL     OW 9580   1.806   5.218   2.802
 2894SOL    HW1 9581   1.771   5.271   2.879
 2894SOL    HW2 9582   1.900   5.191   2.821
 2895SOL     OW 9583   4.317   6.855   6.274
 2895SOL    HW1 9584   4.353   6.762   6.272
 2895SOL    HW2 9585   4.310   6.886   6.369
 2896SOL     OW 9586   5.178   6.266   4.889
 2896SOL    HW1 9587   5.240   6.243   4.815
 2896SOL    HW2 9588   5.083   6.257   4.858
 2897SOL     OW 9589   3.864   4.844   3.324
 2897SOL    HW1 9590   3.947   4.814   3.277
 2897SOL    HW2 9591   3.857   4.798   3.412
 2898SOL     OW 9592   5.555   3.670   2.876
 2898SOL    HW1 9593   5.542   3.732   2.799
 2898SOL    HW2 9594   5.480   3.682   2.942
 2899SOL     OW 9595   6.967   3.472   1.225
 2899SOL    HW1 9596   6.987   3.375   1.238
 2899SOL    HW2 9597   6.884   3.482   1.170
 2900SOL     OW 9598   2.551   3.516   6.269
 2900SOL    HW1 9599   2.608   3.581   6.219
 2900SOL    HW2 9600   2.526   3.554   6.358
 2901SOL     OW 9601   1.215   4.184   3.791
 2901SOL    HW1 9602   1.207   4.093   3.833
 2901SOL    HW2 9603   1.216   4.175   3.691
 2902SOL     OW 9604   0.337   6.073   3.576
 2902SOL    HW1 9605   0.258   6.111   3.528
 2902SOL    HW2 9606   0.308   6.037   3.664
 2903SOL     OW 9607   4.505   5.503   0.587
 2903SOL    HW1 9608   4.598   5.519   0.618
 2903SOL    HW2 9609   4.464   5.588   0.554
 2904SOL     OW 9610   2.557   4.240   5.327
 2904SOL    HW1 9611   2.650   4.205   5.329
 2904SOL    HW2 9612   2.499   4.177   5.275
 2905SOL     OW 9613   0.628   5.113   1.829
 2905SOL    HW1 9614   0.638   5.143   1.924
 2905SOL    HW2 9615   0.693   5.163   1.772
 2906SOL     OW 9616   5.930   6.518   2.424
 2906SOL    HW1 9617   5.887   6.608   2.435
 2906SOL    HW2 9618   5.864   6.446   2.445
 2907SOL     OW 9619   0.353   0.954   4.015
 2907SOL    HW1 9620   0.328   0.857   4.022
 2907SOL    HW2 9621   0.447   0.962   3.981
 2908SOL     OW 9622   4.528   6.624   2.378
 2908SOL    HW1 9623   4.590   6.546   2.375
 2908SOL    HW2 9624   4.478   6.623   2.465
 2909SOL     OW 9625   0.900   5.819   2.589
 2909SOL    HW1 9626   0.903   5.900   2.530
 2909SOL    HW2 9627   0.985   5.813   2.641
 2910SOL     OW 9628   6.857   0.870   3.966
 2910SOL    HW1 9629   6.787   0.809   4.004
 2910SOL    HW2 9630   6.880   0.940   4.033
 2911SOL     OW 9631   6.460   4.334   4.708
 2911SOL    HW1 9632   6.522   4.395   4.758
 2911SOL    HW2 9633   6.494   4.241   4.713
 2912SOL     OW 9634   0.434   6.968   1.731
 2912SOL    HW1 9635   0.482   6.940   1.814
 2912SOL    HW2 9636   0.497   6.965   1.654
 2913SOL     OW 9637   2.641   6.246   1.568
 2913SOL    HW1 9638   2.613   6.241   1.472
 2913SOL    HW2 9639   2.728   6.295   1.574
 2914SOL     OW 9640   4.946   5.504   0.542
 2914SOL    HW1 9641   5.026   5.563   0.549
 2914SOL    HW2 9642   4.975   5.408   0.537
 2915SOL     OW 9643   2.510   0.179   2.772
 2915SOL    HW1 9644   2.597   0.227   2.769
 2915SOL    HW2 9645   2.525   0.081   2.780
 2916SOL     OW 9646   1.343   5.844   0.246
 2916SOL    HW1 9647   1.298   5.926   0.281
 2916SOL    HW2 9648   1.427   5.827   0.298
 2917SOL     OW 9649   2.661   6.341   4.398
 2917SOL    HW1 9650   2.647   6.242   4.392
 2917SOL    HW2 9651   2.680   6.367   4.493
 2918SOL     OW 9652   5.690   2.977   2.060
 2918SOL    HW1 9653   5.774   3.030   2.054
 2918SOL    HW2 9654   5.626   3.022   2.122
 2919SOL     OW 9655   1.177   5.546   4.086
 2919SOL    HW1 9656   1.272   5.578   4.090
 2919SOL    HW2 9657   1.169   5.460   4.137
 2920SOL     OW 9658   1.350   2.252   2.659
 2920SOL    HW1 9659   1.283   2.325   2.668
 2920SOL    HW2 9660   1.406   2.268   2.578
 2921SOL     OW 9661   1.126   0.204   4.690
 2921SOL    HW1 9662   1.040   0.220   4.642
 2921SOL    HW2 9663   1.173   0.291   4.703
 2922SOL     OW 9664   3.700   0.359   3.423
 2922SOL    HW1 9665   3.740   0.304   3.496
 2922SOL    HW2 9666   3.751   0.445   3.413
 2923SOL     OW 9667   6.032   5.695   4.786
 2923SOL    HW1 9668   5.932   5.699   4.783
 2923SOL    HW2 9669   6.064   5.612   4.741
 2924SOL     OW 9670   5.868   2.671   5.219
 2924SOL    HW1 9671   5.883   2.662   5.317
 2924SOL    HW2 9672   5.770   2.682   5.200
 2925SOL     OW 9673   5.001   0.161   6.029
 2925SOL    HW1 9674   5.081   0.179   5.971
 2925SOL    HW2 9675   5.029   0.153   6.124
 2926SOL     OW 9676   6.997   2.089   4.603
 2926SOL    HW1 9677   7.009   2.016   4.671
 2926SOL    HW2 9678   6.953   2.052   4.521
 2927SOL     OW 9679   1.043   2.413   2.129
 2927SOL    HW1 9680   1.142   2.425   2.136
 2927SOL    HW2 9681   0.998   2.502   2.129
 2928SOL     OW 9682   6.982   3.033   0.041
 2928SOL    HW1 9683   0.031   3.009   0.111
 2928SOL    HW2 9684   6.940   3.121   0.064
 2929SOL     OW 9685   2.695   2.470   5.051
 2929SOL    HW1 9686   2.705   2.490   5.148
 2929SOL    HW2 9687   2.784   2.477   5.006
 2930SOL     OW 9688   6.782   4.817   5.122
 2930SOL    HW1 9689   6.753   4.871   5.044
 2930SOL    HW2 9690   6.823   4.877   5.191
 2931SOL     OW 9691   5.234   4.662   5.351
 2931SOL    HW1 9692   5.254   4.579   5.403
 2931SOL    HW2 9693   5.290   4.737   5.386
 2932SOL     OW 9694   6.504   5.304   0.665
 2932SOL    HW1 9695   6.434   5.340   0.726
 2932SOL    HW2 9696   6.590   5.352   0.681
 2933SOL     OW 9697   1.569   0.362   1.326
 2933SOL    HW1 9698   1.562   0.361   1.426
 2933SOL    HW2 9699   1.490   0.409   1.287
 2934SOL     OW 9700   4.105   4.953   0.457
 2934SOL    HW1 9701   4.118   4.983   0.363
 2934SOL    HW2 9702   4.062   4.862   0.458
 2935SOL     OW 9703   0.099   2.437   6.141
 2935SOL    HW1 9704   0.071   2.343   6.162
 2935SOL    HW2 9705   0.195   2.450   6.167
 2936SOL     OW 9706   4.154   6.013   0.600
 2936SOL    HW1 9707   4.211   6.095   0.601
 2936SOL    HW2 9708   4.113   6.001   0.691
 2937SOL     OW 9709   4.856   4.999   2.184
 2937SOL    HW1 9710   4.946   4.963   2.157
 2937SOL    HW2 9711   4.797   5.004   2.104
 2938SOL     OW 9712   6.416   5.856   0.113
 2938SOL    HW1 9713   6.393   5.830   0.207
 2938SOL    HW2 9714   6.424   5.955   0.106
 2939SOL     OW 9715   6.934   5.708   1.525
 2939SOL    HW1 9716   6.934   5.666   1.616
 2939SOL    HW2 9717   6.980   5.796   1.529
 2940SOL     OW 9718   4.642   6.756   3.324
 2940SOL    HW1 9719   4.686   6.846   3.320
 2940SOL    HW2 9720   4.680   6.703   3.400
 2941SOL     OW 9721   1.505   3.989   3.530
 2941SOL    HW1 9722   1.528   4.066   3.590
 2941SOL    HW2 9723   1.588   3.939   3.507
 2942SOL     OW 9724   3.804   1.733   1.682
 2942SOL    HW1 9725   3.733   1.803   1.690
 2942SOL    HW2 9726   3.870   1.760   1.612
 2943SOL     OW 9727   5.907   4.032   3.357
 2943SOL    HW1 9728   5.905   3.981   3.270
 2943SOL    HW2 9729   6.000   4.030   3.394
 2944SOL     OW 9730   1.654   5.640   2.968
 2944SOL    HW1 9731   1.609   5.590   3.042
 2944SOL    HW2 9732   1.734   5.688   3.005
 2945SOL     OW 9733   5.057   4.596   1.430
 2945SOL    HW1 9734   5.127   4.642   1.376
 2945SOL    HW2 9735   5.088   4.588   1.525
 2946SOL     OW 9736   3.318   3.837   5.680
 2946SOL    HW1 9737   3.234   3.858   5.630
 2946SOL    HW2 9738   3.396   3.844   5.619
 2947SOL     OW 9739   5.943   6.508   0.737
 2947SOL    HW1 9740   5.881   6.430   0.745
 2947SOL    HW2 9741   5.893   6.592   0.760
 2948SOL     OW 9742   6.508   3.985   2.333
 2948SOL    HW1 9743   6.461   4.063   2.375
 2948SOL    HW2 9744   6.501   3.906   2.394
 2949SOL     OW 9745   1.299   6.744   1.063
 2949SOL    HW1 9746   1.337   6.743   0.970
 2949SOL    HW2 9747   1.360   6.694   1.124
 2950SOL     OW 9748   5.518   4.394   3.140
 2950SOL    HW1 9749   5.579   4.454   3.089
 2950SOL    HW2 9750   5.513   4.305   3.095
 2951SOL     OW 9751   6.622   1.430   1.778
 2951SOL    HW1 9752   6.586   1.523   1.787
 2951SOL    HW2 9753   6.575   1.370   1.843
 2952SOL     OW 9754   5.563   1.529   4.103
 2952SOL    HW1 9755   5.482   1.588   4.091
 2952SOL    HW2 9756   5.624   1.571   4.171
 2953SOL     OW 9757   0.846   5.545   4.201
 2953SOL    HW1 9758   0.894   5.604   4.135
 2953SOL    HW2 9759   0.904   5.533   4.282
 2954SOL     OW 9760   6.783   4.669   6.144
 2954SOL    HW1 9761   6.686   4.694   6.141
 2954SOL    HW2 9762   6.822   4.674   6.053
 2955SOL     OW 9763   2.118   4.848   6.596
 2955SOL    HW1 9764   2.201   4.857   6.651
 2955SOL    HW2 9765   2.140   4.807   6.508
 2956SOL     OW 9766   6.344   4.196   3.538
 2956SOL    HW1 9767   6.432   4.179   3.495
 2956SOL    HW2 9768   6.313   4.289   3.515
 2957SOL     OW 9769   2.910   4.799   1.492
 2957SOL    HW1 9770   2.997   4.750   1.495
 2957SOL    HW2 9771   2.927   4.897   1.505
 2958SOL     OW 9772   2.397   5.441   2.191
 2958SOL    HW1 9773   2.336   5.449   2.111
 2958SOL    HW2 9774   2.357   5.377   2.257
 2959SOL     OW 9775   6.979   3.138   3.042
 2959SOL    HW1 9776   0.025   3.073   3.080
 2959SOL    HW2 9777   6.906   3.156   3.108
 2960SOL     OW 9778   4.683   0.598   6.934
 2960SOL    HW1 9779   4.759   0.663   6.934
 2960SOL    HW2 9780   4.720   0.505   6.928
 2961SOL     OW 9781   5.651   4.061   2.323
 2961SOL    HW1 9782   5.561   4.086   2.359
 2961SOL    HW2 9783   5.667   4.110   2.237
 2962SOL     OW 9784   0.190   0.057   2.748
 2962SOL    HW1 9785   0.271   0.083   2.801
 2962SOL    HW2 9786   0.149   6.993   2.788
 2963SOL     OW 9787   1.885   1.161   4.579
 2963SOL    HW1 9788   1.932   1.076   4.554
 2963SOL    HW2 9789   1.930   1.202   4.659
 2964SOL     OW 9790   1.010   1.849   0.194
 2964SOL    HW1 9791   1.006   1.821   0.290
 2964SOL    HW2 9792   1.021   1.768   0.136
 2965SOL     OW 9793   1.394   0.058   4.737
 2965SOL    HW1 9794   1.422   7.003   4.676
 2965SOL    HW2 9795   1.302   0.088   4.714
 2966SOL     OW 9796   3.411   5.821   2.913
 2966SOL    HW1 9797   3.400   5.874   2.829
 2966SOL    HW2 9798   3.337   5.754   2.920
 2967SOL     OW 9799   5.755   0.105   5.422
 2967SOL    HW1 9800   5.793   0.079   5.511
 2967SOL    HW2 9801   5.708   0.026   5.382
 2968SOL     OW 9802   1.958   2.532   1.238
 2968SOL    HW1 9803   2.045   2.490   1.261
 2968SOL    HW2 9804   1.892   2.516   1.312
 2969SOL     OW 9805   5.141   3.340   4.506
 2969SOL    HW1 9806   5.061   3.363   4.561
 2969SOL    HW2 9807   5.183   3.257   4.543
 2970SOL     OW 9808   2.550   2.266   4.087
 2970SOL    HW1 9809   2.599   2.326   4.151
 2970SOL    HW2 9810   2.469   2.314   4.053
 2971SOL     OW 9811   5.448   2.810   6.258
 2971SOL    HW1 9812   5.481   2.852   6.342
 2971SOL    HW2 9813   5.491   2.720   6.247
 2972SOL     OW 9814   5.682   4.895   0.008
 2972SOL    HW1 9815   5.614   4.866   6.958
 2972SOL    HW2 9816   5.683   4.829   0.083
 2973SOL     OW 9817   4.539   1.264   2.342
 2973SOL    HW1 9818   4.473   1.330   2.308
 2973SOL    HW2 9819   4.532   1.180   2.289
 2974SOL     OW 9820   4.776   6.380   3.136
 2974SOL    HW1 9821   4.716   6.300   3.130
 2974SOL    HW2 9822   4.841   6.367   3.211
 2975SOL     OW 9823   4.699   4.182   4.017
 2975SOL    HW1 9824   4.784   4.138   4.045
 2975SOL    HW2 9825   4.660   4.233   4.094
 2976SOL     OW 9826   4.234   2.271   2.163
 2976SOL    HW1 9827   4.134   2.269   2.166
 2976SOL    HW2 9828   4.265   2.286   2.069
 2977SOL     OW 9829   1.394   0.956   1.373
 2977SOL    HW1 9830   1.448   0.874   1.394
 2977SOL    HW2 9831   1.297   0.934   1.380
 2978SOL     OW 9832   4.484   5.377   6.290
 2978SOL    HW1 9833   4.510   5.452   6.351
 2978SOL    HW2 9834   4.503   5.289   6.335
 2979SOL     OW 9835   3.393   0.785   4.111
 2979SOL    HW1 9836   3.460   0.853   4.141
 2979SOL    HW2 9837   3.439   0.698   4.092
 2980SOL     OW 9838   3.628   3.438   6.006
 2980SOL    HW1 9839   3.653   3.479   5.919
 2980SOL    HW2 9840   3.576   3.505   6.060
 2981SOL     OW 9841   1.620   0.661   1.196
 2981SOL    HW1 9842   1.562   0.729   1.150
 2981SOL    HW2 9843   1.709   0.656   1.150
 2982SOL     OW 9844   0.581   0.361   1.467
 2982SOL    HW1 9845   0.580   0.451   1.422
 2982SOL    HW2 9846   0.497   0.349   1.520
 2983SOL     OW 9847   6.276   3.038   5.923
 2983SOL    HW1 9848   6.304   2.968   5.858
 2983SOL    HW2 9849   6.281   3.128   5.879
 2984SOL     OW 9850   0.341   4.904   0.764
 2984SOL    HW1 9851   0.277   4.829   0.784
 2984SOL    HW2 9852   0.299   4.968   0.701
 2985SOL     OW 9853   6.900   6.601   5.279
 2985SOL    HW1 9854   6.890   6.627   5.183
 2985SOL    HW2 9855   6.977   6.651   5.318
 2986SOL     OW 9856   4.015   3.942   2.549
 2986SOL    HW1 9857   4.100   3.971   2.504
 2986SOL    HW2 9858   3.975   3.866   2.498
 2987SOL     OW 9859   1.948   0.481   4.506
 2987SOL    HW1 9860   1.854   0.446   4.511
 2987SOL    HW2 9861   2.013   0.407   4.523
 2988SOL     OW 9862   0.421   1.498   6.897
 2988SOL    HW1 9863   0.423   1.462   6.803
 2988SOL    HW2 9864   0.447   1.594   6.896
 2989SOL     OW 9865   5.258   3.432   4.039
 2989SOL    HW1 9866   5.288   3.524   4.063
 2989SOL    HW2 9867   5.190   3.401   4.105
 2990SOL     OW 9868   5.266   1.555   4.390
 2990SOL    HW1 9869   5.283   1.512   4.301
 2990SOL    HW2 9870   5.189   1.619   4.382
 2991SOL     OW 9871   6.603   4.218   1.092
 2991SOL    HW1 9872   6.635   4.311   1.107
 2991SOL    HW2 9873   6.504   4.213   1.106
 2992SOL     OW 9874   0.225   3.731   5.510
 2992SOL    HW1 9875   0.250   3.817   5.555
 2992SOL    HW2 9876   0.309   3.681   5.487
 2993SOL     OW 9877   1.141   4.397   0.119
 2993SOL    HW1 9878   1.072   4.464   0.145
 2993SOL    HW2 9879   1.115   4.307   0.152
 2994SOL     OW 9880   4.159   6.636   6.485
 2994SOL    HW1 9881   4.201   6.693   6.556
 2994SOL    HW2 9882   4.138   6.546   6.524
 2995SOL     OW 9883   5.478   0.661   1.251
 2995SOL    HW1 9884   5.450   0.700   1.339
 2995SOL    HW2 9885   5.479   0.561   1.259
 2996SOL     OW 9886   0.068   1.477   4.935
 2996SOL    HW1 9887   0.000   1.450   4.867
 2996SOL    HW2 9888   0.145   1.522   4.890
 2997SOL     OW 9889   5.124   0.511   3.701
 2997SOL    HW1 9890   5.037   0.537   3.659
 2997SOL    HW2 9891   5.198   0.522   3.635
 2998SOL     OW 9892   2.579   1.602   2.547
 2998SOL    HW1 9893   2.554   1.530   2.612
 2998SOL    HW2 9894   2.590   1.688   2.596
 2999SOL     OW 9895   2.344   4.472   0.403
 2999SOL    HW1 9896   2.257   4.438   0.437
 2999SOL    HW2 9897   2.407   4.484   0.479
 3000SOL     OW 9898   2.981   3.872   4.767
 3000SOL    HW1 9899   3.026   3.783   4.764
 3000SOL    HW2 9900   2.931   3.882   4.853
 3001SOL     OW 9901   5.959   0.432   5.756
 3001SOL    HW1 9902   5.882   0.487   5.787
 3001SOL    HW2 9903   5.949   0.411   5.659
 3002SOL     OW 9904   1.752   2.024   1.669
 3002SOL    HW1 9905   1.780   1.994   1.577
 3002SOL    HW2 9906   1.789   1.961   1.737
 3003SOL     OW 9907   1.371   6.501   0.131
 3003SOL    HW1 9908   1.400   6.501   0.035
 3003SOL    HW2 9909   1.289   6.558   0.141
 3004SOL     OW 9910   2.250   6.666   3.900
 3004SOL    HW1 9911   2.235   6.718   3.816
 3004SOL    HW2 9912   2.347   6.647   3.910
 3005SOL     OW 9913   0.990   2.257   5.884
 3005SOL    HW1 9914   1.012   2.344   5.929
 3005SOL    HW2 9915   1.031   2.255   5.793
 3006SOL     OW 9916   5.063   1.328   5.654
 3006SOL    HW1 9917   5.134   1.274   5.608
 3006SOL    HW2 9918   5.098   1.419   5.673
 3007SOL     OW 9919   5.262   5.163   6.928
 3007SOL    HW1 9920   5.357   5.159   6.959
 3007SOL    HW2 9921   5.201   5.141   7.005
 3008SOL     OW 9922   5.134   2.710   5.870
 3008SOL    HW1 9923   5.127   2.667   5.960
 3008SOL    HW2 9924   5.074   2.790   5.867
 3009SOL     OW 9925   6.942   3.634   2.268
 3009SOL    HW1 9926   7.017   3.627   2.334
 3009SOL    HW2 9927   6.964   3.581   2.186
 3010SOL     OW 9928   3.996   5.999   6.289
 3010SOL    HW1 9929   3.952   5.922   6.335
 3010SOL    HW2 9930   4.065   6.039   6.349
 3011SOL     OW 9931   6.880   6.979   1.188
 3011SOL    HW1 9932   6.944   0.002   1.252
 3011SOL    HW2 9933   6.798   0.017   1.180
 3012SOL     OW 9934   2.541   2.558   5.620
 3012SOL    HW1 9935   2.593   2.501   5.683
 3012SOL    HW2 9936   2.514   2.504   5.540
 3013SOL     OW 9937   0.715   4.872   4.969
 3013SOL    HW1 9938   0.693   4.967   4.948
 3013SOL    HW2 9939   0.665   4.812   4.906
 3014SOL     OW 9940   4.996   0.128   5.594
 3014SOL    HW1 9941   4.995   0.028   5.595
 3014SOL    HW2 9942   5.082   0.161   5.633
 3015SOL     OW 9943   1.335   1.155   6.883
 3015SOL    HW1 9944   1.245   1.148   6.839
 3015SOL    HW2 9945   1.328   1.126   6.978
 3016SOL     OW 9946   1.635   6.755   4.369
 3016SOL    HW1 9947   1.594   6.671   4.336
 3016SOL    HW2 9948   1.666   6.810   4.291
 3017SOL     OW 9949   0.285   5.331   0.729
 3017SOL    HW1 9950   0.288   5.261   0.801
 3017SOL    HW2 9951   0.192   5.368   0.723
 3018SOL     OW 9952   3.272   0.055   0.459
 3018SOL    HW1 9953   3.341   7.008   0.428
 3018SOL    HW2 9954   3.305   0.148   0.443
 3019SOL     OW 9955   1.954   0.558   5.334
 3019SOL    HW1 9956   1.947   0.484   5.266
 3019SOL    HW2 9957   2.040   0.549   5.384
 3020SOL     OW 9958   5.670   3.612   0.043
 3020SOL    HW1 9959   5.708   3.621   0.135
 3020SOL    HW2 9960   5.633   3.700   0.013
 3021SOL     OW 9961   4.150   6.804   4.754
 3021SOL    HW1 9962   4.085   6.754   4.696
 3021SOL    HW2 9963   4.235   6.818   4.704
 3022SOL     OW 9964   3.790   5.982   3.864
 3022SOL    HW1 9965   3.860   5.991   3.792
 3022SOL    HW2 9966   3.832   5.944   3.946
 3023SOL     OW 9967   5.194   6.549   2.958
 3023SOL    HW1 9968   5.222   6.633   2.910
 3023SOL    HW2 9969   5.097   6.555   2.980
 3024SOL     OW 9970   6.908   6.326   6.439
 3024SOL    HW1 9971   6.931   6.250   6.379
 3024SOL    HW2 9972   6.973   6.329   6.515
 3025SOL     OW 9973   3.185   6.137   0.364
 3025SOL    HW1 9974   3.151   6.048   0.393
 3025SOL    HW2 9975   3.260   6.165   0.425
 3026SOL     OW 9976   6.511   1.025   0.743
 3026SOL    HW1 9977   6.441   0.992   0.679
 3026SOL    HW2 9978   6.574   0.950   0.764
 3027SOL     OW 9979   4.682   1.332   1.367
 3027SOL    HW1 9980   4.688   1.397   1.291
 3027SOL    HW2 9981   4.627   1.254   1.340
 3028SOL     OW 9982   3.176   4.115   5.482
 3028SOL    HW1 9983   3.273   4.135   5.496
 3028SOL    HW2 9984   3.159   4.095   5.385
 3029SOL     OW 9985   0.595   2.745   4.378
 3029SOL    HW1 9986   0.540   2.726   4.460
 3029SOL    HW2 9987   0.683   2.700   4.386
 3030SOL     OW 9988   2.642   3.263   1.046
 3030SOL    HW1 9989   2.590   3.187   1.086
 3030SOL    HW2 9990   2.693   3.230   0.967
 3031SOL     OW 9991   0.896   6.402   1.290
 3031SOL    HW1 9992   0.935   6.313   1.265
 3031SOL    HW2 9993   0.935   6.473   1.231
 3032SOL     OW 9994   1.805   0.402   2.364
 3032SOL    HW1 9995   1.753   0.331   2.410
 3032SOL    HW2 9996   1.745   0.452   2.301
 3033SOL     OW 9997   6.853   2.042   4.371
 3033SOL    HW1 9998   6.893   2.056   4.281
 3033SOL    HW2 9999   6.787   2.115   4.390
 3034SOL     OW10000   6.861   5.565   3.088
 3034SOL    HW110001   6.766   5.567   3.118
 3034SOL    HW210002   6.883   5.474   3.052
 3035SOL     OW10003   1.373   2.921   7.002
 3035SOL    HW110004   1.282   2.957   0.003
 3035SOL    HW210005   1.438   2.997   6.995
 3036SOL     OW10006   3.022   2.067   6.613
 3036SOL    HW110007   3.063   2.152   6.647
 3036SOL    HW210008   3.055   1.990   6.668
 3037SOL     OW10009   0.128   5.442   0.216
 3037SOL    HW110010   0.180   5.422   0.299
 3037SOL    HW210011   0.160   5.382   0.142
 3038SOL     OW10012   5.737   4.578   6.938
 3038SOL    HW110013   5.835   4.599   6.932
 3038SOL    HW210014   5.685   4.663   6.926
 3039SOL     OW10015   6.883   4.012   6.957
 3039SOL    HW110016   6.939   3.986   0.017
 3039SOL    HW210017   6.820   4.085   6.984
 3040SOL     OW10018   5.197   4.121   5.691
 3040SOL    HW110019   5.257   4.126   5.612
 3040SOL    HW210020   5.120   4.060   5.671
 3041SOL     OW10021   1.918   3.978   5.188
 3041SOL    HW110022   1.890   4.068   5.155
 3041SOL    HW210023   1.860   3.951   5.265
 3042SOL     OW10024   6.918   5.309   2.926
 3042SOL    HW110025   6.953   5.258   3.004
 3042SOL    HW210026   6.994   5.330   2.864
 3043SOL     OW10027   2.976   4.759   0.401
 3043SOL    HW110028   3.071   4.787   0.388
 3043SOL    HW210029   2.974   4.668   0.443
 3044SOL     OW10030   3.555   3.644   5.115
 3044SOL    HW110031   3.638   3.694   5.141
 3044SOL    HW210032   3.540   3.655   5.016
 3045SOL     OW10033   4.787   1.746   1.867
 3045SOL    HW110034   4.847   1.815   1.908
 3045SOL    HW210035   4.767   1.674   1.934
 3046SOL     OW10036   5.380   6.135   1.429
 3046SOL    HW110037   5.411   6.110   1.337
 3046SOL    HW210038   5.459   6.142   1.490
 3047SOL     OW10039   5.991   1.008   5.524
 3047SOL    HW110040   6.052   0.938   5.487
 3047SOL    HW210041   5.896   0.977   5.515
 3048SOL     OW10042   3.643   4.195   0.903
 3048SOL    HW110043   3.738   4.215   0.881
 3048SOL    HW210044   3.623   4.099   0.880
 3049SOL     OW10045   1.357   0.944   3.680
 3049SOL    HW110046   1.401   0.905   3.599
 3049SOL    HW210047   1.351   0.873   3.751
 3050SOL     OW10048   2.933   2.164   1.456
 3050SOL    HW110049   2.879   2.182   1.374
 3050SOL    HW210050   2.873   2.142   1.532
 3051SOL     OW10051   2.315   5.060   5.508
 3051SOL    HW110052   2.365   5.007   5.439
 3051SOL    HW210053   2.239   5.005   5.542
 3052SOL     OW10054   6.754   6.572   2.312
 3052SOL    HW110055   6.659   6.584   2.284
 3052SOL    HW210056   6.763   6.584   2.410
 3053SOL     OW10057   1.559   4.178   6.913
 3053SOL    HW110058   1.488   4.214   6.974
 3053SOL    HW210059   1.520   4.161   6.822
 3054SOL     OW10060   5.794   1.185   2.613
 3054SOL    HW110061   5.855   1.162   2.689
 3054SOL    HW210062   5.734   1.260   2.640
 3055SOL     OW10063   5.974   5.849   6.944
 3055SOL    HW110064   5.984   5.916   6.871
 3055SOL    HW210065   6.049   5.783   6.940
 3056SOL     OW10066   4.604   1.469   5.940
 3056SOL    HW110067   4.608   1.564   5.908
 3056SOL    HW210068   4.656   1.461   6.025
 3057SOL     OW10069   5.746   5.072   3.193
 3057SOL    HW110070   5.777   5.055   3.286
 3057SOL    HW210071   5.675   5.142   3.193
 3058SOL     OW10072   0.827   4.730   6.770
 3058SOL    HW110073   0.801   4.644   6.813
 3058SOL    HW210074   0.886   4.782   6.833
 3059SOL     OW10075   2.261   2.293   4.245
 3059SOL    HW110076   2.286   2.368   4.305
 3059SOL    HW210077   2.271   2.322   4.150
 3060SOL     OW10078   5.258   5.309   4.949
 3060SOL    HW110079   5.320   5.233   4.970
 3060SOL    HW210080   5.245   5.315   4.850
 3061SOL     OW10081   5.197   5.759   5.178
 3061SOL    HW110082   5.238   5.701   5.107
 3061SOL    HW210083   5.106   5.787   5.149
 3062SOL     OW10084   4.542   4.528   1.466
 3062SOL    HW110085   4.598   4.480   1.533
 3062SOL    HW210086   4.525   4.621   1.497
 3063SOL     OW10087   7.007   4.304   1.804
 3063SOL    HW110088   6.946   4.262   1.871
 3063SOL    HW210089   0.069   4.246   1.791
 3064SOL     OW10090   4.726   1.833   6.552
 3064SOL    HW110091   4.805   1.891   6.574
 3064SOL    HW210092   4.747   1.738   6.575
 3065SOL     OW10093   6.936   1.456   6.458
 3065SOL    HW110094   6.983   1.495   6.379
 3065SOL    HW210095   6.965   1.361   6.470
 3066SOL     OW10096   5.219   6.188   5.675
 3066SOL    HW110097   5.293   6.238   5.630
 3066SOL    HW210098   5.229   6.090   5.658
 3067SOL     OW10099   1.802   1.922   6.008
 3067SOL    HW110100   1.745   1.971   5.942
 3067SOL    HW210101   1.864   1.860   5.959
 3068SOL     OW10102   1.209   0.842   0.686
 3068SOL    HW110103   1.146   0.896   0.742
 3068SOL    HW210104   1.191   0.744   0.701
 3069SOL     OW10105   5.215   0.164   2.736
 3069SOL    HW110106   5.174   0.084   2.778
 3069SOL    HW210107   5.158   0.244   2.752
 3070SOL     OW10108   2.182   0.741   0.860
 3070SOL    HW110109   2.167   0.672   0.789
 3070SOL    HW210110   2.156   0.704   0.949
 3071SOL     OW10111   0.227   3.923   4.424
 3071SOL    HW110112   0.164   3.893   4.497
 3071SOL    HW210113   0.184   3.997   4.373
 3072SOL     OW10114   2.063   0.137   6.050
 3072SOL    HW110115   1.969   0.121   6.079
 3072SOL    HW210116   2.111   0.050   6.041
 3073SOL     OW10117   5.933   5.046   1.154
 3073SOL    HW110118   5.927   5.117   1.224
 3073SOL    HW210119   5.848   4.995   1.150
 3074SOL     OW10120   1.538   3.330   1.399
 3074SOL    HW110121   1.574   3.379   1.319
 3074SOL    HW210122   1.598   3.254   1.422
 3075SOL     OW10123   3.396   5.760   2.102
 3075SOL    HW110124   3.441   5.735   2.188
 3075SOL    HW210125   3.371   5.678   2.052
 3076SOL     OW10126   0.556   0.417   4.978
 3076SOL    HW110127   0.623   0.411   5.052
 3076SOL    HW210128   0.563   0.336   4.919
 3077SOL     OW10129   6.431   3.958   2.899
 3077SOL    HW110130   6.381   4.027   2.846
 3077SOL    HW210131   6.529   3.972   2.886
 3078SOL     OW10132   6.470   2.675   2.013
 3078SOL    HW110133   6.413   2.700   2.091
 3078SOL    HW210134   6.552   2.628   2.046
 3079SOL     OW10135   2.112   3.336   5.471
 3079SOL    HW110136   2.143   3.241   5.468
 3079SOL    HW210137   2.089   3.365   5.378
 3080SOL     OW10138   4.338   5.047   0.626
 3080SOL    HW110139   4.259   5.026   0.568
 3080SOL    HW210140   4.412   4.983   0.606
 3081SOL     OW10141   1.656   4.001   0.086
 3081SOL    HW110142   1.731   4.031   0.145
 3081SOL    HW210143   1.622   4.078   0.033
 3082SOL     OW10144   4.727   5.456   4.754
 3082SOL    HW110145   4.803   5.437   4.817
 3082SOL    HW210146   4.745   5.411   4.667
 3083SOL     OW10147   3.370   5.809   1.707
 3083SOL    HW110148   3.374   5.841   1.802
 3083SOL    HW210149   3.286   5.757   1.693
 3084SOL     OW10150   0.462   3.332   4.087
 3084SOL    HW110151   0.456   3.295   3.994
 3084SOL    HW210152   0.538   3.289   4.136
 3085SOL     OW10153   5.304   4.474   0.180
 3085SOL    HW110154   5.373   4.501   0.113
 3085SOL    HW210155   5.241   4.408   0.139
 3086SOL     OW10156   5.957   6.606   6.432
 3086SOL    HW110157   5.975   6.695   6.389
 3086SOL    HW210158   6.042   6.555   6.441
 3087SOL     OW10159   2.860   6.873   2.029
 3087SOL    HW110160   2.901   6.921   2.106
 3087SOL    HW210161   2.866   6.774   2.046
 3088SOL     OW10162   1.680   2.822   5.837
 3088SOL    HW110163   1.675   2.899   5.773
 3088SOL    HW210164   1.747   2.842   5.908
 3089SOL     OW10165   4.274   6.354   5.067
 3089SOL    HW110166   4.218   6.347   4.984
 3089SOL    HW210167   4.347   6.421   5.053
 3090SOL     OW10168   1.633   1.779   2.662
 3090SOL    HW110169   1.649   1.681   2.675
 3090SOL    HW210170   1.598   1.818   2.747
 3091SOL     OW10171   0.913   2.191   1.365
 3091SOL    HW110172   0.881   2.119   1.426
 3091SOL    HW210173   0.977   2.250   1.414
 3092SOL     OW10174   6.530   1.080   2.462
 3092SOL    HW110175   6.502   1.155   2.402
 3092SOL    HW210176   6.453   1.017   2.476
 3093SOL     OW10177   5.509   4.825   6.842
 3093SOL    HW110178   5.481   4.766   6.766
 3093SOL    HW210179   5.428   4.870   6.880
 3094SOL     OW10180   2.857   1.755   6.339
 3094SOL    HW110181   2.928   1.822   6.317
 3094SOL    HW210182   2.785   1.799   6.393
 3095SOL     OW10183   1.832   3.492   5.164
 3095SOL    HW110184   1.916   3.442   5.182
 3095SOL    HW210185   1.848   3.560   5.092
 3096SOL     OW10186   0.468   4.033   4.513
 3096SOL    HW110187   0.474   4.129   4.486
 3096SOL    HW210188   0.382   3.994   4.479
 3097SOL     OW10189   5.300   2.358   5.626
 3097SOL    HW110190   5.322   2.395   5.536
 3097SOL    HW210191   5.208   2.387   5.653
 3098SOL     OW10192   1.967   2.850   1.937
 3098SOL    HW110193   1.910   2.813   1.864
 3098SOL    HW210194   2.002   2.775   1.993
 3099SOL     OW10195   0.637   5.952   4.515
 3099SOL    HW110196   0.692   5.981   4.436
 3099SOL    HW210197   0.541   5.947   4.488
 3100SOL     OW10198   6.567   5.462   2.342
 3100SOL    HW110199   6.587   5.553   2.306
 3100SOL    HW210200   6.634   5.397   2.307
 3101SOL     OW10201   3.690   6.387   5.458
 3101SOL    HW110202   3.656   6.461   5.400
 3101SOL    HW210203   3.685   6.414   5.554
 3102SOL     OW10204   0.035   5.195   1.059
 3102SOL    HW110205   0.012   5.187   0.962
 3102SOL    HW210206   0.045   5.292   1.082
 3103SOL     OW10207   3.496   0.834   1.570
 3103SOL    HW110208   3.514   0.916   1.623
 3103SOL    HW210209   3.546   0.838   1.484
 3104SOL     OW10210   4.643   0.640   5.858
 3104SOL    HW110211   4.568   0.701   5.836
 3104SOL    HW210212   4.607   0.550   5.885
 3105SOL     OW10213   6.143   3.820   0.060
 3105SOL    HW110214   6.192   3.842   0.144
 3105SOL    HW210215   6.207   3.816   7.001
 3106SOL     OW10216   6.341   0.120   5.230
 3106SOL    HW110217   6.314   0.194   5.169
 3106SOL    HW210218   6.430   0.141   5.271
 3107SOL     OW10219   3.837   1.356   6.050
 3107SOL    HW110220   3.769   1.420   6.014
 3107SOL    HW210221   3.791   1.280   6.096
 3108SOL     OW10222   2.130   4.178   3.478
 3108SOL    HW110223   2.159   4.107   3.542
 3108SOL    HW210224   2.174   4.163   3.389
 3109SOL     OW10225   6.407   5.772   3.911
 3109SOL    HW110226   6.411   5.830   3.829
 3109SOL    HW210227   6.356   5.819   3.983
 3110SOL     OW10228   1.038   4.367   3.330
 3110SOL    HW110229   0.994   4.283   3.298
 3110SOL    HW210230   0.968   4.437   3.343
 3111SOL     OW10231   5.650   4.651   4.182
 3111SOL    HW110232   5.576   4.686   4.125
 3111SOL    HW210233   5.627   4.665   4.278
 3112SOL     OW10234   3.702   1.812   0.116
 3112SOL    HW110235   3.664   1.798   0.208
 3112SOL    HW210236   3.644   1.876   0.066
 3113SOL     OW10237   2.439   5.873   3.515
 3113SOL    HW110238   2.422   5.803   3.583
 3113SOL    HW210239   2.463   5.959   3.560
 3114SOL     OW10240   4.459   0.864   6.537
 3114SOL    HW110241   4.436   0.821   6.624
 3114SOL    HW210242   4.557   0.879   6.532
 3115SOL     OW10243   5.060   5.066   5.433
 3115SOL    HW110244   4.992   5.128   5.472
 3115SOL    HW210245   5.145   5.074   5.486
 3116SOL     OW10246   0.711   1.559   1.137
 3116SOL    HW110247   0.675   1.479   1.088
 3116SOL    HW210248   0.777   1.606   1.079
 3117SOL     OW10249   4.860   1.323   5.878
 3117SOL    HW110250   4.761   1.327   5.883
 3117SOL    HW210251   4.889   1.320   5.782
 3118SOL     OW10252   1.319   0.724   3.477
 3118SOL    HW110253   1.231   0.771   3.466
 3118SOL    HW210254   1.304   0.633   3.516
 3119SOL     OW10255   4.083   4.673   5.680
 3119SOL    HW110256   4.046   4.762   5.703
 3119SOL    HW210257   4.150   4.682   5.606
 3120SOL     OW10258   1.705   6.329   4.860
 3120SOL    HW110259   1.800   6.341   4.890
 3120SOL    HW210260   1.645   6.383   4.919
 3121SOL     OW10261   4.826   1.289   4.491
 3121SOL    HW110262   4.893   1.363   4.484
 3121SOL    HW210263   4.776   1.298   4.577
 3122SOL     OW10264   4.043   5.369   4.463
 3122SOL    HW110265   3.982   5.356   4.542
 3122SOL    HW210266   4.079   5.463   4.464
 3123SOL     OW10267   1.961   1.790   3.709
 3123SOL    HW110268   1.884   1.833   3.661
 3123SOL    HW210269   2.013   1.735   3.644
 3124SOL     OW10270   5.081   6.982   3.825
 3124SOL    HW110271   5.147   0.039   3.828
 3124SOL    HW210272   5.000   7.011   3.774
 3125SOL     OW10273   1.280   1.633   5.500
 3125SOL    HW110274   1.234   1.648   5.588
 3125SOL    HW210275   1.377   1.616   5.515
 3126SOL     OW10276   5.924   5.451   4.909
 3126SOL    HW110277   5.998   5.402   4.862
 3126SOL    HW210278   5.838   5.402   4.894
 3127SOL     OW10279   0.042   1.195   4.950
 3127SOL    HW110280   0.072   1.149   5.033
 3127SOL    HW210281   0.075   1.289   4.950
 3128SOL     OW10282   4.408   0.532   6.903
 3128SOL    HW110283   4.386   0.448   6.953
 3128SOL    HW210284   4.505   0.554   6.918
 3129SOL     OW10285   4.473   3.634   0.488
 3129SOL    HW110286   4.511   3.702   0.550
 3129SOL    HW210287   4.522   3.548   0.498
 3130SOL     OW10288   1.259   4.432   1.932
 3130SOL    HW110289   1.312   4.452   2.014
 3130SOL    HW210290   1.165   4.409   1.958
 3131SOL     OW10291   6.864   4.517   2.977
 3131SOL    HW110292   6.826   4.601   2.937
 3131SOL    HW210293   6.855   4.521   3.077
 3132SOL     OW10294   4.013   4.720   6.759
 3132SOL    HW110295   4.108   4.709   6.785
 3132SOL    HW210296   3.979   4.634   6.719
 3133SOL     OW10297   3.731   0.583   4.274
 3133SOL    HW110298   3.688   0.630   4.350
 3133SOL    HW210299   3.695   0.490   4.267
 3134SOL     OW10300   4.299   5.337   2.850
 3134SOL    HW110301   4.219   5.394   2.869
 3134SOL    HW210302   4.341   5.366   2.764
 3135SOL     OW10303   4.833   6.304   6.336
 3135SOL    HW110304   4.876   6.331   6.422
 3135SOL    HW210305   4.801   6.210   6.342
 3136SOL     OW10306   6.164   2.113   2.824
 3136SOL    HW110307   6.231   2.091   2.753
 3136SOL    HW210308   6.209   2.159   2.900
 3137SOL     OW10309   6.123   6.882   6.644
 3137SOL    HW110310   6.167   6.836   6.567
 3137SOL    HW210311   6.188   6.891   6.719
 3138SOL     OW10312   5.727   5.740   3.680
 3138SOL    HW110313   5.742   5.646   3.711
 3138SOL    HW210314   5.730   5.743   3.580
 3139SOL     OW10315   2.348   4.987   1.069
 3139SOL    HW110316   2.261   4.961   1.111
 3139SOL    HW210317   2.410   4.908   1.069
 3140SOL     OW10318   0.058   0.226   5.959
 3140SOL    HW110319   0.132   0.262   5.901
 3140SOL    HW210320   6.995   0.212   5.903
 3141SOL     OW10321   6.739   2.215   6.221
 3141SOL    HW110322   6.665   2.149   6.211
 3141SOL    HW210323   6.717   2.279   6.295
 3142SOL     OW10324   4.955   1.462   2.827
 3142SOL    HW110325   5.016   1.464   2.748
 3142SOL    HW210326   4.930   1.555   2.853
 3143SOL     OW10327   6.844   0.894   0.590
 3143SOL    HW110328   6.789   0.869   0.669
 3143SOL    HW210329   6.845   0.994   0.581
 3144SOL     OW10330   3.904   3.508   6.349
 3144SOL    HW110331   3.862   3.546   6.267
 3144SOL    HW210332   3.849   3.532   6.429
 3145SOL     OW10333   0.578   6.197   1.065
 3145SOL    HW110334   0.640   6.119   1.073
 3145SOL    HW210335   0.592   6.259   1.142
 3146SOL     OW10336   0.829   0.121   4.909
 3146SOL    HW110337   0.731   0.104   4.896
 3146SOL    HW210338   0.875   0.034   4.930
 3147SOL     OW10339   3.964   4.985   6.669
 3147SOL    HW110340   3.993   4.959   6.577
 3147SOL    HW210341   3.978   4.908   6.731
 3148SOL     OW10342   6.751   5.115   2.453
 3148SOL    HW110343   6.709   5.185   2.511
 3148SOL    HW210344   6.737   5.025   2.494
 3149SOL     OW10345   3.104   0.919   0.598
 3149SOL    HW110346   3.109   0.941   0.696
 3149SOL    HW210347   3.194   0.931   0.557
 3150SOL     OW10348   6.656   5.843   4.713
 3150SOL    HW110349   6.665   5.913   4.784
 3150SOL    HW210350   6.563   5.807   4.713
 3151SOL     OW10351   6.064   1.320   5.849
 3151SOL    HW110352   6.054   1.377   5.930
 3151SOL    HW210353   6.134   1.251   5.865
 3152SOL     OW10354   0.869   3.037   6.043
 3152SOL    HW110355   0.865   3.101   6.119
 3152SOL    HW210356   0.958   3.044   5.998
 3153SOL     OW10357   6.249   5.003   1.202
 3153SOL    HW110358   6.154   4.982   1.179
 3153SOL    HW210359   6.286   5.067   1.136
 3154SOL     OW10360   4.785   1.577   0.491
 3154SOL    HW110361   4.692   1.544   0.477
 3154SOL    HW210362   4.844   1.500   0.517
 3155SOL     OW10363   0.324   5.141   0.919
 3155SOL    HW110364   0.274   5.097   0.993
 3155SOL    HW210365   0.369   5.071   0.863
 3156SOL     OW10366   3.652   4.233   1.878
 3156SOL    HW110367   3.677   4.324   1.845
 3156SOL    HW210368   3.727   4.196   1.933
 3157SOL     OW10369   0.708   2.056   5.442
 3157SOL    HW110370   0.610   2.034   5.440
 3157SOL    HW210371   0.751   2.023   5.358
 3158SOL     OW10372   2.337   1.052   5.867
 3158SOL    HW110373   2.257   1.103   5.835
 3158SOL    HW210374   2.405   1.048   5.793
 3159SOL     OW10375   6.338   6.756   0.445
 3159SOL    HW110376   6.346   6.719   0.537
 3159SOL    HW210377   6.299   6.686   0.384
 3160SOL     OW10378   2.165   0.656   6.538
 3160SOL    HW110379   2.249   0.699   6.573
 3160SOL    HW210380   2.179   0.627   6.444
 3161SOL     OW10381   2.004   2.756   2.980
 3161SOL    HW110382   1.963   2.842   3.009
 3161SOL    HW210383   2.056   2.716   3.055
 3162SOL     OW10384   1.990   5.506   1.040
 3162SOL    HW110385   1.909   5.472   1.087
 3162SOL    HW210386   2.065   5.517   1.106
 3163SOL     OW10387   4.269   3.782   0.347
 3163SOL    HW110388   4.285   3.808   0.251
 3163SOL    HW210389   4.344   3.722   0.378
 3164SOL     OW10390   2.701   6.077   3.164
 3164SOL    HW110391   2.651   6.104   3.246
 3164SOL    HW210392   2.686   6.145   3.092
 3165SOL     OW10393   0.882   6.570   0.225
 3165SOL    HW110394   0.841   6.554   0.315
 3165SOL    HW210395   0.830   6.520   0.156
 3166SOL     OW10396   3.785   1.072   5.574
 3166SOL    HW110397   3.728   1.143   5.615
 3166SOL    HW210398   3.742   0.983   5.586
 3167SOL     OW10399   5.470   3.460   0.413
 3167SOL    HW110400   5.488   3.543   0.361
 3167SOL    HW210401   5.388   3.473   0.469
 3168SOL     OW10402   4.708   1.621   0.830
 3168SOL    HW110403   4.728   1.681   0.907
 3168SOL    HW210404   4.781   1.554   0.820
 3169SOL     OW10405   1.884   4.230   1.913
 3169SOL    HW110406   1.922   4.252   1.823
 3169SOL    HW210407   1.786   4.212   1.904
 3170SOL     OW10408   3.381   5.452   3.618
 3170SOL    HW110409   3.406   5.397   3.697
 3170SOL    HW210410   3.455   5.450   3.551
 3171SOL     OW10411   5.160   2.908   3.314
 3171SOL    HW110412   5.086   2.847   3.286
 3171SOL    HW210413   5.218   2.930   3.236
 3172SOL     OW10414   0.417   4.546   1.081
 3172SOL    HW110415   0.329   4.592   1.072
 3172SOL    HW210416   0.490   4.607   1.049
 3173SOL     OW10417   3.756   1.950   0.706
 3173SOL    HW110418   3.780   1.860   0.741
 3173SOL    HW210419   3.778   1.955   0.609
 3174SOL     OW10420   2.852   3.654   5.722
 3174SOL    HW110421   2.937   3.696   5.691
 3174SOL    HW210422   2.872   3.587   5.793
 3175SOL     OW10423   0.244   0.157   4.284
 3175SOL    HW110424   0.147   0.179   4.295
 3175SOL    HW210425   0.294   0.184   4.366
 3176SOL     OW10426   1.268   4.542   5.174
 3176SOL    HW110427   1.173   4.573   5.184
 3176SOL    HW210428   1.329   4.621   5.181
 3177SOL     OW10429   5.726   3.648   3.598
 3177SOL    HW110430   5.722   3.549   3.590
 3177SOL    HW210431   5.764   3.687   3.513
 3178SOL     OW10432   6.961   0.618   1.378
 3178SOL    HW110433   6.985   0.547   1.312
 3178SOL    HW210434   6.924   0.576   1.461
 3179SOL     OW10435   0.911   1.923   1.787
 3179SOL    HW110436   0.838   1.876   1.835
 3179SOL    HW210437   0.880   1.948   1.695
 3180SOL     OW10438   6.569   5.629   0.084
 3180SOL    HW110439   6.551   5.727   0.094
 3180SOL    HW210440   6.519   5.579   0.153
 3181SOL     OW10441   0.411   0.883   4.898
 3181SOL    HW110442   0.418   0.946   4.975
 3181SOL    HW210443   0.475   0.808   4.911
 3182SOL     OW10444   2.681   0.123   0.470
 3182SOL    HW110445   2.757   0.079   0.517
 3182SOL    HW210446   2.661   0.073   0.386
 3183SOL     OW10447   4.346   4.535   1.965
 3183SOL    HW110448   4.301   4.474   2.030
 3183SOL    HW210449   4.408   4.482   1.907
 3184SOL     OW10450   0.632   2.281   4.770
 3184SOL    HW110451   0.538   2.292   4.803
 3184SOL    HW210452   0.685   2.362   4.793
 3185SOL     OW10453   0.410   5.699   6.191
 3185SOL    HW110454   0.350   5.621   6.209
 3185SOL    HW210455   0.368   5.759   6.122
 3186SOL     OW10456   0.244   1.461   6.400
 3186SOL    HW110457   0.229   1.461   6.301
 3186SOL    HW210458   0.208   1.376   6.439
 3187SOL     OW10459   4.009   5.759   2.300
 3187SOL    HW110460   4.049   5.830   2.242
 3187SOL    HW210461   3.913   5.746   2.273
 3188SOL     OW10462   2.156   4.421   5.618
 3188SOL    HW110463   2.102   4.394   5.538
 3188SOL    HW210464   2.225   4.351   5.636
 3189SOL     OW10465   3.088   1.189   6.868
 3189SOL    HW110466   3.077   1.279   6.825
 3189SOL    HW210467   3.138   1.200   6.954
 3190SOL     OW10468   6.647   5.477   3.757
 3190SOL    HW110469   6.686   5.479   3.849
 3190SOL    HW210470   6.678   5.557   3.706
 3191SOL     OW10471   4.376   5.659   2.160
 3191SOL    HW110472   4.291   5.633   2.207
 3191SOL    HW210473   4.360   5.743   2.108
 3192SOL     OW10474   5.888   2.120   2.527
 3192SOL    HW110475   5.838   2.097   2.443
 3192SOL    HW210476   5.980   2.152   2.502
 3193SOL     OW10477   3.870   0.235   5.610
 3193SOL    HW110478   3.828   0.296   5.677
 3193SOL    HW210479   3.818   0.238   5.525
 3194SOL     OW10480   1.218   1.174   6.288
 3194SOL    HW110481   1.193   1.251   6.347
 3194SOL    HW210482   1.246   1.209   6.198
 3195SOL     OW10483   0.007   1.811   2.120
 3195SOL    HW110484   0.099   1.842   2.144
 3195SOL    HW210485   0.009   1.713   2.102
 3196SOL     OW10486   6.366   0.306   4.539
 3196SOL    HW110487   6.357   0.210   4.564
 3196SOL    HW210488   6.280   0.354   4.561
 3197SOL     OW10489   2.280   1.065   6.485
 3197SOL    HW110490   2.306   1.156   6.451
 3197SOL    HW210491   2.196   1.036   6.441
 3198SOL     OW10492   6.847   2.934   3.833
 3198SOL    HW110493   6.881   3.015   3.880
 3198SOL    HW210494   6.747   2.930   3.842
 3199SOL     OW10495   5.309   4.373   3.339
 3199SOL    HW110496   5.355   4.383   3.251
 3199SOL    HW210497   5.347   4.438   3.405
 3200SOL     OW10498   5.564   3.178   4.286
 3200SOL    HW110499   5.538   3.119   4.210
 3200SOL    HW210500   5.663   3.187   4.290
 3201SOL     OW10501   6.169   4.374   2.491
 3201SOL    HW110502   6.143   4.441   2.561
 3201SOL    HW210503   6.103   4.299   2.492
 3202SOL     OW10504   1.363   5.184   0.372
 3202SOL    HW110505   1.455   5.175   0.336
 3202SOL    HW210506   1.363   5.251   0.447
 3203SOL     OW10507   4.252   6.401   0.970
 3203SOL    HW110508   4.314   6.451   0.909
 3203SOL    HW210509   4.282   6.413   1.065
 3204SOL     OW10510   2.374   1.299   3.584
 3204SOL    HW110511   2.277   1.276   3.577
 3204SOL    HW210512   2.391   1.344   3.672
 3205SOL     OW10513   5.436   3.084   5.378
 3205SOL    HW110514   5.459   3.119   5.287
 3205SOL    HW210515   5.358   3.134   5.414
 3206SOL     OW10516   2.812   2.947   1.593
 3206SOL    HW110517   2.742   2.968   1.661
 3206SOL    HW210518   2.876   3.023   1.586
 3207SOL     OW10519   0.798   6.231   5.440
 3207SOL    HW110520   0.721   6.290   5.463
 3207SOL    HW210521   0.774   6.173   5.361
 3208SOL     OW10522   6.362   5.782   5.850
 3208SOL    HW110523   6.344   5.709   5.784
 3208SOL    HW210524   6.343   5.870   5.808
 3209SOL     OW10525   5.258   6.162   6.103
 3209SOL    HW110526   5.274   6.209   6.190
 3209SOL    HW210527   5.183   6.208   6.055
 3210SOL     OW10528   0.011   4.881   1.538
 3210SOL    HW110529   0.016   4.928   1.626
 3210SOL    HW210530   0.008   4.782   1.554
 3211SOL     OW10531   1.062   5.681   6.351
 3211SOL    HW110532   1.011   5.645   6.273
 3211SOL    HW210533   1.083   5.778   6.335
 3212SOL     OW10534   2.268   0.036   2.945
 3212SOL    HW110535   2.269   0.136   2.946
 3212SOL    HW210536   2.341   0.001   3.002
 3213SOL     OW10537   1.523   0.620   5.949
 3213SOL    HW110538   1.428   0.640   5.929
 3213SOL    HW210539   1.545   0.651   6.042
 3214SOL     OW10540   3.509   1.075   3.084
 3214SOL    HW110541   3.499   1.059   3.182
 3214SOL    HW210542   3.535   0.989   3.039
 3215SOL     OW10543   1.629   2.795   0.938
 3215SOL    HW110544   1.624   2.712   0.882
 3215SOL    HW210545   1.572   2.866   0.897
 3216SOL     OW10546   5.621   3.960   0.653
 3216SOL    HW110547   5.632   3.989   0.748
 3216SOL    HW210548   5.660   4.029   0.592
 3217SOL     OW10549   0.764   5.000   2.738
 3217SOL    HW110550   0.737   5.017   2.643
 3217SOL    HW210551   0.694   4.944   2.783
 3218SOL     OW10552   6.650   1.323   3.347
 3218SOL    HW110553   6.622   1.403   3.294
 3218SOL    HW210554   6.660   1.244   3.287
 3219SOL     OW10555   5.947   0.327   5.499
 3219SOL    HW110556   5.867   0.319   5.440
 3219SOL    HW210557   6.002   0.243   5.492
 3220SOL     OW10558   6.768   4.622   6.638
 3220SOL    HW110559   6.826   4.671   6.703
 3220SOL    HW210560   6.810   4.625   6.547
 3221SOL     OW10561   4.134   0.465   1.898
 3221SOL    HW110562   4.134   0.472   1.798
 3221SOL    HW210563   4.229   0.456   1.931
 3222SOL     OW10564   2.489   1.279   2.384
 3222SOL    HW110565   2.460   1.208   2.320
 3222SOL    HW210566   2.408   1.329   2.416
 3223SOL     OW10567   1.559   0.056   1.517
 3223SOL    HW110568   1.603   7.017   1.586
 3223SOL    HW210569   1.548   0.149   1.553
 3224SOL     OW10570   4.312   2.260   4.524
 3224SOL    HW110571   4.333   2.339   4.468
 3224SOL    HW210572   4.316   2.286   4.621
 3225SOL     OW10573   4.088   0.297   4.181
 3225SOL    HW110574   4.091   0.201   4.152
 3225SOL    HW210575   4.096   0.356   4.100
 3226SOL     OW10576   0.330   0.029   1.288
 3226SOL    HW110577   0.265   6.977   1.256
 3226SOL    HW210578   0.333   0.103   1.221
 3227SOL     OW10579   4.604   3.057   5.574
 3227SOL    HW110580   4.624   3.006   5.658
 3227SOL    HW210581   4.607   3.155   5.592
 3228SOL     OW10582   1.415   4.318   0.804
 3228SOL    HW110583   1.351   4.385   0.841
 3228SOL    HW210584   1.403   4.231   0.852
 3229SOL     OW10585   1.818   1.708   0.183
 3229SOL    HW110586   1.789   1.718   0.088
 3229SOL    HW210587   1.897   1.767   0.201
 3230SOL     OW10588   2.152   5.651   5.670
 3230SOL    HW110589   2.162   5.623   5.765
 3230SOL    HW210590   2.175   5.574   5.610
 3231SOL     OW10591   2.500   1.018   1.983
 3231SOL    HW110592   2.505   1.020   2.082
 3231SOL    HW210593   2.586   0.985   1.945
 3232SOL     OW10594   4.144   6.215   4.006
 3232SOL    HW110595   4.128   6.313   4.021
 3232SOL    HW210596   4.080   6.161   4.060
 3233SOL     OW10597   0.844   2.208   6.982
 3233SOL    HW110598   0.779   2.174   0.031
 3233SOL    HW210599   0.824   2.304   6.961
 3234SOL     OW10600   2.919   2.521   0.892
 3234SOL    HW110601   2.986   2.579   0.938
 3234SOL    HW210602   2.866   2.471   0.960
 3235SOL     OW10603   6.822   6.260   2.258
 3235SOL    HW110604   6.821   6.260   2.358
 3235SOL    HW210605   6.797   6.351   2.224
 3236SOL     OW10606   3.224   3.571   0.382
 3236SOL    HW110607   3.279   3.494   0.351
 3236SOL    HW210608   3.277   3.626   0.447
 3237SOL     OW10609   5.886   1.249   5.665
 3237SOL    HW110610   5.950   1.297   5.724
 3237SOL    HW210611   5.931   1.169   5.624
 3238SOL     OW10612   6.533   5.371   1.447
 3238SOL    HW110613   6.532   5.350   1.545
 3238SOL    HW210614   6.455   5.326   1.403
 3239SOL     OW10615   6.824   0.576   3.806
 3239SOL    HW110616   6.787   0.486   3.826
 3239SOL    HW210617   6.863   0.615   3.890
 3240SOL     OW10618   0.591   0.905   6.736
 3240SOL    HW110619   0.535   0.823   6.736
 3240SOL    HW210620   0.533   0.985   6.753
 3241SOL     OW10621   5.585   1.785   6.492
 3241SOL    HW110622   5.621   1.878   6.491
 3241SOL    HW210623   5.528   1.770   6.411
 3242SOL     OW10624   4.928   4.516   5.507
 3242SOL    HW110625   4.940   4.615   5.519
 3242SOL    HW210626   4.904   4.475   5.596
 3243SOL     OW10627   4.930   5.213   5.825
 3243SOL    HW110628   4.896   5.243   5.914
 3243SOL    HW210629   5.004   5.274   5.795
 3244SOL     OW10630   5.516   6.134   0.119
 3244SOL    HW110631   5.587   6.191   0.079
 3244SOL    HW210632   5.442   6.121   0.052
 3245SOL     OW10633   3.928   1.601   4.309
 3245SOL    HW110634   3.882   1.684   4.342
 3245SOL    HW210635   3.891   1.576   4.220
 3246SOL     OW10636   0.311   0.788   2.246
 3246SOL    HW110637   0.213   0.809   2.254
 3246SOL    HW210638   0.364   0.868   2.276
 3247SOL     OW10639   0.653   4.206   3.062
 3247SOL    HW110640   0.690   4.201   3.155
 3247SOL    HW210641   0.554   4.193   3.065
 3248SOL     OW10642   5.333   2.252   3.795
 3248SOL    HW110643   5.336   2.175   3.859
 3248SOL    HW210644   5.426   2.286   3.781
 3249SOL     OW10645   3.379   3.827   3.462
 3249SOL    HW110646   3.298   3.876   3.430
 3249SOL    HW210647   3.371   3.809   3.560
 3250SOL     OW10648   5.381   5.630   2.212
 3250SOL    HW110649   5.359   5.542   2.171
 3250SOL    HW210650   5.396   5.619   2.310
 3251SOL     OW10651   2.911   1.198   3.903
 3251SOL    HW110652   2.930   1.105   3.935
 3251SOL    HW210653   2.916   1.262   3.979
 3252SOL     OW10654   2.358   1.370   4.123
 3252SOL    HW110655   2.303   1.347   4.204
 3252SOL    HW210656   2.446   1.408   4.153
 3253SOL     OW10657   6.638   3.496   1.407
 3253SOL    HW110658   6.646   3.397   1.403
 3253SOL    HW210659   6.630   3.533   1.315
 3254SOL     OW10660   5.960   0.419   0.582
 3254SOL    HW110661   5.935   0.482   0.508
 3254SOL    HW210662   5.913   0.445   0.666
 3255SOL     OW10663   5.466   4.808   0.739
 3255SOL    HW110664   5.435   4.899   0.766
 3255SOL    HW210665   5.552   4.787   0.785
 3256SOL     OW10666   4.798   2.264   0.844
 3256SOL    HW110667   4.718   2.204   0.854
 3256SOL    HW210668   4.860   2.225   0.776
 3257SOL     OW10669   2.570   2.132   2.861
 3257SOL    HW110670   2.588   2.054   2.921
 3257SOL    HW210671   2.632   2.207   2.884
 3258SOL     OW10672   2.554   6.140   3.401
 3258SOL    HW110673   2.581   6.144   3.498
 3258SOL    HW210674   2.491   6.215   3.381
 3259SOL     OW10675   4.922   4.101   4.192
 3259SOL    HW110676   5.002   4.159   4.208
 3259SOL    HW210677   4.949   4.020   4.141
 3260SOL     OW10678   1.879   3.974   1.696
 3260SOL    HW110679   1.970   4.015   1.688
 3260SOL    HW210680   1.865   3.908   1.623
 3261SOL     OW10681   4.024   0.789   3.006
 3261SOL    HW110682   4.070   0.764   3.091
 3261SOL    HW210683   3.964   0.714   2.977
 3262SOL     OW10684   3.540   2.085   2.560
 3262SOL    HW110685   3.450   2.056   2.527
 3262SOL    HW210686   3.534   2.103   2.658
 3263SOL     OW10687   1.556   1.390   2.720
 3263SOL    HW110688   1.616   1.406   2.641
 3263SOL    HW210689   1.606   1.409   2.804
 3264SOL     OW10690   2.384   5.804   0.195
 3264SOL    HW110691   2.327   5.881   0.226
 3264SOL    HW210692   2.351   5.771   0.107
 3265SOL     OW10693   5.840   5.116   5.845
 3265SOL    HW110694   5.791   5.193   5.807
 3265SOL    HW210695   5.938   5.136   5.847
 3266SOL     OW10696   3.179   4.620   0.109
 3266SOL    HW110697   3.270   4.590   0.080
 3266SOL    HW210698   3.116   4.542   0.105
 3267SOL     OW10699   4.091   0.177   0.519
 3267SOL    HW110700   4.180   0.183   0.564
 3267SOL    HW210701   4.086   0.244   0.445
 3268SOL     OW10702   6.789   4.661   1.699
 3268SOL    HW110703   6.818   4.704   1.784
 3268SOL    HW210704   6.695   4.628   1.709
 3269SOL     OW10705   1.645   5.289   2.128
 3269SOL    HW110706   1.648   5.250   2.220
 3269SOL    HW210707   1.739   5.310   2.098
 3270SOL     OW10708   1.022   2.801   5.254
 3270SOL    HW110709   1.083   2.810   5.175
 3270SOL    HW210710   0.950   2.870   5.248
 3271SOL     OW10711   0.479   3.678   2.417
 3271SOL    HW110712   0.512   3.711   2.506
 3271SOL    HW210713   0.413   3.742   2.380
 3272SOL     OW10714   4.395   6.344   0.292
 3272SOL    HW110715   4.475   6.395   0.259
 3272SOL    HW210716   4.417   6.247   0.296
 3273SOL     OW10717   4.994   3.151   6.191
 3273SOL    HW110718   4.982   3.171   6.288
 3273SOL    HW210719   5.084   3.182   6.161
 3274SOL     OW10720   5.636   0.944   6.934
 3274SOL    HW110721   5.713   1.006   6.924
 3274SOL    HW210722   5.569   0.961   6.862
 3275SOL     OW10723   5.082   0.290   1.121
 3275SOL    HW110724   5.015   0.220   1.147
 3275SOL    HW210725   5.109   0.341   1.202
 3276SOL     OW10726   4.534   7.016   0.101
 3276SOL    HW110727   4.513   6.969   0.187
 3276SOL    HW210728   4.553   0.094   0.120
 3277SOL     OW10729   3.312   1.682   2.150
 3277SOL    HW110730   3.345   1.669   2.056
 3277SOL    HW210731   3.335   1.775   2.181
 3278SOL     OW10732   6.596   0.278   6.692
 3278SOL    HW110733   6.688   0.311   6.712
 3278SOL    HW210734   6.601   0.198   6.632
 3279SOL     OW10735   4.142   6.662   0.764
 3279SOL    HW110736   4.122   6.759   0.779
 3279SOL    HW210737   4.237   6.652   0.735
 3280SOL     OW10738   5.455   3.701   4.449
 3280SOL    HW110739   5.382   3.713   4.516
 3280SOL    HW210740   5.434   3.624   4.389
 3281SOL     OW10741   6.439   4.351   2.181
 3281SOL    HW110742   6.508   4.327   2.250
 3281SOL    HW210743   6.439   4.283   2.109
 3282SOL     OW10744   0.571   4.010   5.613
 3282SOL    HW110745   0.529   4.064   5.540
 3282SOL    HW210746   0.540   3.916   5.607
 3283SOL     OW10747   4.024   0.836   1.056
 3283SOL    HW110748   3.952   0.820   0.988
 3283SOL    HW210749   4.006   0.922   1.104
 3284SOL     OW10750   1.832   5.723   4.933
 3284SOL    HW110751   1.791   5.813   4.917
 3284SOL    HW210752   1.879   5.693   4.849
 3285SOL     OW10753   5.410   1.038   4.834
 3285SOL    HW110754   5.386   1.088   4.751
 3285SOL    HW210755   5.419   0.941   4.813
 3286SOL     OW10756   3.133   1.790   1.750
 3286SOL    HW110757   3.213   1.768   1.806
 3286SOL    HW210758   3.153   1.869   1.692
 3287SOL     OW10759   2.756   0.391   6.547
 3287SOL    HW110760   2.710   0.479   6.542
 3287SOL    HW210761   2.763   0.362   6.643
 3288SOL     OW10762   1.995   5.972   0.887
 3288SOL    HW110763   1.971   6.035   0.960
 3288SOL    HW210764   1.993   6.020   0.799
 3289SOL     OW10765   3.854   1.510   6.598
 3289SOL    HW110766   3.839   1.429   6.654
 3289SOL    HW210767   3.801   1.586   6.635
 3290SOL     OW10768   6.522   5.119   0.271
 3290SOL    HW110769   6.448   5.064   0.231
 3290SOL    HW210770   6.482   5.195   0.322
 3291SOL     OW10771   4.567   6.848   5.518
 3291SOL    HW110772   4.648   6.842   5.577
 3291SOL    HW210773   4.507   6.921   5.551
 3292SOL     OW10774   0.012   1.665   1.333
 3292SOL    HW110775   0.049   1.754   1.308
 3292SOL    HW210776   0.087   1.602   1.351
 3293SOL     OW10777   6.612   5.607   3.180
 3293SOL    HW110778   6.634   5.669   3.255
 3293SOL    HW210779   6.540   5.647   3.124
 3294SOL     OW10780   5.272   2.649   5.377
 3294SOL    HW110781   5.215   2.716   5.424
 3294SOL    HW210782   5.366   2.655   5.411
 3295SOL     OW10783   2.050   2.882   1.505
 3295SOL    HW110784   2.074   2.906   1.411
 3295SOL    HW210785   2.117   2.817   1.541
 3296SOL     OW10786   0.705   0.483   6.064
 3296SOL    HW110787   0.733   0.472   5.968
 3296SOL    HW210788   0.767   0.431   6.123
 3297SOL     OW10789   3.348   1.865   5.236
 3297SOL    HW110790   3.252   1.893   5.241
 3297SOL    HW210791   3.354   1.766   5.240
 3298SOL     OW10792   5.750   4.156   4.713
 3298SOL    HW110793   5.671   4.155   4.651
 3298SOL    HW210794   5.807   4.236   4.692
 3299SOL     OW10795   3.228   4.941   3.840
 3299SOL    HW110796   3.313   4.986   3.812
 3299SOL    HW210797   3.234   4.917   3.937
 3300SOL     OW10798   1.657   6.961   5.209
 3300SOL    HW110799   1.683   0.039   5.215
 3300SOL    HW210800   1.614   6.944   5.120
 3301SOL     OW10801   1.930   2.987   2.763
 3301SOL    HW110802   1.992   2.955   2.691
 3301SOL    HW210803   1.981   3.046   2.825
 3302SOL     OW10804   2.609   4.984   5.602
 3302SOL    HW110805   2.558   5.058   5.558
 3302SOL    HW210806   2.546   4.911   5.628
 3303SOL     OW10807   3.379   2.701   0.861
 3303SOL    HW110808   3.321   2.652   0.797
 3303SOL    HW210809   3.475   2.684   0.839
 3304SOL     OW10810   2.715   5.189   5.740
 3304SOL    HW110811   2.744   5.244   5.663
 3304SOL    HW210812   2.691   5.097   5.709
 3305SOL     OW10813   3.641   0.851   1.333
 3305SOL    HW110814   3.661   0.949   1.327
 3305SOL    HW210815   3.724   0.799   1.312
 3306SOL     OW10816   1.888   0.370   0.057
 3306SOL    HW110817   1.795   0.374   0.020
 3306SOL    HW210818   1.888   0.316   0.141
 3307SOL     OW10819   0.644   0.073   4.619
 3307SOL    HW110820   0.660   6.994   4.598
 3307SOL    HW210821   0.699   0.129   4.556
 3308SOL     OW10822   3.519   4.658   1.008
 3308SOL    HW110823   3.465   4.736   0.976
 3308SOL    HW210824   3.544   4.673   1.104
 3309SOL     OW10825   5.197   4.031   3.795
 3309SOL    HW110826   5.101   4.033   3.825
 3309SOL    HW210827   5.200   4.000   3.699
 3310SOL     OW10828   0.207   5.117   4.828
 3310SOL    HW110829   0.189   5.197   4.770
 3310SOL    HW210830   0.120   5.073   4.852
 3311SOL     OW10831   3.366   3.470   0.699
 3311SOL    HW110832   3.412   3.473   0.610
 3311SOL    HW210833   3.331   3.378   0.715
 3312SOL     OW10834   5.153   2.556   6.103
 3312SOL    HW110835   5.174   2.469   6.147
 3312SOL    HW210836   5.138   2.626   6.172
 3313SOL     OW10837   0.930   1.048   3.570
 3313SOL    HW110838   0.847   1.010   3.612
 3313SOL    HW210839   0.937   1.146   3.592
 3314SOL     OW10840   1.924   6.062   2.728
 3314SOL    HW110841   1.926   6.116   2.644
 3314SOL    HW210842   2.014   6.066   2.772
 3315SOL     OW10843   0.199   4.831   5.058
 3315SOL    HW110844   0.176   4.859   5.151
 3315SOL    HW210845   0.297   4.838   5.045
 3316SOL     OW10846   2.723   1.306   6.633
 3316SOL    HW110847   2.816   1.288   6.665
 3316SOL    HW210848   2.660   1.304   6.710
 3317SOL     OW10849   4.933   2.687   2.383
 3317SOL    HW110850   5.003   2.649   2.323
 3317SOL    HW210851   4.891   2.613   2.436
 3318SOL     OW10852   2.989   2.282   0.541
 3318SOL    HW110853   3.009   2.310   0.635
 3318SOL    HW210854   2.980   2.364   0.484
 3319SOL     OW10855   6.533   6.845   3.143
 3319SOL    HW110856   6.623   6.840   3.100
 3319SOL    HW210857   6.490   6.755   3.142
 3320SOL     OW10858   6.047   0.135   0.946
 3320SOL    HW110859   6.048   0.113   0.849
 3320SOL    HW210860   6.004   0.224   0.959
 3321SOL     OW10861   5.688   1.746   0.123
 3321SOL    HW110862   5.662   1.823   0.181
 3321SOL    HW210863   5.768   1.700   0.163
 3322SOL     OW10864   6.828   3.614   0.931
 3322SOL    HW110865   6.926   3.633   0.938
 3322SOL    HW210866   6.782   3.692   0.890
 3323SOL     OW10867   1.794   1.734   1.938
 3323SOL    HW110868   1.887   1.727   1.901
 3323SOL    HW210869   1.778   1.659   2.002
 3324SOL     OW10870   5.169   5.021   5.795
 3324SOL    HW110871   5.123   5.102   5.831
 3324SOL    HW210872   5.204   5.040   5.703
 3325SOL     OW10873   1.640   3.262   6.761
 3325SOL    HW110874   1.594   3.321   6.695
 3325SOL    HW210875   1.734   3.244   6.731
 3326SOL     OW10876   5.381   1.444   2.816
 3326SOL    HW110877   5.321   1.503   2.762
 3326SOL    HW210878   5.443   1.394   2.755
 3327SOL     OW10879   1.668   5.882   1.579
 3327SOL    HW110880   1.675   5.904   1.676
 3327SOL    HW210881   1.675   5.783   1.567
 3328SOL     OW10882   4.037   1.927   1.104
 3328SOL    HW110883   4.125   1.943   1.149
 3328SOL    HW210884   3.997   2.015   1.077
 3329SOL     OW10885   5.692   5.651   6.143
 3329SOL    HW110886   5.748   5.594   6.203
 3329SOL    HW210887   5.748   5.687   6.069
 3330SOL     OW10888   6.037   3.011   2.315
 3330SOL    HW110889   6.132   3.042   2.310
 3330SOL    HW210890   6.008   3.012   2.411
 3331SOL     OW10891   1.462   1.878   1.360
 3331SOL    HW110892   1.391   1.945   1.384
 3331SOL    HW210893   1.461   1.863   1.261
 3332SOL     OW10894   5.786   4.178   0.521
 3332SOL    HW110895   5.723   4.237   0.469
 3332SOL    HW210896   5.880   4.209   0.506
 3333SOL     OW10897   4.042   4.905   5.994
 3333SOL    HW110898   4.079   4.825   6.040
 3333SOL    HW210899   3.942   4.901   5.994
 3334SOL     OW10900   2.988   3.702   1.285
 3334SOL    HW110901   2.935   3.742   1.360
 3334SOL    HW210902   2.995   3.603   1.298
 3335SOL     OW10903   5.026   4.779   5.512
 3335SOL    HW110904   4.976   4.857   5.474
 3335SOL    HW210905   5.124   4.796   5.507
 3336SOL     OW10906   3.328   5.406   6.051
 3336SOL    HW110907   3.303   5.368   5.962
 3336SOL    HW210908   3.246   5.438   6.098
 3337SOL     OW10909   3.888   2.488   1.473
 3337SOL    HW110910   3.982   2.502   1.504
 3337SOL    HW210911   3.825   2.518   1.544
 3338SOL     OW10912   0.026   4.151   0.930
 3338SOL    HW110913   0.039   4.059   0.895
 3338SOL    HW210914   0.033   4.150   1.030
 3339SOL     OW10915   6.633   5.717   6.808
 3339SOL    HW110916   6.619   5.689   6.903
 3339SOL    HW210917   6.706   5.662   6.767
 3340SOL     OW10918   3.199   6.500   2.004
 3340SOL    HW110919   3.260   6.502   1.925
 3340SOL    HW210920   3.252   6.491   2.088
 3341SOL     OW10921   0.669   0.406   2.717
 3341SOL    HW110922   0.582   0.448   2.690
 3341SOL    HW210923   0.741   0.474   2.714
 3342SOL     OW10924   2.053   0.023   3.811
 3342SOL    HW110925   2.024   0.116   3.837
 3342SOL    HW210926   2.089   6.994   3.891
 3343SOL     OW10927   5.072   3.131   0.728
 3343SOL    HW110928   5.034   3.067   0.661
 3343SOL    HW210929   5.005   3.146   0.801
 3344SOL     OW10930   5.828   3.136   5.762
 3344SOL    HW110931   5.740   3.174   5.788
 3344SOL    HW210932   5.817   3.038   5.742
 3345SOL     OW10933   3.359   3.619   5.852
 3345SOL    HW110934   3.342   3.694   5.788
 3345SOL    HW210935   3.424   3.554   5.811
 3346SOL     OW10936   0.032   0.439   1.851
 3346SOL    HW110937   0.016   0.415   1.755
 3346SOL    HW210938   7.007   0.527   1.871
 3347SOL     OW10939   5.896   3.947   4.870
 3347SOL    HW110940   5.867   4.014   4.801
 3347SOL    HW210941   5.825   3.940   4.941
 3348SOL     OW10942   3.561   3.040   3.899
 3348SOL    HW110943   3.529   3.064   3.991
 3348SOL    HW210944   3.508   3.089   3.831
 3349SOL     OW10945   6.885   3.900   4.285
 3349SOL    HW110946   6.921   3.807   4.288
 3349SOL    HW210947   6.847   3.924   4.375
 3350SOL     OW10948   1.772   0.913   0.355
 3350SOL    HW110949   1.692   0.972   0.344
 3350SOL    HW210950   1.804   0.883   0.265
 3351SOL     OW10951   5.472   1.557   1.053
 3351SOL    HW110952   5.571   1.563   1.040
 3351SOL    HW210953   5.426   1.599   0.975
 3352SOL     OW10954   0.956   4.042   1.068
 3352SOL    HW110955   1.014   4.120   1.045
 3352SOL    HW210956   0.886   4.031   0.998
 3353SOL     OW10957   1.835   6.879   6.676
 3353SOL    HW110958   1.922   6.867   6.628
 3353SOL    HW210959   1.846   6.948   6.748
 3354SOL     OW10960   6.754   2.405   4.235
 3354SOL    HW110961   6.796   2.468   4.171
 3354SOL    HW210962   6.712   2.329   4.184
 3355SOL     OW10963   6.870   1.513   1.918
 3355SOL    HW110964   6.855   1.453   1.840
 3355SOL    HW210965   6.967   1.517   1.939
 3356SOL     OW10966   2.886   3.457   0.074
 3356SOL    HW110967   2.906   3.450   6.994
 3356SOL    HW210968   2.963   3.419   0.126
 3357SOL     OW10969   3.022   5.280   1.788
 3357SOL    HW110970   3.121   5.278   1.771
 3357SOL    HW210971   3.004   5.333   1.871
 3358SOL     OW10972   4.861   6.247   2.673
 3358SOL    HW110973   4.850   6.150   2.651
 3358SOL    HW210974   4.943   6.260   2.729
 3359SOL     OW10975   1.215   0.294   2.301
 3359SOL    HW110976   1.305   0.316   2.337
 3359SOL    HW210977   1.150   0.283   2.377
 3360SOL     OW10978   0.364   0.591   0.368
 3360SOL    HW110979   0.441   0.589   0.304
 3360SOL    HW210980   0.384   0.654   0.443
 3361SOL     OW10981   6.090   5.710   2.909
 3361SOL    HW110982   6.145   5.793   2.915
 3361SOL    HW210983   6.002   5.724   2.955
 3362SOL     OW10984   2.558   1.373   4.925
 3362SOL    HW110985   2.462   1.354   4.904
 3362SOL    HW210986   2.586   1.458   4.880
 3363SOL     OW10987   0.208   1.812   0.120
 3363SOL    HW110988   0.160   1.732   0.155
 3363SOL    HW210989   0.150   1.893   0.130
 3364SOL     OW10990   1.951   5.382   5.873
 3364SOL    HW110991   2.003   5.425   5.946
 3364SOL    HW210992   1.877   5.327   5.912
 3365SOL     OW10993   6.931   2.995   4.753
 3365SOL    HW110994   6.834   3.000   4.776
 3365SOL    HW210995   6.959   3.079   4.707
 3366SOL     OW10996   5.420   0.144   5.327
 3366SOL    HW110997   5.434   0.159   5.229
 3366SOL    HW210998   5.341   0.084   5.341
 3367SOL     OW10999   1.600   2.440   3.029
 3367SOL    HW111000   1.543   2.511   2.987
 3367SOL    HW211001   1.565   2.419   3.120
 3368SOL     OW11002   6.714   5.496   6.043
 3368SOL    HW111003   6.687   5.591   6.028
 3368SOL    HW211004   6.796   5.492   6.099
 3369SOL     OW11005   3.909   0.336   0.190
 3369SOL    HW111006   3.863   0.303   0.272
 3369SOL    HW211007   3.952   0.260   0.142
 3370SOL     OW11008   6.058   6.634   4.622
 3370SOL    HW111009   6.104   6.713   4.582
 3370SOL    HW211010   5.985   6.603   4.562
 3371SOL     OW11011   1.020   4.979   1.752
 3371SOL    HW111012   1.063   4.949   1.838
 3371SOL    HW211013   1.088   5.023   1.694
 3372SOL     OW11014   0.934   1.138   2.589
 3372SOL    HW111015   1.004   1.164   2.522
 3372SOL    HW211016   0.912   1.041   2.579
 3373SOL     OW11017   6.043   1.498   5.167
 3373SOL    HW111018   6.020   1.458   5.079
 3373SOL    HW211019   6.058   1.425   5.234
 3374SOL     OW11020   2.868   5.753   5.807
 3374SOL    HW111021   2.914   5.682   5.860
 3374SOL    HW211022   2.936   5.817   5.771
 3375SOL     OW11023   4.615   4.316   5.199
 3375SOL    HW111024   4.677   4.337   5.274
 3375SOL    HW211025   4.586   4.220   5.205
 3376SOL     OW11026   3.168   3.048   2.361
 3376SOL    HW111027   3.165   3.036   2.261
 3376SOL    HW211028   3.202   3.139   2.383
 3377SOL     OW11029   0.984   6.621   5.293
 3377SOL    HW111030   1.059   6.635   5.228
 3377SOL    HW211031   0.978   6.524   5.317
 3378SOL     OW11032   6.644   1.289   1.540
 3378SOL    HW111033   6.626   1.352   1.615
 3378SOL    HW211034   6.632   1.195   1.572
 3379SOL     OW11035   0.554   4.824   6.093
 3379SOL    HW111036   0.518   4.736   6.062
 3379SOL    HW211037   0.627   4.854   6.032
 3380SOL     OW11038   0.041   4.346   6.905
 3380SOL    HW111039   6.985   4.359   6.971
 3380SOL    HW211040   0.003   4.323   6.815
 3381SOL     OW11041   3.212   2.553   0.658
 3381SOL    HW111042   3.174   2.472   0.702
 3381SOL    HW211043   3.271   2.525   0.581
 3382SOL     OW11044   6.634   2.010   0.756
 3382SOL    HW111045   6.590   1.929   0.716
 3382SOL    HW211046   6.671   1.986   0.846
 3383SOL     OW11047   6.166   4.744   2.500
 3383SOL    HW111048   6.184   4.758   2.598
 3383SOL    HW211049   6.086   4.799   2.473
 3384SOL     OW11050   3.567   2.899   4.536
 3384SOL    HW111051   3.546   2.811   4.495
 3384SOL    HW211052   3.502   2.968   4.504
 3385SOL     OW11053   6.585   3.592   3.485
 3385SOL    HW111054   6.533   3.540   3.552
 3385SOL    HW211055   6.650   3.651   3.532
 3386SOL     OW11056   6.072   4.633   4.825
 3386SOL    HW111057   6.161   4.679   4.823
 3386SOL    HW211058   6.068   4.566   4.751
 3387SOL     OW11059   2.296   2.471   3.069
 3387SOL    HW111060   2.314   2.375   3.048
 3387SOL    HW211061   2.366   2.529   3.027
 3388SOL     OW11062   5.736   2.021   1.433
 3388SOL    HW111063   5.832   1.994   1.424
 3388SOL    HW211064   5.684   1.947   1.473
 3389SOL     OW11065   4.983   4.521   3.808
 3389SOL    HW111066   5.010   4.508   3.904
 3389SOL    HW211067   4.897   4.573   3.804
 3390SOL     OW11068   5.076   3.138   5.744
 3390SOL    HW111069   5.075   3.047   5.702
 3390SOL    HW211070   4.987   3.157   5.785
 3391SOL     OW11071   3.620   1.854   4.769
 3391SOL    HW111072   3.676   1.806   4.701
 3391SOL    HW211073   3.540   1.798   4.792
 3392SOL     OW11074   2.154   0.980   4.223
 3392SOL    HW111075   2.068   1.029   4.207
 3392SOL    HW211076   2.230   1.035   4.189
 3393SOL     OW11077   6.434   6.362   6.595
 3393SOL    HW111078   6.464   6.283   6.542
 3393SOL    HW211079   6.507   6.390   6.658
 3394SOL     OW11080   6.199   2.867   1.199
 3394SOL    HW111081   6.110   2.861   1.154
 3394SOL    HW211082   6.195   2.821   1.288
 3395SOL     OW11083   0.717   3.239   4.244
 3395SOL    HW111084   0.702   3.181   4.324
 3395SOL    HW211085   0.814   3.264   4.239
 3396SOL     OW11086   0.540   3.358   3.579
 3396SOL    HW111087   0.534   3.388   3.484
 3396SOL    HW211088   0.476   3.284   3.595
 3397SOL     OW11089   3.823   7.000   6.053
 3397SOL    HW111090   3.901   6.980   6.113
 3397SOL    HW211091   3.815   6.928   5.984
 3398SOL     OW11092   1.093   0.395   4.173
 3398SOL    HW111093   1.157   0.455   4.221
 3398SOL    HW211094   1.141   0.312   4.144
 3399SOL     OW11095   4.854   5.222   4.113
 3399SOL    HW111096   4.771   5.251   4.160
 3399SOL    HW211097   4.831   5.193   4.020
 3400SOL     OW11098   4.917   2.090   6.666
 3400SOL    HW111099   4.913   2.189   6.647
 3400SOL    HW211100   4.857   2.069   6.743
 3401SOL     OW11101   6.529   3.302   0.700
 3401SOL    HW111102   6.446   3.259   0.736
 3401SOL    HW211103   6.576   3.349   0.775
 3402SOL     OW11104   5.224   5.996   1.644
 3402SOL    HW111105   5.280   6.051   1.582
 3402SOL    HW211106   5.194   5.913   1.597
 3403SOL     OW11107   3.155   0.301   4.949
 3403SOL    HW111108   3.183   0.327   4.856
 3403SOL    HW211109   3.133   0.384   5.001
 3404SOL     OW11110   4.426   1.461   0.858
 3404SOL    HW111111   4.518   1.492   0.836
 3404SOL    HW211112   4.426   1.363   0.874
 3405SOL     OW11113   6.240   4.042   6.457
 3405SOL    HW111114   6.312   4.108   6.479
 3405SOL    HW211115   6.152   4.090   6.448
 3406SOL     OW11116   2.384   4.279   1.751
 3406SOL    HW111117   2.370   4.251   1.656
 3406SOL    HW211118   2.465   4.338   1.757
 3407SOL     OW11119   1.247   5.688   1.850
 3407SOL    HW111120   1.310   5.613   1.870
 3407SOL    HW211121   1.287   5.748   1.781
 3408SOL     OW11122   5.016   4.216   2.881
 3408SOL    HW111123   4.921   4.211   2.911
 3408SOL    HW211124   5.041   4.132   2.834
 3409SOL     OW11125   3.810   0.256   6.057
 3409SOL    HW111126   3.794   0.168   6.013
 3409SOL    HW211127   3.727   0.311   6.054
 3410SOL     OW11128   6.135   5.950   0.340
 3410SOL    HW111129   6.078   5.894   0.280
 3410SOL    HW211130   6.200   5.892   0.389
 3411SOL     OW11131   4.821   2.448   2.521
 3411SOL    HW111132   4.788   2.485   2.608
 3411SOL    HW211133   4.861   2.358   2.537
 3412SOL     OW11134   3.798   3.592   6.890
 3412SOL    HW111135   3.727   3.661   6.874
 3412SOL    HW211136   3.814   3.584   6.988
 3413SOL     OW11137   3.863   1.868   3.423
 3413SOL    HW111138   3.808   1.934   3.372
 3413SOL    HW211139   3.805   1.791   3.452
 3414SOL     OW11140   2.941   2.132   4.936
 3414SOL    HW111141   2.984   2.120   4.846
 3414SOL    HW211142   3.000   2.188   4.994
 3415SOL     OW11143   0.811   5.092   4.168
 3415SOL    HW111144   0.828   4.999   4.135
 3415SOL    HW211145   0.798   5.090   4.267
 3416SOL     OW11146   0.166   4.423   5.978
 3416SOL    HW111147   0.227   4.390   5.905
 3416SOL    HW211148   0.213   4.418   6.066
 3417SOL     OW11149   6.720   6.598   2.580
 3417SOL    HW111150   6.642   6.539   2.602
 3417SOL    HW211151   6.713   6.684   2.630
 3418SOL     OW11152   2.663   1.161   5.006
 3418SOL    HW111153   2.615   1.248   4.993
 3418SOL    HW211154   2.684   1.148   5.103
 3419SOL     OW11155   4.225   4.810   0.105
 3419SOL    HW111156   4.152   4.782   0.166
 3419SOL    HW211157   4.198   4.891   0.054
 3420SOL     OW11158   4.831   1.728   4.130
 3420SOL    HW111159   4.791   1.662   4.194
 3420SOL    HW211160   4.758   1.779   4.085
 3421SOL     OW11161   6.745   6.385   5.277
 3421SOL    HW111162   6.808   6.463   5.281
 3421SOL    HW211163   6.672   6.398   5.344
 3422SOL     OW11164   3.295   0.120   1.195
 3422SOL    HW111165   3.359   0.044   1.182
 3422SOL    HW211166   3.304   0.185   1.119
 3423SOL     OW11167   2.330   0.493   0.462
 3423SOL    HW111168   2.420   0.487   0.418
 3423SOL    HW211169   2.305   0.404   0.501
 3424SOL     OW11170   4.355   0.980   2.430
 3424SOL    HW111171   4.349   1.044   2.354
 3424SOL    HW211172   4.314   1.021   2.512
 3425SOL     OW11173   4.792   4.101   2.110
 3425SOL    HW111174   4.720   4.169   2.116
 3425SOL    HW211175   4.787   4.056   2.020
 3426SOL     OW11176   3.509   3.056   0.490
 3426SOL    HW111177   3.448   2.979   0.512
 3426SOL    HW211178   3.603   3.023   0.483
 3427SOL     OW11179   6.692   0.333   0.202
 3427SOL    HW111180   6.740   0.312   0.287
 3427SOL    HW211181   6.658   0.248   0.161
 3428SOL     OW11182   4.124   4.950   2.055
 3428SOL    HW111183   4.114   4.863   2.008
 3428SOL    HW211184   4.089   5.024   1.997
 3429SOL     OW11185   1.155   3.048   0.072
 3429SOL    HW111186   1.091   3.018   0.143
 3429SOL    HW211187   1.104   3.090   7.015
 3430SOL     OW11188   1.555   6.810   0.391
 3430SOL    HW111189   1.534   6.881   0.457
 3430SOL    HW211190   1.621   6.746   0.431
 3431SOL     OW11191   1.734   6.102   1.430
 3431SOL    HW111192   1.704   6.014   1.467
 3431SOL    HW211193   1.750   6.166   1.506
 3432SOL     OW11194   2.988   1.849   5.689
 3432SOL    HW111195   3.064   1.854   5.625
 3432SOL    HW211196   2.908   1.808   5.643
 3433SOL     OW11197   3.259   1.031   6.131
 3433SOL    HW111198   3.302   1.065   6.048
 3433SOL    HW211199   3.184   0.970   6.107
 3434SOL     OW11200   4.425   2.525   1.232
 3434SOL    HW111201   4.512   2.476   1.235
 3434SOL    HW211202   4.360   2.474   1.175
 3435SOL     OW11203   6.862   2.676   1.874
 3435SOL    HW111204   6.920   2.731   1.933
 3435SOL    HW211205   6.783   2.643   1.926
 3436SOL     OW11206   4.379   6.823   4.601
 3436SOL    HW111207   4.478   6.832   4.586
 3436SOL    HW211208   4.332   6.895   4.551
 3437SOL     OW11209   4.154   0.164   5.197
 3437SOL    HW111210   4.190   0.226   5.267
 3437SOL    HW211211   4.055   0.175   5.191
 3438SOL     OW11212   2.086   2.667   6.625
 3438SOL    HW111213   2.082   2.757   6.667
 3438SOL    HW211214   1.993   2.632   6.612
 3439SOL     OW11215   2.746   6.407   5.146
 3439SOL    HW111216   2.715   6.478   5.083
 3439SOL    HW211217   2.786   6.331   5.093
 3440SOL     OW11218   4.596   3.840   1.176
 3440SOL    HW111219   4.690   3.831   1.143
 3440SOL    HW211220   4.597   3.886   1.265
 3441SOL     OW11221   4.046   0.058   4.103
 3441SOL    HW111222   4.035   7.009   4.176
 3441SOL    HW211223   4.060   0.011   4.016
 3442SOL     OW11224   2.145   5.258   3.672
 3442SOL    HW111225   2.166   5.294   3.581
 3442SOL    HW211226   2.173   5.162   3.677
 3443SOL     OW11227   5.756   1.999   3.191
 3443SOL    HW111228   5.826   2.053   3.145
 3443SOL    HW211229   5.721   2.049   3.270
 3444SOL     OW11230   4.943   5.723   6.469
 3444SOL    HW111231   5.009   5.658   6.431
 3444SOL    HW211232   4.987   5.778   6.539
 3445SOL     OW11233   6.653   4.072   4.457
 3445SOL    HW111234   6.573   4.041   4.508
 3445SOL    HW211235   6.697   4.148   4.507
 3446SOL     OW11236   3.850   0.556   3.083
 3446SOL    HW111237   3.885   0.465   3.105
 3446SOL    HW211238   3.764   0.548   3.034
 3447SOL     OW11239   5.642   5.372   0.249
 3447SOL    HW111240   5.711   5.324   0.195
 3447SOL    HW211241   5.552   5.335   0.229
 3448SOL     OW11242   3.142   0.665   0.858
 3448SOL    HW111243   3.060   0.608   0.849
 3448SOL    HW211244   3.159   0.683   0.955
 3449SOL     OW11245   6.748   6.857   1.819
 3449SOL    HW111246   6.743   6.848   1.919
 3449SOL    HW211247   6.841   6.837   1.789
 3450SOL     OW11248   0.873   1.739   1.358
 3450SOL    HW111249   0.971   1.723   1.374
 3450SOL    HW211250   0.833   1.659   1.313
 3451SOL     OW11251   1.146   5.665   3.497
 3451SOL    HW111252   1.123   5.715   3.581
 3451SOL    HW211253   1.069   5.609   3.469
 3452SOL     OW11254   6.751   0.978   6.663
 3452SOL    HW111255   6.732   0.903   6.726
 3452SOL    HW211256   6.800   1.050   6.712
 3453SOL     OW11257   5.160   5.915   4.901
 3453SOL    HW111258   5.091   5.926   4.972
 3453SOL    HW211259   5.242   5.873   4.940
 3454SOL     OW11260   1.605   1.512   0.524
 3454SOL    HW111261   1.628   1.560   0.609
 3454SOL    HW211262   1.687   1.504   0.468
 3455SOL     OW11263   1.546   3.198   4.289
 3455SOL    HW111264   1.473   3.264   4.305
 3455SOL    HW211265   1.536   3.158   4.198
 3456SOL     OW11266   6.050   6.741   1.782
 3456SOL    HW111267   6.029   6.708   1.690
 3456SOL    HW211268   5.976   6.802   1.813
 3457SOL     OW11269   2.527   4.987   3.857
 3457SOL    HW111270   2.499   4.891   3.856
 3457SOL    HW211271   2.587   5.006   3.780
 3458SOL     OW11272   5.985   6.654   0.195
 3458SOL    HW111273   6.048   6.579   0.175
 3458SOL    HW211274   6.030   6.721   0.254
 3459SOL     OW11275   0.404   3.660   3.253
 3459SOL    HW111276   0.332   3.657   3.182
 3459SOL    HW211277   0.462   3.579   3.244
 3460SOL     OW11278   2.722   2.628   6.934
 3460SOL    HW111279   2.697   2.668   6.846
 3460SOL    HW211280   2.740   2.701   7.000
 3461SOL     OW11281   3.658   5.321   4.128
 3461SOL    HW111282   3.589   5.251   4.146
 3461SOL    HW211283   3.734   5.310   4.191
 3462SOL     OW11284   5.877   2.711   3.002
 3462SOL    HW111285   5.791   2.737   2.958
 3462SOL    HW211286   5.867   2.620   3.042
 3463SOL     OW11287   1.372   3.290   1.794
 3463SOL    HW111288   1.442   3.221   1.815
 3463SOL    HW211289   1.301   3.287   1.864
 3464SOL     OW11290   5.637   2.853   6.601
 3464SOL    HW111291   5.575   2.921   6.563
 3464SOL    HW211292   5.586   2.790   6.660
 3465SOL     OW11293   2.089   3.474   1.746
 3465SOL    HW111294   2.162   3.455   1.812
 3465SOL    HW211295   2.019   3.530   1.789
 3466SOL     OW11296   5.664   4.217   5.317
 3466SOL    HW111297   5.664   4.121   5.345
 3466SOL    HW211298   5.582   4.262   5.351
 3467SOL     OW11299   3.644   1.738   1.003
 3467SOL    HW111300   3.577   1.667   0.981
 3467SOL    HW211301   3.598   1.827   1.010
 3468SOL     OW11302   4.535   1.749   1.785
 3468SOL    HW111303   4.634   1.766   1.785
 3468SOL    HW211304   4.503   1.737   1.879
 3469SOL     OW11305   4.435   0.331   6.021
 3469SOL    HW111306   4.526   0.292   6.020
 3469SOL    HW211307   4.367   0.258   6.019
 3470SOL     OW11308   0.208   2.916   1.054
 3470SOL    HW111309   0.121   2.881   1.020
 3470SOL    HW211310   0.210   2.912   1.153
 3471SOL     OW11311   4.596   4.364   3.804
 3471SOL    HW111312   4.606   4.336   3.708
 3471SOL    HW211313   4.619   4.287   3.864
 3472SOL     OW11314   4.472   2.497   3.002
 3472SOL    HW111315   4.377   2.501   2.972
 3472SOL    HW211316   4.523   2.436   2.941
 3473SOL     OW11317   7.009   3.603   3.777
 3473SOL    HW111318   0.078   3.555   3.772
 3473SOL    HW211319   7.014   3.687   3.724
 3474SOL     OW11320   0.297   4.216   4.210
 3474SOL    HW111321   0.301   4.247   4.115
 3474SOL    HW211322   0.202   4.194   4.233
 3475SOL     OW11323   6.979   4.882   4.438
 3475SOL    HW111324   0.047   4.898   4.486
 3475SOL    HW211325   6.956   4.964   4.384
 3476SOL     OW11326   2.242   1.644   3.820
 3476SOL    HW111327   2.221   1.648   3.722
 3476SOL    HW211328   2.210   1.727   3.865
 3477SOL     OW11329   0.287   3.498   1.279
 3477SOL    HW111330   0.283   3.491   1.179
 3477SOL    HW211331   0.277   3.406   1.318
 3478SOL     OW11332   2.432   6.539   0.400
 3478SOL    HW111333   2.361   6.566   0.465
 3478SOL    HW211334   2.436   6.439   0.394
 3479SOL     OW11335   0.735   3.133   3.688
 3479SOL    HW111336   0.814   3.128   3.750
 3479SOL    HW211337   0.756   3.194   3.612
 3480SOL     OW11338   0.739   5.630   6.571
 3480SOL    HW111339   0.673   5.577   6.623
 3480SOL    HW211340   0.692   5.685   6.502
 3481SOL     OW11341   5.669   0.634   7.017
 3481SOL    HW111342   5.668   0.704   0.070
 3481SOL    HW211343   5.733   0.662   6.945
 3482SOL     OW11344   6.269   2.835   3.934
 3482SOL    HW111345   6.189   2.865   3.882
 3482SOL    HW211346   6.268   2.878   4.025
 3483SOL     OW11347   5.000   2.496   3.488
 3483SOL    HW111348   5.074   2.436   3.518
 3483SOL    HW211349   4.940   2.517   3.565
 3484SOL     OW11350   1.919   3.400   6.462
 3484SOL    HW111351   1.887   3.347   6.541
 3484SOL    HW211352   1.861   3.481   6.450
 3485SOL     OW11353   6.875   1.851   5.639
 3485SOL    HW111354   6.787   1.829   5.596
 3485SOL    HW211355   6.948   1.844   5.571
 3486SOL     OW11356   1.754   6.948   4.189
 3486SOL    HW111357   1.716   6.993   4.108
 3486SOL    HW211358   1.783   7.018   4.255
 3487SOL     OW11359   6.537   1.686   6.926
 3487SOL    HW111360   6.438   1.679   6.914
 3487SOL    HW211361   6.567   1.777   6.895
 3488SOL     OW11362   5.559   0.603   5.156
 3488SOL    HW111363   5.640   0.550   5.131
 3488SOL    HW211364   5.557   0.687   5.101
 3489SOL     OW11365   3.214   6.841   1.231
 3489SOL    HW111366   3.246   6.809   1.142
 3489SOL    HW211367   3.209   6.941   1.231
 3490SOL     OW11368   3.881   5.061   1.337
 3490SOL    HW111369   3.875   5.008   1.422
 3490SOL    HW211370   3.953   5.022   1.279
 3491SOL     OW11371   5.198   4.094   6.653
 3491SOL    HW111372   5.238   4.005   6.677
 3491SOL    HW211373   5.165   4.139   6.736
 3492SOL     OW11374   6.886   3.874   2.152
 3492SOL    HW111375   6.976   3.908   2.126
 3492SOL    HW211376   6.895   3.781   2.189
 3493SOL     OW11377   6.614   3.958   4.186
 3493SOL    HW111378   6.687   3.888   4.189
 3493SOL    HW211379   6.620   4.014   4.268
 3494SOL     OW11380   3.303   1.897   2.572
 3494SOL    HW111381   3.259   1.875   2.484
 3494SOL    HW211382   3.370   1.827   2.594
 3495SOL     OW11383   0.781   3.928   2.088
 3495SOL    HW111384   0.733   4.010   2.119
 3495SOL    HW211385   0.759   3.852   2.149
 3496SOL     OW11386   6.010   4.595   0.389
 3496SOL    HW111387   5.946   4.556   0.456
 3496SOL    HW211388   6.010   4.539   0.307
 3497SOL     OW11389   3.490   1.099   3.686
 3497SOL    HW111390   3.521   1.119   3.593
 3497SOL    HW211391   3.558   1.043   3.733
 3498SOL     OW11392   2.643   1.795   2.256
 3498SOL    HW111393   2.694   1.738   2.192
 3498SOL    HW211394   2.573   1.847   2.207
 3499SOL     OW11395   6.061   5.879   5.564
 3499SOL    HW111396   6.115   5.930   5.631
 3499SOL    HW211397   6.059   5.930   5.478
 3500SOL     OW11398   1.944   2.378   4.174
 3500SOL    HW111399   2.038   2.345   4.182
 3500SOL    HW211400   1.945   2.473   4.143
 3501SOL     OW11401   2.252   6.805   6.807
 3501SOL    HW111402   2.338   6.851   6.786
 3501SOL    HW211403   2.222   6.831   6.899
 3502SOL     OW11404   5.907   3.392   2.084
 3502SOL    HW111405   5.916   3.434   1.993
 3502SOL    HW211406   5.870   3.459   2.148
 3503SOL     OW11407   6.860   5.850   5.984
 3503SOL    HW111408   6.899   5.890   5.901
 3503SOL    HW211409   6.773   5.807   5.962
 3504SOL     OW11410   2.327   0.694   2.137
 3504SOL    HW111411   2.408   0.661   2.088
 3504SOL    HW211412   2.350   0.707   2.234
 3505SOL     OW11413   5.579   5.550   5.666
 3505SOL    HW111414   5.559   5.640   5.705
 3505SOL    HW211415   5.640   5.560   5.588
 3506SOL     OW11416   5.954   4.614   5.074
 3506SOL    HW111417   5.997   4.594   4.986
 3506SOL    HW211418   6.001   4.564   5.146
 3507SOL     OW11419   2.256   6.558   0.618
 3507SOL    HW111420   2.200   6.617   0.676
 3507SOL    HW211421   2.275   6.473   0.666
 3508SOL     OW11422   3.194   2.676   6.033
 3508SOL    HW111423   3.231   2.760   6.073
 3508SOL    HW211424   3.269   2.624   5.991
 3509SOL     OW11425   5.393   6.624   0.302
 3509SOL    HW111426   5.333   6.697   0.334
 3509SOL    HW211427   5.342   6.538   0.300
 3510SOL     OW11428   2.214   0.936   1.460
 3510SOL    HW111429   2.145   0.924   1.388
 3510SOL    HW211430   2.303   0.908   1.424
 3511SOL     OW11431   2.019   4.567   1.617
 3511SOL    HW111432   1.932   4.519   1.612
 3511SOL    HW211433   2.010   4.646   1.679
 3512SOL     OW11434   0.992   3.928   0.603
 3512SOL    HW111435   1.061   3.922   0.531
 3512SOL    HW211436   0.906   3.890   0.569
 3513SOL     OW11437   6.420   2.300   1.263
 3513SOL    HW111438   6.342   2.242   1.240
 3513SOL    HW211439   6.448   2.283   1.357
 3514SOL     OW11440   5.604   0.772   2.491
 3514SOL    HW111441   5.541   0.702   2.458
 3514SOL    HW211442   5.554   0.858   2.505
 3515SOL     OW11443   5.625   6.219   3.631
 3515SOL    HW111444   5.699   6.168   3.676
 3515SOL    HW211445   5.541   6.165   3.633
 3516SOL     OW11446   5.003   6.987   1.082
 3516SOL    HW111447   5.089   6.975   1.033
 3516SOL    HW211448   4.974   6.898   1.119
 3517SOL     OW11449   0.422   1.132   1.117
 3517SOL    HW111450   0.381   1.102   1.203
 3517SOL    HW211451   0.360   1.109   1.042
 3518SOL     OW11452   5.496   2.115   4.901
 3518SOL    HW111453   5.514   2.019   4.925
 3518SOL    HW211454   5.450   2.160   4.978
 3519SOL     OW11455   2.527   1.329   6.841
 3519SOL    HW111456   2.446   1.287   6.798
 3519SOL    HW211457   2.510   1.426   6.854
 3520SOL     OW11458   3.666   6.381   6.270
 3520SOL    HW111459   3.682   6.319   6.346
 3520SOL    HW211460   3.690   6.335   6.184
 3521SOL     OW11461   3.331   2.642   6.755
 3521SOL    HW111462   3.252   2.619   6.813
 3521SOL    HW211463   3.300   2.661   6.662
 3522SOL     OW11464   6.379   5.391   6.645
 3522SOL    HW111465   6.419   5.371   6.734
 3522SOL    HW211466   6.348   5.306   6.601
 3523SOL     OW11467   1.042   4.395   5.774
 3523SOL    HW111468   0.951   4.403   5.734
 3523SOL    HW211469   1.110   4.432   5.710
 3524SOL     OW11470   5.178   2.080   2.550
 3524SOL    HW111471   5.264   2.068   2.500
 3524SOL    HW211472   5.148   1.992   2.585
 3525SOL     OW11473   5.926   3.657   3.780
 3525SOL    HW111474   5.868   3.674   3.700
 3525SOL    HW211475   5.867   3.632   3.857
 3526SOL     OW11476   2.276   6.193   3.585
 3526SOL    HW111477   2.304   6.098   3.595
 3526SOL    HW211478   2.358   6.251   3.577
 3527SOL     OW11479   6.336   3.062   6.193
 3527SOL    HW111480   6.296   3.020   6.111
 3527SOL    HW211481   6.264   3.099   6.250
 3528SOL     OW11482   2.566   6.211   4.910
 3528SOL    HW111483   2.535   6.306   4.904
 3528SOL    HW211484   2.666   6.209   4.902
 3529SOL     OW11485   4.312   6.686   6.685
 3529SOL    HW111486   4.296   6.727   6.775
 3529SOL    HW211487   4.404   6.708   6.654
 3530SOL     OW11488   0.083   5.019   1.769
 3530SOL    HW111489   0.014   5.087   1.795
 3530SOL    HW211490   0.168   5.065   1.746
 3531SOL     OW11491   5.765   2.262   1.558
 3531SOL    HW111492   5.757   2.173   1.512
 3531SOL    HW211493   5.854   2.302   1.537
 3532SOL     OW11494   2.722   0.909   2.280
 3532SOL    HW111495   2.794   0.978   2.266
 3532SOL    HW211496   2.632   0.952   2.268
 3533SOL     OW11497   0.499   1.976   2.670
 3533SOL    HW111498   0.508   1.926   2.584
 3533SOL    HW211499   0.485   2.073   2.651
 3534SOL     OW11500   0.784   2.280   2.247
 3534SOL    HW111501   0.805   2.247   2.156
 3534SOL    HW211502   0.782   2.380   2.246
 3535SOL     OW11503   2.555   5.552   5.170
 3535SOL    HW111504   2.508   5.464   5.166
 3535SOL    HW211505   2.653   5.538   5.162
 3536SOL     OW11506   3.481   1.678   3.004
 3536SOL    HW111507   3.486   1.616   3.082
 3536SOL    HW211508   3.516   1.632   2.923
 3537SOL     OW11509   1.132   5.746   2.181
 3537SOL    HW111510   1.184   5.678   2.233
 3537SOL    HW211511   1.150   5.735   2.084
 3538SOL     OW11512   3.435   5.287   5.710
 3538SOL    HW111513   3.389   5.201   5.732
 3538SOL    HW211514   3.393   5.327   5.629
 3539SOL     OW11515   3.565   3.522   4.510
 3539SOL    HW111516   3.607   3.584   4.443
 3539SOL    HW211517   3.607   3.536   4.600
 3540SOL     OW11518   2.191   2.501   4.434
 3540SOL    HW111519   2.179   2.562   4.355
 3540SOL    HW211520   2.247   2.546   4.503
 3541SOL     OW11521   2.942   2.806   5.332
 3541SOL    HW111522   2.892   2.887   5.301
 3541SOL    HW211523   3.040   2.825   5.330
 3542SOL     OW11524   1.751   5.356   3.038
 3542SOL    HW111525   1.839   5.401   3.053
 3542SOL    HW211526   1.706   5.341   3.127
 3543SOL     OW11527   5.653   2.828   3.840
 3543SOL    HW111528   5.706   2.835   3.756
 3543SOL    HW211529   5.615   2.917   3.864
 3544SOL     OW11530   1.851   4.058   6.508
 3544SOL    HW111531   1.851   4.132   6.575
 3544SOL    HW211532   1.933   4.002   6.520
 3545SOL     OW11533   4.135   6.386   6.314
 3545SOL    HW111534   4.177   6.307   6.270
 3545SOL    HW211535   4.120   6.458   6.247
 3546SOL     OW11536   0.572   5.521   3.169
 3546SOL    HW111537   0.509   5.470   3.227
 3546SOL    HW211538   0.665   5.485   3.181
 3547SOL     OW11539   4.062   5.120   3.675
 3547SOL    HW111540   4.109   5.146   3.591
 3547SOL    HW211541   4.105   5.038   3.713
 3548SOL     OW11542   4.973   2.312   5.861
 3548SOL    HW111543   4.917   2.329   5.942
 3548SOL    HW211544   5.045   2.246   5.883
 3549SOL     OW11545   6.772   4.707   4.374
 3549SOL    HW111546   6.707   4.763   4.323
 3549SOL    HW211547   6.857   4.758   4.388
 3550SOL     OW11548   5.055   2.326   3.042
 3550SOL    HW111549   5.041   2.348   2.946
 3550SOL    HW211550   5.085   2.407   3.091
 3551SOL     OW11551   3.518   6.387   2.974
 3551SOL    HW111552   3.476   6.464   3.022
 3551SOL    HW211553   3.596   6.353   3.027
 3552SOL     OW11554   4.696   5.637   2.669
 3552SOL    HW111555   4.623   5.662   2.606
 3552SOL    HW211556   4.745   5.557   2.634
 3553SOL     OW11557   5.623   2.906   2.395
 3553SOL    HW111558   5.657   2.998   2.374
 3553SOL    HW211559   5.692   2.856   2.448
 3554SOL     OW11560   3.927   3.566   0.115
 3554SOL    HW111561   3.935   3.580   0.214
 3554SOL    HW211562   4.008   3.603   0.070
 3555SOL     OW11563   0.638   3.493   2.925
 3555SOL    HW111564   0.607   3.581   2.963
 3555SOL    HW211565   0.612   3.488   2.829
 3556SOL     OW11566   3.456   0.380   5.424
 3556SOL    HW111567   3.444   0.284   5.449
 3556SOL    HW211568   3.374   0.413   5.377
 3557SOL     OW11569   0.835   0.800   4.407
 3557SOL    HW111570   0.836   0.787   4.308
 3557SOL    HW211571   0.857   0.713   4.451
 3558SOL     OW11572   0.132   5.676   1.731
 3558SOL    HW111573   0.191   5.595   1.737
 3558SOL    HW211574   0.142   5.718   1.641
 3559SOL     OW11575   0.222   0.250   4.858
 3559SOL    HW111576   0.134   0.237   4.812
 3559SOL    HW211577   0.227   0.343   4.895
 3560SOL     OW11578   1.614   5.762   1.131
 3560SOL    HW111579   1.549   5.774   1.205
 3560SOL    HW211580   1.608   5.668   1.095
 3561SOL     OW11581   5.004   4.694   5.756
 3561SOL    HW111582   5.038   4.751   5.681
 3561SOL    HW211583   5.062   4.705   5.836
 3562SOL     OW11584   4.679   0.564   3.848
 3562SOL    HW111585   4.605   0.623   3.880
 3562SOL    HW211586   4.758   0.621   3.823
 3563SOL     OW11587   5.573   1.191   1.605
 3563SOL    HW111588   5.516   1.188   1.687
 3563SOL    HW211589   5.651   1.251   1.621
 3564SOL     OW11590   0.717   4.517   4.520
 3564SOL    HW111591   0.647   4.582   4.548
 3564SOL    HW211592   0.706   4.432   4.571
 3565SOL     OW11593   3.072   6.276   4.893
 3565SOL    HW111594   3.136   6.205   4.924
 3565SOL    HW211595   3.057   6.267   4.795
 3566SOL     OW11596   6.818   3.502   5.726
 3566SOL    HW111597   6.776   3.515   5.815
 3566SOL    HW211598   6.751   3.520   5.654
 3567SOL     OW11599   0.861   2.359   0.622
 3567SOL    HW111600   0.859   2.422   0.544
 3567SOL    HW211601   0.788   2.291   0.612
 3568SOL     OW11602   5.284   4.954   2.379
 3568SOL    HW111603   5.380   4.931   2.361
 3568SOL    HW211604   5.226   4.878   2.353
 3569SOL     OW11605   3.153   3.222   4.930
 3569SOL    HW111606   3.214   3.297   4.903
 3569SOL    HW211607   3.189   3.136   4.894
 3570SOL     OW11608   5.615   1.245   5.570
 3570SOL    HW111609   5.572   1.329   5.537
 3570SOL    HW211610   5.704   1.266   5.610
 3571SOL     OW11611   1.687   0.833   4.897
 3571SOL    HW111612   1.650   0.828   4.804
 3571SOL    HW211613   1.734   0.748   4.919
 3572SOL     OW11614   5.070   4.310   2.590
 3572SOL    HW111615   5.039   4.233   2.534
 3572SOL    HW211616   5.095   4.277   2.681
 3573SOL     OW11617   6.507   4.755   2.400
 3573SOL    HW111618   6.466   4.727   2.486
 3573SOL    HW211619   6.553   4.677   2.358
 3574SOL     OW11620   2.452   3.162   6.558
 3574SOL    HW111621   2.430   3.175   6.461
 3574SOL    HW211622   2.455   3.250   6.604
 3575SOL     OW11623   4.766   5.602   0.745
 3575SOL    HW111624   4.761   5.535   0.820
 3575SOL    HW211625   4.859   5.605   0.710
 3576SOL     OW11626   0.506   2.678   0.285
 3576SOL    HW111627   0.543   2.602   0.231
 3576SOL    HW211628   0.580   2.722   0.335
 3577SOL     OW11629   2.394   2.765   5.592
 3577SOL    HW111630   2.404   2.805   5.501
 3577SOL    HW211631   2.463   2.693   5.604
 3578SOL     OW11632   3.007   2.824   0.765
 3578SOL    HW111633   3.014   2.725   0.755
 3578SOL    HW211634   3.009   2.848   0.862
 3579SOL     OW11635   0.636   3.693   2.176
 3579SOL    HW111636   0.578   3.681   2.256
 3579SOL    HW211637   0.727   3.655   2.195
 3580SOL     OW11638   0.539   3.260   1.238
 3580SOL    HW111639   0.609   3.305   1.293
 3580SOL    HW211640   0.456   3.248   1.292
 3581SOL     OW11641   0.609   0.030   3.373
 3581SOL    HW111642   0.602   6.960   3.418
 3581SOL    HW211643   0.677   0.086   3.419
 3582SOL     OW11644   3.174   4.399   5.970
 3582SOL    HW111645   3.233   4.423   5.893
 3582SOL    HW211646   3.079   4.418   5.946
 3583SOL     OW11647   0.473   4.548   0.564
 3583SOL    HW111648   0.493   4.571   0.468
 3583SOL    HW211649   0.554   4.567   0.620
 3584SOL     OW11650   5.910   4.550   5.503
 3584SOL    HW111651   6.000   4.524   5.470
 3584SOL    HW211652   5.890   4.644   5.477
 3585SOL     OW11653   2.643   2.406   4.687
 3585SOL    HW111654   2.740   2.393   4.665
 3585SOL    HW211655   2.602   2.318   4.710
 3586SOL     OW11656   6.281   3.122   3.762
 3586SOL    HW111657   6.308   3.144   3.856
 3586SOL    HW211658   6.353   3.070   3.718
 3587SOL     OW11659   3.671   6.675   6.477
 3587SOL    HW111660   3.685   6.589   6.527
 3587SOL    HW211661   3.760   6.714   6.454
 3588SOL     OW11662   6.189   4.520   4.357
 3588SOL    HW111663   6.102   4.567   4.344
 3588SOL    HW211664   6.228   4.496   4.267
 3589SOL     OW11665   0.303   6.744   5.606
 3589SOL    HW111666   0.291   6.791   5.693
 3589SOL    HW211667   0.261   6.654   5.610
 3590SOL     OW11668   0.312   4.067   0.350
 3590SOL    HW111669   0.292   4.013   0.431
 3590SOL    HW211670   0.364   4.010   0.285
 3591SOL     OW11671   5.413   2.747   6.819
 3591SOL    HW111672   5.386   2.834   6.859
 3591SOL    HW211673   5.450   2.688   6.890
 3592SOL     OW11674   1.463   0.372   2.336
 3592SOL    HW111675   1.533   0.393   2.268
 3592SOL    HW211676   1.492   0.293   2.391
 3593SOL     OW11677   6.326   3.862   5.381
 3593SOL    HW111678   6.425   3.866   5.375
 3593SOL    HW211679   6.288   3.955   5.377
 3594SOL     OW11680   4.028   5.486   5.011
 3594SOL    HW111681   4.124   5.514   5.012
 3594SOL    HW211682   3.998   5.473   4.916
 3595SOL     OW11683   5.717   5.671   0.252
 3595SOL    HW111684   5.686   5.577   0.267
 3595SOL    HW211685   5.685   5.703   0.163
 3596SOL     OW11686   4.350   1.625   3.424
 3596SOL    HW111687   4.309   1.622   3.333
 3596SOL    HW211688   4.284   1.663   3.489
 3597SOL     OW11689   1.808   3.193   5.011
 3597SOL    HW111690   1.795   3.204   5.109
 3597SOL    HW211691   1.891   3.241   4.982
 3598SOL     OW11692   1.428   6.138   5.415
 3598SOL    HW111693   1.517   6.183   5.409
 3598SOL    HW211694   1.364   6.182   5.352
 3599SOL     OW11695   4.397   1.685   6.311
 3599SOL    HW111696   4.423   1.773   6.353
 3599SOL    HW211697   4.366   1.701   6.217
 3600SOL     OW11698   2.725   3.335   0.483
 3600SOL    HW111699   2.824   3.334   0.469
 3600SOL    HW211700   2.702   3.282   0.565
 3601SOL     OW11701   5.264   1.377   5.359
 3601SOL    HW111702   5.167   1.397   5.375
 3601SOL    HW211703   5.273   1.285   5.321
 3602SOL     OW11704   1.971   2.614   1.520
 3602SOL    HW111705   1.984   2.684   1.450
 3602SOL    HW211706   1.878   2.617   1.555
 3603SOL     OW11707   3.020   0.881   6.099
 3603SOL    HW111708   3.086   0.807   6.111
 3603SOL    HW211709   2.939   0.863   6.155
 3604SOL     OW11710   0.371   0.807   3.606
 3604SOL    HW111711   0.434   0.740   3.645
 3604SOL    HW211712   0.285   0.806   3.658
 3605SOL     OW11713   1.202   5.158   3.487
 3605SOL    HW111714   1.299   5.134   3.483
 3605SOL    HW211715   1.167   5.175   3.395
 3606SOL     OW11716   1.834   6.283   1.630
 3606SOL    HW111717   1.743   6.324   1.631
 3606SOL    HW211718   1.852   6.239   1.719
 3607SOL     OW11719   5.320   3.012   2.888
 3607SOL    HW111720   5.278   2.958   2.815
 3607SOL    HW211721   5.418   2.995   2.890
 3608SOL     OW11722   4.158   1.817   4.111
 3608SOL    HW111723   4.164   1.917   4.103
 3608SOL    HW211724   4.123   1.793   4.202
 3609SOL     OW11725   2.482   6.558   4.442
 3609SOL    HW111726   2.403   6.547   4.381
 3609SOL    HW211727   2.556   6.498   4.411
 3610SOL     OW11728   1.757   0.082   5.517
 3610SOL    HW111729   1.782   0.114   5.426
 3610SOL    HW211730   1.816   0.126   5.585
 3611SOL     OW11731   4.665   4.362   4.228
 3611SOL    HW111732   4.571   4.377   4.259
 3611SOL    HW211733   4.684   4.420   4.149
 3612SOL     OW11734   6.219   1.380   6.598
 3612SOL    HW111735   6.313   1.349   6.588
 3612SOL    HW211736   6.207   1.419   6.690
 3613SOL     OW11737   3.099   5.122   1.284
 3613SOL    HW111738   3.057   5.127   1.375
 3613SOL    HW211739   3.190   5.081   1.292
 3614SOL     OW11740   3.257   3.948   6.591
 3614SOL    HW111741   3.294   3.912   6.677
 3614SOL    HW211742   3.333   3.974   6.530
 3615SOL     OW11743   6.312   2.866   5.702
 3615SOL    HW111744   6.313   2.772   5.668
 3615SOL    HW211745   6.260   2.924   5.639
 3616SOL     OW11746   2.035   2.035   6.755
 3616SOL    HW111747   2.067   1.948   6.793
 3616SOL    HW211748   2.079   2.111   6.802
 3617SOL     OW11749   4.135   6.907   5.887
 3617SOL    HW111750   4.211   6.845   5.867
 3617SOL    HW211751   4.103   6.949   5.802
 3618SOL     OW11752   1.676   3.619   4.844
 3618SOL    HW111753   1.727   3.702   4.822
 3618SOL    HW211754   1.621   3.634   4.927
 3619SOL     OW11755   5.973   2.895   1.031
 3619SOL    HW111756   5.893   2.836   1.019
 3619SOL    HW211757   6.000   2.932   0.942
 3620SOL     OW11758   6.277   6.372   4.480
 3620SOL    HW111759   6.310   6.459   4.444
 3620SOL    HW211760   6.229   6.388   4.566
 3621SOL     OW11761   3.780   2.897   3.989
 3621SOL    HW111762   3.712   2.947   3.936
 3621SOL    HW211763   3.739   2.865   4.074
 3622SOL     OW11764   0.937   6.740   0.673
 3622SOL    HW111765   0.941   6.759   0.575
 3622SOL    HW211766   1.026   6.709   0.704
 3623SOL     OW11767   1.260   5.486   5.847
 3623SOL    HW111768   1.340   5.435   5.815
 3623SOL    HW211769   1.254   5.573   5.798
 3624SOL     OW11770   3.341   0.825   2.248
 3624SOL    HW111771   3.257   0.784   2.283
 3624SOL    HW211772   3.344   0.922   2.272
 3625SOL     OW11773   6.417   3.186   6.513
 3625SOL    HW111774   6.420   3.286   6.506
 3625SOL    HW211775   6.337   3.151   6.463
 3626SOL     OW11776   0.305   2.990   4.890
 3626SOL    HW111777   0.257   2.902   4.892
 3626SOL    HW211778   0.278   3.044   4.970
 3627SOL     OW11779   4.687   3.117   1.226
 3627SOL    HW111780   4.663   3.133   1.321
 3627SOL    HW211781   4.638   3.037   1.192
 3628SOL     OW11782   0.888   1.396   1.905
 3628SOL    HW111783   0.921   1.338   1.980
 3628SOL    HW211784   0.788   1.400   1.908
 3629SOL     OW11785   0.504   1.724   4.355
 3629SOL    HW111786   0.498   1.824   4.354
 3629SOL    HW211787   0.597   1.696   4.333
 3630SOL     OW11788   6.998   2.878   3.441
 3630SOL    HW111789   0.008   2.863   3.535
 3630SOL    HW211790   6.921   2.818   3.418
 3631SOL     OW11791   1.795   6.474   2.769
 3631SOL    HW111792   1.758   6.382   2.758
 3631SOL    HW211793   1.721   6.538   2.785
 3632SOL     OW11794   4.247   3.678   0.929
 3632SOL    HW111795   4.283   3.690   0.836
 3632SOL    HW211796   4.147   3.682   0.926
 3633SOL     OW11797   3.957   2.644   6.323
 3633SOL    HW111798   3.987   2.659   6.228
 3633SOL    HW211799   3.859   2.626   6.324
 3634SOL     OW11800   3.060   5.662   6.012
 3634SOL    HW111801   3.104   5.712   6.087
 3634SOL    HW211802   3.128   5.603   5.967
 3635SOL     OW11803   2.872   0.665   2.103
 3635SOL    HW111804   2.886   0.637   2.008
 3635SOL    HW211805   2.790   0.722   2.109
 3636SOL     OW11806   1.116   5.761   6.852
 3636SOL    HW111807   1.069   5.779   6.765
 3636SOL    HW211808   1.069   5.810   6.926
 3637SOL     OW11809   0.361   3.057   6.789
 3637SOL    HW111810   0.450   3.099   6.803
 3637SOL    HW211811   0.297   3.089   6.860
 3638SOL     OW11812   5.811   4.421   2.387
 3638SOL    HW111813   5.884   4.450   2.325
 3638SOL    HW211814   5.821   4.469   2.474
 3639SOL     OW11815   3.877   3.933   4.849
 3639SOL    HW111816   3.861   4.014   4.905
 3639SOL    HW211817   3.856   3.954   4.753
 3640SOL     OW11818   5.246   2.443   0.236
 3640SOL    HW111819   5.151   2.465   0.258
 3640SOL    HW211820   5.284   2.514   0.176
 3641SOL     OW11821   6.827   3.786   1.480
 3641SOL    HW111822   6.778   3.859   1.529
 3641SOL    HW211823   6.808   3.698   1.524
 3642SOL     OW11824   5.823   2.428   6.804
 3642SOL    HW111825   5.775   2.370   6.738
 3642SOL    HW211826   5.821   2.384   6.894
 3643SOL     OW11827   4.218   5.719   5.848
 3643SOL    HW111828   4.124   5.706   5.881
 3643SOL    HW211829   4.256   5.631   5.822
 3644SOL     OW11830   3.130   0.518   2.017
 3644SOL    HW111831   3.099   0.508   2.112
 3644SOL    HW211832   3.177   0.435   1.989
 3645SOL     OW11833   1.595   4.071   4.406
 3645SOL    HW111834   1.587   4.162   4.447
 3645SOL    HW211835   1.632   4.007   4.473
 3646SOL     OW11836   2.607   4.647   4.778
 3646SOL    HW111837   2.655   4.635   4.865
 3646SOL    HW211838   2.539   4.574   4.768
 3647SOL     OW11839   1.814   0.058   0.465
 3647SOL    HW111840   1.744   7.015   0.502
 3647SOL    HW211841   1.888   0.004   0.425
 3648SOL     OW11842   4.648   5.480   3.491
 3648SOL    HW111843   4.582   5.555   3.481
 3648SOL    HW211844   4.669   5.442   3.401
 3649SOL     OW11845   5.747   3.697   0.299
 3649SOL    HW111846   5.731   3.644   0.383
 3649SOL    HW211847   5.813   3.770   0.319
 3650SOL     OW11848   4.837   4.778   0.372
 3650SOL    HW111849   4.804   4.685   0.387
 3650SOL    HW211850   4.775   4.843   0.416
 3651SOL     OW11851   1.460   2.357   5.876
 3651SOL    HW111852   1.395   2.334   5.948
 3651SOL    HW211853   1.493   2.451   5.891
 3652SOL     OW11854   5.106   1.431   2.016
 3652SOL    HW111855   5.144   1.408   1.926
 3652SOL    HW211856   5.111   1.529   2.030
 3653SOL     OW11857   0.342   1.353   1.904
 3653SOL    HW111858   0.364   1.296   1.983
 3653SOL    HW211859   0.327   1.295   1.824
 3654SOL     OW11860   5.100   0.667   0.716
 3654SOL    HW111861   5.136   0.739   0.657
 3654SOL    HW211862   5.128   0.685   0.810
 3655SOL     OW11863   1.648   1.735   3.798
 3655SOL    HW111864   1.690   1.823   3.820
 3655SOL    HW211865   1.702   1.661   3.839
 3656SOL     OW11866   0.241   5.800   1.452
 3656SOL    HW111867   0.276   5.891   1.474
 3656SOL    HW211868   0.176   5.807   1.376
 3657SOL     OW11869   4.880   6.487   4.800
 3657SOL    HW111870   4.852   6.506   4.894
 3657SOL    HW211871   4.848   6.560   4.740
 3658SOL     OW11872   1.202   5.611   6.083
 3658SOL    HW111873   1.104   5.624   6.077
 3658SOL    HW211874   1.233   5.554   6.006
 3659SOL     OW11875   6.759   1.887   6.288
 3659SOL    HW111876   6.674   1.880   6.341
 3659SOL    HW211877   6.766   1.809   6.227
 3660SOL     OW11878   5.852   5.307   6.108
 3660SOL    HW111879   5.820   5.342   6.196
 3660SOL    HW211880   5.912   5.229   6.123
 3661SOL     OW11881   6.669   1.717   5.298
 3661SOL    HW111882   6.697   1.628   5.334
 3661SOL    HW211883   6.668   1.714   5.198
 3662SOL     OW11884   3.582   1.173   5.736
 3662SOL    HW111885   3.588   1.265   5.775
 3662SOL    HW211886   3.486   1.147   5.726
 3663SOL     OW11887   2.339   2.834   6.398
 3663SOL    HW111888   2.436   2.812   6.410
 3663SOL    HW211889   2.301   2.867   6.485
 3664SOL     OW11890   3.951   1.773   2.463
 3664SOL    HW111891   3.925   1.864   2.431
 3664SOL    HW211892   3.870   1.713   2.462
 3665SOL     OW11893   0.549   6.014   5.730
 3665SOL    HW111894   0.644   6.030   5.757
 3665SOL    HW211895   0.546   5.984   5.635
 3666SOL     OW11896   2.217   1.867   4.380
 3666SOL    HW111897   2.219   1.853   4.479
 3666SOL    HW211898   2.123   1.858   4.347
 3667SOL     OW11899   2.109   0.905   2.703
 3667SOL    HW111900   2.186   0.864   2.656
 3667SOL    HW211901   2.136   0.935   2.794
 3668SOL     OW11902   0.752   0.116   1.453
 3668SOL    HW111903   0.823   0.114   1.523
 3668SOL    HW211904   0.742   0.209   1.418
 3669SOL     OW11905   6.555   1.743   4.210
 3669SOL    HW111906   6.621   1.757   4.284
 3669SOL    HW211907   6.527   1.648   4.208
 3670SOL     OW11908   3.291   5.322   1.740
 3670SOL    HW111909   3.295   5.382   1.660
 3670SOL    HW211910   3.369   5.342   1.800
 3671SOL     OW11911   6.979   0.347   3.335
 3671SOL    HW111912   0.036   0.393   3.288
 3671SOL    HW211913   6.982   0.369   3.432
 3672SOL     OW11914   4.087   1.062   3.000
 3672SOL    HW111915   4.086   0.966   2.972
 3672SOL    HW211916   4.005   1.107   2.965
 3673SOL     OW11917   5.004   6.195   0.964
 3673SOL    HW111918   4.976   6.159   0.875
 3673SOL    HW211919   4.923   6.216   1.019
 3674SOL     OW11920   1.448   5.281   5.776
 3674SOL    HW111921   1.504   5.301   5.857
 3674SOL    HW211922   1.469   5.189   5.743
 3675SOL     OW11923   6.921   1.602   4.214
 3675SOL    HW111924   6.872   1.516   4.219
 3675SOL    HW211925   6.873   1.672   4.267
 3676SOL     OW11926   4.757   1.617   3.246
 3676SOL    HW111927   4.745   1.612   3.345
 3676SOL    HW211928   4.700   1.690   3.209
 3677SOL     OW11929   2.219   0.540   4.153
 3677SOL    HW111930   2.121   0.546   4.173
 3677SOL    HW211931   2.234   0.474   4.080
 3678SOL     OW11932   1.320   0.475   3.551
 3678SOL    HW111933   1.416   0.488   3.576
 3678SOL    HW211934   1.294   0.380   3.567
 3679SOL     OW11935   4.936   1.200   2.442
 3679SOL    HW111936   4.918   1.124   2.379
 3679SOL    HW211937   4.850   1.238   2.473
 3680SOL     OW11938   3.780   1.198   4.243
 3680SOL    HW111939   3.736   1.249   4.317
 3680SOL    HW211940   3.874   1.177   4.268
 3681SOL     OW11941   1.344   0.193   5.003
 3681SOL    HW111942   1.328   0.254   4.925
 3681SOL    HW211943   1.418   0.130   4.982
 3682SOL     OW11944   5.647   2.260   1.288
 3682SOL    HW111945   5.694   2.240   1.202
 3682SOL    HW211946   5.655   2.182   1.350
 3683SOL     OW11947   0.227   0.885   5.902
 3683SOL    HW111948   0.297   0.914   5.837
 3683SOL    HW211949   0.149   0.846   5.853
 3684SOL     OW11950   1.773   6.782   5.556
 3684SOL    HW111951   1.691   6.759   5.609
 3684SOL    HW211952   1.790   6.880   5.561
 3685SOL     OW11953   2.283   5.925   5.571
 3685SOL    HW111954   2.348   5.856   5.604
 3685SOL    HW211955   2.191   5.885   5.567
 3686SOL     OW11956   7.018   4.255   3.773
 3686SOL    HW111957   6.997   4.343   3.730
 3686SOL    HW211958   6.933   4.214   3.807
 3687SOL     OW11959   4.821   5.997   3.359
 3687SOL    HW111960   4.864   5.992   3.269
 3687SOL    HW211961   4.863   5.929   3.420
 3688SOL     OW11962   5.924   3.362   0.327
 3688SOL    HW111963   5.869   3.439   0.359
 3688SOL    HW211964   5.866   3.297   0.278
 3689SOL     OW11965   1.359   0.284   5.694
 3689SOL    HW111966   1.402   0.197   5.671
 3689SOL    HW211967   1.421   0.359   5.670
 3690SOL     OW11968   5.023   4.973   0.818
 3690SOL    HW111969   4.934   4.991   0.862
 3690SOL    HW211970   5.056   5.057   0.775
 3691SOL     OW11971   2.275   2.536   0.353
 3691SOL    HW111972   2.311   2.490   0.435
 3691SOL    HW211973   2.220   2.471   0.300
 3692SOL     OW11974   0.425   3.440   6.191
 3692SOL    HW111975   0.519   3.422   6.161
 3692SOL    HW211976   0.385   3.512   6.135
 3693SOL     OW11977   0.376   1.778   2.781
 3693SOL    HW111978   0.411   1.868   2.755
 3693SOL    HW211979   0.445   1.730   2.837
 3694SOL     OW11980   6.967   0.077   1.680
 3694SOL    HW111981   0.011   0.071   1.757
 3694SOL    HW211982   6.884   0.126   1.707
 3695SOL     OW11983   6.504   2.627   2.705
 3695SOL    HW111984   6.488   2.661   2.613
 3695SOL    HW211985   6.601   2.637   2.728
 3696SOL     OW11986   5.091   0.845   4.476
 3696SOL    HW111987   5.076   0.797   4.563
 3696SOL    HW211988   5.012   0.832   4.417
 3697SOL     OW11989   6.359   6.625   3.546
 3697SOL    HW111990   6.390   6.586   3.632
 3697SOL    HW211991   6.287   6.567   3.507
 3698SOL     OW11992   2.097   0.549   2.896
 3698SOL    HW111993   2.017   0.603   2.921
 3698SOL    HW211994   2.068   0.466   2.848
 3699SOL     OW11995   2.679   2.251   3.801
 3699SOL    HW111996   2.768   2.242   3.844
 3699SOL    HW211997   2.607   2.243   3.870
 3700SOL     OW11998   0.904   5.143   5.554
 3700SOL    HW111999   0.816   5.188   5.542
 3700SOL    HW212000   0.900   5.083   5.633
 3701SOL     OW12001   1.270   0.307   2.683
 3701SOL    HW112002   1.256   0.397   2.724
 3701SOL    HW212003   1.367   0.284   2.685
 3702SOL     OW12004   5.151   4.880   3.854
 3702SOL    HW112005   5.107   4.881   3.944
 3702SOL    HW212006   5.148   4.972   3.814
 3703SOL     OW12007   1.137   1.646   5.222
 3703SOL    HW112008   1.130   1.744   5.244
 3703SOL    HW212009   1.160   1.595   5.305
 3704SOL     OW12010   0.102   1.899   1.243
 3704SOL    HW112011   0.146   1.935   1.161
 3704SOL    HW212012   0.115   1.963   1.319
 3705SOL     OW12013   4.981   4.753   3.298
 3705SOL    HW112014   4.902   4.803   3.262
 3705SOL    HW212015   5.024   4.806   3.371
 3706SOL     OW12016   1.325   3.513   0.384
 3706SOL    HW112017   1.412   3.548   0.419
 3706SOL    HW212018   1.277   3.464   0.458
 3707SOL     OW12019   1.986   4.936   3.467
 3707SOL    HW112020   2.000   5.011   3.403
 3707SOL    HW212021   1.890   4.906   3.463
 3708SOL     OW12022   3.763   6.711   0.649
 3708SOL    HW112023   3.795   6.737   0.740
 3708SOL    HW212024   3.745   6.613   0.646
 3709SOL     OW12025   1.851   0.763   2.776
 3709SOL    HW112026   1.795   0.828   2.725
 3709SOL    HW212027   1.948   0.780   2.758
 3710SOL     OW12028   0.145   5.334   5.498
 3710SOL    HW112029   0.106   5.347   5.589
 3710SOL    HW212030   0.211   5.259   5.500
 3711SOL     OW12031   1.665   5.982   4.931
 3711SOL    HW112032   1.634   6.054   4.993
 3711SOL    HW212033   1.655   6.013   4.836
 3712SOL     OW12034   1.826   5.133   4.939
 3712SOL    HW112035   1.894   5.199   4.971
 3712SOL    HW212036   1.796   5.076   5.015
 3713SOL     OW12037   6.301   6.544   4.777
 3713SOL    HW112038   6.252   6.516   4.860
 3713SOL    HW212039   6.237   6.587   4.714
 3714SOL     OW12040   1.011   4.947   0.216
 3714SOL    HW112041   1.107   4.970   0.229
 3714SOL    HW212042   0.954   5.025   0.242
 3715SOL     OW12043   6.442   5.960   3.663
 3715SOL    HW112044   6.411   6.041   3.613
 3715SOL    HW212045   6.397   5.879   3.626
 3716SOL     OW12046   5.180   5.874   3.600
 3716SOL    HW112047   5.155   5.876   3.697
 3716SOL    HW212048   5.200   5.968   3.569
 3717SOL     OW12049   4.294   1.199   1.084
 3717SOL    HW112050   4.284   1.297   1.102
 3717SOL    HW212051   4.357   1.159   1.150
 3718SOL     OW12052   6.946   6.609   5.935
 3718SOL    HW112053   0.015   6.616   5.886
 3718SOL    HW212054   6.957   6.551   6.015
 3719SOL     OW12055   4.641   3.745   6.031
 3719SOL    HW112056   4.674   3.838   6.018
 3719SOL    HW212057   4.541   3.747   6.041
 3720SOL     OW12058   6.997   3.021   1.483
 3720SOL    HW112059   6.939   2.952   1.528
 3720SOL    HW212060   0.027   3.074   1.552
 3721SOL     OW12061   6.540   4.678   6.490
 3721SOL    HW112062   6.575   4.618   6.418
 3721SOL    HW212063   6.603   4.679   6.567
 3722SOL     OW12064   4.013   7.017   2.357
 3722SOL    HW112065   4.094   7.017   2.298
 3722SOL    HW212066   4.041   7.004   2.452
 3723SOL     OW12067   4.590   5.089   6.646
 3723SOL    HW112068   4.613   5.113   6.740
 3723SOL    HW212069   4.493   5.065   6.641
 3724SOL     OW12070   1.482   4.692   5.306
 3724SOL    HW112071   1.568   4.680   5.356
 3724SOL    HW212072   1.405   4.692   5.370
 3725SOL     OW12073   0.351   6.858   6.464
 3725SOL    HW112074   0.440   6.815   6.450
 3725SOL    HW212075   0.329   6.918   6.387
 3726SOL     OW12076   5.452   3.355   3.702
 3726SOL    HW112077   5.518   3.399   3.641
 3726SOL    HW212078   5.420   3.270   3.660
 3727SOL     OW12079   0.045   3.376   4.362
 3727SOL    HW112080   0.008   3.290   4.396
 3727SOL    HW212081   0.079   3.362   4.269
 3728SOL     OW12082   3.512   3.509   6.993
 3728SOL    HW112083   3.436   3.466   0.024
 3728SOL    HW212084   3.548   3.585   0.030
 3729SOL     OW12085   0.795   6.995   5.368
 3729SOL    HW112086   0.826   0.069   5.392
 3729SOL    HW212087   0.868   6.929   5.388
 3730SOL     OW12088   3.793   5.783   5.755
 3730SOL    HW112089   3.853   5.762   5.678
 3730SOL    HW212090   3.813   5.721   5.831
 3731SOL     OW12091   0.594   2.273   6.320
 3731SOL    HW112092   0.527   2.199   6.310
 3731SOL    HW212093   0.547   2.358   6.345
 3732SOL     OW12094   2.715   2.354   0.243
 3732SOL    HW112095   2.734   2.266   0.286
 3732SOL    HW212096   2.755   2.427   0.298
 3733SOL     OW12097   1.726   1.939   3.508
 3733SOL    HW112098   1.796   1.999   3.468
 3733SOL    HW212099   1.687   1.881   3.436
 3734SOL     OW12100   4.239   0.002   1.376
 3734SOL    HW112101   4.269   0.062   1.302
 3734SOL    HW212102   4.236   0.053   1.462
 3735SOL     OW12103   4.421   0.162   2.353
 3735SOL    HW112104   4.424   0.167   2.453
 3735SOL    HW212105   4.381   0.074   2.325
 3736SOL     OW12106   6.920   1.156   1.241
 3736SOL    HW112107   6.864   1.229   1.281
 3736SOL    HW212108   7.000   1.139   1.299
 3737SOL     OW12109   0.366   2.356   3.335
 3737SOL    HW112110   0.298   2.308   3.389
 3737SOL    HW212111   0.456   2.315   3.350
 3738SOL     OW12112   6.573   6.442   0.692
 3738SOL    HW112113   6.537   6.352   0.668
 3738SOL    HW212114   6.607   6.439   0.786
 3739SOL     OW12115   2.765   4.819   1.097
 3739SOL    HW112116   2.829   4.895   1.093
 3739SOL    HW212117   2.745   4.797   1.193
 3740SOL     OW12118   5.575   5.188   6.907
 3740SOL    HW112119   5.625   5.135   6.839
 3740SOL    HW212120   5.620   5.179   6.996
 3741SOL     OW12121   5.173   2.907   0.192
 3741SOL    HW112122   5.176   2.998   0.151
 3741SOL    HW212123   5.099   2.854   0.150
 3742SOL     OW12124   3.407   5.783   6.913
 3742SOL    HW112125   3.335   5.714   6.923
 3742SOL    HW212126   3.407   5.842   6.993
 3743SOL     OW12127   4.130   3.477   1.318
 3743SOL    HW112128   4.113   3.553   1.380
 3743SOL    HW212129   4.225   3.481   1.286
 3744SOL     OW12130   0.234   6.770   2.323
 3744SOL    HW112131   0.142   6.732   2.314
 3744SOL    HW212132   0.298   6.717   2.267
 3745SOL     OW12133   4.780   3.954   2.339
 3745SOL    HW112134   4.762   4.016   2.262
 3745SOL    HW212135   4.818   3.868   2.304
 3746SOL     OW12136   6.621   0.732   4.029
 3746SOL    HW112137   6.574   0.735   3.941
 3746SOL    HW212138   6.608   0.642   4.070
 3747SOL     OW12139   4.534   6.521   6.105
 3747SOL    HW112140   4.473   6.452   6.067
 3747SOL    HW212141   4.489   6.566   6.182
 3748SOL     OW12142   5.231   1.635   2.690
 3748SOL    HW112143   5.177   1.719   2.696
 3748SOL    HW212144   5.189   1.572   2.625
 3749SOL     OW12145   0.398   5.972   3.142
 3749SOL    HW112146   0.446   5.885   3.126
 3749SOL    HW212147   0.300   5.955   3.149
 3750SOL     OW12148   5.686   4.191   6.778
 3750SOL    HW112149   5.644   4.278   6.753
 3750SOL    HW212150   5.773   4.181   6.730
 3751SOL     OW12151   2.025   3.163   1.337
 3751SOL    HW112152   2.013   3.258   1.308
 3751SOL    HW212153   2.053   3.161   1.433
 3752SOL     OW12154   0.805   6.944   6.725
 3752SOL    HW112155   0.871   6.953   6.800
 3752SOL    HW212156   0.733   7.012   6.735
 3753SOL     OW12157   0.066   5.929   4.330
 3753SOL    HW112158   0.063   5.920   4.230
 3753SOL    HW212159   7.014   5.995   4.358
 3754SOL     OW12160   6.004   6.199   1.147
 3754SOL    HW112161   6.080   6.145   1.183
 3754SOL    HW212162   6.032   6.295   1.138
 3755SOL     OW12163   5.133   4.303   4.101
 3755SOL    HW112164   5.197   4.370   4.063
 3755SOL    HW212165   5.077   4.265   4.028
 3756SOL     OW12166   2.100   1.966   6.484
 3756SOL    HW112167   2.064   2.001   6.570
 3756SOL    HW212168   2.027   1.918   6.435
 3757SOL     OW12169   3.173   5.744   6.577
 3757SOL    HW112170   3.156   5.841   6.562
 3757SOL    HW212171   3.107   5.690   6.523
 3758SOL     OW12172   1.909   1.080   4.178
 3758SOL    HW112173   1.834   1.022   4.211
 3758SOL    HW212174   1.919   1.159   4.237
 3759SOL     OW12175   5.225   4.435   5.493
 3759SOL    HW112176   5.250   4.434   5.590
 3759SOL    HW212177   5.126   4.439   5.484
 3760SOL     OW12178   1.726   2.450   4.436
 3760SOL    HW112179   1.764   2.360   4.417
 3760SOL    HW212180   1.789   2.502   4.493
 3761SOL     OW12181   0.614   6.494   5.013
 3761SOL    HW112182   0.683   6.566   5.027
 3761SOL    HW212183   0.653   6.422   4.956
 3762SOL     OW12184   0.872   4.231   0.099
 3762SOL    HW112185   0.925   4.244   0.183
 3762SOL    HW212186   0.837   4.137   0.095
 3763SOL     OW12187   6.266   2.928   6.737
 3763SOL    HW112188   6.194   2.921   6.805
 3763SOL    HW212189   6.314   3.015   6.746
 3764SOL     OW12190   2.564   0.276   3.969
 3764SOL    HW112191   2.549   0.335   4.048
 3764SOL    HW212192   2.592   0.332   3.891
 3765SOL     OW12193   5.807   0.818   2.986
 3765SOL    HW112194   5.801   0.839   2.888
 3765SOL    HW212195   5.749   0.740   3.007
 3766SOL     OW12196   0.216   0.948   4.300
 3766SOL    HW112197   0.266   0.972   4.217
 3766SOL    HW212198   0.146   1.017   4.318
 3767SOL     OW12199   1.417   5.040   6.929
 3767SOL    HW112200   1.325   5.007   6.950
 3767SOL    HW212201   1.481   4.964   6.931
 3768SOL     OW12202   4.853   6.516   0.080
 3768SOL    HW112203   4.893   6.608   0.072
 3768SOL    HW212204   4.888   6.458   0.007
 3769SOL     OW12205   4.955   6.395   5.236
 3769SOL    HW112206   4.900   6.453   5.297
 3769SOL    HW212207   5.047   6.384   5.273
 3770SOL     OW12208   2.051   1.348   6.549
 3770SOL    HW112209   2.028   1.251   6.562
 3770SOL    HW212210   2.014   1.402   6.624
 3771SOL     OW12211   5.378   2.297   6.564
 3771SOL    HW112212   5.293   2.244   6.563
 3771SOL    HW212213   5.359   2.390   6.597
 3772SOL     OW12214   5.830   1.057   1.399
 3772SOL    HW112215   5.767   1.101   1.336
 3772SOL    HW212216   5.780   0.991   1.455
 3773SOL     OW12217   6.471   2.499   6.119
 3773SOL    HW112218   6.385   2.503   6.171
 3773SOL    HW212219   6.547   2.520   6.180
 3774SOL     OW12220   0.301   0.722   0.078
 3774SOL    HW112221   0.387   0.685   0.112
 3774SOL    HW212222   0.314   0.818   0.052
 3775SOL     OW12223   5.433   3.659   3.324
 3775SOL    HW112224   5.406   3.722   3.397
 3775SOL    HW212225   5.531   3.640   3.332
 3776SOL     OW12226   2.316   2.636   1.328
 3776SOL    HW112227   2.311   2.694   1.409
 3776SOL    HW212228   2.298   2.541   1.354
 3777SOL     OW12229   2.831   5.221   4.094
 3777SOL    HW112230   2.812   5.139   4.149
 3777SOL    HW212231   2.852   5.194   4.000
 3778SOL     OW12232   2.982   5.527   1.523
 3778SOL    HW112233   2.973   5.481   1.434
 3778SOL    HW212234   2.951   5.465   1.595
 3779SOL     OW12235   2.272   4.495   6.602
 3779SOL    HW112236   2.366   4.527   6.613
 3779SOL    HW212237   2.228   4.545   6.528
 3780SOL     OW12238   3.161   6.188   5.286
 3780SOL    HW112239   3.192   6.124   5.215
 3780SOL    HW212240   3.208   6.276   5.274
 3781SOL     OW12241   3.424   6.617   4.553
 3781SOL    HW112242   3.408   6.617   4.454
 3781SOL    HW212243   3.467   6.530   4.580
 3782SOL     OW12244   2.143   1.595   4.096
 3782SOL    HW112245   2.220   1.558   4.044
 3782SOL    HW212246   2.104   1.673   4.047
 3783SOL     OW12247   5.146   6.681   4.927
 3783SOL    HW112248   5.063   6.733   4.907
 3783SOL    HW212249   5.121   6.587   4.952
 3784SOL     OW12250   5.650   1.158   3.065
 3784SOL    HW112251   5.598   1.242   3.079
 3784SOL    HW212252   5.630   1.094   3.139
 3785SOL     OW12253   2.533   2.004   1.109
 3785SOL    HW112254   2.571   2.085   1.155
 3785SOL    HW212255   2.599   1.970   1.042
 3786SOL     OW12256   2.930   5.387   2.843
 3786SOL    HW112257   2.961   5.456   2.778
 3786SOL    HW212258   2.847   5.419   2.889
 3787SOL     OW12259   4.300   0.937   3.809
 3787SOL    HW112260   4.266   0.995   3.883
 3787SOL    HW212261   4.373   0.984   3.760
 3788SOL     OW12262   6.172   2.971   2.707
 3788SOL    HW112263   6.263   2.967   2.665
 3788SOL    HW212264   6.149   2.880   2.743
 3789SOL     OW12265   1.643   4.712   3.960
 3789SOL    HW112266   1.723   4.764   3.929
 3789SOL    HW212267   1.659   4.614   3.947
 3790SOL     OW12268   1.778   3.256   4.146
 3790SOL    HW112269   1.687   3.251   4.188
 3790SOL    HW212270   1.775   3.315   4.065
 3791SOL     OW12271   5.243   6.719   1.447
 3791SOL    HW112272   5.236   6.733   1.545
 3791SOL    HW212273   5.257   6.622   1.427
 3792SOL     OW12274   6.101   6.649   5.058
 3792SOL    HW112275   6.172   6.667   5.126
 3792SOL    HW212276   6.017   6.619   5.103
 3793SOL     OW12277   2.024   1.702   2.625
 3793SOL    HW112278   2.055   1.796   2.611
 3793SOL    HW212279   1.924   1.699   2.620
 3794SOL     OW12280   4.338   6.208   2.009
 3794SOL    HW112281   4.415   6.259   1.970
 3794SOL    HW212282   4.257   6.220   1.951
 3795SOL     OW12283   5.058   0.770   6.419
 3795SOL    HW112284   5.148   0.809   6.438
 3795SOL    HW212285   5.056   0.675   6.450
 3796SOL     OW12286   1.041   2.202   1.826
 3796SOL    HW112287   0.999   2.121   1.787
 3796SOL    HW212288   0.981   2.240   1.897
 3797SOL     OW12289   1.298   4.891   2.695
 3797SOL    HW112290   1.286   4.805   2.645
 3797SOL    HW212291   1.262   4.966   2.641
 3798SOL     OW12292   2.361   4.809   2.685
 3798SOL    HW112293   2.346   4.764   2.773
 3798SOL    HW212294   2.275   4.848   2.652
 3799SOL     OW12295   1.786   1.442   5.559
 3799SOL    HW112296   1.862   1.432   5.624
 3799SOL    HW212297   1.807   1.391   5.475
 3800SOL     OW12298   5.139   2.381   4.830
 3800SOL    HW112299   5.154   2.437   4.912
 3800SOL    HW212300   5.062   2.417   4.778
 3801SOL     OW12301   6.608   5.744   5.997
 3801SOL    HW112302   6.597   5.771   6.092
 3801SOL    HW212303   6.523   5.764   5.947
 3802SOL     OW12304   1.208   2.194   4.885
 3802SOL    HW112305   1.132   2.258   4.900
 3802SOL    HW212306   1.188   2.108   4.932
 3803SOL     OW12307   3.975   6.930   1.397
 3803SOL    HW112308   3.943   6.987   1.474
 3803SOL    HW212309   4.075   6.926   1.398
 3804SOL     OW12310   4.525   2.082   4.496
 3804SOL    HW112311   4.441   2.123   4.533
 3804SOL    HW212312   4.574   2.035   4.569
 3805SOL     OW12313   3.000   4.190   1.797
 3805SOL    HW112314   2.978   4.283   1.825
 3805SOL    HW212315   2.962   4.173   1.706
 3806SOL     OW12316   2.541   2.598   0.330
 3806SOL    HW112317   2.548   2.644   0.241
 3806SOL    HW212318   2.445   2.582   0.352
 3807SOL     OW12319   1.028   0.072   3.980
 3807SOL    HW112320   1.016   0.169   4.003
 3807SOL    HW212321   1.023   0.017   4.063
 3808SOL     OW12322   3.596   7.004   1.958
 3808SOL    HW112323   3.513   7.001   2.014
 3808SOL    HW212324   3.671   0.020   2.014
 3809SOL     OW12325   5.746   1.397   0.033
 3809SOL    HW112326   5.770   1.303   0.060
 3809SOL    HW212327   5.648   1.403   0.019
 3810SOL     OW12328   3.276   3.092   5.384
 3810SOL    HW112329   3.306   3.152   5.458
 3810SOL    HW212330   3.252   3.147   5.304
 3811SOL     OW12331   0.659   4.639   4.795
 3811SOL    HW112332   0.662   4.603   4.888
 3811SOL    HW212333   0.655   4.563   4.729
 3812SOL     OW12334   6.247   1.589   5.768
 3812SOL    HW112335   6.206   1.509   5.812
 3812SOL    HW212336   6.343   1.569   5.746
 3813SOL     OW12337   2.934   5.381   0.213
 3813SOL    HW112338   2.919   5.422   0.123
 3813SOL    HW212339   2.942   5.282   0.204
 3814SOL     OW12340   6.826   5.842   2.214
 3814SOL    HW112341   6.859   5.751   2.240
 3814SOL    HW212342   6.770   5.835   2.131
 3815SOL     OW12343   5.635   2.184   1.803
 3815SOL    HW112344   5.668   2.194   1.709
 3815SOL    HW212345   5.542   2.147   1.801
 3816SOL     OW12346   0.040   6.768   1.936
 3816SOL    HW112347   0.030   6.831   1.859
 3816SOL    HW212348   0.097   6.810   2.006
 3817SOL     OW12349   4.699   1.694   4.552
 3817SOL    HW112350   4.679   1.774   4.608
 3817SOL    HW212351   4.755   1.629   4.603
 3818SOL     OW12352   4.548   5.962   2.731
 3818SOL    HW112353   4.461   5.943   2.685
 3818SOL    HW212354   4.560   6.060   2.742
 3819SOL     OW12355   5.285   5.174   0.397
 3819SOL    HW112356   5.220   5.099   0.410
 3819SOL    HW212357   5.266   5.247   0.463
 3820SOL     OW12358   4.835   5.778   3.652
 3820SOL    HW112359   4.884   5.790   3.566
 3820SOL    HW212360   4.889   5.818   3.726
 3821SOL     OW12361   1.291   3.608   1.614
 3821SOL    HW112362   1.305   3.513   1.585
 3821SOL    HW212363   1.353   3.668   1.564
 3822SOL     OW12364   2.458   4.970   1.352
 3822SOL    HW112365   2.429   5.009   1.264
 3822SOL    HW212366   2.521   4.895   1.336
 3823SOL     OW12367   3.629   2.628   5.877
 3823SOL    HW112368   3.704   2.680   5.836
 3823SOL    HW212369   3.542   2.671   5.852
 3824SOL     OW12370   6.104   1.816   5.700
 3824SOL    HW112371   6.024   1.799   5.643
 3824SOL    HW212372   6.134   1.731   5.742
 3825SOL     OW12373   0.432   6.488   5.738
 3825SOL    HW112374   0.365   6.475   5.665
 3825SOL    HW212375   0.497   6.560   5.712
 3826SOL     OW12376   6.625   3.387   1.819
 3826SOL    HW112377   6.598   3.354   1.729
 3826SOL    HW212378   6.724   3.383   1.829
 3827SOL     OW12379   3.797   3.329   0.620
 3827SOL    HW112380   3.707   3.304   0.655
 3827SOL    HW212381   3.856   3.357   0.696
 3828SOL     OW12382   4.630   2.282   2.097
 3828SOL    HW112383   4.620   2.346   2.022
 3828SOL    HW212384   4.712   2.303   2.150
 3829SOL     OW12385   2.625   5.492   3.722
 3829SOL    HW112386   2.580   5.406   3.699
 3829SOL    HW212387   2.714   5.496   3.678
 3830SOL     OW12388   2.504   0.551   4.795
 3830SOL    HW112389   2.547   0.572   4.707
 3830SOL    HW212390   2.410   0.586   4.795
 3831SOL     OW12391   4.214   1.698   2.841
 3831SOL    HW112392   4.151   1.759   2.792
 3831SOL    HW212393   4.308   1.715   2.811
 3832SOL     OW12394   6.493   0.772   1.739
 3832SOL    HW112395   6.510   0.788   1.641
 3832SOL    HW212396   6.504   0.675   1.759
 3833SOL     OW12397   0.876   5.176   0.277
 3833SOL    HW112398   0.817   5.226   0.213
 3833SOL    HW212399   0.963   5.225   0.286
 3834SOL     OW12400   3.128   1.648   0.814
 3834SOL    HW112401   3.202   1.646   0.747
 3834SOL    HW212402   3.113   1.556   0.850
 3835SOL     OW12403   3.830   5.552   5.901
 3835SOL    HW112404   3.892   5.476   5.881
 3835SOL    HW212405   3.743   5.516   5.935
 3836SOL     OW12406   1.354   3.580   6.286
 3836SOL    HW112407   1.454   3.582   6.279
 3836SOL    HW212408   1.318   3.672   6.277
 3837SOL     OW12409   4.031   3.595   0.394
 3837SOL    HW112410   4.110   3.637   0.347
 3837SOL    HW212411   4.054   3.579   0.490
 3838SOL     OW12412   6.065   2.290   4.334
 3838SOL    HW112413   6.100   2.367   4.389
 3838SOL    HW212414   6.070   2.206   4.388
 3839SOL     OW12415   5.720   6.180   5.744
 3839SOL    HW112416   5.665   6.206   5.823
 3839SOL    HW212417   5.773   6.260   5.713
 3840SOL     OW12418   1.688   1.588   3.537
 3840SOL    HW112419   1.639   1.519   3.486
 3840SOL    HW212420   1.637   1.612   3.620
 3841SOL     OW12421   0.948   3.741   5.087
 3841SOL    HW112422   0.987   3.755   4.996
 3841SOL    HW212423   0.951   3.644   5.111
 3842SOL     OW12424   0.918   4.984   6.939
 3842SOL    HW112425   0.967   4.981   0.008
 3842SOL    HW212426   0.975   5.028   6.870
 3843SOL     OW12427   5.870   3.182   0.795
 3843SOL    HW112428   5.778   3.176   0.756
 3843SOL    HW212429   5.921   3.099   0.772
 3844SOL     OW12430   2.009   4.818   6.292
 3844SOL    HW112431   1.937   4.819   6.362
 3844SOL    HW212432   2.049   4.910   6.285
 3845SOL     OW12433   3.510   3.910   3.163
 3845SOL    HW112434   3.492   3.996   3.115
 3845SOL    HW212435   3.432   3.888   3.223
 3846SOL     OW12436   0.439   4.984   4.455
 3846SOL    HW112437   0.459   5.007   4.550
 3846SOL    HW212438   0.506   5.028   4.395
 3847SOL     OW12439   0.426   0.313   5.950
 3847SOL    HW112440   0.519   0.350   5.946
 3847SOL    HW212441   0.387   0.331   6.041
 3848SOL     OW12442   2.515   4.752   1.081
 3848SOL    HW112443   2.614   4.754   1.091
 3848SOL    HW212444   2.480   4.663   1.111
 3849SOL     OW12445   0.971   1.992   5.562
 3849SOL    HW112446   0.893   2.045   5.527
 3849SOL    HW212447   0.939   1.905   5.598
 3850SOL     OW12448   3.390   4.121   1.927
 3850SOL    HW112449   3.352   4.113   1.835
 3850SOL    HW212450   3.462   4.191   1.928
 3851SOL     OW12451   2.141   3.252   2.749
 3851SOL    HW112452   2.189   3.216   2.829
 3851SOL    HW212453   2.162   3.350   2.739
 3852SOL     OW12454   4.188   1.039   4.794
 3852SOL    HW112455   4.269   1.079   4.836
 3852SOL    HW212456   4.190   0.940   4.805
 3853SOL     OW12457   0.950   3.674   2.020
 3853SOL    HW112458   0.985   3.627   1.939
 3853SOL    HW212459   1.007   3.753   2.040
 3854SOL     OW12460   0.894   3.622   4.296
 3854SOL    HW112461   0.827   3.649   4.227
 3854SOL    HW212462   0.928   3.530   4.276
 3855SOL     OW12463   6.219   3.270   5.835
 3855SOL    HW112464   6.291   3.339   5.827
 3855SOL    HW212465   6.162   3.272   5.753
 3856SOL     OW12466   0.237   6.044   6.090
 3856SOL    HW112467   0.334   6.036   6.110
 3856SOL    HW212468   0.223   6.116   6.022
 3857SOL     OW12469   1.213   6.562   4.404
 3857SOL    HW112470   1.145   6.600   4.467
 3857SOL    HW212471   1.169   6.494   4.346
 3858SOL     OW12472   2.564   6.077   6.480
 3858SOL    HW112473   2.592   5.990   6.521
 3858SOL    HW212474   2.569   6.149   6.549
 3859SOL     OW12475   0.406   3.430   2.328
 3859SOL    HW112476   0.476   3.368   2.365
 3859SOL    HW212477   0.421   3.522   2.364
 3860SOL     OW12478   2.432   6.677   5.758
 3860SOL    HW112479   2.378   6.663   5.675
 3860SOL    HW212480   2.504   6.608   5.762
 3861SOL     OW12481   4.688   4.563   0.798
 3861SOL    HW112482   4.628   4.490   0.766
 3861SOL    HW212483   4.747   4.592   0.723
 3862SOL     OW12484   1.098   5.983   5.868
 3862SOL    HW112485   1.177   5.925   5.843
 3862SOL    HW212486   1.065   6.031   5.787
 3863SOL     OW12487   3.309   3.794   1.447
 3863SOL    HW112488   3.222   3.806   1.495
 3863SOL    HW212489   3.337   3.881   1.406
 3864SOL     OW12490   2.764   2.093   0.315
 3864SOL    HW112491   2.839   2.088   0.381
 3864SOL    HW212492   2.758   2.007   0.264
 3865SOL     OW12493   4.789   0.491   2.239
 3865SOL    HW112494   4.832   0.426   2.177
 3865SOL    HW212495   4.755   0.569   2.187
 3866SOL     OW12496   3.674   6.868   6.672
 3866SOL    HW112497   3.704   6.952   6.628
 3866SOL    HW212498   3.659   6.798   6.602
 3867SOL     OW12499   2.088   3.383   3.032
 3867SOL    HW112500   2.080   3.478   3.062
 3867SOL    HW212501   2.031   3.368   2.951
 3868SOL     OW12502   2.098   6.361   3.072
 3868SOL    HW112503   2.109   6.423   2.995
 3868SOL    HW212504   2.188   6.337   3.109
 3869SOL     OW12505   1.033   3.091   3.109
 3869SOL    HW112506   1.040   3.129   3.017
 3869SOL    HW212507   0.990   3.157   3.170
 3870SOL     OW12508   2.569   4.684   0.048
 3870SOL    HW112509   2.559   4.595   0.003
 3870SOL    HW212510   2.662   4.718   0.033
 3871SOL     OW12511   2.344   0.487   3.364
 3871SOL    HW112512   2.326   0.392   3.338
 3871SOL    HW212513   2.362   0.542   3.283
 3872SOL     OW12514   3.941   4.153   0.699
 3872SOL    HW112515   3.884   4.086   0.650
 3872SOL    HW212516   3.958   4.121   0.792
 3873SOL     OW12517   5.358   4.588   2.590
 3873SOL    HW112518   5.390   4.671   2.544
 3873SOL    HW212519   5.411   4.509   2.559
 3874SOL     OW12520   4.535   0.757   6.247
 3874SOL    HW112521   4.577   0.672   6.213
 3874SOL    HW212522   4.586   0.789   6.327
 3875SOL     OW12523   1.454   5.210   1.088
 3875SOL    HW112524   1.409   5.244   1.005
 3875SOL    HW212525   1.415   5.121   1.113
 3876SOL     OW12526   4.973   3.637   3.368
 3876SOL    HW112527   4.944   3.598   3.281
 3876SOL    HW212528   5.051   3.585   3.404
 3877SOL     OW12529   6.285   0.986   2.451
 3877SOL    HW112530   6.220   0.939   2.510
 3877SOL    HW212531   6.257   0.978   2.355
 3878SOL     OW12532   3.086   6.454   5.896
 3878SOL    HW112533   3.163   6.394   5.875
 3878SOL    HW212534   3.084   6.530   5.831
 3879SOL     OW12535   3.786   5.996   1.759
 3879SOL    HW112536   3.696   6.004   1.716
 3879SOL    HW212537   3.781   6.028   1.853
 3880SOL     OW12538   5.062   3.017   4.047
 3880SOL    HW112539   4.974   3.004   4.002
 3880SOL    HW212540   5.079   2.940   4.109
 3881SOL     OW12541   1.851   3.472   0.475
 3881SOL    HW112542   1.813   3.463   0.567
 3881SOL    HW212543   1.805   3.408   0.413
 3882SOL     OW12544   0.403   0.530   5.607
 3882SOL    HW112545   0.375   0.575   5.522
 3882SOL    HW212546   0.369   0.436   5.607
 3883SOL     OW12547   3.675   0.622   6.044
 3883SOL    HW112548   3.764   0.633   5.999
 3883SOL    HW212549   3.613   0.574   5.982
 3884SOL     OW12550   1.712   4.884   6.109
 3884SOL    HW112551   1.617   4.891   6.079
 3884SOL    HW212552   1.772   4.923   6.039
 3885SOL     OW12553   6.599   1.071   4.231
 3885SOL    HW112554   6.647   1.120   4.158
 3885SOL    HW212555   6.543   0.999   4.191
 3886SOL     OW12556   6.950   6.135   5.703
 3886SOL    HW112557   6.993   6.192   5.773
 3886SOL    HW212558   6.964   6.039   5.725
 3887SOL     OW12559   4.418   2.474   5.956
 3887SOL    HW112560   4.373   2.541   6.016
 3887SOL    HW212561   4.379   2.481   5.864
 3888SOL     OW12562   6.256   2.002   0.709
 3888SOL    HW112563   6.322   2.076   0.697
 3888SOL    HW212564   6.225   1.971   0.619
 3889SOL     OW12565   0.720   6.219   6.229
 3889SOL    HW112566   0.774   6.218   6.145
 3889SOL    HW212567   0.702   6.125   6.257
 3890SOL     OW12568   5.562   4.107   3.108
 3890SOL    HW112569   5.489   4.089   3.173
 3890SOL    HW212570   5.593   4.020   3.068
 3891SOL     OW12571   5.298   4.749   5.735
 3891SOL    HW112572   5.311   4.846   5.756
 3891SOL    HW212573   5.384   4.709   5.704
 3892SOL     OW12574   4.933   6.573   3.025
 3892SOL    HW112575   4.955   6.642   3.095
 3892SOL    HW212576   4.882   6.498   3.066
 3893SOL     OW12577   2.821   6.055   3.952
 3893SOL    HW112578   2.866   6.143   3.933
 3893SOL    HW212579   2.886   5.981   3.940
 3894SOL     OW12580   5.228   4.227   0.014
 3894SOL    HW112581   5.315   4.196   6.993
 3894SOL    HW212582   5.176   4.148   0.046
 3895SOL     OW12583   2.606   2.131   5.521
 3895SOL    HW112584   2.578   2.222   5.491
 3895SOL    HW212585   2.647   2.137   5.612
 3896SOL     OW12586   6.541   2.623   5.835
 3896SOL    HW112587   6.571   2.718   5.840
 3896SOL    HW212588   6.541   2.583   5.926
 3897SOL     OW12589   3.515   6.619   2.174
 3897SOL    HW112590   3.591   6.563   2.143
 3897SOL    HW212591   3.462   6.569   2.243
 3898SOL     OW12592   3.801   4.115   4.214
 3898SOL    HW112593   3.825   4.207   4.246
 3898SOL    HW212594   3.702   4.105   4.214
 3899SOL     OW12595   4.711   1.834   4.928
 3899SOL    HW112596   4.800   1.792   4.949
 3899SOL    HW212597   4.684   1.894   5.004
 3900SOL     OW12598   6.665   2.620   3.719
 3900SOL    HW112599   6.709   2.660   3.638
 3900SOL    HW212600   6.732   2.565   3.769
 3901SOL     OW12601   2.156   5.868   4.960
 3901SOL    HW112602   2.166   5.775   4.925
 3901SOL    HW212603   2.247   5.906   4.977
 3902SOL     OW12604   4.481   5.031   1.276
 3902SOL    HW112605   4.558   5.054   1.334
 3902SOL    HW212606   4.456   4.935   1.289
 3903SOL     OW12607   4.078   2.908   5.817
 3903SOL    HW112608   4.138   2.930   5.894
 3903SOL    HW212609   4.131   2.866   5.744
 3904SOL     OW12610   2.340   6.300   1.241
 3904SOL    HW112611   2.300   6.236   1.175
 3904SOL    HW212612   2.370   6.250   1.322
 3905SOL     OW12613   0.319   0.417   5.107
 3905SOL    HW112614   0.402   0.373   5.071
 3905SOL    HW212615   0.284   0.482   5.039
 3906SOL     OW12616   0.083   5.715   4.725
 3906SOL    HW112617   0.065   5.618   4.744
 3906SOL    HW212618   0.029   5.772   4.788
 3907SOL     OW12619   0.711   1.050   4.518
 3907SOL    HW112620   0.764   0.972   4.484
 3907SOL    HW212621   0.638   1.018   4.577
 3908SOL     OW12622   1.611   0.096   4.576
 3908SOL    HW112623   1.538   0.119   4.511
 3908SOL    HW212624   1.572   0.085   4.667
 3909SOL     OW12625   6.011   2.144   0.373
 3909SOL    HW112626   6.098   2.181   0.407
 3909SOL    HW212627   5.990   2.185   0.285
 3910SOL     OW12628   3.667   2.656   0.745
 3910SOL    HW112629   3.634   2.632   0.654
 3910SOL    HW212630   3.719   2.742   0.741
 3911SOL     OW12631   6.985   1.132   0.872
 3911SOL    HW112632   0.023   1.185   0.936
 3911SOL    HW212633   6.894   1.119   0.911
 3912SOL     OW12634   3.664   2.314   0.283
 3912SOL    HW112635   3.611   2.303   0.199
 3912SOL    HW212636   3.620   2.262   0.357
 3913SOL     OW12637   4.906   5.494   1.600
 3913SOL    HW112638   4.942   5.492   1.507
 3913SOL    HW212639   4.807   5.483   1.597
 3914SOL     OW12640   0.133   1.109   0.390
 3914SOL    HW112641   0.087   1.058   0.317
 3914SOL    HW212642   0.068   1.124   0.465
 3915SOL     OW12643   4.569   5.879   5.993
 3915SOL    HW112644   4.547   5.879   5.896
 3915SOL    HW212645   4.504   5.821   6.042
 3916SOL     OW12646   2.613   1.841   2.701
 3916SOL    HW112647   2.573   1.920   2.655
 3916SOL    HW212648   2.708   1.860   2.723
 3917SOL     OW12649   3.595   4.403   1.455
 3917SOL    HW112650   3.583   4.304   1.464
 3917SOL    HW212651   3.510   4.449   1.480
 3918SOL     OW12652   5.635   0.887   0.560
 3918SOL    HW112653   5.562   0.910   0.495
 3918SOL    HW212654   5.637   0.955   0.633
 3919SOL     OW12655   3.954   6.578   2.374
 3919SOL    HW112656   3.912   6.669   2.366
 3919SOL    HW212657   4.000   6.570   2.462
 3920SOL     OW12658   3.028   1.600   5.448
 3920SOL    HW112659   3.038   1.581   5.350
 3920SOL    HW212660   2.953   1.664   5.463
 3921SOL     OW12661   0.146   3.149   6.393
 3921SOL    HW112662   0.146   3.247   6.415
 3921SOL    HW212663   0.229   3.107   6.430
 3922SOL     OW12664   4.619   4.339   3.037
 3922SOL    HW112665   4.624   4.244   3.004
 3922SOL    HW212666   4.660   4.344   3.128
 3923SOL     OW12667   5.441   1.214   1.347
 3923SOL    HW112668   5.469   1.236   1.440
 3923SOL    HW212669   5.521   1.206   1.288
 3924SOL     OW12670   5.622   5.522   4.076
 3924SOL    HW112671   5.624   5.622   4.070
 3924SOL    HW212672   5.562   5.495   4.151
 3925SOL     OW12673   5.324   3.870   0.632
 3925SOL    HW112674   5.418   3.902   0.647
 3925SOL    HW212675   5.260   3.932   0.678
 3926SOL     OW12676   0.175   5.778   6.073
 3926SOL    HW112677   0.186   5.874   6.047
 3926SOL    HW212678   0.150   5.724   5.992
 3927SOL     OW12679   5.503   2.069   5.915
 3927SOL    HW112680   5.598   2.047   5.894
 3927SOL    HW212681   5.471   2.141   5.853
 3928SOL     OW12682   3.475   5.982   1.954
 3928SOL    HW112683   3.559   5.933   1.933
 3928SOL    HW212684   3.433   5.941   2.036
 3929SOL     OW12685   0.538   2.499   5.130
 3929SOL    HW112686   0.609   2.461   5.190
 3929SOL    HW212687   0.480   2.425   5.096
 3930SOL     OW12688   2.075   4.583   4.034
 3930SOL    HW112689   2.041   4.489   4.043
 3930SOL    HW212690   2.094   4.602   3.937
 3931SOL     OW12691   2.021   2.236   1.556
 3931SOL    HW112692   1.939   2.223   1.502
 3931SOL    HW212693   2.004   2.305   1.627
 3932SOL     OW12694   2.458   4.721   3.834
 3932SOL    HW112695   2.406   4.674   3.762
 3932SOL    HW212696   2.422   4.695   3.923
 3933SOL     OW12697   2.179   5.868   1.293
 3933SOL    HW112698   2.116   5.916   1.354
 3933SOL    HW212699   2.128   5.828   1.217
 3934SOL     OW12700   0.235   0.784   1.754
 3934SOL    HW112701   0.243   0.685   1.739
 3934SOL    HW212702   0.138   0.810   1.752
 3935SOL     OW12703   6.306   3.778   6.403
 3935SOL    HW112704   6.317   3.767   6.304
 3935SOL    HW212705   6.300   3.875   6.426
 3936SOL     OW12706   6.697   4.635   5.469
 3936SOL    HW112707   6.790   4.665   5.447
 3936SOL    HW212708   6.701   4.567   5.543
 3937SOL     OW12709   0.020   5.968   1.553
 3937SOL    HW112710   0.029   5.945   1.650
 3937SOL    HW212711   0.097   6.026   1.526
 3938SOL     OW12712   1.149   3.328   1.965
 3938SOL    HW112713   1.075   3.274   2.004
 3938SOL    HW212714   1.111   3.400   1.907
 3939SOL     OW12715   0.845   1.229   2.864
 3939SOL    HW112716   0.848   1.208   2.766
 3939SOL    HW212717   0.937   1.224   2.902
 3940SOL     OW12718   3.238   5.715   0.889
 3940SOL    HW112719   3.178   5.673   0.821
 3940SOL    HW212720   3.237   5.814   0.877
 3941SOL     OW12721   5.643   6.073   2.889
 3941SOL    HW112722   5.556   6.075   2.938
 3941SOL    HW212723   5.718   6.082   2.955
 3942SOL     OW12724   0.043   5.715   5.439
 3942SOL    HW112725   6.969   5.682   5.422
 3942SOL    HW212726   0.106   5.637   5.443
 3943SOL     OW12727   1.383   2.779   0.240
 3943SOL    HW112728   1.417   2.809   0.329
 3943SOL    HW212729   1.435   2.824   0.167
 3944SOL     OW12730   5.461   3.185   6.720
 3944SOL    HW112731   5.423   3.277   6.731
 3944SOL    HW212732   5.441   3.152   6.628
 3945SOL     OW12733   5.683   0.625   3.468
 3945SOL    HW112734   5.697   0.531   3.499
 3945SOL    HW212735   5.634   0.676   3.538
 3946SOL     OW12736   0.860   3.104   0.453
 3946SOL    HW112737   0.900   3.070   0.538
 3946SOL    HW212738   0.776   3.154   0.473
 3947SOL     OW12739   6.025   5.270   2.022
 3947SOL    HW112740   6.067   5.266   1.931
 3947SOL    HW212741   5.926   5.281   2.011
 3948SOL     OW12742   1.386   2.656   6.117
 3948SOL    HW112743   1.454   2.614   6.058
 3948SOL    HW212744   1.333   2.722   6.064
 3949SOL     OW12745   6.439   0.226   1.202
 3949SOL    HW112746   6.383   0.177   1.135
 3949SOL    HW212747   6.479   0.161   1.266
 3950SOL     OW12748   3.164   4.556   1.737
 3950SOL    HW112749   3.088   4.507   1.779
 3950SOL    HW212750   3.172   4.647   1.778
 3951SOL     OW12751   1.080   2.371   4.541
 3951SOL    HW112752   1.090   2.408   4.633
 3951SOL    HW212753   1.095   2.272   4.543
 3952SOL     OW12754   5.665   3.864   6.970
 3952SOL    HW112755   5.690   3.864   6.874
 3952SOL    HW212756   5.739   3.906   0.005
 3953SOL     OW12757   3.064   3.680   6.516
 3953SOL    HW112758   3.103   3.678   6.608
 3953SOL    HW212759   3.057   3.775   6.486
 3954SOL     OW12760   0.479   2.782   5.410
 3954SOL    HW112761   0.430   2.741   5.333
 3954SOL    HW212762   0.571   2.743   5.416
 3955SOL     OW12763   0.560   3.918   0.390
 3955SOL    HW112764   0.533   3.898   0.296
 3955SOL    HW212765   0.479   3.918   0.449
 3956SOL     OW12766   0.076   3.085   5.652
 3956SOL    HW112767   7.011   3.136   5.675
 3956SOL    HW212768   0.070   2.993   5.689
 3957SOL     OW12769   0.712   2.073   3.151
 3957SOL    HW112770   0.669   2.037   3.068
 3957SOL    HW212771   0.734   1.997   3.213
 3958SOL     OW12772   5.751   6.278   6.997
 3958SOL    HW112773   5.776   6.289   0.074
 3958SOL    HW212774   5.827   6.307   6.939
 3959SOL     OW12775   2.613   5.135   0.645
 3959SOL    HW112776   2.647   5.066   0.709
 3959SOL    HW212777   2.556   5.201   0.694
 3960SOL     OW12778   4.964   3.477   0.825
 3960SOL    HW112779   5.019   3.490   0.908
 3960SOL    HW212780   4.987   3.548   0.758
 3961SOL     OW12781   5.617   0.635   2.145
 3961SOL    HW112782   5.566   0.565   2.195
 3961SOL    HW212783   5.566   0.721   2.147
 3962SOL     OW12784   0.847   6.634   5.771
 3962SOL    HW112785   0.765   6.664   5.721
 3962SOL    HW212786   0.853   6.684   5.858
 3963SOL     OW12787   4.454   5.658   3.463
 3963SOL    HW112788   4.472   5.751   3.433
 3963SOL    HW212789   4.372   5.656   3.520
 3964SOL     OW12790   5.478   6.441   5.766
 3964SOL    HW112791   5.444   6.404   5.679
 3964SOL    HW212792   5.515   6.367   5.822
 3965SOL     OW12793   4.067   2.887   0.296
 3965SOL    HW112794   4.065   2.918   0.391
 3965SOL    HW212795   4.002   2.940   0.243
 3966SOL     OW12796   6.144   3.707   5.204
 3966SOL    HW112797   6.189   3.733   5.289
 3966SOL    HW212798   6.047   3.731   5.209
 3967SOL     OW12799   1.503   5.998   6.616
 3967SOL    HW112800   1.515   5.908   6.575
 3967SOL    HW212801   1.514   5.991   6.715
 3968SOL     OW12802   5.879   0.245   1.545
 3968SOL    HW112803   5.875   0.340   1.513
 3968SOL    HW212804   5.867   0.183   1.468
 3969SOL     OW12805   0.468   5.911   1.884
 3969SOL    HW112806   0.534   5.893   1.957
 3969SOL    HW212807   0.504   5.874   1.798
 3970SOL     OW12808   4.983   4.600   4.106
 3970SOL    HW112809   5.008   4.559   4.194
 3970SOL    HW212810   4.956   4.695   4.120
 3971SOL     OW12811   1.912   6.143   3.916
 3971SOL    HW112812   1.839   6.186   3.970
 3971SOL    HW212813   1.938   6.204   3.840
 3972SOL     OW12814   1.232   0.201   0.567
 3972SOL    HW112815   1.146   0.251   0.552
 3972SOL    HW212816   1.277   0.237   0.648
 3973SOL     OW12817   3.539   2.851   2.890
 3973SOL    HW112818   3.460   2.842   2.950
 3973SOL    HW212819   3.577   2.943   2.897
 3974SOL     OW12820   6.124   0.410   6.005
 3974SOL    HW112821   6.112   0.503   6.038
 3974SOL    HW212822   6.073   0.399   5.919
 3975SOL     OW12823   6.604   6.619   5.729
 3975SOL    HW112824   6.527   6.635   5.791
 3975SOL    HW212825   6.676   6.570   5.776
 3976SOL     OW12826   1.059   3.118   6.461
 3976SOL    HW112827   1.085   3.054   6.533
 3976SOL    HW212828   1.130   3.188   6.452
 3977SOL     OW12829   4.377   6.595   6.302
 3977SOL    HW112830   4.441   6.560   6.370
 3977SOL    HW212831   4.286   6.601   6.342
 3978SOL     OW12832   6.069   3.401   6.803
 3978SOL    HW112833   6.059   3.492   6.844
 3978SOL    HW212834   5.995   3.342   6.835
 3979SOL     OW12835   1.206   6.813   3.209
 3979SOL    HW112836   1.136   6.822   3.139
 3979SOL    HW212837   1.210   6.718   3.240
 3980SOL     OW12838   4.901   3.587   4.791
 3980SOL    HW112839   4.998   3.567   4.803
 3980SOL    HW212840   4.863   3.624   4.876
 3981SOL     OW12841   6.094   1.743   5.341
 3981SOL    HW112842   6.050   1.658   5.313
 3981SOL    HW212843   6.054   1.775   5.427
 3982SOL     OW12844   3.329   1.805   4.035
 3982SOL    HW112845   3.342   1.712   3.999
 3982SOL    HW212846   3.418   1.846   4.055
 3983SOL     OW12847   3.597   6.676   3.805
 3983SOL    HW112848   3.581   6.759   3.752
 3983SOL    HW212849   3.587   6.596   3.745
 3984SOL     OW12850   1.528   6.821   1.804
 3984SOL    HW112851   1.544   6.851   1.898
 3984SOL    HW212852   1.606   6.847   1.747
 3985SOL     OW12853   1.587   3.474   1.825
 3985SOL    HW112854   1.493   3.441   1.817
 3985SOL    HW212855   1.599   3.554   1.766
 3986SOL     OW12856   1.315   2.915   2.052
 3986SOL    HW112857   1.394   2.865   2.086
 3986SOL    HW212858   1.308   3.003   2.100
 3987SOL     OW12859   2.510   4.787   6.340
 3987SOL    HW112860   2.553   4.780   6.250
 3987SOL    HW212861   2.579   4.776   6.411
 3988SOL     OW12862   4.317   2.040   0.058
 3988SOL    HW112863   4.260   2.118   0.033
 3988SOL    HW212864   4.315   1.973   7.002
 3989SOL     OW12865   4.299   1.074   6.475
 3989SOL    HW112866   4.366   1.002   6.491
 3989SOL    HW212867   4.275   1.117   6.561
 3990SOL     OW12868   1.060   3.089   3.462
 3990SOL    HW112869   1.052   3.080   3.363
 3990SOL    HW212870   1.023   3.178   3.491
 3991SOL     OW12871   6.835   1.314   4.323
 3991SOL    HW112872   6.783   1.229   4.318
 3991SOL    HW212873   6.782   1.382   4.373
 3992SOL     OW12874   5.177   4.123   5.988
 3992SOL    HW112875   5.228   4.105   6.072
 3992SOL    HW212876   5.233   4.098   5.909
 3993SOL     OW12877   1.681   1.240   3.040
 3993SOL    HW112878   1.721   1.293   2.965
 3993SOL    HW212879   1.717   1.273   3.127
 3994SOL     OW12880   2.389   2.079   3.875
 3994SOL    HW112881   2.349   1.993   3.906
 3994SOL    HW212882   2.484   2.085   3.907
 3995SOL     OW12883   1.599   3.777   2.001
 3995SOL    HW112884   1.605   3.709   2.074
 3995SOL    HW212885   1.690   3.797   1.966
 3996SOL     OW12886   5.601   6.981   3.246
 3996SOL    HW112887   5.533   0.019   3.293
 3996SOL    HW212888   5.565   6.953   3.157
 3997SOL     OW12889   5.718   3.888   2.996
 3997SOL    HW112890   5.762   3.930   2.917
 3997SOL    HW212891   5.686   3.796   2.971
 3998SOL     OW12892   5.829   2.462   3.132
 3998SOL    HW112893   5.811   2.391   3.199
 3998SOL    HW212894   5.796   2.432   3.042
 3999SOL     OW12895   5.119   2.602   1.453
 3999SOL    HW112896   5.120   2.559   1.363
 3999SOL    HW212897   5.192   2.670   1.458
 4000SOL     OW12898   3.321   5.487   2.076
 4000SOL    HW112899   3.361   5.487   2.167
 4000SOL    HW212900   3.389   5.458   2.009
 4001SOL     OW12901   2.192   4.499   4.577
 4001SOL    HW112902   2.173   4.525   4.483
 4001SOL    HW212903   2.155   4.407   4.595
 4002SOL     OW12904   3.478   4.102   3.479
 4002SOL    HW112905   3.573   4.070   3.485
 4002SOL    HW212906   3.431   4.054   3.405
 4003SOL     OW12907   3.131   1.095   5.468
 4003SOL    HW112908   3.135   1.115   5.370
 4003SOL    HW212909   3.074   1.164   5.513
 4004SOL     OW12910   1.010   3.864   3.301
 4004SOL    HW112911   0.935   3.799   3.291
 4004SOL    HW212912   1.028   3.879   3.398
 4005SOL     OW12913   5.208   2.781   0.747
 4005SOL    HW112914   5.288   2.833   0.780
 4005SOL    HW212915   5.184   2.712   0.814
 4006SOL     OW12916   4.618   5.069   3.709
 4006SOL    HW112917   4.577   5.106   3.626
 4006SOL    HW212918   4.718   5.069   3.699
 4007SOL     OW12919   6.948   1.234   3.266
 4007SOL    HW112920   6.994   1.234   3.354
 4007SOL    HW212921   6.890   1.153   3.258
 4008SOL     OW12922   3.327   0.292   0.979
 4008SOL    HW112923   3.270   0.328   0.905
 4008SOL    HW212924   3.411   0.254   0.941
 4009SOL     OW12925   4.820   2.094   0.630
 4009SOL    HW112926   4.828   1.998   0.655
 4009SOL    HW212927   4.730   2.128   0.657
 4010SOL     OW12928   2.456   4.792   1.687
 4010SOL    HW112929   2.403   4.746   1.758
 4010SOL    HW212930   2.550   4.760   1.690
 4011SOL     OW12931   5.282   5.801   6.864
 4011SOL    HW112932   5.353   5.846   6.809
 4011SOL    HW212933   5.304   5.704   6.874
 4012SOL     OW12934   4.428   0.578   2.393
 4012SOL    HW112935   4.437   0.522   2.476
 4012SOL    HW212936   4.417   0.518   2.314
 4013SOL     OW12937   0.068   1.219   6.504
 4013SOL    HW112938   0.051   1.148   6.436
 4013SOL    HW212939   0.126   1.182   6.577
 4014SOL     OW12940   2.804   5.133   2.058
 4014SOL    HW112941   2.830   5.099   1.968
 4014SOL    HW212942   2.730   5.201   2.049
 4015SOL     OW12943   4.018   4.423   6.225
 4015SOL    HW112944   4.088   4.356   6.198
 4015SOL    HW212945   3.943   4.421   6.159
 4016SOL     OW12946   4.203   5.385   5.635
 4016SOL    HW112947   4.114   5.359   5.673
 4016SOL    HW212948   4.267   5.404   5.709
 4017SOL     OW12949   0.572   5.064   6.226
 4017SOL    HW112950   0.587   5.037   6.321
 4017SOL    HW212951   0.564   4.983   6.168
 4018SOL     OW12952   4.552   6.391   1.977
 4018SOL    HW112953   4.611   6.315   2.005
 4018SOL    HW212954   4.597   6.478   1.999
 4019SOL     OW12955   5.219   3.505   3.413
 4019SOL    HW112956   5.213   3.406   3.400
 4019SOL    HW212957   5.300   3.540   3.365
 4020SOL     OW12958   6.265   5.043   3.798
 4020SOL    HW112959   6.236   4.958   3.753
 4020SOL    HW212960   6.280   5.114   3.729
 4021SOL     OW12961   3.925   3.488   5.934
 4021SOL    HW112962   3.920   3.388   5.938
 4021SOL    HW212963   3.913   3.526   6.025
 4022SOL     OW12964   2.529   0.840   1.497
 4022SOL    HW112965   2.510   0.826   1.400
 4022SOL    HW212966   2.627   0.853   1.510
 4023SOL     OW12967   0.822   2.030   5.202
 4023SOL    HW112968   0.872   2.116   5.215
 4023SOL    HW212969   0.769   2.034   5.117
 4024SOL     OW12970   0.452   5.486   4.649
 4024SOL    HW112971   0.358   5.464   4.624
 4024SOL    HW212972   0.482   5.566   4.597
 4025SOL     OW12973   0.543   5.673   3.991
 4025SOL    HW112974   0.521   5.603   4.059
 4025SOL    HW212975   0.641   5.693   3.996
 4026SOL     OW12976   6.596   6.275   3.634
 4026SOL    HW112977   6.680   6.232   3.667
 4026SOL    HW212978   6.520   6.248   3.692
 4027SOL     OW12979   2.795   4.198   5.684
 4027SOL    HW112980   2.709   4.147   5.678
 4027SOL    HW212981   2.871   4.134   5.694
 4028SOL     OW12982   4.850   1.718   2.710
 4028SOL    HW112983   4.804   1.793   2.664
 4028SOL    HW212984   4.794   1.685   2.786
 4029SOL     OW12985   2.264   5.487   6.452
 4029SOL    HW112986   2.253   5.393   6.421
 4029SOL    HW212987   2.184   5.541   6.424
 4030SOL     OW12988   0.245   1.086   2.499
 4030SOL    HW112989   0.168   1.142   2.467
 4030SOL    HW212990   0.276   1.121   2.588
 4031SOL     OW12991   5.524   6.803   1.047
 4031SOL    HW112992   5.488   6.846   0.964
 4031SOL    HW212993   5.479   6.842   1.127
 4032SOL     OW12994   5.728   0.502   1.429
 4032SOL    HW112995   5.746   0.439   1.354
 4032SOL    HW212996   5.785   0.583   1.419
 4033SOL     OW12997   2.276   2.693   2.717
 4033SOL    HW112998   2.268   2.597   2.745
 4033SOL    HW212999   2.294   2.749   2.797
 4034SOL     OW13000   0.170   3.095   5.114
 4034SOL    HW113001   0.094   3.044   5.073
 4034SOL    HW213002   0.155   3.193   5.101
 4035SOL     OW13003   5.563   1.850   1.555
 4035SOL    HW113004   5.591   1.788   1.628
 4035SOL    HW213005   5.541   1.798   1.473
 4036SOL     OW13006   2.610   5.691   3.405
 4036SOL    HW113007   2.542   5.618   3.407
 4036SOL    HW213008   2.570   5.775   3.440
 4037SOL     OW13009   2.219   0.748   6.139
 4037SOL    HW113010   2.304   0.782   6.098
 4037SOL    HW213011   2.167   0.824   6.177
 4038SOL     OW13012   3.373   4.074   5.839
 4038SOL    HW113013   3.397   3.978   5.851
 4038SOL    HW213014   3.410   4.107   5.752
 4039SOL     OW13015   6.102   4.870   1.637
 4039SOL    HW113016   6.077   4.797   1.574
 4039SOL    HW213017   6.019   4.914   1.671
 4040SOL     OW13018   3.399   5.309   5.276
 4040SOL    HW113019   3.311   5.266   5.254
 4040SOL    HW213020   3.447   5.252   5.342
 4041SOL     OW13021   2.416   6.133   0.897
 4041SOL    HW113022   2.497   6.117   0.954
 4041SOL    HW213023   2.334   6.125   0.953
 4042SOL     OW13024   6.037   0.642   3.835
 4042SOL    HW113025   5.986   0.726   3.820
 4042SOL    HW213026   6.127   0.650   3.791
 4043SOL     OW13027   5.311   3.613   6.376
 4043SOL    HW113028   5.395   3.564   6.399
 4043SOL    HW213029   5.320   3.655   6.286
 4044SOL     OW13030   3.807   5.244   3.427
 4044SOL    HW113031   3.824   5.159   3.378
 4044SOL    HW213032   3.882   5.308   3.410
 4045SOL     OW13033   5.200   6.963   5.341
 4045SOL    HW113034   5.179   6.957   5.243
 4045SOL    HW213035   5.117   6.947   5.394
 4046SOL     OW13036   6.952   1.940   2.847
 4046SOL    HW113037   6.916   1.922   2.939
 4046SOL    HW213038   6.966   1.854   2.799
 4047SOL     OW13039   2.700   3.114   6.766
 4047SOL    HW113040   2.676   3.145   6.674
 4047SOL    HW213041   2.626   3.059   6.803
 4048SOL     OW13042   4.489   1.323   1.980
 4048SOL    HW113043   4.452   1.369   1.900
 4048SOL    HW213044   4.417   1.311   2.048
 4049SOL     OW13045   4.264   5.083   6.508
 4049SOL    HW113046   4.311   5.006   6.465
 4049SOL    HW213047   4.261   5.069   6.607
 4050SOL     OW13048   0.401   5.314   2.641
 4050SOL    HW113049   0.433   5.336   2.733
 4050SOL    HW213050   0.427   5.221   2.618
 4051SOL     OW13051   5.213   1.128   5.874
 4051SOL    HW113052   5.253   1.057   5.816
 4051SOL    HW213053   5.137   1.172   5.826
 4052SOL     OW13054   6.117   2.179   3.797
 4052SOL    HW113055   6.198   2.130   3.829
 4052SOL    HW213056   6.123   2.275   3.824
 4053SOL     OW13057   1.084   5.700   4.734
 4053SOL    HW113058   1.127   5.693   4.644
 4053SOL    HW213059   1.154   5.696   4.806
 4054SOL     OW13060   5.065   4.330   0.806
 4054SOL    HW113061   5.157   4.326   0.844
 4054SOL    HW213062   5.009   4.390   0.864
 4055SOL     OW13063   1.148   3.887   1.602
 4055SOL    HW113064   1.135   3.929   1.512
 4055SOL    HW213065   1.178   3.792   1.590
 4056SOL     OW13066   4.758   3.270   0.769
 4056SOL    HW113067   4.713   3.244   0.854
 4056SOL    HW213068   4.838   3.327   0.790
 4057SOL     OW13069   6.520   3.750   6.665
 4057SOL    HW113070   6.432   3.715   6.633
 4057SOL    HW213071   6.587   3.743   6.591
 4058SOL     OW13072   2.740   6.113   5.464
 4058SOL    HW113073   2.667   6.181   5.449
 4058SOL    HW213074   2.794   6.140   5.543
 4059SOL     OW13075   1.159   1.959   3.795
 4059SOL    HW113076   1.241   2.010   3.771
 4059SOL    HW213077   1.145   1.962   3.894
 4060SOL     OW13078   6.465   5.586   5.239
 4060SOL    HW113079   6.471   5.629   5.149
 4060SOL    HW213080   6.368   5.573   5.262
 4061SOL     OW13081   2.439   5.315   1.724
 4061SOL    HW113082   2.494   5.326   1.642
 4061SOL    HW213083   2.483   5.250   1.785
 4062SOL     OW13084   1.986   1.839   1.745
 4062SOL    HW113085   2.071   1.832   1.694
 4062SOL    HW213086   2.003   1.875   1.836
 4063SOL     OW13087   5.416   1.542   0.612
 4063SOL    HW113088   5.389   1.572   0.521
 4063SOL    HW213089   5.358   1.587   0.681
 4064SOL     OW13090   1.832   1.772   4.628
 4064SOL    HW113091   1.886   1.766   4.711
 4064SOL    HW213092   1.891   1.797   4.551
 4065SOL     OW13093   1.922   6.823   0.380
 4065SOL    HW113094   1.876   6.756   0.438
 4065SOL    HW213095   1.962   6.778   0.300
 4066SOL     OW13096   0.109   4.192   3.529
 4066SOL    HW113097   0.157   4.279   3.527
 4066SOL    HW213098   0.155   4.130   3.593
 4067SOL     OW13099   5.546   4.897   2.349
 4067SOL    HW113100   5.617   4.832   2.376
 4067SOL    HW213101   5.562   4.985   2.394
 4068SOL     OW13102   1.604   2.781   5.408
 4068SOL    HW113103   1.625   2.692   5.449
 4068SOL    HW213104   1.608   2.851   5.478
 4069SOL     OW13105   4.085   0.138   6.678
 4069SOL    HW113106   4.074   0.187   6.591
 4069SOL    HW213107   4.141   0.193   6.740
 4070SOL     OW13108   1.377   2.943   3.084
 4070SOL    HW113109   1.391   2.845   3.090
 4070SOL    HW213110   1.427   2.989   3.157
 4071SOL     OW13111   0.698   0.268   3.918
 4071SOL    HW113112   0.745   0.184   3.888
 4071SOL    HW213113   0.602   0.248   3.933
 4072SOL     OW13114   1.500   5.774   3.558
 4072SOL    HW113115   1.419   5.738   3.605
 4072SOL    HW213116   1.486   5.871   3.538
 4073SOL     OW13117   2.670   5.224   0.226
 4073SOL    HW113118   2.609   5.175   0.289
 4073SOL    HW213119   2.754   5.172   0.212
 4074SOL     OW13120   1.178   5.707   2.617
 4074SOL    HW113121   1.145   5.719   2.711
 4074SOL    HW213122   1.277   5.726   2.614
 4075SOL     OW13123   4.993   0.247   0.488
 4075SOL    HW113124   4.899   0.279   0.476
 4075SOL    HW213125   5.006   0.162   0.437
 4076SOL     OW13126   3.089   3.635   5.527
 4076SOL    HW113127   3.051   3.545   5.504
 4076SOL    HW213128   3.105   3.687   5.443
 4077SOL     OW13129   3.993   1.993   1.802
 4077SOL    HW113130   4.081   1.979   1.848
 4077SOL    HW213131   3.936   1.911   1.813
 4078SOL     OW13132   3.031   4.840   3.001
 4078SOL    HW113133   3.074   4.837   2.911
 4078SOL    HW213134   3.057   4.924   3.048
 4079SOL     OW13135   1.260   2.528   4.149
 4079SOL    HW113136   1.254   2.561   4.054
 4079SOL    HW213137   1.352   2.542   4.183
 4080SOL     OW13138   5.534   1.404   5.115
 4080SOL    HW113139   5.571   1.354   5.193
 4080SOL    HW213140   5.462   1.349   5.072
 4081SOL     OW13141   1.551   3.614   3.217
 4081SOL    HW113142   1.575   3.531   3.167
 4081SOL    HW213143   1.470   3.597   3.273
 4082SOL     OW13144   1.157   3.391   1.137
 4082SOL    HW113145   1.059   3.376   1.125
 4082SOL    HW213146   1.173   3.449   1.217
 4083SOL     OW13147   5.434   2.651   3.875
 4083SOL    HW113148   5.432   2.654   3.975
 4083SOL    HW213149   5.504   2.714   3.841
 4084SOL     OW13150   6.304   1.887   4.572
 4084SOL    HW113151   6.255   1.835   4.501
 4084SOL    HW213152   6.314   1.982   4.542
 4085SOL     OW13153   3.697   5.960   0.278
 4085SOL    HW113154   3.778   5.988   0.330
 4085SOL    HW213155   3.696   5.860   0.270
 4086SOL     OW13156   1.820   5.493   1.307
 4086SOL    HW113157   1.883   5.554   1.356
 4086SOL    HW213158   1.815   5.405   1.356
 4087SOL     OW13159   2.432   2.260   3.250
 4087SOL    HW113160   2.390   2.267   3.341
 4087SOL    HW213161   2.474   2.348   3.227
 4088SOL     OW13162   6.385   1.591   1.406
 4088SOL    HW113163   6.360   1.603   1.502
 4088SOL    HW213164   6.457   1.657   1.383
 4089SOL     OW13165   0.555   1.390   3.874
 4089SOL    HW113166   0.469   1.412   3.919
 4089SOL    HW213167   0.556   1.431   3.783
 4090SOL     OW13168   2.653   4.011   6.241
 4090SOL    HW113169   2.675   4.058   6.156
 4090SOL    HW213170   2.558   3.979   6.238
 4091SOL     OW13171   4.865   6.042   0.457
 4091SOL    HW113172   4.964   6.026   0.462
 4091SOL    HW213173   4.840   6.070   0.364
 4092SOL     OW13174   0.508   3.004   5.179
 4092SOL    HW113175   0.475   2.915   5.149
 4092SOL    HW213176   0.479   3.021   5.273
 4093SOL     OW13177   5.681   0.923   3.243
 4093SOL    HW113178   5.734   0.915   3.328
 4093SOL    HW213179   5.736   0.888   3.166
 4094SOL     OW13180   2.057   4.264   5.380
 4094SOL    HW113181   2.121   4.191   5.354
 4094SOL    HW213182   1.970   4.224   5.408
 4095SOL     OW13183   1.089   3.018   5.861
 4095SOL    HW113184   1.048   3.016   5.770
 4095SOL    HW213185   1.187   3.002   5.854
 4096SOL     OW13186   4.840   5.135   6.839
 4096SOL    HW113187   4.893   5.068   6.787
 4096SOL    HW213188   4.836   5.221   6.788
 4097SOL     OW13189   3.334   3.335   5.965
 4097SOL    HW113190   3.429   3.330   5.933
 4097SOL    HW213191   3.298   3.427   5.948
 4098SOL     OW13192   0.393   2.723   2.910
 4098SOL    HW113193   0.302   2.764   2.920
 4098SOL    HW213194   0.403   2.647   2.974
 4099SOL     OW13195   3.222   6.170   1.819
 4099SOL    HW113196   3.315   6.185   1.854
 4099SOL    HW213197   3.226   6.135   1.726
 4100SOL     OW13198   4.780   6.174   3.553
 4100SOL    HW113199   4.775   6.101   3.485
 4100SOL    HW213200   4.687   6.200   3.581
 4101SOL     OW13201   5.761   1.654   6.111
 4101SOL    HW113202   5.768   1.663   6.211
 4101SOL    HW213203   5.692   1.585   6.089
 4102SOL     OW13204   5.924   0.584   0.823
 4102SOL    HW113205   5.955   0.632   0.905
 4102SOL    HW213206   5.967   0.624   0.742
 4103SOL     OW13207   0.723   1.112   2.165
 4103SOL    HW113208   0.679   1.141   2.250
 4103SOL    HW213209   0.729   1.012   2.164
 4104SOL     OW13210   1.609   4.284   2.541
 4104SOL    HW113211   1.518   4.267   2.506
 4104SOL    HW213212   1.677   4.238   2.484
 4105SOL     OW13213   3.901   5.461   0.514
 4105SOL    HW113214   3.870   5.502   0.428
 4105SOL    HW213215   3.943   5.373   0.495
 4106SOL     OW13216   0.142   3.736   4.824
 4106SOL    HW113217   0.228   3.734   4.773
 4106SOL    HW213218   0.160   3.763   4.919
 4107SOL     OW13219   0.361   6.426   1.457
 4107SOL    HW113220   0.304   6.419   1.538
 4107SOL    HW213221   0.317   6.487   1.391
 4108SOL     OW13222   0.032   4.112   6.613
 4108SOL    HW113223   7.013   4.030   6.657
 4108SOL    HW213224   6.993   4.191   6.636
 4109SOL     OW13225   3.748   6.829   3.978
 4109SOL    HW113226   3.793   6.887   3.909
 4109SOL    HW213227   3.700   6.754   3.932
 4110SOL     OW13228   4.537   3.334   5.964
 4110SOL    HW113229   4.614   3.388   5.932
 4110SOL    HW213230   4.510   3.269   5.894
 4111SOL     OW13231   3.962   2.633   0.183
 4111SOL    HW113232   4.026   2.704   0.214
 4111SOL    HW213233   3.997   2.590   0.101
 4112SOL     OW13234   4.380   1.443   4.859
 4112SOL    HW113235   4.283   1.427   4.840
 4112SOL    HW213236   4.391   1.532   4.902
 4113SOL     OW13237   3.381   5.585   5.316
 4113SOL    HW113238   3.392   5.513   5.247
 4113SOL    HW213239   3.464   5.641   5.319
 4114SOL     OW13240   3.314   1.431   4.554
 4114SOL    HW113241   3.373   1.460   4.630
 4114SOL    HW213242   3.344   1.477   4.470
 4115SOL     OW13243   4.823   5.578   1.926
 4115SOL    HW113244   4.882   5.655   1.954
 4115SOL    HW213245   4.728   5.604   1.939
 4116SOL     OW13246   3.715   1.966   1.941
 4116SOL    HW113247   3.686   2.047   1.993
 4116SOL    HW213248   3.682   1.974   1.847
 4117SOL     OW13249   1.095   5.051   1.039
 4117SOL    HW113250   1.136   5.119   0.978
 4117SOL    HW213251   1.152   5.042   1.121
 4118SOL     OW13252   1.165   6.920   1.226
 4118SOL    HW113253   1.222   6.880   1.298
 4118SOL    HW213254   1.207   6.905   1.137
 4119SOL     OW13255   3.538   0.990   4.605
 4119SOL    HW113256   3.486   1.059   4.555
 4119SOL    HW213257   3.615   1.033   4.652
 4120SOL     OW13258   4.467   6.698   1.900
 4120SOL    HW113259   4.419   6.637   1.837
 4120SOL    HW213260   4.554   6.656   1.927
 4121SOL     OW13261   6.530   2.277   4.581
 4121SOL    HW113262   6.515   2.329   4.665
 4121SOL    HW213263   6.624   2.290   4.550
 4122SOL     OW13264   0.498   6.641   5.411
 4122SOL    HW113265   0.542   6.701   5.344
 4122SOL    HW213266   0.467   6.696   5.489
 4123SOL     OW13267   5.599   4.243   6.137
 4123SOL    HW113268   5.645   4.291   6.063
 4123SOL    HW213269   5.660   4.235   6.216
 4124SOL     OW13270   5.544   6.668   3.840
 4124SOL    HW113271   5.490   6.632   3.764
 4124SOL    HW213272   5.489   6.666   3.924
 4125SOL     OW13273   4.607   1.036   1.674
 4125SOL    HW113274   4.584   1.126   1.712
 4125SOL    HW213275   4.526   0.998   1.629
 4126SOL     OW13276   1.737   4.261   4.634
 4126SOL    HW113277   1.659   4.257   4.697
 4126SOL    HW213278   1.706   4.297   4.546
 4127SOL     OW13279   5.369   3.296   4.849
 4127SOL    HW113280   5.329   3.235   4.781
 4127SOL    HW213281   5.464   3.269   4.867
 4128SOL     OW13282   1.678   3.637   2.287
 4128SOL    HW113283   1.759   3.646   2.344
 4128SOL    HW213284   1.698   3.580   2.208
 4129SOL     OW13285   5.972   2.051   6.301
 4129SOL    HW113286   6.036   2.113   6.348
 4129SOL    HW213287   6.013   1.960   6.296
 4130SOL     OW13288   6.514   3.972   6.130
 4130SOL    HW113289   6.439   3.908   6.143
 4130SOL    HW213290   6.573   3.941   6.055
 4131SOL     OW13291   6.989   5.672   4.101
 4131SOL    HW113292   0.069   5.689   4.091
 4131SOL    HW213293   6.960   5.605   4.033
 4132SOL     OW13294   5.139   3.185   3.354
 4132SOL    HW113295   5.136   3.085   3.350
 4132SOL    HW213296   5.045   3.221   3.358
 4133SOL     OW13297   2.938   0.901   1.114
 4133SOL    HW113298   3.008   0.831   1.112
 4133SOL    HW213299   2.853   0.863   1.151
 4134SOL     OW13300   2.335   2.023   0.922
 4134SOL    HW113301   2.413   2.031   0.983
 4134SOL    HW213302   2.319   1.926   0.901
 4135SOL     OW13303   1.718   0.550   2.652
 4135SOL    HW113304   1.750   0.611   2.725
 4135SOL    HW213305   1.796   0.501   2.613
 4136SOL     OW13306   0.136   2.505   4.373
 4136SOL    HW113307   0.132   2.570   4.297
 4136SOL    HW213308   0.127   2.412   4.339
 4137SOL     OW13309   3.328   3.849   6.833
 4137SOL    HW113310   3.344   3.861   6.931
 4137SOL    HW213311   3.274   3.766   6.818
 4138SOL     OW13312   4.836   4.738   4.415
 4138SOL    HW113313   4.807   4.654   4.460
 4138SOL    HW213314   4.777   4.756   4.337
 4139SOL     OW13315   1.627   2.048   5.813
 4139SOL    HW113316   1.537   2.062   5.854
 4139SOL    HW213317   1.679   2.133   5.819
 4140SOL     OW13318   4.104   1.460   5.430
 4140SOL    HW113319   4.180   1.413   5.387
 4140SOL    HW213320   4.052   1.511   5.362
 4141SOL     OW13321   5.433   5.068   1.496
 4141SOL    HW113322   5.519   5.077   1.446
 4141SOL    HW213323   5.366   5.132   1.459
 4142SOL     OW13324   6.881   4.707   0.880
 4142SOL    HW113325   6.823   4.710   0.798
 4142SOL    HW213326   6.885   4.613   0.915
 4143SOL     OW13327   6.757   2.840   0.983
 4143SOL    HW113328   6.780   2.918   0.924
 4143SOL    HW213329   6.676   2.795   0.947
 4144SOL     OW13330   5.457   1.709   1.803
 4144SOL    HW113331   5.374   1.761   1.782
 4144SOL    HW213332   5.489   1.731   1.895
 4145SOL     OW13333   0.611   6.619   1.545
 4145SOL    HW113334   0.598   6.519   1.541
 4145SOL    HW213335   0.692   6.640   1.600
 4146SOL     OW13336   5.654   0.135   6.301
 4146SOL    HW113337   5.606   0.066   6.247
 4146SOL    HW213338   5.731   0.093   6.348
 4147SOL     OW13339   3.659   2.149   6.420
 4147SOL    HW113340   3.610   2.084   6.361
 4147SOL    HW213341   3.702   2.100   6.495
 4148SOL     OW13342   0.431   0.526   4.093
 4148SOL    HW113343   0.457   0.461   4.022
 4148SOL    HW213344   0.487   0.609   4.085
 4149SOL     OW13345   6.279   2.963   0.590
 4149SOL    HW113346   6.270   3.059   0.564
 4149SOL    HW213347   6.366   2.949   0.638
 4150SOL     OW13348   5.670   0.358   6.148
 4150SOL    HW113349   5.577   0.384   6.123
 4150SOL    HW213350   5.669   0.271   6.197
 4151SOL     OW13351   6.615   5.937   0.327
 4151SOL    HW113352   6.524   5.896   0.339
 4151SOL    HW213353   6.623   5.973   0.234
 4152SOL     OW13354   4.527   4.956   1.915
 4152SOL    HW113355   4.609   5.008   1.892
 4152SOL    HW213356   4.452   5.019   1.935
 4153SOL     OW13357   5.811   5.223   6.504
 4153SOL    HW113358   5.828   5.215   6.603
 4153SOL    HW213359   5.827   5.317   6.475
 4154SOL     OW13360   6.325   3.509   4.782
 4154SOL    HW113361   6.280   3.572   4.718
 4154SOL    HW213362   6.307   3.415   4.755
 4155SOL     OW13363   0.860   3.734   2.356
 4155SOL    HW113364   0.960   3.743   2.356
 4155SOL    HW213365   0.827   3.722   2.450
 4156SOL     OW13366   5.719   6.814   5.473
 4156SOL    HW113367   5.625   6.789   5.448
 4156SOL    HW213368   5.774   6.731   5.483
 4157SOL     OW13369   4.221   0.695   3.994
 4157SOL    HW113370   4.212   0.728   3.900
 4157SOL    HW213371   4.244   0.772   4.054
 4158SOL     OW13372   1.063   5.223   3.233
 4158SOL    HW113373   1.027   5.261   3.147
 4158SOL    HW213374   1.034   5.128   3.241
 4159SOL     OW13375   1.411   2.901   3.451
 4159SOL    HW113376   1.315   2.901   3.476
 4159SOL    HW213377   1.441   2.995   3.434
 4160SOL     OW13378   6.387   0.218   0.322
 4160SOL    HW113379   6.319   0.286   0.296
 4160SOL    HW213380   6.449   0.258   0.390
 4161SOL     OW13381   1.504   0.827   6.657
 4161SOL    HW113382   1.496   0.790   6.564
 4161SOL    HW213383   1.601   0.830   6.683
 4162SOL     OW13384   6.170   6.855   4.487
 4162SOL    HW113385   6.116   6.820   4.411
 4162SOL    HW213386   6.267   6.856   4.461
 4163SOL     OW13387   5.430   1.314   3.345
 4163SOL    HW113388   5.455   1.328   3.249
 4163SOL    HW213389   5.494   1.363   3.404
 4164SOL     OW13390   1.732   0.790   6.498
 4164SOL    HW113391   1.714   0.753   6.407
 4164SOL    HW213392   1.827   0.821   6.504
 4165SOL     OW13393   4.038   6.450   0.619
 4165SOL    HW113394   4.068   6.526   0.677
 4165SOL    HW213395   4.109   6.431   0.550
 4166SOL     OW13396   4.373   2.664   0.621
 4166SOL    HW113397   4.427   2.605   0.680
 4166SOL    HW213398   4.412   2.666   0.529
 4167SOL     OW13399   1.994   2.445   1.731
 4167SOL    HW113400   1.992   2.515   1.660
 4167SOL    HW213401   1.980   2.488   1.820
 4168SOL     OW13402   0.214   5.357   1.791
 4168SOL    HW113403   0.242   5.277   1.737
 4168SOL    HW213404   0.176   5.326   1.878
 4169SOL     OW13405   5.040   3.731   3.850
 4169SOL    HW113406   5.019   3.788   3.929
 4169SOL    HW213407   5.132   3.692   3.860
 4170SOL     OW13408   3.907   2.790   5.532
 4170SOL    HW113409   3.957   2.708   5.560
 4170SOL    HW213410   3.922   2.806   5.435
 4171SOL     OW13411   5.091   3.782   1.386
 4171SOL    HW113412   5.050   3.722   1.454
 4171SOL    HW213413   5.121   3.728   1.307
 4172SOL     OW13414   0.175   1.995   0.964
 4172SOL    HW113415   0.227   2.073   0.998
 4172SOL    HW213416   0.181   1.992   0.864
 4173SOL     OW13417   5.617   2.675   5.082
 4173SOL    HW113418   5.624   2.652   4.985
 4173SOL    HW213419   5.575   2.599   5.132
 4174SOL     OW13420   4.405   0.655   3.650
 4174SOL    HW113421   4.382   0.587   3.581
 4174SOL    HW213422   4.405   0.613   3.741
 4175SOL     OW13423   3.188   0.165   3.873
 4175SOL    HW113424   3.121   0.234   3.846
 4175SOL    HW213425   3.152   0.111   3.948
 4176SOL     OW13426   4.843   0.113   2.458
 4176SOL    HW113427   4.814   0.202   2.424
 4176SOL    HW213428   4.814   0.103   2.553
 4177SOL     OW13429   0.239   6.030   3.864
 4177SOL    HW113430   0.153   5.982   3.880
 4177SOL    HW213431   0.236   6.119   3.909
 4178SOL     OW13432   3.208   1.463   6.167
 4178SOL    HW113433   3.193   1.426   6.075
 4178SOL    HW213434   3.123   1.455   6.220
 4179SOL     OW13435   5.713   3.233   5.392
 4179SOL    HW113436   5.774   3.155   5.378
 4179SOL    HW213437   5.635   3.226   5.330
 4180SOL     OW13438   4.805   4.485   1.293
 4180SOL    HW113439   4.713   4.464   1.328
 4180SOL    HW213440   4.865   4.507   1.370
 4181SOL     OW13441   0.645   1.713   6.389
 4181SOL    HW113442   0.713   1.655   6.433
 4181SOL    HW213443   0.657   1.808   6.421
 4182SOL     OW13444   0.186   0.521   2.248
 4182SOL    HW113445   0.227   0.553   2.163
 4182SOL    HW213446   0.145   0.598   2.296
 4183SOL     OW13447   2.750   1.575   1.735
 4183SOL    HW113448   2.747   1.655   1.675
 4183SOL    HW213449   2.666   1.569   1.788
 4184SOL     OW13450   3.659   5.246   0.253
 4184SOL    HW113451   3.697   5.268   0.163
 4184SOL    HW213452   3.629   5.330   0.299
 4185SOL     OW13453   0.199   0.057   3.240
 4185SOL    HW113454   0.201   6.983   3.279
 4185SOL    HW213455   0.113   0.070   3.191
 4186SOL     OW13456   2.523   3.785   0.503
 4186SOL    HW113457   2.464   3.741   0.571
 4186SOL    HW213458   2.552   3.717   0.436
 4187SOL     OW13459   3.644   3.243   6.544
 4187SOL    HW113460   3.566   3.247   6.482
 4187SOL    HW213461   3.693   3.329   6.541
 4188SOL     OW13462   4.948   0.235   3.823
 4188SOL    HW113463   5.013   0.289   3.770
 4188SOL    HW213464   4.969   0.243   3.920
 4189SOL     OW13465   2.587   1.529   4.142
 4189SOL    HW113466   2.527   1.600   4.180
 4189SOL    HW213467   2.609   1.552   4.047
 4190SOL     OW13468   3.002   0.653   6.813
 4190SOL    HW113469   2.956   0.736   6.782
 4190SOL    HW213470   3.004   0.585   6.739
 4191SOL     OW13471   6.525   2.916   3.390
 4191SOL    HW113472   6.548   2.958   3.302
 4191SOL    HW213473   6.456   2.845   3.376
 4192SOL     OW13474   5.861   1.330   2.990
 4192SOL    HW113475   5.905   1.305   2.903
 4192SOL    HW213476   5.804   1.255   3.022
 4193SOL     OW13477   2.258   6.722   2.521
 4193SOL    HW113478   2.286   6.781   2.445
 4193SOL    HW213479   2.249   6.778   2.604
 4194SOL     OW13480   6.779   1.781   4.361
 4194SOL    HW113481   6.821   1.870   4.345
 4194SOL    HW213482   6.781   1.761   4.459
 4195SOL     OW13483   5.446   0.363   1.237
 4195SOL    HW113484   5.491   0.301   1.301
 4195SOL    HW213485   5.475   0.342   1.144
 4196SOL     OW13486   5.120   2.991   4.421
 4196SOL    HW113487   5.089   2.902   4.454
 4196SOL    HW213488   5.207   2.981   4.373
 4197SOL     OW13489   5.132   4.553   4.584
 4197SOL    HW113490   5.051   4.494   4.580
 4197SOL    HW213491   5.177   4.543   4.673
 4198SOL     OW13492   5.882   3.863   6.707
 4198SOL    HW113493   5.976   3.832   6.691
 4198SOL    HW213494   5.876   3.962   6.690
 4199SOL     OW13495   3.103   3.712   5.234
 4199SOL    HW113496   3.127   3.793   5.180
 4199SOL    HW213497   3.010   3.683   5.211
 4200SOL     OW13498   2.221   0.092   6.494
 4200SOL    HW113499   2.285   0.089   6.571
 4200SOL    HW213500   2.148   0.025   6.509
 4201SOL     OW13501   5.952   0.105   3.692
 4201SOL    HW113502   5.888   0.179   3.673
 4201SOL    HW213503   5.932   0.027   3.633
 4202SOL     OW13504   5.679   4.974   5.669
 4202SOL    HW113505   5.746   5.023   5.725
 4202SOL    HW213506   5.680   5.009   5.576
 4203SOL     OW13507   4.971   5.404   2.909
 4203SOL    HW113508   4.980   5.350   2.826
 4203SOL    HW213509   5.062   5.427   2.944
 4204SOL     OW13510   3.545   3.123   1.119
 4204SOL    HW113511   3.553   3.213   1.161
 4204SOL    HW213512   3.521   3.055   1.189
 4205SOL     OW13513   3.224   5.315   4.854
 4205SOL    HW113514   3.269   5.361   4.931
 4205SOL    HW213515   3.288   5.253   4.810
 4206SOL     OW13516   4.735   0.356   4.819
 4206SOL    HW113517   4.718   0.327   4.913
 4206SOL    HW213518   4.654   0.402   4.784
 4207SOL     OW13519   1.470   0.999   1.765
 4207SOL    HW113520   1.431   0.907   1.760
 4207SOL    HW213521   1.399   1.064   1.795
 4208SOL     OW13522   0.948   2.435   0.875
 4208SOL    HW113523   0.899   2.391   0.799
 4208SOL    HW213524   0.904   2.410   0.961
 4209SOL     OW13525   2.135   6.894   5.084
 4209SOL    HW113526   2.149   6.992   5.077
 4209SOL    HW213527   2.115   6.856   4.994
 4210SOL     OW13528   4.089   2.921   0.706
 4210SOL    HW113529   4.106   2.824   0.691
 4210SOL    HW213530   3.990   2.937   0.715
 4211SOL     OW13531   4.617   4.553   4.022
 4211SOL    HW113532   4.632   4.485   3.951
 4211SOL    HW213533   4.672   4.635   4.003
 4212SOL     OW13534   6.064   1.208   3.174
 4212SOL    HW113535   6.020   1.281   3.121
 4212SOL    HW213536   6.067   1.124   3.120
 4213SOL     OW13537   1.313   0.786   2.587
 4213SOL    HW113538   1.347   0.698   2.553
 4213SOL    HW213539   1.385   0.831   2.640
 4214SOL     OW13540   0.891   3.567   5.400
 4214SOL    HW113541   0.893   3.551   5.301
 4214SOL    HW213542   0.964   3.630   5.425
 4215SOL     OW13543   0.705   5.605   4.899
 4215SOL    HW113544   0.765   5.579   4.824
 4215SOL    HW213545   0.625   5.546   4.900
 4216SOL     OW13546   1.012   2.492   4.300
 4216SOL    HW113547   1.101   2.503   4.257
 4216SOL    HW213548   1.023   2.445   4.388
 4217SOL     OW13549   0.290   0.967   2.929
 4217SOL    HW113550   0.285   0.947   3.027
 4217SOL    HW213551   0.273   1.065   2.914
 4218SOL     OW13552   4.461   0.180   1.967
 4218SOL    HW113553   4.558   0.194   1.948
 4218SOL    HW213554   4.414   0.269   1.967
 4219SOL     OW13555   4.406   5.671   4.535
 4219SOL    HW113556   4.452   5.658   4.447
 4219SOL    HW213557   4.472   5.662   4.609
 4220SOL     OW13558   6.615   3.559   4.019
 4220SOL    HW113559   6.540   3.578   4.082
 4220SOL    HW213560   6.679   3.496   4.062
 4221SOL     OW13561   5.121   5.540   6.357
 4221SOL    HW113562   5.053   5.528   6.285
 4221SOL    HW213563   5.167   5.452   6.374
 4222SOL     OW13564   5.389   2.677   1.918
 4222SOL    HW113565   5.313   2.614   1.903
 4222SOL    HW213566   5.354   2.762   1.959
 4223SOL     OW13567   3.424   4.130   2.268
 4223SOL    HW113568   3.394   4.128   2.172
 4223SOL    HW213569   3.497   4.197   2.279
 4224SOL     OW13570   4.539   2.568   4.839
 4224SOL    HW113571   4.623   2.597   4.794
 4224SOL    HW213572   4.515   2.635   4.910
 4225SOL     OW13573   6.050   0.357   4.759
 4225SOL    HW113574   6.058   0.367   4.659
 4225SOL    HW213575   6.022   0.444   4.799
 4226SOL     OW13576   0.508   2.005   3.696
 4226SOL    HW113577   0.502   2.011   3.796
 4226SOL    HW213578   0.604   1.995   3.669
 4227SOL     OW13579   4.068   4.330   6.665
 4227SOL    HW113580   3.975   4.300   6.646
 4227SOL    HW213581   4.132   4.282   6.605
 4228SOL     OW13582   6.418   5.758   3.053
 4228SOL    HW113583   6.400   5.795   2.962
 4228SOL    HW213584   6.433   5.833   3.117
 4229SOL     OW13585   4.479   4.678   5.631
 4229SOL    HW113586   4.425   4.691   5.715
 4229SOL    HW213587   4.575   4.694   5.651
 4230SOL     OW13588   3.551   0.728   5.363
 4230SOL    HW113589   3.649   0.726   5.381
 4230SOL    HW213590   3.525   0.647   5.311
 4231SOL     OW13591   4.592   6.735   5.082
 4231SOL    HW113592   4.610   6.764   4.988
 4231SOL    HW213593   4.575   6.815   5.140
 4232SOL     OW13594   1.926   4.896   2.873
 4232SOL    HW113595   1.982   4.820   2.908
 4232SOL    HW213596   1.834   4.863   2.854
 4233SOL     OW13597   6.681   6.728   6.864
 4233SOL    HW113598   6.594   6.699   6.904
 4233SOL    HW213599   6.742   6.649   6.856
 4234SOL     OW13600   2.919   4.840   6.329
 4234SOL    HW113601   2.994   4.821   6.392
 4234SOL    HW213602   2.956   4.856   6.238
 4235SOL     OW13603   6.460   3.463   5.763
 4235SOL    HW113604   6.513   3.538   5.802
 4235SOL    HW213605   6.453   3.474   5.664
 4236SOL     OW13606   1.223   3.166   4.363
 4236SOL    HW113607   1.210   3.156   4.461
 4236SOL    HW213608   1.239   3.076   4.322
 4237SOL     OW13609   5.198   3.527   4.833
 4237SOL    HW113610   5.201   3.557   4.928
 4237SOL    HW213611   5.264   3.454   4.819
 4238SOL     OW13612   3.877   5.825   4.069
 4238SOL    HW113613   3.808   5.805   4.139
 4238SOL    HW213614   3.902   5.741   4.021
 4239SOL     OW13615   4.828   6.296   5.656
 4239SOL    HW113616   4.803   6.326   5.748
 4239SOL    HW213617   4.764   6.224   5.626
 4240SOL     OW13618   2.561   4.589   6.659
 4240SOL    HW113619   2.625   4.654   6.618
 4240SOL    HW213620   2.562   4.504   6.605
 4241SOL     OW13621   4.697   0.312   0.493
 4241SOL    HW113622   4.663   0.218   0.495
 4241SOL    HW213623   4.645   0.365   0.425
 4242SOL     OW13624   1.945   0.318   2.696
 4242SOL    HW113625   1.905   0.228   2.680
 4242SOL    HW213626   2.045   0.312   2.691
 4243SOL     OW13627   1.147   3.846   2.378
 4243SOL    HW113628   1.109   3.866   2.288
 4243SOL    HW213629   1.246   3.835   2.371
 4244SOL     OW13630   4.760   6.773   0.851
 4244SOL    HW113631   4.814   6.858   0.846
 4244SOL    HW213632   4.682   6.786   0.911
 4245SOL     OW13633   6.627   3.439   0.947
 4245SOL    HW113634   6.545   3.494   0.939
 4245SOL    HW213635   6.707   3.493   0.920
 4246SOL     OW13636   5.019   2.043   3.100
 4246SOL    HW113637   5.008   2.141   3.080
 4246SOL    HW213638   5.090   2.005   3.041
 4247SOL     OW13639   1.800   4.674   5.380
 4247SOL    HW113640   1.895   4.700   5.401
 4247SOL    HW213641   1.744   4.685   5.462
 4248SOL     OW13642   1.578   0.839   3.156
 4248SOL    HW113643   1.484   0.870   3.146
 4248SOL    HW213644   1.579   0.747   3.196
 4249SOL     OW13645   6.725   0.327   5.089
 4249SOL    HW113646   6.818   0.292   5.101
 4249SOL    HW213647   6.670   0.260   5.040
 4250SOL     OW13648   0.182   5.725   4.473
 4250SOL    HW113649   0.127   5.700   4.553
 4250SOL    HW213650   0.154   5.815   4.440
 4251SOL     OW13651   6.072   1.817   6.249
 4251SOL    HW113652   6.090   1.752   6.322
 4251SOL    HW213653   6.027   1.770   6.173
 4252SOL     OW13654   6.569   6.186   6.923
 4252SOL    HW113655   6.593   6.146   6.834
 4252SOL    HW213656   6.571   6.285   6.916
 4253SOL     OW13657   4.142   5.536   2.910
 4253SOL    HW113658   4.063   5.555   2.968
 4253SOL    HW213659   4.194   5.620   2.895
 4254SOL     OW13660   1.968   2.912   6.727
 4254SOL    HW113661   1.977   2.958   6.815
 4254SOL    HW213662   1.883   2.939   6.683
 4255SOL     OW13663   0.493   3.725   2.890
 4255SOL    HW113664   0.401   3.764   2.898
 4255SOL    HW213665   0.559   3.787   2.932
 4256SOL     OW13666   0.505   5.224   2.091
 4256SOL    HW113667   0.431   5.287   2.065
 4256SOL    HW213668   0.558   5.265   2.165
 4257SOL     OW13669   6.177   0.811   5.410
 4257SOL    HW113670   6.112   0.772   5.345
 4257SOL    HW213671   6.245   0.742   5.434
 4258SOL     OW13672   3.764   5.549   0.287
 4258SOL    HW113673   3.668   5.577   0.295
 4258SOL    HW213674   3.791   5.553   0.191
 4259SOL     OW13675   0.935   6.754   2.220
 4259SOL    HW113676   0.952   6.689   2.294
 4259SOL    HW213677   0.953   6.847   2.253
 4260SOL     OW13678   4.891   0.280   4.449
 4260SOL    HW113679   4.829   0.358   4.448
 4260SOL    HW213680   4.841   0.196   4.427
 4261SOL     OW13681   1.926   0.242   3.902
 4261SOL    HW113682   1.981   0.253   3.985
 4261SOL    HW213683   1.933   0.324   3.845
 4262SOL     OW13684   1.667   3.881   6.619
 4262SOL    HW113685   1.701   3.826   6.695
 4262SOL    HW213686   1.743   3.927   6.574
 4263SOL     OW13687   2.650   2.487   4.231
 4263SOL    HW113688   2.622   2.528   4.317
 4263SOL    HW213689   2.602   2.532   4.155
 4264SOL     OW13690   5.293   1.269   4.471
 4264SOL    HW113691   5.316   1.357   4.513
 4264SOL    HW213692   5.317   1.272   4.374
 4265SOL     OW13693   3.284   1.163   0.903
 4265SOL    HW113694   3.213   1.095   0.921
 4265SOL    HW213695   3.255   1.251   0.940
 4266SOL     OW13696   1.513   6.462   0.800
 4266SOL    HW113697   1.517   6.454   0.700
 4266SOL    HW213698   1.596   6.422   0.840
 4267SOL     OW13699   2.046   4.276   4.596
 4267SOL    HW113700   1.954   4.246   4.621
 4267SOL    HW213701   2.113   4.207   4.624
 4268SOL     OW13702   1.613   4.338   6.017
 4268SOL    HW113703   1.585   4.293   6.101
 4268SOL    HW213704   1.544   4.404   5.989
 4269SOL     OW13705   2.868   1.609   4.356
 4269SOL    HW113706   2.878   1.629   4.259
 4269SOL    HW213707   2.772   1.601   4.379
 4270SOL     OW13708   3.743   2.199   0.810
 4270SOL    HW113709   3.771   2.105   0.795
 4270SOL    HW213710   3.781   2.258   0.739
 4271SOL     OW13711   6.752   0.505   1.167
 4271SOL    HW113712   6.758   0.596   1.209
 4271SOL    HW213713   6.656   0.475   1.167
 4272SOL     OW13714   6.589   1.400   6.094
 4272SOL    HW113715   6.623   1.313   6.129
 4272SOL    HW213716   6.640   1.425   6.012
 4273SOL     OW13717   3.927   5.567   4.718
 4273SOL    HW113718   3.889   5.636   4.780
 4273SOL    HW213719   3.918   5.598   4.623
 4274SOL     OW13720   6.900   1.140   1.913
 4274SOL    HW113721   6.927   1.077   1.985
 4274SOL    HW213722   6.836   1.207   1.949
 4275SOL     OW13723   0.399   3.177   3.099
 4275SOL    HW113724   0.431   3.167   3.193
 4275SOL    HW213725   0.458   3.124   3.038
 4276SOL     OW13726   2.496   6.179   4.153
 4276SOL    HW113727   2.401   6.151   4.143
 4276SOL    HW213728   2.555   6.099   4.163
 4277SOL     OW13729   6.193   5.759   3.255
 4277SOL    HW113730   6.153   5.675   3.217
 4277SOL    HW213731   6.278   5.780   3.208
 4278SOL     OW13732   1.137   6.685   1.889
 4278SOL    HW113733   1.077   6.613   1.925
 4278SOL    HW213734   1.204   6.644   1.828
 4279SOL     OW13735   2.178   2.136   3.169
 4279SOL    HW113736   2.224   2.173   3.088
 4279SOL    HW213737   2.231   2.157   3.251
 4280SOL     OW13738   0.769   0.119   6.078
 4280SOL    HW113739   0.766   0.055   6.155
 4280SOL    HW213740   0.817   0.203   6.105
 4281SOL     OW13741   4.316   6.002   3.497
 4281SOL    HW113742   4.394   5.991   3.436
 4281SOL    HW213743   4.337   5.963   3.586
 4282SOL     OW13744   3.679   4.398   1.128
 4282SOL    HW113745   3.773   4.430   1.117
 4282SOL    HW213746   3.663   4.374   1.224
 4283SOL     OW13747   5.204   1.343   3.962
 4283SOL    HW113748   5.231   1.439   3.951
 4283SOL    HW213749   5.113   1.329   3.925
 4284SOL     OW13750   4.548   5.765   6.388
 4284SOL    HW113751   4.487   5.810   6.454
 4284SOL    HW213752   4.548   5.817   6.302
 4285SOL     OW13753   3.018   0.294   5.647
 4285SOL    HW113754   2.931   0.269   5.689
 4285SOL    HW213755   3.004   0.373   5.587
 4286SOL     OW13756   5.556   1.067   6.419
 4286SOL    HW113757   5.608   1.056   6.334
 4286SOL    HW213758   5.488   1.138   6.406
 4287SOL     OW13759   4.855   0.397   6.876
 4287SOL    HW113760   4.885   0.355   6.961
 4287SOL    HW213761   4.931   0.396   6.810
 4288SOL     OW13762   6.488   6.696   2.294
 4288SOL    HW113763   6.428   6.676   2.217
 4288SOL    HW213764   6.445   6.764   2.354
 4289SOL     OW13765   0.676   3.479   4.421
 4289SOL    HW113766   0.701   3.418   4.347
 4289SOL    HW213767   0.752   3.541   4.441
 4290SOL     OW13768   0.279   1.171   3.344
 4290SOL    HW113769   0.235   1.088   3.311
 4290SOL    HW213770   0.339   1.207   3.273
 4291SOL     OW13771   5.369   3.236   6.263
 4291SOL    HW113772   5.332   3.223   6.171
 4291SOL    HW213773   5.428   3.316   6.264
 4292SOL     OW13774   5.787   1.982   0.727
 4292SOL    HW113775   5.870   2.035   0.748
 4292SOL    HW213776   5.739   2.025   0.650
 4293SOL     OW13777   3.842   4.166   0.007
 4293SOL    HW113778   3.835   4.102   6.950
 4293SOL    HW213779   3.805   4.255   6.998
 4294SOL     OW13780   2.399   2.082   6.409
 4294SOL    HW113781   2.409   2.165   6.356
 4294SOL    HW213782   2.307   2.043   6.394
 4295SOL     OW13783   3.935   6.594   2.936
 4295SOL    HW113784   3.893   6.543   2.861
 4295SOL    HW213785   4.032   6.574   2.939
 4296SOL     OW13786   2.812   6.034   2.018
 4296SOL    HW113787   2.880   6.098   1.983
 4296SOL    HW213788   2.841   6.000   2.108
 4297SOL     OW13789   5.691   4.743   0.856
 4297SOL    HW113790   5.770   4.727   0.797
 4297SOL    HW213791   5.719   4.734   0.952
 4298SOL     OW13792   3.509   6.676   0.397
 4298SOL    HW113793   3.473   6.676   0.304
 4298SOL    HW213794   3.448   6.623   0.456
 4299SOL     OW13795   1.118   2.748   0.307
 4299SOL    HW113796   1.077   2.666   0.267
 4299SOL    HW213797   1.183   2.788   0.242
 4300SOL     OW13798   3.096   0.946   0.898
 4300SOL    HW113799   3.020   0.954   0.962
 4300SOL    HW213800   3.126   0.851   0.893
 4301SOL     OW13801   3.155   6.782   1.715
 4301SOL    HW113802   3.097   6.801   1.635
 4301SOL    HW213803   3.246   6.820   1.700
 4302SOL     OW13804   1.818   5.554   5.656
 4302SOL    HW113805   1.808   5.642   5.702
 4302SOL    HW213806   1.879   5.496   5.710
 4303SOL     OW13807   6.166   3.960   3.456
 4303SOL    HW113808   6.192   4.044   3.502
 4303SOL    HW213809   6.181   3.882   3.517
 4304SOL     OW13810   3.582   3.443   1.538
 4304SOL    HW113811   3.611   3.539   1.545
 4304SOL    HW213812   3.492   3.433   1.579
 4305SOL     OW13813   1.479   0.296   5.219
 4305SOL    HW113814   1.443   0.247   5.139
 4305SOL    HW213815   1.403   0.334   5.271
 4306SOL     OW13816   5.454   3.467   5.068
 4306SOL    HW113817   5.421   3.440   4.977
 4306SOL    HW213818   5.407   3.551   5.097
 4307SOL     OW13819   6.490   2.110   5.429
 4307SOL    HW113820   6.515   2.089   5.524
 4307SOL    HW213821   6.559   2.073   5.367
 4308SOL     OW13822   4.895   4.927   0.132
 4308SOL    HW113823   4.817   4.990   0.138
 4308SOL    HW213824   4.911   4.887   0.222
 4309SOL     OW13825   1.432   3.121   0.533
 4309SOL    HW113826   1.357   3.059   0.508
 4309SOL    HW213827   1.421   3.208   0.485
 4310SOL     OW13828   0.034   1.514   2.769
 4310SOL    HW113829   0.005   1.594   2.716
 4310SOL    HW213830   6.991   1.438   2.749
 4311SOL     OW13831   0.337   7.009   2.477
 4311SOL    HW113832   0.238   6.998   2.486
 4311SOL    HW213833   0.365   0.079   2.515
 4312SOL     OW13834   0.260   4.506   2.451
 4312SOL    HW113835   0.250   4.483   2.354
 4312SOL    HW213836   0.305   4.595   2.460
 4313SOL     OW13837   6.365   1.795   0.385
 4313SOL    HW113838   6.421   1.859   0.332
 4313SOL    HW213839   6.271   1.828   0.389
 4314SOL     OW13840   6.577   2.369   5.450
 4314SOL    HW113841   6.508   2.435   5.422
 4314SOL    HW213842   6.556   2.279   5.411
 4315SOL     OW13843   2.631   1.604   3.864
 4315SOL    HW113844   2.543   1.561   3.844
 4315SOL    HW213845   2.620   1.704   3.865
 4316SOL     OW13846   5.186   6.992   1.794
 4316SOL    HW113847   5.162   0.064   1.829
 4316SOL    HW213848   5.102   6.942   1.772
 4317SOL     OW13849   4.145   1.109   6.043
 4317SOL    HW113850   4.200   1.027   6.058
 4317SOL    HW213851   4.119   1.114   5.946
 4318SOL     OW13852   0.236   1.453   4.102
 4318SOL    HW113853   0.313   1.445   4.165
 4318SOL    HW213854   0.202   1.362   4.079
 4319SOL     OW13855   1.151   4.845   1.955
 4319SOL    HW113856   1.087   4.780   1.995
 4319SOL    HW213857   1.244   4.810   1.962
 4320SOL     OW13858   3.558   5.698   0.671
 4320SOL    HW113859   3.463   5.704   0.639
 4320SOL    HW213860   3.603   5.786   0.659
 4321SOL     OW13861   6.303   0.251   2.610
 4321SOL    HW113862   6.227   0.304   2.649
 4321SOL    HW213863   6.355   0.309   2.548
 4322SOL     OW13864   0.948   3.282   5.503
 4322SOL    HW113865   0.881   3.357   5.504
 4322SOL    HW213866   1.039   3.319   5.488
 4323SOL     OW13867   4.084   5.611   6.502
 4323SOL    HW113868   4.077   5.643   6.596
 4323SOL    HW213869   4.129   5.522   6.501
 4324SOL     OW13870   0.011   4.473   5.739
 4324SOL    HW113871   0.077   4.481   5.814
 4324SOL    HW213872   0.002   4.377   5.713
 4325SOL     OW13873   2.947   0.277   2.612
 4325SOL    HW113874   2.954   0.369   2.575
 4325SOL    HW213875   2.996   0.272   2.699
 4326SOL     OW13876   4.755   2.371   3.036
 4326SOL    HW113877   4.823   2.299   3.022
 4326SOL    HW213878   4.716   2.397   2.948
 4327SOL     OW13879   3.157   6.115   4.311
 4327SOL    HW113880   3.061   6.089   4.327
 4327SOL    HW213881   3.159   6.203   4.265
 4328SOL     OW13882   5.540   6.406   5.059
 4328SOL    HW113883   5.441   6.404   5.076
 4328SOL    HW213884   5.556   6.420   4.961
 4329SOL     OW13885   6.232   2.326   5.764
 4329SOL    HW113886   6.281   2.315   5.850
 4329SOL    HW213887   6.238   2.241   5.711
 4330SOL     OW13888   2.921   4.887   4.928
 4330SOL    HW113889   2.913   4.828   5.008
 4330SOL    HW213890   2.849   4.864   4.862
 4331SOL     OW13891   6.302   0.874   1.921
 4331SOL    HW113892   6.219   0.899   1.873
 4331SOL    HW213893   6.371   0.844   1.856
 4332SOL     OW13894   0.301   4.724   2.673
 4332SOL    HW113895   0.212   4.693   2.706
 4332SOL    HW213896   0.352   4.766   2.748
 4333SOL     OW13897   3.641   2.130   5.473
 4333SOL    HW113898   3.651   2.073   5.554
 4333SOL    HW213899   3.628   2.072   5.392
 4334SOL     OW13900   0.447   2.510   4.085
 4334SOL    HW113901   0.512   2.477   4.017
 4334SOL    HW213902   0.386   2.577   4.043
 4335SOL     OW13903   3.047   3.598   0.705
 4335SOL    HW113904   3.089   3.689   0.702
 4335SOL    HW213905   3.053   3.556   0.614
 4336SOL     OW13906   2.859   5.588   6.183
 4336SOL    HW113907   2.922   5.611   6.108
 4336SOL    HW213908   2.794   5.663   6.196
 4337SOL     OW13909   1.480   5.157   3.569
 4337SOL    HW113910   1.523   5.138   3.657
 4337SOL    HW213911   1.433   5.245   3.572
 4338SOL     OW13912   4.509   1.109   5.753
 4338SOL    HW113913   4.520   1.207   5.765
 4338SOL    HW213914   4.553   1.061   5.829
 4339SOL     OW13915   4.037   3.021   6.109
 4339SOL    HW113916   3.991   3.082   6.045
 4339SOL    HW213917   4.009   3.044   6.202
 4340SOL     OW13918   0.117   3.365   0.785
 4340SOL    HW113919   0.147   3.310   0.707
 4340SOL    HW213920   0.089   3.306   0.860
 4341SOL     OW13921   0.002   6.591   2.629
 4341SOL    HW113922   0.039   6.515   2.682
 4341SOL    HW213923   6.921   6.588   2.631
 4342SOL     OW13924   5.404   4.076   2.725
 4342SOL    HW113925   5.453   4.156   2.760
 4342SOL    HW213926   5.310   4.078   2.758
 4343SOL     OW13927   4.110   0.745   5.805
 4343SOL    HW113928   4.105   0.755   5.904
 4343SOL    HW213929   4.099   0.649   5.780
 4344SOL     OW13930   0.263   2.980   3.814
 4344SOL    HW113931   0.212   3.057   3.854
 4344SOL    HW213932   0.360   2.991   3.834
 4345SOL     OW13933   2.871   3.476   2.231
 4345SOL    HW113934   2.881   3.556   2.172
 4345SOL    HW213935   2.845   3.397   2.175
 4346SOL     OW13936   1.604   3.696   1.671
 4346SOL    HW113937   1.552   3.769   1.715
 4346SOL    HW213938   1.624   3.722   1.577
 4347SOL     OW13939   5.686   4.771   1.286
 4347SOL    HW113940   5.596   4.807   1.262
 4347SOL    HW213941   5.721   4.715   1.211
 4348SOL     OW13942   5.540   5.958   4.304
 4348SOL    HW113943   5.478   6.036   4.307
 4348SOL    HW213944   5.549   5.919   4.396
 4349SOL     OW13945   0.236   3.363   4.593
 4349SOL    HW113946   0.181   3.411   4.524
 4349SOL    HW213947   0.211   3.397   4.684
 4350SOL     OW13948   4.567   1.003   4.993
 4350SOL    HW113949   4.640   0.985   4.927
 4350SOL    HW213950   4.607   1.042   5.076
 4351SOL     OW13951   1.154   6.313   0.582
 4351SOL    HW113952   1.082   6.348   0.642
 4351SOL    HW213953   1.230   6.279   0.637
 4352SOL     OW13954   4.056   3.838   1.200
 4352SOL    HW113955   4.156   3.839   1.195
 4352SOL    HW213956   4.027   3.862   1.293
 4353SOL     OW13957   3.187   2.590   1.024
 4353SOL    HW113958   3.210   2.529   1.100
 4353SOL    HW213959   3.269   2.641   0.996
 4354SOL     OW13960   5.489   0.042   3.738
 4354SOL    HW113961   5.584   0.072   3.733
 4354SOL    HW213962   5.460   0.007   3.649
 4355SOL     OW13963   1.178   6.254   3.574
 4355SOL    HW113964   1.095   6.225   3.620
 4355SOL    HW213965   1.205   6.187   3.505
 4356SOL     OW13966   5.540   2.384   6.096
 4356SOL    HW113967   5.632   2.416   6.076
 4356SOL    HW213968   5.490   2.369   6.011
 4357SOL     OW13969   6.794   1.019   2.464
 4357SOL    HW113970   6.700   1.053   2.468
 4357SOL    HW213971   6.827   1.023   2.370
 4358SOL     OW13972   1.631   6.848   0.141
 4358SOL    HW113973   1.553   6.879   0.086
 4358SOL    HW213974   1.602   6.835   0.236
 4359SOL     OW13975   2.027   1.574   6.992
 4359SOL    HW113976   2.065   1.523   6.915
 4359SOL    HW213977   2.034   1.519   0.057
 4360SOL     OW13978   1.305   3.221   3.471
 4360SOL    HW113979   1.242   3.151   3.504
 4360SOL    HW213980   1.284   3.308   3.516
 4361SOL     OW13981   0.335   1.107   0.857
 4361SOL    HW113982   0.302   1.071   0.770
 4361SOL    HW213983   0.417   1.163   0.841
 4362SOL     OW13984   0.796   6.168   4.021
 4362SOL    HW113985   0.811   6.241   4.087
 4362SOL    HW213986   0.881   6.150   3.971
 4363SOL     OW13987   4.740   1.560   2.065
 4363SOL    HW113988   4.713   1.478   2.014
 4363SOL    HW213989   4.795   1.534   2.144
 4364SOL     OW13990   3.947   3.968   2.824
 4364SOL    HW113991   3.959   3.951   2.726
 4364SOL    HW213992   4.009   3.908   2.875
 4365SOL     OW13993   2.843   2.218   1.723
 4365SOL    HW113994   2.899   2.269   1.789
 4365SOL    HW213995   2.827   2.125   1.758
 4366SOL     OW13996   4.613   6.328   4.646
 4366SOL    HW113997   4.633   6.410   4.700
 4366SOL    HW213998   4.679   6.322   4.570
 4367SOL     OW13999   2.407   5.673   3.707
 4367SOL    HW114000   2.420   5.730   3.788
 4367SOL    HW214001   2.480   5.605   3.702
 4368SOL     OW14002   4.508   4.457   2.721
 4368SOL    HW114003   4.600   4.447   2.683
 4368SOL    HW214004   4.464   4.367   2.724
 4369SOL     OW14005   4.108   4.787   3.227
 4369SOL    HW114006   4.161   4.771   3.144
 4369SOL    HW214007   4.153   4.743   3.305
 4370SOL     OW14008   3.882   4.826   1.501
 4370SOL    HW114009   3.844   4.828   1.594
 4370SOL    HW214010   3.836   4.754   1.448
 4371SOL     OW14011   3.513   1.101   1.675
 4371SOL    HW114012   3.551   1.103   1.768
 4371SOL    HW214013   3.430   1.157   1.673
 4372SOL     OW14014   2.054   3.100   4.250
 4372SOL    HW114015   2.001   3.090   4.166
 4372SOL    HW214016   2.131   3.161   4.234
 4373SOL     OW14017   4.656   1.161   5.223
 4373SOL    HW114018   4.700   1.250   5.209
 4373SOL    HW214019   4.600   1.165   5.306
 4374SOL     OW14020   2.374   1.379   1.682
 4374SOL    HW114021   2.279   1.358   1.657
 4374SOL    HW214022   2.436   1.338   1.615
 4375SOL     OW14023   4.117   0.757   3.266
 4375SOL    HW114024   4.176   0.805   3.331
 4375SOL    HW214025   4.041   0.715   3.315
 4376SOL     OW14026   0.169   6.382   1.072
 4376SOL    HW114027   0.216   6.464   1.104
 4376SOL    HW214028   0.197   6.304   1.128
 4377SOL     OW14029   6.104   6.445   6.227
 4377SOL    HW114030   6.010   6.436   6.258
 4377SOL    HW214031   6.162   6.380   6.277
 4378SOL     OW14032   1.821   5.518   2.460
 4378SOL    HW114033   1.751   5.575   2.417
 4378SOL    HW214034   1.779   5.433   2.493
 4379SOL     OW14035   1.326   0.427   1.846
 4379SOL    HW114036   1.296   0.491   1.917
 4379SOL    HW214037   1.248   0.400   1.790
 4380SOL     OW14038   1.628   6.153   5.124
 4380SOL    HW114039   1.635   6.062   5.163
 4380SOL    HW214040   1.682   6.217   5.178
 4381SOL     OW14041   3.601   6.426   4.954
 4381SOL    HW114042   3.515   6.477   4.955
 4381SOL    HW214043   3.583   6.328   4.951
 4382SOL     OW14044   5.055   3.892   4.106
 4382SOL    HW114045   5.139   3.942   4.085
 4382SOL    HW214046   5.071   3.828   4.181
 4383SOL     OW14047   0.682   2.928   5.860
 4383SOL    HW114048   0.748   2.951   5.931
 4383SOL    HW214049   0.717   2.851   5.806
 4384SOL     OW14050   3.621   5.962   0.575
 4384SOL    HW114051   3.631   6.056   0.607
 4384SOL    HW214052   3.590   5.962   0.480
 4385SOL     OW14053   0.494   2.286   2.369
 4385SOL    HW114054   0.483   2.285   2.270
 4385SOL    HW214055   0.591   2.273   2.392
 4386SOL     OW14056   0.782   2.984   6.826
 4386SOL    HW114057   0.760   2.952   6.734
 4386SOL    HW214058   0.726   2.935   6.892
 4387SOL     OW14059   0.169   3.311   1.881
 4387SOL    HW114060   0.203   3.284   1.971
 4387SOL    HW214061   0.236   3.369   1.836
 4388SOL     OW14062   3.488   0.821   6.066
 4388SOL    HW114063   3.544   0.902   6.048
 4388SOL    HW214064   3.545   0.739   6.055
 4389SOL     OW14065   5.091   2.583   3.095
 4389SOL    HW114066   5.021   2.604   3.164
 4389SOL    HW214067   5.091   2.655   3.025
 4390SOL     OW14068   4.845   2.954   2.316
 4390SOL    HW114069   4.883   2.873   2.272
 4390SOL    HW214070   4.793   3.008   2.249
 4391SOL     OW14071   1.090   5.709   0.613
 4391SOL    HW114072   1.106   5.648   0.535
 4391SOL    HW214073   0.992   5.726   0.622
 4392SOL     OW14074   4.917   3.190   4.414
 4392SOL    HW114075   4.913   3.247   4.496
 4392SOL    HW214076   5.005   3.144   4.409
 4393SOL     OW14077   4.836   6.871   2.937
 4393SOL    HW114078   4.815   6.790   2.991
 4393SOL    HW214079   4.832   6.848   2.840
 4394SOL     OW14080   5.071   0.401   2.756
 4394SOL    HW114081   5.120   0.483   2.783
 4394SOL    HW214082   4.972   0.417   2.762
 4395SOL     OW14083   5.508   1.867   2.075
 4395SOL    HW114084   5.474   1.961   2.064
 4395SOL    HW214085   5.483   1.832   2.165
 4396SOL     OW14086   1.022   1.036   4.056
 4396SOL    HW114087   0.965   1.053   3.976
 4396SOL    HW214088   0.993   1.095   4.131
 4397SOL     OW14089   6.595   0.159   4.946
 4397SOL    HW114090   6.564   0.076   4.991
 4397SOL    HW214091   6.576   0.153   4.848
 4398SOL     OW14092   0.331   4.608   4.372
 4398SOL    HW114093   0.237   4.610   4.339
 4398SOL    HW214094   0.371   4.519   4.352
 4399SOL     OW14095   2.127   1.256   0.865
 4399SOL    HW114096   2.079   1.323   0.809
 4399SOL    HW214097   2.121   1.282   0.961
 4400SOL     OW14098   3.115   6.571   4.724
 4400SOL    HW114099   3.066   6.521   4.795
 4400SOL    HW214100   3.208   6.536   4.717
 4401SOL     OW14101   5.828   6.064   4.461
 4401SOL    HW114102   5.922   6.031   4.476
 4401SOL    HW214103   5.765   6.008   4.515
 4402SOL     OW14104   0.477   6.255   2.876
 4402SOL    HW114105   0.483   6.341   2.826
 4402SOL    HW214106   0.391   6.209   2.852
 4403SOL     OW14107   0.800   0.198   3.496
 4403SOL    HW114108   0.828   0.237   3.584
 4403SOL    HW214109   0.811   0.265   3.424
 4404SOL     OW14110   0.576   3.860   3.296
 4404SOL    HW114111   0.652   3.804   3.331
 4404SOL    HW214112   0.495   3.803   3.283
 4405SOL     OW14113   3.592   4.471   5.713
 4405SOL    HW114114   3.559   4.456   5.620
 4405SOL    HW214115   3.679   4.520   5.711
 4406SOL     OW14116   5.784   3.933   1.472
 4406SOL    HW114117   5.705   3.975   1.517
 4406SOL    HW214118   5.790   3.836   1.499
 4407SOL     OW14119   6.264   0.343   6.953
 4407SOL    HW114120   6.223   0.337   0.026
 4407SOL    HW214121   6.351   0.293   6.953
 4408SOL     OW14122   4.748   0.029   6.301
 4408SOL    HW114123   4.656   0.016   6.265
 4408SOL    HW214124   4.769   0.127   6.303
 4409SOL     OW14125   3.535   0.251   1.898
 4409SOL    HW114126   3.505   0.264   1.993
 4409SOL    HW214127   3.574   0.160   1.888
 4410SOL     OW14128   2.172   5.069   1.801
 4410SOL    HW114129   2.221   5.062   1.714
 4410SOL    HW214130   2.126   5.157   1.807
 4411SOL     OW14131   3.831   3.181   2.662
 4411SOL    HW114132   3.844   3.083   2.643
 4411SOL    HW214133   3.916   3.218   2.700
 4412SOL     OW14134   3.882   1.265   6.710
 4412SOL    HW114135   3.901   1.243   6.614
 4412SOL    HW214136   3.896   1.184   6.766
 4413SOL     OW14137   4.412   6.175   4.063
 4413SOL    HW114138   4.329   6.211   4.021
 4413SOL    HW214139   4.404   6.075   4.071
 4414SOL     OW14140   3.805   4.825   1.791
 4414SOL    HW114141   3.716   4.790   1.821
 4414SOL    HW214142   3.867   4.748   1.774
 4415SOL     OW14143   5.156   2.936   6.531
 4415SOL    HW114144   5.087   2.865   6.546
 4415SOL    HW214145   5.151   3.003   6.605
 4416SOL     OW14146   3.440   0.203   4.759
 4416SOL    HW114147   3.524   0.180   4.710
 4416SOL    HW214148   3.363   0.157   4.716
 4417SOL     OW14149   6.983   6.064   2.232
 4417SOL    HW114150   6.918   6.138   2.250
 4417SOL    HW214151   6.934   5.980   2.209
 4418SOL     OW14152   3.851   6.954   3.703
 4418SOL    HW114153   3.773   7.017   3.704
 4418SOL    HW214154   3.839   6.888   3.628
 4419SOL     OW14155   0.243   5.236   0.047
 4419SOL    HW114156   0.289   5.308   7.013
 4419SOL    HW214157   0.222   5.158   7.006
 4420SOL     OW14158   5.171   2.108   6.568
 4420SOL    HW114159   5.073   2.097   6.585
 4420SOL    HW214160   5.218   2.021   6.582
 4421SOL     OW14161   1.655   1.833   3.267
 4421SOL    HW114162   1.572   1.778   3.256
 4421SOL    HW214163   1.647   1.917   3.214
 4422SOL     OW14164   1.925   3.990   6.096
 4422SOL    HW114165   1.980   3.960   6.017
 4422SOL    HW214166   1.948   4.085   6.119
 4423SOL     OW14167   1.341   2.273   6.365
 4423SOL    HW114168   1.387   2.205   6.308
 4423SOL    HW214169   1.314   2.231   6.451
 4424SOL     OW14170   6.390   6.997   2.972
 4424SOL    HW114171   6.439   6.961   3.051
 4424SOL    HW214172   6.364   0.074   2.988
 4425SOL     OW14173   3.842   4.494   6.530
 4425SOL    HW114174   3.802   4.509   6.440
 4425SOL    HW214175   3.942   4.501   6.525
 4426SOL     OW14176   0.638   0.528   5.363
 4426SOL    HW114177   0.668   0.609   5.413
 4426SOL    HW214178   0.538   0.524   5.364
 4427SOL     OW14179   1.261   0.268   3.285
 4427SOL    HW114180   1.278   0.240   3.380
 4427SOL    HW214181   1.339   0.242   3.228
 4428SOL     OW14182   2.090   5.442   4.062
 4428SOL    HW114183   2.188   5.461   4.056
 4428SOL    HW214184   2.041   5.500   3.997
 4429SOL     OW14185   3.294   0.142   3.442
 4429SOL    HW114186   3.292   0.109   3.347
 4429SOL    HW214187   3.276   0.065   3.504
 4430SOL     OW14188   2.554   0.514   2.636
 4430SOL    HW114189   2.622   0.565   2.583
 4430SOL    HW214190   2.549   0.420   2.602
 4431SOL     OW14191   2.939   2.006   3.592
 4431SOL    HW114192   2.978   1.936   3.533
 4431SOL    HW214193   2.842   2.017   3.571
 4432SOL     OW14194   2.839   3.451   2.498
 4432SOL    HW114195   2.863   3.459   2.401
 4432SOL    HW214196   2.777   3.373   2.511
 4433SOL     OW14197   5.870   0.395   2.290
 4433SOL    HW114198   5.960   0.354   2.309
 4433SOL    HW214199   5.800   0.346   2.341
 4434SOL     OW14200   6.150   2.540   4.106
 4434SOL    HW114201   6.227   2.602   4.088
 4434SOL    HW214202   6.080   2.589   4.158
 4435SOL     OW14203   3.731   2.814   1.821
 4435SOL    HW114204   3.640   2.853   1.805
 4435SOL    HW214205   3.785   2.878   1.875
 4436SOL     OW14206   4.772   1.732   6.991
 4436SOL    HW114207   4.802   1.711   0.065
 4436SOL    HW214208   4.851   1.753   6.934
 4437SOL     OW14209   3.528   0.752   5.031
 4437SOL    HW114210   3.612   0.727   4.982
 4437SOL    HW214211   3.477   0.819   4.977
 4438SOL     OW14212   4.243   2.807   6.937
 4438SOL    HW114213   4.271   2.886   6.993
 4438SOL    HW214214   4.160   2.767   6.977
 4439SOL     OW14215   1.989   5.795   2.447
 4439SOL    HW114216   1.971   5.702   2.416
 4439SOL    HW214217   2.038   5.845   2.376
 4440SOL     OW14218   1.255   6.599   6.307
 4440SOL    HW114219   1.189   6.527   6.327
 4440SOL    HW214220   1.303   6.624   6.392
 4441SOL     OW14221   5.400   2.494   2.966
 4441SOL    HW114222   5.410   2.498   3.065
 4441SOL    HW214223   5.303   2.498   2.942
 4442SOL     OW14224   3.412   5.935   3.646
 4442SOL    HW114225   3.442   5.930   3.742
 4442SOL    HW214226   3.342   5.866   3.630
 4443SOL     OW14227   2.653   1.977   5.920
 4443SOL    HW114228   2.675   1.879   5.926
 4443SOL    HW214229   2.714   2.028   5.981
 4444SOL     OW14230   5.453   0.193   0.679
 4444SOL    HW114231   5.379   0.192   0.746
 4444SOL    HW214232   5.481   0.288   0.661
 4445SOL     OW14233   1.264   0.674   6.219
 4445SOL    HW114234   1.268   0.734   6.300
 4445SOL    HW214235   1.293   0.725   6.139
 4446SOL     OW14236   6.538   0.351   2.957
 4446SOL    HW114237   6.568   0.305   2.873
 4446SOL    HW214238   6.464   0.415   2.935
 4447SOL     OW14239   5.364   2.119   5.544
 4447SOL    HW114240   5.441   2.122   5.480
 4447SOL    HW214241   5.369   2.197   5.606
 4448SOL     OW14242   2.459   3.348   6.965
 4448SOL    HW114243   2.379   3.327   6.908
 4448SOL    HW214244   2.431   3.411   0.020
 4449SOL     OW14245   1.878   1.097   5.366
 4449SOL    HW114246   1.780   1.117   5.375
 4449SOL    HW214247   1.899   1.077   5.270
 4450SOL     OW14248   3.967   3.134   3.259
 4450SOL    HW114249   3.963   3.102   3.354
 4450SOL    HW214250   3.885   3.189   3.240
 4451SOL     OW14251   6.679   4.861   2.586
 4451SOL    HW114252   6.720   4.771   2.598
 4451SOL    HW214253   6.618   4.859   2.506
 4452SOL     OW14254   6.203   6.506   6.508
 4452SOL    HW114255   6.239   6.594   6.477
 4452SOL    HW214256   6.278   6.444   6.529
 4453SOL     OW14257   5.448   2.402   1.169
 4453SOL    HW114258   5.530   2.365   1.211
 4453SOL    HW214259   5.388   2.328   1.140
 4454SOL     OW14260   5.472   2.878   1.307
 4454SOL    HW114261   5.431   2.863   1.218
 4454SOL    HW214262   5.571   2.866   1.300
 4455SOL     OW14263   3.797   1.141   2.517
 4455SOL    HW114264   3.887   1.104   2.537
 4455SOL    HW214265   3.763   1.102   2.431
 4456SOL     OW14266   1.422   4.888   3.578
 4456SOL    HW114267   1.422   4.985   3.601
 4456SOL    HW214268   1.350   4.842   3.630
 4457SOL     OW14269   5.273   2.001   6.333
 4457SOL    HW114270   5.274   1.902   6.319
 4457SOL    HW214271   5.257   2.021   6.430
 4458SOL     OW14272   3.442   2.363   6.580
 4458SOL    HW114273   3.452   2.340   6.483
 4458SOL    HW214274   3.516   2.424   6.607
 4459SOL     OW14275   4.901   6.659   4.495
 4459SOL    HW114276   4.977   6.599   4.516
 4459SOL    HW214277   4.898   6.677   4.396
 4460SOL     OW14278   2.983   2.255   6.125
 4460SOL    HW114279   2.912   2.193   6.159
 4460SOL    HW214280   3.060   2.253   6.189
 4461SOL     OW14281   1.814   6.929   2.428
 4461SOL    HW114282   1.816   6.836   2.465
 4461SOL    HW214283   1.905   6.952   2.393
 4462SOL     OW14284   6.605   5.275   0.991
 4462SOL    HW114285   6.686   5.216   0.994
 4462SOL    HW214286   6.616   5.342   0.917
 4463SOL     OW14287   1.636   3.572   6.278
 4463SOL    HW114288   1.654   3.509   6.202
 4463SOL    HW214289   1.720   3.620   6.302
 4464SOL     OW14290   5.797   3.357   6.064
 4464SOL    HW114291   5.878   3.312   6.027
 4464SOL    HW214292   5.722   3.350   5.997
 4465SOL     OW14293   1.300   6.022   2.107
 4465SOL    HW114294   1.397   6.047   2.112
 4465SOL    HW214295   1.278   5.960   2.181
 4466SOL     OW14296   1.192   2.056   2.791
 4466SOL    HW114297   1.122   2.077   2.722
 4466SOL    HW214298   1.244   1.975   2.763
 4467SOL     OW14299   1.201   6.543   3.236
 4467SOL    HW114300   1.145   6.495   3.303
 4467SOL    HW214301   1.260   6.477   3.189
 4468SOL     OW14302   1.107   2.579   0.535
 4468SOL    HW114303   1.039   2.588   0.607
 4468SOL    HW214304   1.081   2.637   0.457
 4469SOL     OW14305   3.920   0.035   0.668
 4469SOL    HW114306   3.857   7.011   0.603
 4469SOL    HW214307   3.982   0.097   0.619
 4470SOL     OW14308   4.841   3.852   1.358
 4470SOL    HW114309   4.834   3.762   1.314
 4470SOL    HW214310   4.937   3.875   1.371
 4471SOL     OW14311   6.833   2.840   1.652
 4471SOL    HW114312   6.798   2.928   1.683
 4471SOL    HW214313   6.833   2.775   1.729
 4472SOL     OW14314   1.679   4.094   2.182
 4472SOL    HW114315   1.584   4.126   2.173
 4472SOL    HW214316   1.700   4.032   2.107
 4473SOL     OW14317   6.958   6.858   4.361
 4473SOL    HW114318   0.020   6.803   4.339
 4473SOL    HW214319   6.951   6.934   4.297
 4474SOL     OW14320   4.808   0.501   2.704
 4474SOL    HW114321   4.774   0.505   2.798
 4474SOL    HW214322   4.810   0.593   2.666
 4475SOL     OW14323   1.971   4.322   0.254
 4475SOL    HW114324   1.899   4.258   0.228
 4475SOL    HW214325   2.032   4.337   0.176
 4476SOL     OW14326   4.933   6.498   2.078
 4476SOL    HW114327   4.959   6.446   2.160
 4476SOL    HW214328   4.982   6.461   1.999
 4477SOL     OW14329   1.441   1.297   0.598
 4477SOL    HW114330   1.475   1.258   0.684
 4477SOL    HW214331   1.506   1.366   0.565
 4478SOL     OW14332   2.082   6.524   2.563
 4478SOL    HW114333   2.109   6.507   2.657
 4478SOL    HW214334   2.143   6.591   2.521
 4479SOL     OW14335   1.237   0.355   5.926
 4479SOL    HW114336   1.303   0.342   5.852
 4479SOL    HW214337   1.159   0.294   5.913
 4480SOL     OW14338   1.096   5.109   4.751
 4480SOL    HW114339   1.150   5.028   4.772
 4480SOL    HW214340   1.126   5.185   4.809
 4481SOL     OW14341   0.853   6.284   4.254
 4481SOL    HW114342   0.953   6.294   4.255
 4481SOL    HW214343   0.810   6.370   4.279
 4482SOL     OW14344   0.175   4.684   3.881
 4482SOL    HW114345   0.274   4.698   3.885
 4482SOL    HW214346   0.129   4.762   3.922
 4483SOL     OW14347   5.485   3.441   1.844
 4483SOL    HW114348   5.396   3.476   1.814
 4483SOL    HW214349   5.529   3.508   1.904
 4484SOL     OW14350   3.645   2.447   5.612
 4484SOL    HW114351   3.564   2.505   5.615
 4484SOL    HW214352   3.723   2.497   5.650
 4485SOL     OW14353   5.057   1.629   6.643
 4485SOL    HW114354   5.102   1.589   6.723
 4485SOL    HW214355   5.073   1.727   6.640
 4486SOL     OW14356   6.280   3.254   4.695
 4486SOL    HW114357   6.220   3.180   4.725
 4486SOL    HW214358   6.284   3.256   4.596
 4487SOL     OW14359   3.073   3.101   6.303
 4487SOL    HW114360   3.058   3.037   6.228
 4487SOL    HW214361   3.116   3.184   6.268
 4488SOL     OW14362   6.667   1.704   5.035
 4488SOL    HW114363   6.616   1.618   5.028
 4488SOL    HW214364   6.631   1.770   4.970
 4489SOL     OW14365   5.921   6.320   4.558
 4489SOL    HW114366   5.906   6.312   4.656
 4489SOL    HW214367   5.894   6.236   4.513
 4490SOL     OW14368   6.593   1.758   2.999
 4490SOL    HW114369   6.501   1.787   2.975
 4490SOL    HW214370   6.653   1.767   2.920
 4491SOL     OW14371   0.837   3.947   2.617
 4491SOL    HW114372   0.880   3.993   2.540
 4491SOL    HW214373   0.863   3.992   2.702
 4492SOL     OW14374   4.940   2.853   0.075
 4492SOL    HW114375   4.956   2.895   7.004
 4492SOL    HW214376   4.892   2.919   0.134
 4493SOL     OW14377   5.568   6.001   4.833
 4493SOL    HW114378   5.504   5.995   4.909
 4493SOL    HW214379   5.649   6.052   4.861
 4494SOL     OW14380   0.103   4.348   5.326
 4494SOL    HW114381   0.130   4.320   5.234
 4494SOL    HW214382   0.004   4.340   5.337
 4495SOL     OW14383   4.937   6.559   1.616
 4495SOL    HW114384   5.006   6.628   1.638
 4495SOL    HW214385   4.978   6.468   1.622
 4496SOL     OW14386   5.387   3.628   5.332
 4496SOL    HW114387   5.294   3.593   5.319
 4496SOL    HW214388   5.390   3.725   5.306
 4497SOL     OW14389   6.043   5.197   0.352
 4497SOL    HW114390   6.009   5.167   0.263
 4497SOL    HW214391   6.057   5.118   0.411
 4498SOL     OW14392   0.244   3.363   6.957
 4498SOL    HW114393   0.306   3.362   6.879
 4498SOL    HW214394   0.168   3.300   6.940
 4499SOL     OW14395   0.084   3.272   6.096
 4499SOL    HW114396   0.129   3.202   6.152
 4499SOL    HW214397   7.013   3.293   6.135
 4500SOL     OW14398   2.880   3.736   4.513
 4500SOL    HW114399   2.899   3.805   4.583
 4500SOL    HW214400   2.859   3.648   4.557
 4501SOL     OW14401   6.947   4.712   5.401
 4501SOL    HW114402   0.014   4.718   5.453
 4501SOL    HW214403   6.928   4.800   5.357
 4502SOL     OW14404   1.079   2.075   0.010
 4502SOL    HW114405   1.051   2.020   0.089
 4502SOL    HW214406   1.002   2.132   7.000
 4503SOL     OW14407   1.257   1.839   3.521
 4503SOL    HW114408   1.166   1.879   3.509
 4503SOL    HW214409   1.270   1.814   3.617
 4504SOL     OW14410   5.648   2.600   4.827
 4504SOL    HW114411   5.744   2.577   4.809
 4504SOL    HW214412   5.589   2.550   4.764
 4505SOL     OW14413   1.495   6.419   5.095
 4505SOL    HW114414   1.531   6.331   5.124
 4505SOL    HW214415   1.431   6.454   5.163
 4506SOL     OW14416   3.963   0.548   5.451
 4506SOL    HW114417   3.919   0.630   5.415
 4506SOL    HW214418   3.915   0.467   5.418
 4507SOL     OW14419   5.494   4.384   0.688
 4507SOL    HW114420   5.466   4.479   0.695
 4507SOL    HW214421   5.470   4.349   0.597
 4508SOL     OW14422   1.377   3.521   0.067
 4508SOL    HW114423   1.317   3.448   0.101
 4508SOL    HW214424   1.365   3.530   6.986
 4509SOL     OW14425   3.165   1.808   4.639
 4509SOL    HW114426   3.257   1.843   4.653
 4509SOL    HW214427   3.151   1.725   4.693
 4510SOL     OW14428   4.887   0.292   5.153
 4510SOL    HW114429   4.797   0.275   5.114
 4510SOL    HW214430   4.956   0.241   5.101
 4511SOL     OW14431   6.428   2.587   0.566
 4511SOL    HW114432   6.353   2.529   0.598
 4511SOL    HW214433   6.493   2.531   0.514
 4512SOL     OW14434   2.627   5.835   6.578
 4512SOL    HW114435   2.637   5.769   6.503
 4512SOL    HW214436   2.717   5.861   6.611
 4513SOL     OW14437   5.239   0.642   1.503
 4513SOL    HW114438   5.143   0.657   1.526
 4513SOL    HW214439   5.290   0.728   1.510
 4514SOL     OW14440   3.166   1.240   5.221
 4514SOL    HW114441   3.212   1.242   5.132
 4514SOL    HW214442   3.070   1.265   5.209
 4515SOL     OW14443   0.183   5.054   0.578
 4515SOL    HW114444   0.194   5.127   0.511
 4515SOL    HW214445   0.102   4.999   0.555
 4516SOL     OW14446   1.082   1.338   5.353
 4516SOL    HW114447   1.032   1.374   5.432
 4516SOL    HW214448   1.147   1.269   5.383
 4517SOL     OW14449   3.737   6.805   5.859
 4517SOL    HW114450   3.791   6.745   5.801
 4517SOL    HW214451   3.646   6.766   5.872
 4518SOL     OW14452   0.672   2.338   3.609
 4518SOL    HW114453   0.696   2.435   3.601
 4518SOL    HW214454   0.651   2.301   3.518
 4519SOL     OW14455   0.320   3.178   3.634
 4519SOL    HW114456   0.318   3.082   3.661
 4519SOL    HW214457   0.272   3.189   3.547
 4520SOL     OW14458   0.028   5.283   3.183
 4520SOL    HW114459   0.089   5.356   3.213
 4520SOL    HW214460   0.018   5.215   3.256
 4521SOL     OW14461   5.415   3.014   6.914
 4521SOL    HW114462   5.508   2.989   6.940
 4521SOL    HW214463   5.416   3.068   6.830
 4522SOL     OW14464   6.684   0.062   4.032
 4522SOL    HW114465   6.711   0.030   3.941
 4522SOL    HW214466   6.604   0.011   4.064
 4523SOL     OW14467   3.281   3.914   0.090
 4523SOL    HW114468   3.196   3.898   0.139
 4523SOL    HW214469   3.339   3.976   0.143
 4524SOL     OW14470   5.211   0.584   4.946
 4524SOL    HW114471   5.239   0.554   5.037
 4524SOL    HW214472   5.112   0.574   4.936
 4525SOL     OW14473   6.007   1.374   4.929
 4525SOL    HW114474   5.922   1.322   4.941
 4525SOL    HW214475   6.083   1.312   4.915
 4526SOL     OW14476   4.843   6.733   0.315
 4526SOL    HW114477   4.843   6.677   0.232
 4526SOL    HW214478   4.835   6.674   0.395
 4527SOL     OW14479   5.089   0.756   2.502
 4527SOL    HW114480   4.994   0.782   2.519
 4527SOL    HW214481   5.150   0.807   2.563
 4528SOL     OW14482   5.743   0.174   0.755
 4528SOL    HW114483   5.771   0.078   0.757
 4528SOL    HW214484   5.687   0.190   0.673
 4529SOL     OW14485   3.157   0.079   2.868
 4529SOL    HW114486   3.152   0.006   2.799
 4529SOL    HW214487   3.073   0.133   2.865
 4530SOL     OW14488   0.260   3.217   5.509
 4530SOL    HW114489   0.200   3.161   5.567
 4530SOL    HW214490   0.342   3.164   5.485
 4531SOL     OW14491   0.086   3.166   3.927
 4531SOL    HW114492   0.109   3.176   4.024
 4531SOL    HW214493   0.115   3.248   3.877
 4532SOL     OW14494   6.178   1.270   0.868
 4532SOL    HW114495   6.120   1.266   0.787
 4532SOL    HW214496   6.230   1.185   0.876
 4533SOL     OW14497   2.061   5.794   2.817
 4533SOL    HW114498   2.059   5.892   2.837
 4533SOL    HW214499   2.108   5.779   2.731
 4534SOL     OW14500   6.334   3.722   4.950
 4534SOL    HW114501   6.346   3.629   4.916
 4534SOL    HW214502   6.270   3.721   5.028
 4535SOL     OW14503   5.018   3.222   2.209
 4535SOL    HW114504   5.114   3.202   2.188
 4535SOL    HW214505   4.964   3.138   2.202
 4536SOL     OW14506   5.706   1.171   4.742
 4536SOL    HW114507   5.669   1.078   4.737
 4536SOL    HW214508   5.694   1.207   4.835
 4537SOL     OW14509   3.986   2.659   6.866
 4537SOL    HW114510   3.938   2.574   6.888
 4537SOL    HW214511   4.026   2.652   6.775
 4538SOL     OW14512   3.201   1.660   3.215
 4538SOL    HW114513   3.217   1.610   3.130
 4538SOL    HW214514   3.273   1.639   3.281
 4539SOL     OW14515   2.420   1.981   3.219
 4539SOL    HW114516   2.330   1.994   3.178
 4539SOL    HW214517   2.451   2.067   3.260
 4540SOL     OW14518   3.802   3.163   4.605
 4540SOL    HW114519   3.789   3.173   4.507
 4540SOL    HW214520   3.862   3.235   4.638
 4541SOL     OW14521   5.375   1.824   1.338
 4541SOL    HW114522   5.304   1.817   1.408
 4541SOL    HW214523   5.349   1.895   1.272
 4542SOL     OW14524   5.973   6.853   2.287
 4542SOL    HW114525   5.972   6.944   2.245
 4542SOL    HW214526   5.929   6.857   2.377
 4543SOL     OW14527   5.678   1.737   1.230
 4543SOL    HW114528   5.654   1.795   1.152
 4543SOL    HW214529   5.594   1.708   1.276
 4544SOL     OW14530   3.432   5.688   6.648
 4544SOL    HW114531   3.428   5.731   6.738
 4544SOL    HW214532   3.345   5.699   6.602
 4545SOL     OW14533   3.953   2.239   5.506
 4545SOL    HW114534   3.967   2.242   5.605
 4545SOL    HW214535   4.028   2.287   5.461
 4546SOL     OW14536   0.601   6.744   6.395
 4546SOL    HW114537   0.690   6.731   6.351
 4546SOL    HW214538   0.576   6.662   6.446
 4547SOL     OW14539   5.461   2.332   1.571
 4547SOL    HW114540   5.489   2.422   1.603
 4547SOL    HW214541   5.541   2.281   1.538
 4548SOL     OW14542   0.421   4.052   3.649
 4548SOL    HW114543   0.482   4.117   3.605
 4548SOL    HW214544   0.445   3.959   3.620
 4549SOL     OW14545   6.578   3.317   3.082
 4549SOL    HW114546   6.558   3.408   3.121
 4549SOL    HW214547   6.674   3.295   3.100
 4550SOL     OW14548   0.891   5.554   3.547
 4550SOL    HW114549   0.948   5.527   3.625
 4550SOL    HW214550   0.846   5.474   3.509
 4551SOL     OW14551   0.868   3.173   5.083
 4551SOL    HW114552   0.816   3.126   5.012
 4551SOL    HW214553   0.879   3.113   5.162
 4552SOL     OW14554   0.646   3.072   4.479
 4552SOL    HW114555   0.630   2.977   4.453
 4552SOL    HW214556   0.565   3.108   4.526
 4553SOL     OW14557   4.505   5.183   0.419
 4553SOL    HW114558   4.558   5.100   0.400
 4553SOL    HW214559   4.516   5.247   0.343
 4554SOL     OW14560   4.314   0.078   2.731
 4554SOL    HW114561   4.394   0.127   2.695
 4554SOL    HW214562   4.295   7.017   2.672
 4555SOL     OW14563   5.300   2.557   6.616
 4555SOL    HW114564   5.335   2.611   6.692
 4555SOL    HW214565   5.232   2.611   6.566
 4556SOL     OW14566   4.252   0.852   3.510
 4556SOL    HW114567   4.285   0.775   3.564
 4556SOL    HW214568   4.324   0.921   3.503
 4557SOL     OW14569   5.738   0.206   5.895
 4557SOL    HW114570   5.736   0.303   5.922
 4557SOL    HW214571   5.779   0.152   5.969
 4558SOL     OW14572   6.528   3.460   6.809
 4558SOL    HW114573   6.545   3.476   6.907
 4558SOL    HW214574   6.457   3.523   6.777
 4559SOL     OW14575   2.022   6.446   1.521
 4559SOL    HW114576   2.032   6.446   1.422
 4559SOL    HW214577   1.936   6.401   1.547
 4560SOL     OW14578   5.226   3.347   3.165
 4560SOL    HW114579   5.190   3.295   3.242
 4560SOL    HW214580   5.156   3.410   3.132
 4561SOL     OW14581   3.587   0.405   6.958
 4561SOL    HW114582   3.560   0.452   6.874
 4561SOL    HW214583   3.542   0.316   6.962
 4562SOL     OW14584   2.972   5.630   6.761
 4562SOL    HW114585   2.897   5.582   6.715
 4562SOL    HW214586   3.027   5.680   6.694
 4563SOL     OW14587   5.524   1.674   6.921
 4563SOL    HW114588   5.579   1.688   7.004
 4563SOL    HW214589   5.499   1.763   6.882
 4564SOL     OW14590   1.404   6.179   0.015
 4564SOL    HW114591   1.475   6.244   7.004
 4564SOL    HW214592   1.414   6.094   6.980
 4565SOL     OW14593   0.970   0.947   5.119
 4565SOL    HW114594   0.959   1.018   5.050
 4565SOL    HW214595   0.886   0.941   5.174
 4566SOL     OW14596   0.137   0.719   6.842
 4566SOL    HW114597   0.040   0.735   6.862
 4566SOL    HW214598   0.184   0.692   6.927
 4567SOL     OW14599   6.609   1.492   0.780
 4567SOL    HW114600   6.633   1.477   0.876
 4567SOL    HW214601   6.511   1.482   0.768
 4568SOL     OW14602   3.326   4.444   5.775
 4568SOL    HW114603   3.424   4.428   5.768
 4568SOL    HW214604   3.286   4.445   5.683
 4569SOL     OW14605   1.108   1.957   4.070
 4569SOL    HW114606   1.142   2.045   4.103
 4569SOL    HW214607   1.010   1.965   4.050
 4570SOL     OW14608   7.013   5.916   3.561
 4570SOL    HW114609   6.941   5.850   3.537
 4570SOL    HW214610   0.079   5.866   3.583
 4571SOL     OW14611   3.398   3.341   4.632
 4571SOL    HW114612   3.417   3.351   4.729
 4571SOL    HW214613   3.441   3.416   4.581
 4572SOL     OW14614   1.602   7.000   1.263
 4572SOL    HW114615   1.525   7.000   1.199
 4572SOL    HW214616   1.573   0.021   1.350
 4573SOL     OW14617   5.706   5.659   0.941
 4573SOL    HW114618   5.740   5.657   1.036
 4573SOL    HW214619   5.732   5.745   0.898
 4574SOL     OW14620   6.954   4.219   2.082
 4574SOL    HW114621   6.854   4.208   2.085
 4574SOL    HW214622   6.992   4.200   2.172
 4575SOL     OW14623   6.687   1.010   1.568
 4575SOL    HW114624   6.605   0.975   1.613
 4575SOL    HW214625   6.733   0.936   1.519
 4576SOL     OW14626   3.163   5.410   6.318
 4576SOL    HW114627   3.098   5.400   6.242
 4576SOL    HW214628   3.143   5.493   6.369
 4577SOL     OW14629   1.266   3.600   3.313
 4577SOL    HW114630   1.278   3.508   3.278
 4577SOL    HW214631   1.256   3.665   3.237
 4578SOL     OW14632   0.177   3.704   4.137
 4578SOL    HW114633   0.212   3.757   4.214
 4578SOL    HW214634   0.248   3.642   4.104
 4579SOL     OW14635   5.388   1.892   3.287
 4579SOL    HW114636   5.292   1.921   3.293
 4579SOL    HW214637   5.443   1.968   3.254
 4580SOL     OW14638   5.765   6.108   0.591
 4580SOL    HW114639   5.703   6.125   0.514
 4580SOL    HW214640   5.756   6.183   0.657
 4581SOL     OW14641   3.285   5.709   3.582
 4581SOL    HW114642   3.323   5.621   3.610
 4581SOL    HW214643   3.215   5.694   3.512
 4582SOL     OW14644   5.185   6.284   2.939
 4582SOL    HW114645   5.198   6.379   2.967
 4582SOL    HW214646   5.269   6.232   2.956
 4583SOL     OW14647   3.235   2.021   5.518
 4583SOL    HW114648   3.325   1.989   5.546
 4583SOL    HW214649   3.216   2.109   5.561
 4584SOL     OW14650   0.695   5.347   5.564
 4584SOL    HW114651   0.595   5.354   5.561
 4584SOL    HW214652   0.727   5.354   5.658
 4585SOL     OW14653   3.158   6.027   3.264
 4585SOL    HW114654   3.219   6.103   3.288
 4585SOL    HW214655   3.115   6.046   3.176
 4586SOL     OW14656   3.823   5.650   1.888
 4586SOL    HW114657   3.905   5.593   1.901
 4586SOL    HW214658   3.843   5.743   1.917
 4587SOL     OW14659   2.896   3.154   1.257
 4587SOL    HW114660   2.992   3.132   1.276
 4587SOL    HW214661   2.839   3.073   1.270
 4588SOL     OW14662   3.897   3.394   5.539
 4588SOL    HW114663   3.989   3.409   5.501
 4588SOL    HW214664   3.889   3.446   5.624
 4589SOL     OW14665   5.831   2.460   3.979
 4589SOL    HW114666   5.917   2.437   3.934
 4589SOL    HW214667   5.826   2.413   4.067
 4590SOL     OW14668   4.699   4.939   2.722
 4590SOL    HW114669   4.682   4.991   2.806
 4590SOL    HW214670   4.664   4.846   2.733
 4591SOL     OW14671   5.920   5.287   5.564
 4591SOL    HW114672   5.829   5.280   5.606
 4591SOL    HW214673   5.910   5.295   5.465
 4592SOL     OW14674   3.859   2.312   0.064
 4592SOL    HW114675   3.815   2.316   0.154
 4592SOL    HW214676   3.875   2.216   0.039
 4593SOL     OW14677   3.709   6.428   2.466
 4593SOL    HW114678   3.635   6.476   2.513
 4593SOL    HW214679   3.780   6.493   2.441
 4594SOL     OW14680   2.493   1.577   1.848
 4594SOL    HW114681   2.451   1.510   1.787
 4594SOL    HW214682   2.448   1.574   1.937
 4595SOL     OW14683   4.279   3.110   6.351
 4595SOL    HW114684   4.225   3.161   6.284
 4595SOL    HW214685   4.355   3.064   6.305
 4596SOL     OW14686   5.837   6.849   1.889
 4596SOL    HW114687   5.859   6.838   1.986
 4596SOL    HW214688   5.784   6.933   1.877
 4597SOL     OW14689   5.333   4.024   6.205
 4597SOL    HW114690   5.428   4.041   6.179
 4597SOL    HW214691   5.313   4.069   6.291
 4598SOL     OW14692   2.353   5.586   6.755
 4598SOL    HW114693   2.275   5.608   6.697
 4598SOL    HW214694   2.390   5.497   6.729
 4599SOL     OW14695   1.412   4.746   1.301
 4599SOL    HW114696   1.505   4.730   1.336
 4599SOL    HW214697   1.351   4.675   1.335
 4600SOL     OW14698   3.023   5.633   0.730
 4600SOL    HW114699   2.966   5.710   0.758
 4600SOL    HW214700   2.971   5.572   0.670
 4601SOL     OW14701   2.146   0.639   5.056
 4601SOL    HW114702   2.187   0.694   5.128
 4601SOL    HW214703   2.179   0.545   5.063
 4602SOL     OW14704   1.439   0.024   2.384
 4602SOL    HW114705   1.382   0.056   2.308
 4602SOL    HW214706   1.380   7.005   2.456
 4603SOL     OW14707   3.329   0.007   1.636
 4603SOL    HW114708   3.427   7.008   1.623
 4603SOL    HW214709   3.314   0.106   1.645
 4604SOL     OW14710   3.233   0.272   2.121
 4604SOL    HW114711   3.182   0.292   2.205
 4604SOL    HW214712   3.331   0.268   2.142
 4605SOL     OW14713   5.193   0.411   4.706
 4605SOL    HW114714   5.203   0.471   4.785
 4605SOL    HW214715   5.149   0.461   4.631
 4606SOL     OW14716   6.218   6.404   5.279
 4606SOL    HW114717   6.233   6.346   5.198
 4606SOL    HW214718   6.273   6.486   5.271
 4607SOL     OW14719   3.278   1.209   1.550
 4607SOL    HW114720   3.275   1.298   1.595
 4607SOL    HW214721   3.191   1.162   1.563
 4608SOL     OW14722   1.761   4.496   5.192
 4608SOL    HW114723   1.754   4.563   5.266
 4608SOL    HW214724   1.763   4.544   5.104
 4609SOL     OW14725   4.974   6.766   0.028
 4609SOL    HW114726   5.063   6.805   0.051
 4609SOL    HW214727   4.926   6.826   6.982
 4610SOL     OW14728   0.216   2.760   6.590
 4610SOL    HW114729   0.275   2.831   6.552
 4610SOL    HW214730   0.198   2.779   6.686
 4611SOL     OW14731   0.807   4.024   0.291
 4611SOL    HW114732   0.744   4.069   0.354
 4611SOL    HW214733   0.795   3.925   0.297
 4612SOL     OW14734   1.948   6.235   6.127
 4612SOL    HW114735   2.015   6.165   6.151
 4612SOL    HW214736   1.976   6.323   6.164
 4613SOL     OW14737   3.270   5.219   2.655
 4613SOL    HW114738   3.221   5.245   2.572
 4613SOL    HW214739   3.210   5.231   2.734
 4614SOL     OW14740   1.818   5.548   0.322
 4614SOL    HW114741   1.825   5.448   0.329
 4614SOL    HW214742   1.869   5.589   0.398
 4615SOL     OW14743   1.652   2.025   0.191
 4615SOL    HW114744   1.609   1.988   0.109
 4615SOL    HW214745   1.713   2.101   0.166
 4616SOL     OW14746   5.991   0.820   6.621
 4616SOL    HW114747   6.011   0.819   6.523
 4616SOL    HW214748   5.921   0.890   6.639
 4617SOL     OW14749   0.714   2.536   1.800
 4617SOL    HW114750   0.786   2.546   1.732
 4617SOL    HW214751   0.679   2.626   1.826
 4618SOL     OW14752   1.001   2.473   6.050
 4618SOL    HW114753   0.987   2.567   6.080
 4618SOL    HW214754   0.944   2.412   6.105
 4619SOL     OW14755   4.040   0.753   3.702
 4619SOL    HW114756   4.125   0.806   3.703
 4619SOL    HW214757   3.996   0.758   3.792
 4620SOL     OW14758   2.643   4.338   6.547
 4620SOL    HW114759   2.691   4.317   6.632
 4620SOL    HW214760   2.705   4.326   6.470
 4621SOL     OW14761   0.546   0.663   4.880
 4621SOL    HW114762   0.538   0.575   4.928
 4621SOL    HW214763   0.568   0.646   4.784
 4622SOL     OW14764   1.828   2.884   0.729
 4622SOL    HW114765   1.746   2.826   0.733
 4622SOL    HW214766   1.802   2.980   0.740
 4623SOL     OW14767   6.765   4.858   1.461
 4623SOL    HW114768   6.855   4.858   1.505
 4623SOL    HW214769   6.774   4.823   1.367
 4624SOL     OW14770   4.628   0.454   4.102
 4624SOL    HW114771   4.611   0.359   4.076
 4624SOL    HW214772   4.649   0.508   4.021
 4625SOL     OW14773   0.973   3.807   6.744
 4625SOL    HW114774   0.995   3.758   6.828
 4625SOL    HW214775   0.908   3.881   6.765
 4626SOL     OW14776   6.386   5.153   1.406
 4626SOL    HW114777   6.485   5.139   1.408
 4626SOL    HW214778   6.349   5.113   1.322
 4627SOL     OW14779   3.581   6.142   5.448
 4627SOL    HW114780   3.624   6.232   5.447
 4627SOL    HW214781   3.539   6.125   5.537
 4628SOL     OW14782   6.379   4.721   2.058
 4628SOL    HW114783   6.330   4.691   2.139
 4628SOL    HW214784   6.370   4.653   1.985
 4629SOL     OW14785   2.145   4.669   5.695
 4629SOL    HW114786   2.161   4.571   5.682
 4629SOL    HW214787   2.077   4.700   5.629
 4630SOL     OW14788   2.361   5.729   3.071
 4630SOL    HW114789   2.395   5.730   2.977
 4630SOL    HW214790   2.349   5.635   3.101
 4631SOL     OW14791   3.020   6.611   2.623
 4631SOL    HW114792   3.083   6.536   2.644
 4631SOL    HW214793   3.005   6.616   2.524
 4632SOL     OW14794   4.755   5.759   4.075
 4632SOL    HW114795   4.686   5.794   4.010
 4632SOL    HW214796   4.788   5.671   4.043
 4633SOL     OW14797   6.604   1.875   4.769
 4633SOL    HW114798   6.656   1.958   4.791
 4633SOL    HW214799   6.507   1.892   4.784
 4634SOL     OW14800   2.620   4.489   0.851
 4634SOL    HW114801   2.613   4.446   0.941
 4634SOL    HW214802   2.692   4.559   0.853
 4635SOL     OW14803   5.271   3.174   2.435
 4635SOL    HW114804   5.193   3.131   2.480
 4635SOL    HW214805   5.267   3.157   2.337
 4636SOL     OW14806   2.685   5.481   0.331
 4636SOL    HW114807   2.759   5.439   0.279
 4636SOL    HW214808   2.664   5.571   0.293
 4637SOL     OW14809   1.369   0.994   5.291
 4637SOL    HW114810   1.296   0.952   5.237
 4637SOL    HW214811   1.449   1.008   5.233
 4638SOL     OW14812   4.880   3.218   5.932
 4638SOL    HW114813   4.917   3.310   5.917
 4638SOL    HW214814   4.912   3.184   6.020
 4639SOL     OW14815   0.669   3.737   5.858
 4639SOL    HW114816   0.667   3.824   5.908
 4639SOL    HW214817   0.672   3.662   5.924
 4640SOL     OW14818   5.268   4.331   2.898
 4640SOL    HW114819   5.178   4.290   2.909
 4640SOL    HW214820   5.278   4.407   2.962
 4641SOL     OW14821   2.439   4.968   4.334
 4641SOL    HW114822   2.457   4.904   4.409
 4641SOL    HW214823   2.463   5.061   4.364
 4642SOL     OW14824   6.605   6.225   4.464
 4642SOL    HW114825   6.571   6.297   4.525
 4642SOL    HW214826   6.568   6.237   4.373
 4643SOL     OW14827   3.889   2.233   1.702
 4643SOL    HW114828   3.931   2.161   1.757
 4643SOL    HW214829   3.799   2.257   1.741
 4644SOL     OW14830   1.355   5.986   4.232
 4644SOL    HW114831   1.354   6.045   4.312
 4644SOL    HW214832   1.450   5.958   4.213
 4645SOL     OW14833   1.860   6.619   4.445
 4645SOL    HW114834   1.780   6.677   4.430
 4645SOL    HW214835   1.831   6.523   4.445
 4646SOL     OW14836   2.842   0.342   2.210
 4646SOL    HW114837   2.807   0.381   2.125
 4646SOL    HW214838   2.787   0.263   2.236
 4647SOL     OW14839   6.343   0.378   3.832
 4647SOL    HW114840   6.309   0.460   3.787
 4647SOL    HW214841   6.268   0.330   3.876
 4648SOL     OW14842   2.590   5.948   2.324
 4648SOL    HW114843   2.575   5.868   2.265
 4648SOL    HW214844   2.508   6.005   2.324
 4649SOL     OW14845   5.139   0.421   5.614
 4649SOL    HW114846   5.071   0.354   5.585
 4649SOL    HW214847   5.092   0.502   5.649
 4650SOL     OW14848   5.040   5.196   2.706
 4650SOL    HW114849   5.108   5.253   2.660
 4650SOL    HW214850   4.948   5.223   2.676
 4651SOL     OW14851   0.441   2.087   1.572
 4651SOL    HW114852   0.486   2.000   1.593
 4651SOL    HW214853   0.472   2.119   1.482
 4652SOL     OW14854   6.593   0.181   5.291
 4652SOL    HW114855   6.614   0.092   5.251
 4652SOL    HW214856   6.626   0.254   5.231
 4653SOL     OW14857   0.097   6.236   6.863
 4653SOL    HW114858   0.117   6.328   6.899
 4653SOL    HW214859   0.067   6.177   6.938
 4654SOL     OW14860   1.003   0.299   0.450
 4654SOL    HW114861   1.067   0.287   0.374
 4654SOL    HW214862   0.910   0.279   0.419
 4655SOL     OW14863   0.454   4.578   3.144
 4655SOL    HW114864   0.414   4.668   3.164
 4655SOL    HW214865   0.554   4.583   3.156
 4656SOL     OW14866   1.182   0.567   3.787
 4656SOL    HW114867   1.226   0.521   3.711
 4656SOL    HW214868   1.096   0.607   3.756
 4657SOL     OW14869   4.942   6.920   1.404
 4657SOL    HW114870   4.997   6.952   1.327
 4657SOL    HW214871   4.881   6.847   1.374
 4658SOL     OW14872   4.643   0.194   2.987
 4658SOL    HW114873   4.586   0.274   3.005
 4658SOL    HW214874   4.590   0.111   3.001
 4659SOL     OW14875   1.996   2.391   4.836
 4659SOL    HW114876   1.987   2.380   4.737
 4659SOL    HW214877   1.930   2.458   4.868
 4660SOL     OW14878   0.515   1.291   6.156
 4660SOL    HW114879   0.446   1.219   6.148
 4660SOL    HW214880   0.508   1.353   6.077
 4661SOL     OW14881   3.478   4.117   4.263
 4661SOL    HW114882   3.383   4.136   4.285
 4661SOL    HW214883   3.487   4.024   4.228
 4662SOL     OW14884   4.854   0.496   5.349
 4662SOL    HW114885   4.767   0.465   5.387
 4662SOL    HW214886   4.873   0.448   5.264
 4663SOL     OW14887   6.552   2.386   2.505
 4663SOL    HW114888   6.469   2.360   2.554
 4663SOL    HW214889   6.619   2.423   2.569
 4664SOL     OW14890   3.283   2.382   0.198
 4664SOL    HW114891   3.229   2.298   0.187
 4664SOL    HW214892   3.335   2.400   0.115
 4665SOL     OW14893   4.990   0.252   6.647
 4665SOL    HW114894   4.988   0.152   6.647
 4665SOL    HW214895   5.083   0.285   6.663
 4666SOL     OW14896   2.430   1.558   0.543
 4666SOL    HW114897   2.409   1.654   0.561
 4666SOL    HW214898   2.496   1.525   0.610
 4667SOL     OW14899   6.960   4.748   6.800
 4667SOL    HW114900   7.005   4.834   6.774
 4667SOL    HW214901   0.009   4.675   6.804
 4668SOL     OW14902   6.437   1.627   4.570
 4668SOL    HW114903   6.386   1.713   4.574
 4668SOL    HW214904   6.386   1.556   4.619
 4669SOL     OW14905   1.174   6.988   0.446
 4669SOL    HW114906   1.212   0.043   0.502
 4669SOL    HW214907   1.078   6.974   0.470
 4670SOL     OW14908   2.441   2.199   4.681
 4670SOL    HW114909   2.381   2.273   4.712
 4670SOL    HW214910   2.418   2.175   4.586
 4671SOL     OW14911   5.648   3.192   1.674
 4671SOL    HW114912   5.674   3.101   1.705
 4671SOL    HW214913   5.549   3.195   1.659
 4672SOL     OW14914   2.261   3.818   6.420
 4672SOL    HW114915   2.218   3.907   6.438
 4672SOL    HW214916   2.206   3.745   6.462
 4673SOL     OW14917   3.441   1.109   2.472
 4673SOL    HW114918   3.369   1.044   2.495
 4673SOL    HW214919   3.403   1.202   2.474
 4674SOL     OW14920   4.707   5.555   5.366
 4674SOL    HW114921   4.681   5.574   5.461
 4674SOL    HW214922   4.806   5.566   5.356
 4675SOL     OW14923   1.248   3.968   6.977
 4675SOL    HW114924   1.307   3.981   6.897
 4675SOL    HW214925   1.296   3.997   0.041
 4676SOL     OW14926   1.531   5.515   3.179
 4676SOL    HW114927   1.443   5.543   3.216
 4676SOL    HW214928   1.587   5.476   3.253
 4677SOL     OW14929   1.669   2.558   0.073
 4677SOL    HW114930   1.714   2.576   7.004
 4677SOL    HW214931   1.594   2.494   0.059
 4678SOL     OW14932   2.010   4.394   2.878
 4678SOL    HW114933   1.921   4.430   2.850
 4678SOL    HW214934   1.998   4.307   2.925
 4679SOL     OW14935   5.359   6.904   1.243
 4679SOL    HW114936   5.292   6.883   1.171
 4679SOL    HW214937   5.325   6.870   1.331
 4680SOL     OW14938   2.475   1.292   1.934
 4680SOL    HW114939   2.431   1.329   1.852
 4680SOL    HW214940   2.472   1.192   1.932
 4681SOL     OW14941   5.598   3.839   1.095
 4681SOL    HW114942   5.658   3.778   1.044
 4681SOL    HW214943   5.537   3.786   1.154
 4682SOL     OW14944   4.892   3.700   6.327
 4682SOL    HW114945   4.964   3.631   6.321
 4682SOL    HW214946   4.803   3.655   6.318
 4683SOL     OW14947   6.163   3.789   3.706
 4683SOL    HW114948   6.084   3.728   3.714
 4683SOL    HW214949   6.213   3.791   3.793
 4684SOL     OW14950   4.627   6.518   0.229
 4684SOL    HW114951   4.702   6.516   0.163
 4684SOL    HW214952   4.661   6.494   0.319
 4685SOL     OW14953   2.796   3.484   5.940
 4685SOL    HW114954   2.817   3.406   5.998
 4685SOL    HW214955   2.810   3.569   5.991
 4686SOL     OW14956   3.128   5.730   0.434
 4686SOL    HW114957   3.134   5.776   0.523
 4686SOL    HW214958   3.040   5.751   0.391
 4687SOL     OW14959   3.022   0.633   2.753
 4687SOL    HW114960   3.092   0.689   2.795
 4687SOL    HW214961   2.945   0.622   2.816
 4688SOL     OW14962   5.647   2.828   5.811
 4688SOL    HW114963   5.645   2.876   5.899
 4688SOL    HW214964   5.658   2.895   5.737
 4689SOL     OW14965   5.637   0.519   0.436
 4689SOL    HW114966   5.654   0.470   0.350
 4689SOL    HW214967   5.681   0.609   0.432
 4690SOL     OW14968   2.513   1.284   0.697
 4690SOL    HW114969   2.551   1.264   0.606
 4690SOL    HW214970   2.429   1.233   0.710
 4691SOL     OW14971   5.934   4.635   0.722
 4691SOL    HW114972   5.912   4.545   0.760
 4691SOL    HW214973   6.014   4.672   0.769
 4692SOL     OW14974   6.709   4.462   3.263
 4692SOL    HW114975   6.614   4.462   3.295
 4692SOL    HW214976   6.763   4.525   3.318
 4693SOL     OW14977   1.735   0.979   3.644
 4693SOL    HW114978   1.695   1.058   3.690
 4693SOL    HW214979   1.673   0.948   3.571
 4694SOL     OW14980   2.670   1.178   0.487
 4694SOL    HW114981   2.759   1.173   0.533
 4694SOL    HW214982   2.678   1.234   0.405
 4695SOL     OW14983   1.233   6.051   0.743
 4695SOL    HW114984   1.263   5.955   0.744
 4695SOL    HW214985   1.272   6.099   0.821
 4696SOL     OW14986   1.547   5.347   6.029
 4696SOL    HW114987   1.459   5.320   6.068
 4696SOL    HW214988   1.569   5.440   6.058
 4697SOL     OW14989   2.272   4.274   1.093
 4697SOL    HW114990   2.350   4.325   1.128
 4697SOL    HW214991   2.221   4.331   1.029
 4698SOL     OW14992   4.690   0.797   3.348
 4698SOL    HW114993   4.787   0.810   3.331
 4698SOL    HW214994   4.671   0.809   3.446
 4699SOL     OW14995   0.977   0.663   1.708
 4699SOL    HW114996   1.023   0.676   1.796
 4699SOL    HW214997   1.032   0.604   1.650
 4700SOL     OW14998   5.797   2.404   2.826
 4700SOL    HW114999   5.778   2.315   2.784
 4700SOL    HW215000   5.717   2.463   2.818
 4701SOL     OW15001   3.468   2.029   2.165
 4701SOL    HW115002   3.524   2.112   2.156
 4701SOL    HW215003   3.514   1.964   2.225
 4702SOL     OW15004   5.130   4.902   6.235
 4702SOL    HW115005   5.171   4.865   6.318
 4702SOL    HW215006   5.202   4.931   6.172
 4703SOL     OW15007   1.165   4.895   3.044
 4703SOL    HW115008   1.181   4.847   3.130
 4703SOL    HW215009   1.070   4.927   3.041
 4704SOL     OW15010   0.381   5.663   5.743
 4704SOL    HW115011   0.351   5.740   5.687
 4704SOL    HW215012   0.479   5.672   5.761
 4705SOL     OW15013   3.031   2.774   1.554
 4705SOL    HW115014   3.019   2.688   1.604
 4705SOL    HW215015   2.953   2.833   1.570
 4706SOL     OW15016   1.417   0.616   0.550
 4706SOL    HW115017   1.353   0.617   0.472
 4706SOL    HW215018   1.488   0.685   0.536
 4707SOL     OW15019   1.362   6.857   1.415
 4707SOL    HW115020   1.329   6.854   1.509
 4707SOL    HW215021   1.457   6.886   1.414
 4708SOL     OW15022   0.667   2.415   3.934
 4708SOL    HW115023   0.688   2.332   3.883
 4708SOL    HW215024   0.727   2.489   3.903
 4709SOL     OW15025   4.677   3.989   5.236
 4709SOL    HW115026   4.753   3.953   5.182
 4709SOL    HW215027   4.702   3.991   5.332
 4710SOL     OW15028   5.789   6.507   4.236
 4710SOL    HW115029   5.705   6.553   4.265
 4710SOL    HW215030   5.775   6.408   4.233
 4711SOL     OW15031   6.194   3.218   3.215
 4711SOL    HW115032   6.231   3.154   3.148
 4711SOL    HW215033   6.123   3.274   3.173
 4712SOL     OW15034   4.344   4.241   5.341
 4712SOL    HW115035   4.338   4.292   5.256
 4712SOL    HW215036   4.386   4.299   5.411
 4713SOL     OW15037   5.622   4.050   0.893
 4713SOL    HW115038   5.596   3.990   0.969
 4713SOL    HW215039   5.618   4.145   0.923
 4714SOL     OW15040   6.284   0.945   6.119
 4714SOL    HW115041   6.265   0.991   6.033
 4714SOL    HW215042   6.269   1.008   6.195
 4715SOL     OW15043   6.187   2.100   2.216
 4715SOL    HW115044   6.167   2.023   2.277
 4715SOL    HW215045   6.128   2.095   2.136
 4716SOL     OW15046   3.814   4.594   5.607
 4716SOL    HW115047   3.905   4.631   5.586
 4716SOL    HW215048   3.744   4.659   5.579
 4717SOL     OW15049   3.219   5.090   5.680
 4717SOL    HW115050   3.172   5.139   5.607
 4717SOL    HW215051   3.249   5.001   5.646
 4718SOL     OW15052   5.222   3.723   1.142
 4718SOL    HW115053   5.201   3.818   1.118
 4718SOL    HW215054   5.316   3.717   1.175
 4719SOL     OW15055   6.275   3.416   3.941
 4719SOL    HW115056   6.318   3.358   4.010
 4719SOL    HW215057   6.186   3.377   3.916
 4720SOL     OW15058   2.847   4.583   6.859
 4720SOL    HW115059   2.880   4.527   6.783
 4720SOL    HW215060   2.768   4.637   6.829
 4721SOL     OW15061   6.499   3.405   2.619
 4721SOL    HW115062   6.521   3.331   2.683
 4721SOL    HW215063   6.456   3.480   2.668
 4722SOL     OW15064   1.317   4.347   6.227
 4722SOL    HW115065   1.329   4.445   6.209
 4722SOL    HW215066   1.398   4.312   6.273
 4723SOL     OW15067   3.794   3.943   6.089
 4723SOL    HW115068   3.832   4.009   6.024
 4723SOL    HW215069   3.748   3.992   6.163
 4724SOL     OW15070   0.681   6.494   4.386
 4724SOL    HW115071   0.588   6.524   4.412
 4724SOL    HW215072   0.715   6.552   4.312
 4725SOL     OW15073   5.561   5.065   0.346
 4725SOL    HW115074   5.466   5.094   0.357
 4725SOL    HW215075   5.610   5.133   0.290
 4726SOL     OW15076   2.178   3.165   5.850
 4726SOL    HW115077   2.238   3.089   5.824
 4726SOL    HW215078   2.134   3.143   5.937
 4727SOL     OW15079   0.718   5.886   0.595
 4727SOL    HW115080   0.626   5.898   0.635
 4727SOL    HW215081   0.774   5.966   0.615
 4728SOL     OW15082   5.970   0.852   4.044
 4728SOL    HW115083   5.952   0.813   4.134
 4728SOL    HW215084   5.917   0.936   4.033
 4729SOL     OW15085   6.167   0.808   0.425
 4729SOL    HW115086   6.215   0.721   0.439
 4729SOL    HW215087   6.184   0.841   0.332
 4730SOL     OW15088   3.363   6.580   4.952
 4730SOL    HW115089   3.306   6.585   5.034
 4730SOL    HW215090   3.324   6.640   4.882
 4731SOL     OW15091   2.897   6.973   0.842
 4731SOL    HW115092   2.871   6.934   0.753
 4731SOL    HW215093   2.981   0.007   0.832
 4732SOL     OW15094   0.391   3.704   4.302
 4732SOL    HW115095   0.398   3.797   4.338
 4732SOL    HW215096   0.407   3.638   4.376
 4733SOL     OW15097   2.062   3.533   2.789
 4733SOL    HW115098   2.102   3.576   2.708
 4733SOL    HW215099   1.963   3.526   2.777
 4734SOL     OW15100   5.328   3.771   6.125
 4734SOL    HW115101   5.237   3.737   6.100
 4734SOL    HW215102   5.319   3.865   6.158
 4735SOL     OW15103   6.892   6.246   4.873
 4735SOL    HW115104   6.898   6.336   4.831
 4735SOL    HW215105   6.983   6.214   4.897
 4736SOL     OW15106   6.436   2.039   3.022
 4736SOL    HW115107   6.369   1.964   3.028
 4736SOL    HW215108   6.390   2.126   3.042
 4737SOL     OW15109   1.984   5.199   1.266
 4737SOL    HW115110   2.034   5.276   1.225
 4737SOL    HW215111   1.892   5.194   1.225
 4738SOL     OW15112   2.124   0.652   3.720
 4738SOL    HW115113   2.201   0.703   3.682
 4738SOL    HW215114   2.060   0.715   3.764
 4739SOL     OW15115   5.955   3.447   4.715
 4739SOL    HW115116   5.940   3.522   4.780
 4739SOL    HW215117   6.031   3.471   4.655
 4740SOL     OW15118   0.324   1.232   1.658
 4740SOL    HW115119   0.270   1.274   1.584
 4740SOL    HW215120   0.414   1.208   1.624
 4741SOL     OW15121   4.391   4.787   1.321
 4741SOL    HW115122   4.426   4.702   1.280
 4741SOL    HW215123   4.326   4.765   1.393
 4742SOL     OW15124   2.944   5.872   0.834
 4742SOL    HW115125   3.029   5.920   0.810
 4742SOL    HW215126   2.867   5.934   0.822
 4743SOL     OW15127   2.105   1.829   6.906
 4743SOL    HW115128   2.179   1.840   6.972
 4743SOL    HW215129   2.072   1.734   6.908
 4744SOL     OW15130   1.910   3.495   5.558
 4744SOL    HW115131   1.971   3.421   5.530
 4744SOL    HW215132   1.957   3.582   5.549
 4745SOL     OW15133   3.810   5.168   5.320
 4745SOL    HW115134   3.798   5.103   5.246
 4745SOL    HW215135   3.855   5.251   5.286
 4746SOL     OW15136   6.224   6.145   0.662
 4746SOL    HW115137   6.177   6.126   0.575
 4746SOL    HW215138   6.157   6.174   0.730
 4747SOL     OW15139   6.771   2.168   0.586
 4747SOL    HW115140   6.838   2.209   0.648
 4747SOL    HW215141   6.704   2.116   0.639
 4748SOL     OW15142   1.164   0.518   1.609
 4748SOL    HW115143   1.195   0.433   1.566
 4748SOL    HW215144   1.240   0.583   1.612
 4749SOL     OW15145   2.169   6.392   0.023
 4749SOL    HW115146   2.206   6.404   6.949
 4749SOL    HW215147   2.146   6.481   0.061
 4750SOL     OW15148   6.904   1.016   4.491
 4750SOL    HW115149   6.912   1.037   4.394
 4750SOL    HW215150   6.949   0.928   4.510
 4751SOL     OW15151   1.572   5.084   6.377
 4751SOL    HW115152   1.489   5.063   6.325
 4751SOL    HW215153   1.557   5.167   6.430
 4752SOL     OW15154   3.031   6.562   1.720
 4752SOL    HW115155   3.033   6.527   1.814
 4752SOL    HW215156   3.077   6.651   1.717
 4753SOL     OW15157   5.647   6.669   5.120
 4753SOL    HW115158   5.565   6.682   5.175
 4753SOL    HW215159   5.636   6.590   5.060
 4754SOL     OW15160   0.225   6.908   5.854
 4754SOL    HW115161   0.281   6.989   5.833
 4754SOL    HW215162   0.230   6.889   5.952
 4755SOL     OW15163   2.441   1.827   6.136
 4755SOL    HW115164   2.426   1.926   6.134
 4755SOL    HW215165   2.453   1.797   6.230
 4756SOL     OW15166   4.902   2.860   1.518
 4756SOL    HW115167   4.958   2.784   1.485
 4756SOL    HW215168   4.805   2.837   1.506
 4757SOL     OW15169   2.200   2.201   1.889
 4757SOL    HW115170   2.190   2.220   1.792
 4757SOL    HW215171   2.215   2.103   1.903
 4758SOL     OW15172   5.029   5.002   5.156
 4758SOL    HW115173   5.122   4.973   5.133
 4758SOL    HW215174   5.025   5.023   5.254
 4759SOL     OW15175   5.665   5.934   6.197
 4759SOL    HW115176   5.657   5.835   6.183
 4759SOL    HW215177   5.609   5.982   6.129
 4760SOL     OW15178   2.206   0.785   1.702
 4760SOL    HW115179   2.228   0.832   1.787
 4760SOL    HW215180   2.198   0.851   1.627
 4761SOL     OW15181   6.556   0.403   6.323
 4761SOL    HW115182   6.652   0.378   6.336
 4761SOL    HW215183   6.498   0.325   6.348
 4762SOL     OW15184   2.645   5.352   2.004
 4762SOL    HW115185   2.731   5.400   1.989
 4762SOL    HW215186   2.578   5.416   2.043
 4763SOL     OW15187   6.206   6.511   2.973
 4763SOL    HW115188   6.172   6.455   3.049
 4763SOL    HW215189   6.132   6.571   2.941
 4764SOL     OW15190   4.248   3.508   5.229
 4764SOL    HW115191   4.192   3.528   5.149
 4764SOL    HW215192   4.336   3.554   5.221
 4765SOL     OW15193   4.702   5.984   4.958
 4765SOL    HW115194   4.759   6.061   4.986
 4765SOL    HW215195   4.607   6.013   4.952
 4766SOL     OW15196   2.409   0.410   3.633
 4766SOL    HW115197   2.505   0.421   3.660
 4766SOL    HW215198   2.395   0.453   3.544
 4767SOL     OW15199   4.051   6.730   0.037
 4767SOL    HW115200   3.990   6.659   0.072
 4767SOL    HW215201   4.009   6.775   6.977
 4768SOL     OW15202   5.820   0.487   4.464
 4768SOL    HW115203   5.777   0.569   4.425
 4768SOL    HW215204   5.823   0.415   4.395
 4769SOL     OW15205   4.231   6.235   1.565
 4769SOL    HW115206   4.251   6.144   1.600
 4769SOL    HW215207   4.149   6.231   1.507
 4770SOL     OW15208   2.208   0.724   3.461
 4770SOL    HW115209   2.108   0.731   3.461
 4770SOL    HW215210   2.234   0.627   3.454
 4771SOL     OW15211   3.540   4.256   5.973
 4771SOL    HW115212   3.454   4.209   5.951
 4771SOL    HW215213   3.597   4.261   5.891
 4772SOL     OW15214   2.993   1.255   1.672
 4772SOL    HW115215   2.908   1.227   1.716
 4772SOL    HW215216   3.009   1.352   1.690
 4773SOL     OW15217   0.269   5.706   3.370
 4773SOL    HW115218   0.363   5.695   3.402
 4773SOL    HW215219   0.207   5.705   3.449
 4774SOL     OW15220   1.064   3.538   1.781
 4774SOL    HW115221   1.009   3.489   1.713
 4774SOL    HW215222   1.150   3.569   1.740
 4775SOL     OW15223   4.507   0.415   3.060
 4775SOL    HW115224   4.566   0.481   3.013
 4775SOL    HW215225   4.425   0.462   3.092
 4776SOL     OW15226   3.096   6.138   2.638
 4776SOL    HW115227   3.120   6.072   2.568
 4776SOL    HW215228   3.032   6.097   2.703
 4777SOL     OW15229   2.706   4.390   1.080
 4777SOL    HW115230   2.687   4.293   1.097
 4777SOL    HW215231   2.789   4.416   1.129
 4778SOL     OW15232   4.674   3.713   1.740
 4778SOL    HW115233   4.718   3.623   1.741
 4778SOL    HW215234   4.648   3.736   1.646
 4779SOL     OW15235   6.645   0.258   3.188
 4779SOL    HW115236   6.668   0.354   3.175
 4779SOL    HW215237   6.572   0.232   3.125
 4780SOL     OW15238   0.892   6.667   6.055
 4780SOL    HW115239   0.833   6.586   6.059
 4780SOL    HW215240   0.987   6.641   6.073
 4781SOL     OW15241   2.098   5.272   0.679
 4781SOL    HW115242   2.131   5.193   0.732
 4781SOL    HW215243   2.135   5.356   0.719
 4782SOL     OW15244   5.358   6.326   6.707
 4782SOL    HW115245   5.308   6.283   6.782
 4782SOL    HW215246   5.295   6.343   6.631
 4783SOL     OW15247   5.211   4.004   1.041
 4783SOL    HW115248   5.302   4.045   1.049
 4783SOL    HW215249   5.144   4.062   1.087
 4784SOL     OW15250   5.683   5.080   5.424
 4784SOL    HW115251   5.636   5.070   5.337
 4784SOL    HW215252   5.782   5.078   5.410
 4785SOL     OW15253   6.939   6.121   0.436
 4785SOL    HW115254   6.849   6.089   0.468
 4785SOL    HW215255   6.939   6.221   0.431
 4786SOL     OW15256   1.792   3.065   1.997
 4786SOL    HW115257   1.879   3.110   2.018
 4786SOL    HW215258   1.797   2.969   2.023
 4787SOL     OW15259   3.081   2.229   3.502
 4787SOL    HW115260   3.017   2.153   3.516
 4787SOL    HW215261   3.030   2.313   3.486
 4788SOL     OW15262   0.650   5.149   4.875
 4788SOL    HW115263   0.643   5.197   4.962
 4788SOL    HW215264   0.690   5.210   4.806
 4789SOL     OW15265   5.826   0.386   6.444
 4789SOL    HW115266   5.924   0.386   6.426
 4789SOL    HW215267   5.776   0.406   6.360
 4790SOL     OW15268   5.850   2.604   6.522
 4790SOL    HW115269   5.818   2.686   6.571
 4790SOL    HW215270   5.773   2.542   6.507
 4791SOL     OW15271   5.430   6.960   2.128
 4791SOL    HW115272   5.505   7.016   2.164
 4791SOL    HW215273   5.344   6.991   2.168
 4792SOL     OW15274   2.299   2.840   2.971
 4792SOL    HW115275   2.275   2.937   2.962
 4792SOL    HW215276   2.218   2.788   2.997
 4793SOL     OW15277   1.374   0.117   6.429
 4793SOL    HW115278   1.326   0.074   6.352
 4793SOL    HW215279   1.426   0.196   6.395
 4794SOL     OW15280   2.440   6.546   3.457
 4794SOL    HW115281   2.390   6.625   3.493
 4794SOL    HW215282   2.492   6.503   3.531
 4795SOL     OW15283   6.046   3.225   4.492
 4795SOL    HW115284   5.956   3.254   4.460
 4795SOL    HW215285   6.061   3.259   4.585
 4796SOL     OW15286   5.850   3.943   0.377
 4796SOL    HW115287   5.818   4.016   0.437
 4796SOL    HW215288   5.873   3.981   0.288
 4797SOL     OW15289   0.734   4.829   5.864
 4797SOL    HW115290   0.830   4.854   5.876
 4797SOL    HW215291   0.721   4.789   5.773
 4798SOL     OW15292   0.222   4.281   3.943
 4798SOL    HW115293   0.147   4.242   3.888
 4798SOL    HW215294   0.275   4.344   3.886
 4799SOL     OW15295   4.995   1.449   4.901
 4799SOL    HW115296   5.095   1.441   4.901
 4799SOL    HW215297   4.956   1.371   4.950
 4800SOL     OW15298   2.739   2.799   5.540
 4800SOL    HW115299   2.662   2.787   5.478
 4800SOL    HW215300   2.825   2.800   5.488
 4801SOL     OW15301   1.864   1.731   0.446
 4801SOL    HW115302   1.964   1.735   0.435
 4801SOL    HW215303   1.823   1.694   0.364
 4802SOL     OW15304   2.580   6.734   1.643
 4802SOL    HW115305   2.598   6.788   1.560
 4802SOL    HW215306   2.667   6.706   1.684
 4803SOL     OW15307   0.619   6.824   0.649
 4803SOL    HW115308   0.543   6.879   0.616
 4803SOL    HW215309   0.618   6.735   0.604
 4804SOL     OW15310   4.365   4.840   6.376
 4804SOL    HW115311   4.384   4.792   6.462
 4804SOL    HW215312   4.435   4.816   6.309
 4805SOL     OW15313   6.886   1.522   6.977
 4805SOL    HW115314   6.982   1.501   6.993
 4805SOL    HW215315   6.871   1.620   6.986
 4806SOL     OW15316   0.269   3.894   2.855
 4806SOL    HW115317   0.206   3.933   2.788
 4806SOL    HW215318   0.219   3.873   2.939
 4807SOL     OW15319   0.614   5.827   1.659
 4807SOL    HW115320   0.588   5.867   1.571
 4807SOL    HW215321   0.694   5.769   1.647
 4808SOL     OW15322   5.132   3.401   1.423
 4808SOL    HW115323   5.161   3.338   1.495
 4808SOL    HW215324   5.050   3.450   1.454
 4809SOL     OW15325   3.293   4.854   6.805
 4809SOL    HW115326   3.206   4.902   6.807
 4809SOL    HW215327   3.337   4.861   6.895
 4810SOL     OW15328   0.818   5.615   1.608
 4810SOL    HW115329   0.743   5.555   1.579
 4810SOL    HW215330   0.892   5.559   1.647
 4811SOL     OW15331   3.748   5.245   1.826
 4811SOL    HW115332   3.730   5.180   1.899
 4811SOL    HW215333   3.719   5.207   1.739
 4812SOL     OW15334   0.225   5.727   4.119
 4812SOL    HW115335   0.238   5.777   4.205
 4812SOL    HW215336   0.268   5.637   4.127
 4813SOL     OW15337   4.731   1.752   2.365
 4813SOL    HW115338   4.787   1.813   2.307
 4813SOL    HW215339   4.714   1.796   2.453
 4814SOL     OW15340   0.066   3.968   1.190
 4814SOL    HW115341   0.031   4.019   1.269
 4814SOL    HW215342   7.009   3.923   1.144
 4815SOL     OW15343   4.598   5.478   1.623
 4815SOL    HW115344   4.559   5.414   1.689
 4815SOL    HW215345   4.528   5.505   1.558
 4816SOL     OW15346   5.332   5.130   2.838
 4816SOL    HW115347   5.352   5.056   2.773
 4816SOL    HW215348   5.243   5.170   2.815
 4817SOL     OW15349   1.415   2.225   5.645
 4817SOL    HW115350   1.451   2.144   5.599
 4817SOL    HW215351   1.418   2.211   5.744
 4818SOL     OW15352   6.923   6.877   3.963
 4818SOL    HW115353   6.895   6.786   3.933
 4818SOL    HW215354   0.004   6.881   3.973
 4819SOL     OW15355   1.496   3.179   6.961
 4819SOL    HW115356   1.560   3.226   6.900
 4819SOL    HW215357   1.510   3.212   0.036
 4820SOL     OW15358   6.885   3.285   2.270
 4820SOL    HW115359   6.804   3.305   2.215
 4820SOL    HW215360   6.965   3.328   2.229
 4821SOL     OW15361   6.726   5.999   2.454
 4821SOL    HW115362   6.759   5.986   2.361
 4821SOL    HW215363   6.802   5.990   2.518
 4822SOL     OW15364   1.182   4.132   4.178
 4822SOL    HW115365   1.197   4.034   4.170
 4822SOL    HW215366   1.164   4.156   4.273
 4823SOL     OW15367   1.738   2.675   1.852
 4823SOL    HW115368   1.643   2.681   1.884
 4823SOL    HW215369   1.783   2.599   1.898
 4824SOL     OW15370   5.296   0.528   5.197
 4824SOL    HW115371   5.387   0.555   5.168
 4824SOL    HW215372   5.285   0.429   5.185
 4825SOL     OW15373   1.415   0.178   4.404
 4825SOL    HW115374   1.387   0.189   4.309
 4825SOL    HW215375   1.416   0.267   4.449
 4826SOL     OW15376   4.300   0.182   1.198
 4826SOL    HW115377   4.390   0.226   1.195
 4826SOL    HW215378   4.250   0.203   1.114
 4827SOL     OW15379   6.734   1.914   0.995
 4827SOL    HW115380   6.758   2.005   1.032
 4827SOL    HW215381   6.812   1.853   1.007
 4828SOL     OW15382   4.577   0.797   2.374
 4828SOL    HW115383   4.541   0.703   2.380
 4828SOL    HW215384   4.512   0.860   2.417
 4829SOL     OW15385   3.681   7.015   5.637
 4829SOL    HW115386   3.709   6.990   5.729
 4829SOL    HW215387   3.761   7.017   5.577
 4830SOL     OW15388   3.020   5.898   3.883
 4830SOL    HW115389   3.101   5.865   3.932
 4830SOL    HW215390   3.036   5.890   3.785
 4831SOL     OW15391   3.427   5.120   6.299
 4831SOL    HW115392   3.432   5.027   6.335
 4831SOL    HW215393   3.333   5.140   6.269
 4832SOL     OW15394   3.193   3.022   4.376
 4832SOL    HW115395   3.272   3.072   4.411
 4832SOL    HW215396   3.143   3.080   4.312
 4833SOL     OW15397   6.658   2.592   4.468
 4833SOL    HW115398   6.642   2.554   4.377
 4833SOL    HW215399   6.752   2.627   4.473
 4834SOL     OW15400   1.965   5.640   1.515
 4834SOL    HW115401   2.056   5.677   1.530
 4834SOL    HW215402   1.938   5.583   1.593
 4835SOL     OW15403   7.003   2.902   5.023
 4835SOL    HW115404   6.932   2.833   5.033
 4835SOL    HW215405   6.989   2.952   4.938
 4836SOL     OW15406   5.066   1.197   5.032
 4836SOL    HW115407   5.048   1.187   5.129
 4836SOL    HW215408   5.047   1.110   4.986
 4837SOL     OW15409   6.910   3.664   4.922
 4837SOL    HW115410   6.995   3.696   4.880
 4837SOL    HW215411   6.890   3.570   4.891
 4838SOL     OW15412   1.333   4.634   6.202
 4838SOL    HW115413   1.430   4.656   6.214
 4838SOL    HW215414   1.280   4.673   6.277
 4839SOL     OW15415   2.470   1.825   0.651
 4839SOL    HW115416   2.556   1.868   0.624
 4839SOL    HW215417   2.467   1.817   0.751
 4840SOL     OW15418   5.549   3.210   5.170
 4840SOL    HW115419   5.506   3.295   5.139
 4840SOL    HW215420   5.612   3.177   5.100
 4841SOL     OW15421   3.292   5.292   3.257
 4841SOL    HW115422   3.250   5.243   3.333
 4841SOL    HW215423   3.282   5.390   3.271
 4842SOL     OW15424   2.994   5.346   3.165
 4842SOL    HW115425   2.998   5.433   3.213
 4842SOL    HW215426   2.962   5.274   3.227
 4843SOL     OW15427   0.464   2.549   2.496
 4843SOL    HW115428   0.369   2.539   2.525
 4843SOL    HW215429   0.490   2.470   2.439
 4844SOL     OW15430   0.918   5.697   5.049
 4844SOL    HW115431   0.845   5.660   4.991
 4844SOL    HW215432   1.005   5.688   5.002
 4845SOL     OW15433   4.833   3.976   4.823
 4845SOL    HW115434   4.782   3.891   4.812
 4845SOL    HW215435   4.771   4.049   4.851
 4846SOL     OW15436   6.832   3.814   5.152
 4846SOL    HW115437   6.890   3.777   5.224
 4846SOL    HW215438   6.839   3.757   5.070
 4847SOL     OW15439   2.310   6.185   6.019
 4847SOL    HW115440   2.331   6.153   5.926
 4847SOL    HW215441   2.300   6.285   6.018
 4848SOL     OW15442   2.652   0.836   4.129
 4848SOL    HW115443   2.735   0.788   4.101
 4848SOL    HW215444   2.616   0.888   4.051
 4849SOL     OW15445   1.847   6.729   1.190
 4849SOL    HW115446   1.801   6.729   1.101
 4849SOL    HW215447   1.943   6.752   1.177
 4850SOL     OW15448   4.519   0.669   0.520
 4850SOL    HW115449   4.614   0.665   0.488
 4850SOL    HW215450   4.500   0.761   0.555
 4851SOL     OW15451   3.689   5.546   6.700
 4851SOL    HW115452   3.724   5.524   6.609
 4851SOL    HW215453   3.591   5.563   6.695
 4852SOL     OW15454   4.520   5.114   4.646
 4852SOL    HW115455   4.426   5.127   4.679
 4852SOL    HW215456   4.585   5.149   4.713
 4853SOL     OW15457   3.438   0.779   3.555
 4853SOL    HW115458   3.494   0.805   3.633
 4853SOL    HW215459   3.431   0.680   3.550
 4854SOL     OW15460   6.089   6.178   1.475
 4854SOL    HW115461   6.118   6.128   1.557
 4854SOL    HW215462   6.137   6.142   1.396
 4855SOL     OW15463   6.435   4.819   4.476
 4855SOL    HW115464   6.441   4.727   4.515
 4855SOL    HW215465   6.447   4.887   4.548
 4856SOL     OW15466   0.117   4.072   2.711
 4856SOL    HW115467   0.109   4.147   2.645
 4856SOL    HW215468   0.087   4.104   2.801
 4857SOL     OW15469   2.586   1.922   4.514
 4857SOL    HW115470   2.565   1.906   4.611
 4857SOL    HW215471   2.521   1.986   4.476
 4858SOL     OW15472   0.384   6.164   4.545
 4858SOL    HW115473   0.356   6.076   4.584
 4858SOL    HW215474   0.484   6.171   4.547
 4859SOL     OW15475   0.624   5.674   2.385
 4859SOL    HW115476   0.551   5.606   2.387
 4859SOL    HW215477   0.602   5.750   2.446
 4860SOL     OW15478   4.830   5.449   0.971
 4860SOL    HW115479   4.827   5.522   1.039
 4860SOL    HW215480   4.849   5.362   1.016
 4861SOL     OW15481   0.574   4.754   6.692
 4861SOL    HW115482   0.672   4.745   6.711
 4861SOL    HW215483   0.557   4.738   6.595
 4862SOL     OW15484   2.749   4.687   5.320
 4862SOL    HW115485   2.699   4.730   5.245
 4862SOL    HW215486   2.846   4.681   5.297
 4863SOL     OW15487   4.434   2.082   3.067
 4863SOL    HW115488   4.346   2.059   3.109
 4863SOL    HW215489   4.507   2.072   3.135
 4864SOL     OW15490   3.213   1.241   1.944
 4864SOL    HW115491   3.192   1.143   1.953
 4864SOL    HW215492   3.128   1.294   1.954
 4865SOL     OW15493   4.004   5.751   5.567
 4865SOL    HW115494   4.046   5.687   5.502
 4865SOL    HW215495   4.004   5.843   5.527
 4866SOL     OW15496   5.739   4.343   0.983
 4866SOL    HW115497   5.655   4.397   0.977
 4866SOL    HW215498   5.779   4.334   0.892
 4867SOL     OW15499   4.919   5.981   2.612
 4867SOL    HW115500   4.907   5.939   2.702
 4867SOL    HW215501   5.017   5.983   2.589
 4868SOL     OW15502   0.409   5.576   1.358
 4868SOL    HW115503   0.356   5.644   1.409
 4868SOL    HW215504   0.350   5.499   1.336
 4869SOL     OW15505   6.749   1.297   0.018
 4869SOL    HW115506   6.708   1.245   6.961
 4869SOL    HW215507   6.788   1.382   7.001
 4870SOL     OW15508   6.172   6.587   2.318
 4870SOL    HW115509   6.079   6.561   2.344
 4870SOL    HW215510   6.189   6.681   2.347
 4871SOL     OW15511   1.110   3.317   4.042
 4871SOL    HW115512   1.188   3.363   3.998
 4871SOL    HW215513   1.126   3.218   4.042
 4872SOL     OW15514   1.081   0.772   2.756
 4872SOL    HW115515   1.163   0.783   2.700
 4872SOL    HW215516   1.102   0.798   2.850
 4873SOL     OW15517   7.007   5.401   5.298
 4873SOL    HW115518   0.040   5.471   5.247
 4873SOL    HW215519   0.049   5.356   5.363
 4874SOL     OW15520   5.353   3.706   3.068
 4874SOL    HW115521   5.397   3.690   3.156
 4874SOL    HW215522   5.268   3.758   3.082
 4875SOL     OW15523   5.586   2.154   0.485
 4875SOL    HW115524   5.518   2.222   0.457
 4875SOL    HW215525   5.634   2.187   0.567
 4876SOL     OW15526   0.206   1.370   0.269
 4876SOL    HW115527   0.177   1.274   0.268
 4876SOL    HW215528   0.224   1.398   0.363
 4877SOL     OW15529   6.216   1.167   1.357
 4877SOL    HW115530   6.242   1.072   1.341
 4877SOL    HW215531   6.228   1.189   1.454
 4878SOL     OW15532   6.958   2.050   2.013
 4878SOL    HW115533   6.994   1.961   2.038
 4878SOL    HW215534   6.914   2.045   1.924
 4879SOL     OW15535   4.498   5.212   3.499
 4879SOL    HW115536   4.525   5.166   3.415
 4879SOL    HW215537   4.534   5.306   3.498
 4880SOL     OW15538   5.721   2.017   6.403
 4880SOL    HW115539   5.803   2.058   6.364
 4880SOL    HW215540   5.644   2.029   6.340
 4881SOL     OW15541   3.940   6.298   6.468
 4881SOL    HW115542   4.025   6.319   6.420
 4881SOL    HW215543   3.887   6.232   6.415
 4882SOL     OW15544   5.671   0.398   5.453
 4882SOL    HW115545   5.735   0.393   5.529
 4882SOL    HW215546   5.577   0.386   5.486
 4883SOL     OW15547   6.894   4.746   1.985
 4883SOL    HW115548   6.938   4.815   2.042
 4883SOL    HW215549   6.961   4.677   1.958
 4884SOL     OW15550   3.545   6.475   1.510
 4884SOL    HW115551   3.561   6.542   1.583
 4884SOL    HW215552   3.479   6.512   1.445
 4885SOL     OW15553   1.950   6.947   1.794
 4885SOL    HW115554   1.985   6.935   1.887
 4885SOL    HW215555   2.025   6.941   1.729
 4886SOL     OW15556   6.405   0.547   0.054
 4886SOL    HW115557   6.364   0.456   0.052
 4886SOL    HW215558   6.466   0.554   0.133
 4887SOL     OW15559   0.226   2.165   3.515
 4887SOL    HW115560   0.138   2.121   3.499
 4887SOL    HW215561   0.299   2.104   3.485
 4888SOL     OW15562   2.573   5.535   2.790
 4888SOL    HW115563   2.474   5.522   2.800
 4888SOL    HW215564   2.599   5.624   2.827
 4889SOL     OW15565   0.743   1.822   0.348
 4889SOL    HW115566   0.813   1.893   0.357
 4889SOL    HW215567   0.652   1.863   0.349
 4890SOL     OW15568   1.119   0.822   4.383
 4890SOL    HW115569   1.102   0.812   4.285
 4890SOL    HW215570   1.064   0.898   4.418
 4891SOL     OW15571   0.647   5.117   0.440
 4891SOL    HW115572   0.731   5.104   0.387
 4891SOL    HW215573   0.640   5.044   0.508
 4892SOL     OW15574   0.679   5.650   0.830
 4892SOL    HW115575   0.616   5.625   0.756
 4892SOL    HW215576   0.765   5.683   0.790
 4893SOL     OW15577   0.549   3.555   6.431
 4893SOL    HW115578   0.482   3.547   6.357
 4893SOL    HW215579   0.570   3.463   6.466
 4894SOL     OW15580   2.237   1.439   3.103
 4894SOL    HW115581   2.320   1.458   3.156
 4894SOL    HW215582   2.186   1.365   3.148
 4895SOL     OW15583   0.907   3.032   0.193
 4895SOL    HW115584   0.877   3.060   0.284
 4895SOL    HW215585   0.884   3.103   0.126
 4896SOL     OW15586   3.754   5.213   4.895
 4896SOL    HW115587   3.750   5.299   4.844
 4896SOL    HW215588   3.830   5.158   4.861
 4897SOL     OW15589   3.766   5.490   6.419
 4897SOL    HW115590   3.829   5.433   6.367
 4897SOL    HW215591   3.672   5.461   6.400
 4898SOL     OW15592   5.137   1.896   5.431
 4898SOL    HW115593   5.112   1.816   5.377
 4898SOL    HW215594   5.092   1.891   5.520
 4899SOL     OW15595   5.915   4.302   3.617
 4899SOL    HW115596   5.832   4.270   3.663
 4899SOL    HW215597   5.991   4.241   3.638
 4900SOL     OW15598   0.954   6.822   5.478
 4900SOL    HW115599   0.965   6.752   5.408
 4900SOL    HW215600   1.005   6.794   5.560
 4901SOL     OW15601   0.796   0.036   3.847
 4901SOL    HW115602   0.886   0.026   3.889
 4901SOL    HW215603   0.789   6.995   3.767
 4902SOL     OW15604   2.289   4.490   1.588
 4902SOL    HW115605   2.326   4.483   1.681
 4902SOL    HW215606   2.195   4.525   1.592
 4903SOL     OW15607   4.935   6.952   6.480
 4903SOL    HW115608   4.906   6.973   6.573
 4903SOL    HW215609   4.868   6.988   6.415
 4904SOL     OW15610   2.695   5.978   4.192
 4904SOL    HW115611   2.763   6.006   4.260
 4904SOL    HW215612   2.732   5.993   4.100
 4905SOL     OW15613   4.900   3.228   1.888
 4905SOL    HW115614   4.840   3.178   1.951
 4905SOL    HW215615   4.996   3.209   1.911
 4906SOL     OW15616   5.112   0.394   0.055
 4906SOL    HW115617   5.135   0.379   0.151
 4906SOL    HW215618   5.149   0.320   7.017
 4907SOL     OW15619   3.087   1.125   3.548
 4907SOL    HW115620   3.135   1.165   3.470
 4907SOL    HW215621   3.111   1.175   3.631
 4908SOL     OW15622   3.335   6.421   6.295
 4908SOL    HW115623   3.424   6.451   6.331
 4908SOL    HW215624   3.346   6.335   6.246
 4909SOL     OW15625   6.603   6.442   5.516
 4909SOL    HW115626   6.510   6.407   5.526
 4909SOL    HW215627   6.609   6.533   5.556
 4910SOL     OW15628   5.702   0.383   5.036
 4910SOL    HW115629   5.728   0.307   5.095
 4910SOL    HW215630   5.727   0.363   4.942
 4911SOL     OW15631   6.844   2.722   6.154
 4911SOL    HW115632   6.875   2.728   6.059
 4911SOL    HW215633   6.895   2.788   6.209
 4912SOL     OW15634   2.722   2.320   2.703
 4912SOL    HW115635   2.633   2.306   2.661
 4912SOL    HW215636   2.787   2.254   2.664
 4913SOL     OW15637   3.026   3.891   3.001
 4913SOL    HW115638   3.063   3.976   3.038
 4913SOL    HW215639   2.997   3.905   2.906
 4914SOL     OW15640   2.642   6.696   3.762
 4914SOL    HW115641   2.573   6.762   3.733
 4914SOL    HW215642   2.727   6.712   3.711
 4915SOL     OW15643   3.185   5.887   4.102
 4915SOL    HW115644   3.277   5.854   4.123
 4915SOL    HW215645   3.170   5.974   4.149
 4916SOL     OW15646   2.177   1.461   2.721
 4916SOL    HW115647   2.112   1.429   2.791
 4916SOL    HW215648   2.153   1.555   2.695
 4917SOL     OW15649   2.128   4.978   0.844
 4917SOL    HW115650   2.033   4.951   0.856
 4917SOL    HW215651   2.171   4.989   0.934
 4918SOL     OW15652   2.278   0.257   2.321
 4918SOL    HW115653   2.365   0.304   2.306
 4918SOL    HW215654   2.206   0.303   2.270
 4919SOL     OW15655   2.290   2.713   2.059
 4919SOL    HW115656   2.301   2.738   2.156
 4919SOL    HW215657   2.290   2.613   2.051
 4920SOL     OW15658   4.346   0.735   0.235
 4920SOL    HW115659   4.270   0.674   0.257
 4920SOL    HW215660   4.362   0.797   0.311
 4921SOL     OW15661   0.981   4.554   1.543
 4921SOL    HW115662   0.884   4.532   1.557
 4921SOL    HW215663   0.994   4.588   1.450
 4922SOL     OW15664   1.405   2.834   5.217
 4922SOL    HW115665   1.465   2.902   5.176
 4922SOL    HW215666   1.453   2.787   5.290
 4923SOL     OW15667   4.826   1.006   1.183
 4923SOL    HW115668   4.778   0.965   1.261
 4923SOL    HW215669   4.921   0.973   1.182
 4924SOL     OW15670   0.717   3.996   4.736
 4924SOL    HW115671   0.722   3.896   4.734
 4924SOL    HW215672   0.637   4.024   4.790
 4925SOL     OW15673   4.741   5.982   7.000
 4925SOL    HW115674   4.652   6.026   6.983
 4925SOL    HW215675   4.726   5.888   0.013
 4926SOL     OW15676   4.817   2.450   1.760
 4926SOL    HW115677   4.735   2.452   1.702
 4926SOL    HW215678   4.789   2.448   1.856
 4927SOL     OW15679   3.416   2.885   3.344
 4927SOL    HW115680   3.395   2.896   3.442
 4927SOL    HW215681   3.515   2.892   3.331
 4928SOL     OW15682   0.371   5.881   0.037
 4928SOL    HW115683   0.414   5.969   0.056
 4928SOL    HW215684   0.293   5.894   6.994
 4929SOL     OW15685   1.168   5.270   4.174
 4929SOL    HW115686   1.236   5.247   4.244
 4929SOL    HW215687   1.178   5.208   4.097
 4930SOL     OW15688   0.441   2.092   0.851
 4930SOL    HW115689   0.479   2.003   0.825
 4930SOL    HW215690   0.408   2.089   0.945
 4931SOL     OW15691   0.078   0.840   0.212
 4931SOL    HW115692   7.013   0.792   0.185
 4931SOL    HW215693   0.157   0.780   0.200
 4932SOL     OW15694   2.582   2.183   1.562
 4932SOL    HW115695   2.640   2.161   1.640
 4932SOL    HW215696   2.625   2.257   1.509
 4933SOL     OW15697   2.523   0.971   3.907
 4933SOL    HW115698   2.575   1.014   3.833
 4933SOL    HW215699   2.446   1.030   3.932
 4934SOL     OW15700   1.090   5.903   4.375
 4934SOL    HW115701   1.059   5.868   4.286
 4934SOL    HW215702   1.024   5.878   4.445
 4935SOL     OW15703   1.516   1.066   0.381
 4935SOL    HW115704   1.523   1.107   0.472
 4935SOL    HW215705   1.446   0.994   0.383
 4936SOL     OW15706   3.950   5.556   1.026
 4936SOL    HW115707   4.019   5.507   1.079
 4936SOL    HW215708   3.969   5.543   0.928
 4937SOL     OW15709   0.611   2.910   6.175
 4937SOL    HW115710   0.615   2.818   6.215
 4937SOL    HW215711   0.697   2.928   6.127
 4938SOL     OW15712   3.396   4.522   1.603
 4938SOL    HW115713   3.470   4.555   1.661
 4938SOL    HW215714   3.309   4.531   1.651
 4939SOL     OW15715   1.644   1.743   1.697
 4939SOL    HW115716   1.551   1.779   1.694
 4939SOL    HW215717   1.671   1.729   1.793
 4940SOL     OW15718   0.453   2.737   4.621
 4940SOL    HW115719   0.416   2.790   4.697
 4940SOL    HW215720   0.411   2.646   4.621
 4941SOL     OW15721   3.842   2.535   5.332
 4941SOL    HW115722   3.770   2.581   5.281
 4941SOL    HW215723   3.930   2.547   5.285
 4942SOL     OW15724   5.816   2.028   4.202
 4942SOL    HW115725   5.871   2.057   4.281
 4942SOL    HW215726   5.850   1.941   4.168
 4943SOL     OW15727   5.852   3.050   6.612
 4943SOL    HW115728   5.832   3.085   6.521
 4943SOL    HW215729   5.847   2.950   6.611
 4944SOL     OW15730   1.319   5.566   1.001
 4944SOL    HW115731   1.282   5.615   0.922
 4944SOL    HW215732   1.401   5.516   0.974
 4945SOL     OW15733   1.890   0.967   5.115
 4945SOL    HW115734   1.838   0.889   5.150
 4945SOL    HW215735   1.868   0.982   5.019
 4946SOL     OW15736   2.106   5.243   0.311
 4946SOL    HW115737   2.011   5.275   0.310
 4946SOL    HW215738   2.108   5.146   0.337
 4947SOL     OW15739   1.841   0.948   1.705
 4947SOL    HW115740   1.857   0.867   1.649
 4947SOL    HW215741   1.802   1.020   1.648
 4948SOL     OW15742   1.464   2.593   1.858
 4948SOL    HW115743   1.469   2.587   1.958
 4948SOL    HW215744   1.381   2.548   1.826
 4949SOL     OW15745   6.674   3.634   0.354
 4949SOL    HW115746   6.726   3.596   0.277
 4949SOL    HW215747   6.577   3.633   0.332
 4950SOL     OW15748   2.178   4.017   5.275
 4950SOL    HW115749   2.095   4.026   5.219
 4950SOL    HW215750   2.258   4.012   5.216
 4951SOL     OW15751   4.993   5.812   3.414
 4951SOL    HW115752   5.027   5.747   3.346
 4951SOL    HW215753   5.065   5.832   3.481
 4952SOL     OW15754   0.591   6.299   5.856
 4952SOL    HW115755   0.541   6.226   5.904
 4952SOL    HW215756   0.530   6.345   5.792
 4953SOL     OW15757   1.425   2.167   4.437
 4953SOL    HW115758   1.476   2.251   4.454
 4953SOL    HW215759   1.329   2.180   4.462
 4954SOL     OW15760   3.096   4.091   4.898
 4954SOL    HW115761   3.038   4.172   4.896
 4954SOL    HW215762   3.045   4.012   4.865
 4955SOL     OW15763   3.225   5.597   6.956
 4955SOL    HW115764   3.139   5.614   6.908
 4955SOL    HW215765   3.206   5.565   0.031
 4956SOL     OW15766   2.514   6.800   4.856
 4956SOL    HW115767   2.492   6.876   4.917
 4956SOL    HW215768   2.439   6.734   4.857
 4957SOL     OW15769   6.314   4.347   0.250
 4957SOL    HW115770   6.259   4.297   0.183
 4957SOL    HW215771   6.326   4.291   0.332
 4958SOL     OW15772   3.161   6.775   0.556
 4958SOL    HW115773   3.116   6.853   0.600
 4958SOL    HW215774   3.139   6.775   0.458
 4959SOL     OW15775   0.613   3.272   2.376
 4959SOL    HW115776   0.610   3.225   2.287
 4959SOL    HW215777   0.707   3.270   2.411
 4960SOL     OW15778   4.035   5.997   4.483
 4960SOL    HW115779   4.129   5.977   4.510
 4960SOL    HW215780   3.993   6.055   4.553
 4961SOL     OW15781   3.662   1.058   0.541
 4961SOL    HW115782   3.742   1.067   0.599
 4961SOL    HW215783   3.579   1.071   0.596
 4962SOL     OW15784   1.044   4.379   1.098
 4962SOL    HW115785   1.029   4.448   1.168
 4962SOL    HW215786   1.130   4.332   1.116
 4963SOL     OW15787   1.110   4.102   6.087
 4963SOL    HW115788   1.108   4.084   6.186
 4963SOL    HW215789   1.152   4.025   6.040
 4964SOL     OW15790   2.987   6.855   4.705
 4964SOL    HW115791   2.973   6.877   4.608
 4964SOL    HW215792   2.944   6.925   4.762
 4965SOL     OW15793   1.442   6.097   2.683
 4965SOL    HW115794   1.379   6.117   2.608
 4965SOL    HW215795   1.413   6.014   2.731
 4966SOL     OW15796   3.832   6.240   4.159
 4966SOL    HW115797   3.901   6.171   4.182
 4966SOL    HW215798   3.794   6.278   4.243
 4967SOL     OW15799   4.183   4.796   5.023
 4967SOL    HW115800   4.241   4.878   5.021
 4967SOL    HW215801   4.240   4.715   5.006
 4968SOL     OW15802   0.006   1.524   3.967
 4968SOL    HW115803   0.094   1.494   4.005
 4968SOL    HW215804   6.969   1.565   4.040
 4969SOL     OW15805   0.598   5.984   2.849
 4969SOL    HW115806   0.573   6.081   2.841
 4969SOL    HW215807   0.552   5.944   2.928
 4970SOL     OW15808   1.790   1.375   1.772
 4970SOL    HW115809   1.807   1.438   1.848
 4970SOL    HW215810   1.780   1.282   1.808
 4971SOL     OW15811   6.441   6.591   3.084
 4971SOL    HW115812   6.372   6.571   3.015
 4971SOL    HW215813   6.443   6.516   3.151
 4972SOL     OW15814   1.686   4.211   1.335
 4972SOL    HW115815   1.600   4.258   1.354
 4972SOL    HW215816   1.669   4.136   1.271
 4973SOL     OW15817   0.263   0.754   1.190
 4973SOL    HW115818   0.312   0.778   1.274
 4973SOL    HW215819   0.190   0.689   1.211
 4974SOL     OW15820   3.697   4.988   5.065
 4974SOL    HW115821   3.707   5.067   5.005
 4974SOL    HW215822   3.784   4.940   5.071
 4975SOL     OW15823   6.043   3.342   0.555
 4975SOL    HW115824   6.023   3.364   0.459
 4975SOL    HW215825   5.957   3.327   0.604
 4976SOL     OW15826   1.534   6.821   4.644
 4976SOL    HW115827   1.472   6.744   4.629
 4976SOL    HW215828   1.580   6.844   4.558
 4977SOL     OW15829   2.605   5.206   6.418
 4977SOL    HW115830   2.630   5.262   6.340
 4977SOL    HW215831   2.678   5.210   6.487
 4978SOL     OW15832   4.978   4.679   5.233
 4978SOL    HW115833   5.065   4.659   5.279
 4978SOL    HW215834   4.974   4.776   5.211
 4979SOL     OW15835   1.838   6.598   6.402
 4979SOL    HW115836   1.863   6.691   6.374
 4979SOL    HW215837   1.771   6.561   6.338
 4980SOL     OW15838   6.168   4.186   2.940
 4980SOL    HW115839   6.122   4.130   3.009
 4980SOL    HW215840   6.250   4.228   2.980
 4981SOL     OW15841   3.750   5.052   2.009
 4981SOL    HW115842   3.741   4.977   1.943
 4981SOL    HW215843   3.748   5.015   2.102
 4982SOL     OW15844   4.692   1.135   6.758
 4982SOL    HW115845   4.778   1.097   6.723
 4982SOL    HW215846   4.640   1.175   6.682
 4983SOL     OW15847   0.075   5.335   2.704
 4983SOL    HW115848   0.043   5.293   2.619
 4983SOL    HW215849   0.175   5.333   2.707
 4984SOL     OW15850   4.853   4.658   2.691
 4984SOL    HW115851   4.945   4.621   2.707
 4984SOL    HW215852   4.806   4.670   2.778
 4985SOL     OW15853   5.853   5.734   2.994
 4985SOL    HW115854   5.820   5.710   3.086
 4985SOL    HW215855   5.775   5.739   2.931
 4986SOL     OW15856   1.109   5.108   2.093
 4986SOL    HW115857   1.184   5.135   2.032
 4986SOL    HW215858   1.063   5.028   2.055
 4987SOL     OW15859   0.691   0.826   2.086
 4987SOL    HW115860   0.756   0.770   2.137
 4987SOL    HW215861   0.666   0.779   2.002
 4988SOL     OW15862   5.890   0.314   3.427
 4988SOL    HW115863   5.983   0.314   3.464
 4988SOL    HW215864   5.879   0.234   3.367
 4989SOL     OW15865   4.117   1.227   2.496
 4989SOL    HW115866   4.133   1.190   2.587
 4989SOL    HW215867   4.095   1.324   2.503
 4990SOL     OW15868   4.539   1.670   5.387
 4990SOL    HW115869   4.638   1.662   5.380
 4990SOL    HW215870   4.508   1.622   5.470
 4991SOL     OW15871   1.107   5.587   5.234
 4991SOL    HW115872   1.184   5.563   5.175
 4991SOL    HW215873   1.038   5.635   5.180
 4992SOL     OW15874   6.976   1.509   3.536
 4992SOL    HW115875   6.903   1.518   3.604
 4992SOL    HW215876   6.998   1.412   3.525
 4993SOL     OW15877   4.340   6.360   4.702
 4993SOL    HW115878   4.303   6.274   4.737
 4993SOL    HW215879   4.436   6.348   4.679
 4994SOL     OW15880   2.994   5.321   6.102
 4994SOL    HW115881   3.027   5.353   6.013
 4994SOL    HW215882   2.910   5.371   6.125
 4995SOL     OW15883   0.871   0.640   4.830
 4995SOL    HW115884   0.882   0.543   4.810
 4995SOL    HW215885   0.774   0.661   4.840
 4996SOL     OW15886   6.695   0.960   4.671
 4996SOL    HW115887   6.748   0.907   4.736
 4996SOL    HW215888   6.755   0.996   4.600
 4997SOL     OW15889   3.272   2.156   1.792
 4997SOL    HW115890   3.236   2.108   1.712
 4997SOL    HW215891   3.371   2.164   1.783
 4998SOL     OW15892   1.016   3.242   3.725
 4998SOL    HW115893   1.114   3.262   3.726
 4998SOL    HW215894   0.993   3.183   3.803
 4999SOL     OW15895   0.787   3.726   4.795
 4999SOL    HW115896   0.747   3.709   4.885
 4999SOL    HW215897   0.825   3.641   4.758
 5000SOL     OW15898   3.054   5.937   3.587
 5000SOL    HW115899   3.115   6.013   3.564
 5000SOL    HW215900   3.075   5.859   3.528
 5001SOL     OW15901   1.068   5.257   2.356
 5001SOL    HW115902   0.990   5.318   2.340
 5001SOL    HW215903   1.089   5.206   2.273
 5002SOL     OW15904   0.644   3.909   3.020
 5002SOL    HW115905   0.625   4.005   3.001
 5002SOL    HW215906   0.620   3.888   3.115
 5003SOL     OW15907   4.232   6.284   3.644
 5003SOL    HW115908   4.133   6.276   3.631
 5003SOL    HW215909   4.276   6.195   3.628
 5004SOL     OW15910   2.752   6.000   6.261
 5004SOL    HW115911   2.687   6.055   6.313
 5004SOL    HW215912   2.844   6.015   6.295
 5005SOL     OW15913   2.832   2.808   6.078
 5005SOL    HW115914   2.862   2.797   5.983
 5005SOL    HW215915   2.807   2.718   6.115
 5006SOL     OW15916   5.166   1.699   2.042
 5006SOL    HW115917   5.166   1.766   2.116
 5006SOL    HW215918   5.186   1.745   1.955
 5007SOL     OW15919   6.195   0.302   1.853
 5007SOL    HW115920   6.234   0.367   1.918
 5007SOL    HW215921   6.187   0.346   1.763
 5008SOL     OW15922   6.480   6.715   1.710
 5008SOL    HW115923   6.545   6.786   1.739
 5008SOL    HW215924   6.438   6.741   1.623
 5009SOL     OW15925   1.114   2.241   0.510
 5009SOL    HW115926   1.055   2.293   0.572
 5009SOL    HW215927   1.176   2.303   0.462
 5010SOL     OW15928   3.950   2.527   0.836
 5010SOL    HW115929   3.957   2.448   0.777
 5010SOL    HW215930   3.859   2.568   0.826
 5011SOL     OW15931   2.297   3.753   6.893
 5011SOL    HW115932   2.250   3.682   6.840
 5011SOL    HW215933   2.238   3.783   6.968
 5012SOL     OW15934   5.741   1.540   5.344
 5012SOL    HW115935   5.797   1.458   5.339
 5012SOL    HW215936   5.654   1.519   5.388
 5013SOL     OW15937   6.029   0.079   5.828
 5013SOL    HW115938   6.019   0.153   5.893
 5013SOL    HW215939   5.940   0.037   5.810
 5014SOL     OW15940   6.340   3.201   1.756
 5014SOL    HW115941   6.429   3.210   1.712
 5014SOL    HW215942   6.289   3.127   1.713
 5015SOL     OW15943   5.493   6.994   4.197
 5015SOL    HW115944   5.420   6.927   4.179
 5015SOL    HW215945   5.582   6.953   4.177
 5016SOL     OW15946   1.310   3.064   4.983
 5016SOL    HW115947   1.272   3.011   4.907
 5016SOL    HW215948   1.390   3.017   5.020
 5017SOL     OW15949   0.529   2.439   1.416
 5017SOL    HW115950   0.612   2.416   1.365
 5017SOL    HW215951   0.506   2.535   1.401
 5018SOL     OW15952   0.582   5.485   1.524
 5018SOL    HW115953   0.538   5.507   1.437
 5018SOL    HW215954   0.530   5.528   1.598
 5019SOL     OW15955   1.369   5.272   5.166
 5019SOL    HW115956   1.466   5.261   5.142
 5019SOL    HW215957   1.359   5.274   5.265
 5020SOL     OW15958   0.428   6.552   4.453
 5020SOL    HW115959   0.398   6.642   4.484
 5020SOL    HW215960   0.379   6.528   4.369
 5021SOL     OW15961   2.060   0.990   0.962
 5021SOL    HW115962   2.098   1.073   0.922
 5021SOL    HW215963   2.104   0.910   0.921
 5022SOL     OW15964   0.413   2.998   1.544
 5022SOL    HW115965   0.434   3.029   1.636
 5022SOL    HW215966   0.489   2.944   1.508
 5023SOL     OW15967   0.552   4.396   2.060
 5023SOL    HW115968   0.456   4.403   2.089
 5023SOL    HW215969   0.562   4.433   1.968
 5024SOL     OW15970   5.458   3.775   1.343
 5024SOL    HW115971   5.428   3.707   1.410
 5024SOL    HW215972   5.448   3.867   1.383
 5025SOL     OW15973   3.963   1.365   4.002
 5025SOL    HW115974   4.016   1.425   3.941
 5025SOL    HW215975   3.866   1.376   3.982
 5026SOL     OW15976   5.837   6.281   5.073
 5026SOL    HW115977   5.742   6.268   5.099
 5026SOL    HW215978   5.872   6.366   5.113
 5027SOL     OW15979   5.138   0.641   6.974
 5027SOL    HW115980   5.216   0.686   7.017
 5027SOL    HW215981   5.123   0.552   7.017
 5028SOL     OW15982   0.024   2.277   2.500
 5028SOL    HW115983   0.077   2.355   2.468
 5028SOL    HW215984   7.016   2.220   2.422
 5029SOL     OW15985   6.082   2.282   2.424
 5029SOL    HW115986   6.159   2.345   2.415
 5029SOL    HW215987   6.088   2.212   2.353
 5030SOL     OW15988   6.853   4.989   6.494
 5030SOL    HW115989   6.760   5.008   6.526
 5030SOL    HW215990   6.854   4.991   6.394
 5031SOL     OW15991   0.115   0.652   5.450
 5031SOL    HW115992   0.017   0.660   5.429
 5031SOL    HW215993   0.154   0.744   5.462
 5032SOL     OW15994   3.642   2.769   5.531
 5032SOL    HW115995   3.627   2.712   5.451
 5032SOL    HW215996   3.738   2.795   5.537
 5033SOL     OW15997   2.280   1.100   0.702
 5033SOL    HW115998   2.219   1.166   0.746
 5033SOL    HW215999   2.239   1.068   0.617
 5034SOL     OW16000   4.633   6.310   3.921
 5034SOL    HW116001   4.579   6.267   3.994
 5034SOL    HW216002   4.574   6.325   3.841
 5035SOL     OW16003   0.677   4.612   4.206
 5035SOL    HW116004   0.774   4.606   4.183
 5035SOL    HW216005   0.666   4.661   4.292
 5036SOL     OW16006   6.363   3.631   5.513
 5036SOL    HW116007   6.280   3.576   5.527
 5036SOL    HW216008   6.340   3.712   5.460
 5037SOL     OW16009   4.467   4.547   1.195
 5037SOL    HW116010   4.512   4.547   1.284
 5037SOL    HW216011   4.374   4.512   1.205
 5038SOL     OW16012   3.228   3.486   4.275
 5038SOL    HW116013   3.235   3.578   4.315
 5038SOL    HW216014   3.315   3.438   4.287
 5039SOL     OW16015   1.966   3.062   6.208
 5039SOL    HW116016   1.984   3.050   6.305
 5039SOL    HW216017   1.991   3.155   6.180
 5040SOL     OW16018   1.239   4.936   5.646
 5040SOL    HW116019   1.170   4.926   5.717
 5040SOL    HW216020   1.206   5.001   5.577
 5041SOL     OW16021   0.751   3.386   1.904
 5041SOL    HW116022   0.825   3.403   1.970
 5041SOL    HW216023   0.694   3.310   1.935
 5042SOL     OW16024   0.015   3.815   6.177
 5042SOL    HW116025   0.111   3.843   6.183
 5042SOL    HW216026   6.975   3.887   6.213
 5043SOL     OW16027   4.217   0.423   0.392
 5043SOL    HW116028   4.163   0.490   0.340
 5043SOL    HW216029   4.188   0.423   0.487
 5044SOL     OW16030   6.727   5.427   0.733
 5044SOL    HW116031   6.778   5.381   0.661
 5044SOL    HW216032   6.787   5.492   0.780
 5045SOL     OW16033   6.117   4.301   6.488
 5045SOL    HW116034   6.085   4.388   6.524
 5045SOL    HW216035   6.211   4.311   6.454
 5046SOL     OW16036   3.515   3.345   3.770
 5046SOL    HW116037   3.450   3.274   3.742
 5046SOL    HW216038   3.512   3.420   3.704
 5047SOL     OW16039   1.771   3.536   2.858
 5047SOL    HW116040   1.781   3.631   2.886
 5047SOL    HW216041   1.714   3.531   2.775
 5048SOL     OW16042   1.608   1.248   5.914
 5048SOL    HW116043   1.573   1.331   5.870
 5048SOL    HW216044   1.547   1.223   5.990
 5049SOL     OW16045   6.359   0.295   5.999
 5049SOL    HW116046   6.283   0.359   5.990
 5049SOL    HW216047   6.377   0.278   6.096
 5050SOL     OW16048   1.747   1.140   0.035
 5050SOL    HW116049   1.669   1.197   0.061
 5050SOL    HW216050   1.832   1.193   0.045
 5051SOL     OW16051   3.748   4.614   1.363
 5051SOL    HW116052   3.728   4.528   1.411
 5051SOL    HW216053   3.748   4.598   1.264
 5052SOL     OW16054   3.431   2.190   5.639
 5052SOL    HW116055   3.470   2.209   5.729
 5052SOL    HW216056   3.504   2.186   5.571
 5053SOL     OW16057   0.431   5.059   2.566
 5053SOL    HW116058   0.442   4.980   2.626
 5053SOL    HW216059   0.519   5.081   2.523
 5054SOL     OW16060   3.857   4.667   5.266
 5054SOL    HW116061   3.884   4.736   5.200
 5054SOL    HW216062   3.809   4.710   5.342
 5055SOL     OW16063   6.883   3.334   6.286
 5055SOL    HW116064   6.910   3.253   6.338
 5055SOL    HW216065   6.786   3.354   6.303
 5056SOL     OW16066   5.153   3.955   5.076
 5056SOL    HW116067   5.093   4.027   5.041
 5056SOL    HW216068   5.248   3.975   5.050
 5057SOL     OW16069   0.954   6.551   2.056
 5057SOL    HW116070   0.953   6.641   2.099
 5057SOL    HW216071   0.860   6.521   2.038
 5058SOL     OW16072   2.768   4.936   6.742
 5058SOL    HW116073   2.856   4.982   6.731
 5058SOL    HW216074   2.728   4.963   6.830
 5059SOL     OW16075   0.397   0.275   3.093
 5059SOL    HW116076   0.432   0.201   3.151
 5059SOL    HW216077   0.444   0.274   3.005
 5060SOL     OW16078   6.485   1.927   6.431
 5060SOL    HW116079   6.403   1.971   6.467
 5060SOL    HW216080   6.534   1.882   6.506
 5061SOL     OW16081   4.780   3.021   0.256
 5061SOL    HW116082   4.709   2.951   0.244
 5061SOL    HW216083   4.815   3.017   0.349
 5062SOL     OW16084   0.516   7.007   1.471
 5062SOL    HW116085   0.467   0.026   1.393
 5062SOL    HW216086   0.606   0.032   1.479
 5063SOL     OW16087   0.723   6.789   1.930
 5063SOL    HW116088   0.705   6.887   1.944
 5063SOL    HW216089   0.721   6.742   2.019
 5064SOL     OW16090   4.770   3.055   0.587
 5064SOL    HW116091   4.768   2.984   0.657
 5064SOL    HW216092   4.747   3.144   0.628
 5065SOL     OW16093   2.337   6.843   5.325
 5065SOL    HW116094   2.352   6.752   5.365
 5065SOL    HW216095   2.290   6.833   5.238
 5066SOL     OW16096   5.453   4.199   1.542
 5066SOL    HW116097   5.370   4.240   1.505
 5066SOL    HW216098   5.515   4.271   1.574
 5067SOL     OW16099   5.411   0.923   0.347
 5067SOL    HW116100   5.331   0.983   0.351
 5067SOL    HW216101   5.416   0.880   0.257
 5068SOL     OW16102   3.151   4.585   0.785
 5068SOL    HW116103   3.108   4.531   0.857
 5068SOL    HW216104   3.090   4.591   0.706
 5069SOL     OW16105   0.677   4.726   2.909
 5069SOL    HW116106   0.667   4.684   2.819
 5069SOL    HW216107   0.690   4.654   2.978
 5070SOL     OW16108   4.952   3.307   4.064
 5070SOL    HW116109   4.911   3.391   4.028
 5070SOL    HW216110   4.944   3.235   3.995
 5071SOL     OW16111   4.213   2.105   5.641
 5071SOL    HW116112   4.276   2.182   5.650
 5071SOL    HW216113   4.179   2.101   5.547
 5072SOL     OW16114   0.148   4.718   0.853
 5072SOL    HW116115   0.170   4.701   0.949
 5072SOL    HW216116   0.048   4.714   0.841
 5073SOL     OW16117   6.307   6.578   2.073
 5073SOL    HW116118   6.239   6.560   2.144
 5073SOL    HW216119   6.293   6.669   2.036
 5074SOL     OW16120   2.737   4.312   6.800
 5074SOL    HW116121   2.799   4.241   6.832
 5074SOL    HW216122   2.743   4.392   6.860
 5075SOL     OW16123   0.264   5.900   5.619
 5075SOL    HW116124   0.330   5.974   5.611
 5075SOL    HW216125   0.205   5.915   5.698
 5076SOL     OW16126   2.969   0.433   0.864
 5076SOL    HW116127   3.053   0.381   0.844
 5076SOL    HW216128   2.890   0.372   0.857
 5077SOL     OW16129   1.472   2.606   3.773
 5077SOL    HW116130   1.488   2.704   3.756
 5077SOL    HW216131   1.499   2.554   3.693
 5078SOL     OW16132   1.344   1.913   4.347
 5078SOL    HW116133   1.305   1.886   4.435
 5078SOL    HW216134   1.395   1.999   4.358
 5079SOL     OW16135   3.393   4.905   5.548
 5079SOL    HW116136   3.436   4.887   5.459
 5079SOL    HW216137   3.404   4.825   5.607
 5080SOL     OW16138   5.871   6.523   5.199
 5080SOL    HW116139   5.794   6.567   5.154
 5080SOL    HW216140   5.865   6.538   5.298
 5081SOL     OW16141   3.372   3.549   3.368
 5081SOL    HW116142   3.310   3.542   3.290
 5081SOL    HW216143   3.381   3.644   3.396
 5082SOL     OW16144   5.482   5.812   5.758
 5082SOL    HW116145   5.403   5.842   5.706
 5082SOL    HW216146   5.472   5.839   5.854
 5083SOL     OW16147   1.376   6.389   1.939
 5083SOL    HW116148   1.320   6.310   1.914
 5083SOL    HW216149   1.418   6.374   2.028
 5084SOL     OW16150   1.385   5.377   3.910
 5084SOL    HW116151   1.358   5.435   3.832
 5084SOL    HW216152   1.476   5.404   3.941
 5085SOL     OW16153   5.889   1.442   6.538
 5085SOL    HW116154   5.837   1.520   6.571
 5085SOL    HW216155   5.918   1.386   6.615
 5086SOL     OW16156   6.408   4.888   3.517
 5086SOL    HW116157   6.493   4.854   3.476
 5086SOL    HW216158   6.422   4.900   3.616
 5087SOL     OW16159   6.458   5.720   5.008
 5087SOL    HW116160   6.381   5.660   4.985
 5087SOL    HW216161   6.433   5.815   4.991
 5088SOL     OW16162   6.214   0.389   5.502
 5088SOL    HW116163   6.115   0.378   5.508
 5088SOL    HW216164   6.259   0.312   5.548
 5089SOL     OW16165   6.082   3.275   2.814
 5089SOL    HW116166   5.988   3.260   2.781
 5089SOL    HW216167   6.144   3.213   2.765
 5090SOL     OW16168   2.074   4.952   1.159
 5090SOL    HW116169   2.047   5.036   1.206
 5090SOL    HW216170   2.086   4.879   1.227
 5091SOL     OW16171   1.011   6.295   2.586
 5091SOL    HW116172   0.950   6.371   2.563
 5091SOL    HW216173   0.960   6.227   2.639
 5092SOL     OW16174   3.483   1.920   0.775
 5092SOL    HW116175   3.580   1.926   0.753
 5092SOL    HW216176   3.434   1.881   0.698
 5093SOL     OW16177   1.490   1.777   2.431
 5093SOL    HW116178   1.456   1.870   2.419
 5093SOL    HW216179   1.522   1.766   2.525
 5094SOL     OW16180   0.921   6.359   5.157
 5094SOL    HW116181   0.840   6.301   5.148
 5094SOL    HW216182   0.922   6.428   5.084
 5095SOL     OW16183   2.298   0.403   4.965
 5095SOL    HW116184   2.387   0.450   4.971
 5095SOL    HW216185   2.260   0.416   4.874
 5096SOL     OW16186   5.053   3.491   1.115
 5096SOL    HW116187   4.994   3.515   1.192
 5096SOL    HW216188   5.134   3.549   1.116
 5097SOL     OW16189   1.584   6.704   5.774
 5097SOL    HW116190   1.496   6.659   5.760
 5097SOL    HW216191   1.648   6.641   5.817
 5098SOL     OW16192   0.310   1.417   2.537
 5098SOL    HW116193   0.240   1.459   2.595
 5098SOL    HW216194   0.347   1.336   2.583
 5099SOL     OW16195   1.183   0.009   5.202
 5099SOL    HW116196   1.115   0.063   5.251
 5099SOL    HW216197   1.228   0.066   5.133
 5100SOL     OW16198   5.634   6.175   0.356
 5100SOL    HW116199   5.683   6.256   0.325
 5100SOL    HW216200   5.567   6.148   0.286
 5101SOL     OW16201   4.344   6.330   6.890
 5101SOL    HW116202   4.403   6.399   6.932
 5101SOL    HW216203   4.259   6.323   6.941
 5102SOL     OW16204   4.362   0.019   5.095
 5102SOL    HW116205   4.292   0.077   5.138
 5102SOL    HW216206   4.413   6.988   5.166
 5103SOL     OW16207   0.607   0.727   4.090
 5103SOL    HW116208   0.699   0.725   4.051
 5103SOL    HW216209   0.592   0.814   4.137
 5104SOL     OW16210   1.565   0.896   2.016
 5104SOL    HW116211   1.596   0.903   1.921
 5104SOL    HW216212   1.524   0.806   2.032
 5105SOL     OW16213   3.532   3.770   6.419
 5105SOL    HW116214   3.624   3.769   6.460
 5105SOL    HW216215   3.487   3.856   6.441
 5106SOL     OW16216   3.363   0.214   2.477
 5106SOL    HW116217   3.419   0.287   2.439
 5106SOL    HW216218   3.410   0.126   2.465
 5107SOL     OW16219   2.338   6.920   6.293
 5107SOL    HW116220   2.407   6.914   6.222
 5107SOL    HW216221   2.322   7.015   6.318
 5108SOL     OW16222   2.974   3.638   3.919
 5108SOL    HW116223   2.954   3.726   3.963
 5108SOL    HW216224   2.986   3.652   3.821
 5109SOL     OW16225   0.678   1.045   1.033
 5109SOL    HW116226   0.581   1.055   1.056
 5109SOL    HW216227   0.732   1.108   1.088
 5110SOL     OW16228   1.875   5.888   5.319
 5110SOL    HW116229   1.922   5.826   5.256
 5110SOL    HW216230   1.777   5.866   5.319
 5111SOL     OW16231   1.528   1.295   6.766
 5111SOL    HW116232   1.526   1.249   6.677
 5111SOL    HW216233   1.456   1.258   6.824
 5112SOL     OW16234   0.533   6.173   4.044
 5112SOL    HW116235   0.631   6.157   4.053
 5112SOL    HW216236   0.483   6.089   4.066
 5113SOL     OW16237   1.239   0.667   0.327
 5113SOL    HW116238   1.207   0.761   0.326
 5113SOL    HW216239   1.284   0.646   0.240
 5114SOL     OW16240   3.572   4.745   6.726
 5114SOL    HW116241   3.608   4.780   6.640
 5114SOL    HW216242   3.490   4.797   6.751
 5115SOL     OW16243   1.510   3.584   5.447
 5115SOL    HW116244   1.471   3.638   5.522
 5115SOL    HW216245   1.467   3.494   5.445
 5116SOL     OW16246   6.015   5.087   0.094
 5116SOL    HW116247   6.071   5.146   0.035
 5116SOL    HW216248   6.016   4.994   0.057
 5117SOL     OW16249   2.397   4.468   4.791
 5117SOL    HW116250   2.329   4.474   4.717
 5117SOL    HW216251   2.364   4.406   4.862
 5118SOL     OW16252   3.839   5.593   0.038
 5118SOL    HW116253   3.757   5.628   7.010
 5118SOL    HW216254   3.914   5.659   0.027
 5119SOL     OW16255   6.058   0.623   1.851
 5119SOL    HW116256   6.091   0.589   1.939
 5119SOL    HW216257   6.070   0.722   1.847
 5120SOL     OW16258   5.012   1.528   2.560
 5120SOL    HW116259   5.004   1.508   2.462
 5120SOL    HW216260   4.936   1.588   2.588
 5121SOL     OW16261   0.230   3.433   5.700
 5121SOL    HW116262   0.295   3.366   5.665
 5121SOL    HW216263   0.178   3.472   5.624
 5122SOL     OW16264   2.152   0.230   3.547
 5122SOL    HW116265   2.067   0.283   3.555
 5122SOL    HW216266   2.223   0.270   3.604
 5123SOL     OW16267   4.724   4.378   2.553
 5123SOL    HW116268   4.806   4.424   2.590
 5123SOL    HW216269   4.730   4.375   2.453
 5124SOL     OW16270   3.175   6.648   6.680
 5124SOL    HW116271   3.099   6.584   6.686
 5124SOL    HW216272   3.249   6.617   6.739
 5125SOL     OW16273   6.946   3.135   4.448
 5125SOL    HW116274   6.981   3.046   4.417
 5125SOL    HW216275   6.851   3.145   4.419
 5126SOL     OW16276   6.130   4.735   6.233
 5126SOL    HW116277   6.059   4.709   6.168
 5126SOL    HW216278   6.196   4.796   6.189
 5127SOL     OW16279   5.375   3.441   6.752
 5127SOL    HW116280   5.401   3.474   6.843
 5127SOL    HW216281   5.276   3.442   6.743
 5128SOL     OW16282   0.020   0.517   6.633
 5128SOL    HW116283   0.082   0.506   6.555
 5128SOL    HW216284   0.061   0.580   6.699
 5129SOL     OW16285   4.472   1.667   2.105
 5129SOL    HW116286   4.563   1.631   2.085
 5129SOL    HW216287   4.423   1.602   2.163
 5130SOL     OW16288   1.250   5.158   3.928
 5130SOL    HW116289   1.180   5.183   3.861
 5130SOL    HW216290   1.316   5.232   3.938
 5131SOL     OW16291   3.167   5.055   3.139
 5131SOL    HW116292   3.231   4.989   3.098
 5131SOL    HW216293   3.215   5.140   3.158
 5132SOL     OW16294   3.852   1.644   6.983
 5132SOL    HW116295   3.819   1.550   6.991
 5132SOL    HW216296   3.802   1.703   0.027
 5133SOL     OW16297   4.114   4.579   6.516
 5133SOL    HW116298   4.186   4.617   6.574
 5133SOL    HW216299   4.121   4.479   6.515
 5134SOL     OW16300   6.594   6.223   1.562
 5134SOL    HW116301   6.660   6.158   1.601
 5134SOL    HW216302   6.589   6.210   1.463
 5135SOL     OW16303   5.907   3.108   2.034
 5135SOL    HW116304   5.892   3.206   2.024
 5135SOL    HW216305   5.932   3.087   2.128
 5136SOL     OW16306   1.051   0.837   5.856
 5136SOL    HW116307   0.952   0.846   5.856
 5136SOL    HW216308   1.088   0.879   5.939
 5137SOL     OW16309   5.268   0.922   5.240
 5137SOL    HW116310   5.296   0.982   5.314
 5137SOL    HW216311   5.243   0.832   5.277
 5138SOL     OW16312   3.650   2.886   4.226
 5138SOL    HW116313   3.690   2.945   4.296
 5138SOL    HW216314   3.557   2.861   4.252
 5139SOL     OW16315   1.805   0.256   4.707
 5139SOL    HW116316   1.723   0.213   4.670
 5139SOL    HW216317   1.887   0.212   4.670
 5140SOL     OW16318   4.496   2.453   6.548
 5140SOL    HW116319   4.579   2.451   6.492
 5140SOL    HW216320   4.424   2.400   6.504
 5141SOL     OW16321   6.408   2.728   2.341
 5141SOL    HW116322   6.344   2.797   2.308
 5141SOL    HW216323   6.502   2.761   2.331
 5142SOL     OW16324   6.974   0.152   2.588
 5142SOL    HW116325   6.949   0.189   2.499
 5142SOL    HW216326   0.055   0.160   2.601
 5143SOL     OW16327   0.591   5.402   4.208
 5143SOL    HW116328   0.676   5.413   4.157
 5143SOL    HW216329   0.611   5.368   4.300
 5144SOL     OW16330   2.340   3.149   6.289
 5144SOL    HW116331   2.403   3.196   6.228
 5144SOL    HW216332   2.314   3.061   6.249
 5145SOL     OW16333   2.992   6.258   6.865
 5145SOL    HW116334   3.078   6.294   6.900
 5145SOL    HW216335   2.945   6.328   6.811
 5146SOL     OW16336   5.390   4.818   6.009
 5146SOL    HW116337   5.443   4.737   5.985
 5146SOL    HW216338   5.313   4.828   5.946
 5147SOL     OW16339   4.670   2.708   3.567
 5147SOL    HW116340   4.642   2.638   3.502
 5147SOL    HW216341   4.652   2.677   3.660
 5148SOL     OW16342   0.644   6.602   1.078
 5148SOL    HW116343   0.593   6.676   1.122
 5148SOL    HW216344   0.701   6.556   1.146
 5149SOL     OW16345   5.607   4.755   3.442
 5149SOL    HW116346   5.696   4.714   3.423
 5149SOL    HW216347   5.553   4.691   3.498
 5150SOL     OW16348   0.381   5.802   3.808
 5150SOL    HW116349   0.342   5.886   3.848
 5150SOL    HW216350   0.450   5.765   3.870
 5151SOL     OW16351   5.700   4.708   1.726
 5151SOL    HW116352   5.628   4.777   1.723
 5151SOL    HW216353   5.723   4.688   1.821
 5152SOL     OW16354   1.235   0.914   6.418
 5152SOL    HW116355   1.272   0.987   6.361
 5152SOL    HW216356   1.220   0.948   6.511
 5153SOL     OW16357   1.140   1.777   1.115
 5153SOL    HW116358   1.067   1.844   1.126
 5153SOL    HW216359   1.110   1.706   1.051
 5154SOL     OW16360   0.192   2.785   6.869
 5154SOL    HW116361   0.196   2.715   6.941
 5154SOL    HW216362   0.172   2.874   6.910
 5155SOL     OW16363   1.725   1.264   0.955
 5155SOL    HW116364   1.755   1.263   1.051
 5155SOL    HW216365   1.749   1.178   0.912
 5156SOL     OW16366   5.155   5.302   5.272
 5156SOL    HW116367   5.125   5.214   5.310
 5156SOL    HW216368   5.191   5.287   5.179
 5157SOL     OW16369   4.041   0.219   1.639
 5157SOL    HW116370   4.138   0.200   1.629
 5157SOL    HW216371   4.019   0.306   1.596
 5158SOL     OW16372   2.915   1.417   2.319
 5158SOL    HW116373   2.962   1.463   2.244
 5158SOL    HW216374   2.900   1.321   2.294
 5159SOL     OW16375   6.572   2.973   5.662
 5159SOL    HW116376   6.646   2.950   5.599
 5159SOL    HW216377   6.509   2.896   5.669
 5160SOL     OW16378   6.651   6.320   3.372
 5160SOL    HW116379   6.644   6.334   3.470
 5160SOL    HW216380   6.670   6.224   3.352
 5161SOL     OW16381   1.001   3.345   0.342
 5161SOL    HW116382   0.994   3.297   0.430
 5161SOL    HW216383   0.982   3.442   0.356
 5162SOL     OW16384   6.739   6.532   2.893
 5162SOL    HW116385   6.832   6.513   2.925
 5162SOL    HW216386   6.734   6.626   2.859
 5163SOL     OW16387   2.650   6.799   2.547
 5163SOL    HW116388   2.734   6.764   2.506
 5163SOL    HW216389   2.577   6.799   2.479
 5164SOL     OW16390   3.573   3.413   0.894
 5164SOL    HW116391   3.636   3.410   0.816
 5164SOL    HW216392   3.494   3.469   0.871
 5165SOL     OW16393   1.484   4.531   6.857
 5165SOL    HW116394   1.480   4.530   6.757
 5165SOL    HW216395   1.392   4.548   6.894
 5166SOL     OW16396   1.765   5.659   1.867
 5166SOL    HW116397   1.759   5.610   1.780
 5166SOL    HW216398   1.731   5.752   1.855
 5167SOL     OW16399   5.013   2.360   5.118
 5167SOL    HW116400   4.954   2.440   5.128
 5167SOL    HW216401   5.036   2.348   5.021
 5168SOL     OW16402   4.453   2.365   2.565
 5168SOL    HW116403   4.364   2.366   2.610
 5168SOL    HW216404   4.441   2.381   2.467
 5169SOL     OW16405   4.145   6.654   3.483
 5169SOL    HW116406   4.138   6.575   3.421
 5169SOL    HW216407   4.101   6.632   3.570
 5170SOL     OW16408   0.859   3.219   6.243
 5170SOL    HW116409   0.890   3.311   6.219
 5170SOL    HW216410   0.915   3.184   6.318
 5171SOL     OW16411   1.976   5.680   5.164
 5171SOL    HW116412   2.060   5.718   5.125
 5171SOL    HW216413   1.907   5.669   5.093
 5172SOL     OW16414   7.002   5.569   3.786
 5172SOL    HW116415   0.023   5.481   3.761
 5172SOL    HW216416   6.923   5.588   3.727
 5173SOL     OW16417   4.470   4.124   5.625
 5173SOL    HW116418   4.508   4.035   5.601
 5173SOL    HW216419   4.531   4.196   5.593
 5174SOL     OW16420   2.730   6.430   3.388
 5174SOL    HW116421   2.647   6.419   3.333
 5174SOL    HW216422   2.714   6.398   3.481
 5175SOL     OW16423   2.747   4.017   6.925
 5175SOL    HW116424   2.782   3.947   6.862
 5175SOL    HW216425   2.820   4.080   6.950
 5176SOL     OW16426   5.461   5.584   0.615
 5176SOL    HW116427   5.529   5.542   0.556
 5176SOL    HW216428   5.500   5.601   0.705
 5177SOL     OW16429   5.442   0.671   6.811
 5177SOL    HW116430   5.447   0.572   6.823
 5177SOL    HW216431   5.509   0.716   6.870
 5178SOL     OW16432   1.114   3.968   1.861
 5178SOL    HW116433   1.145   3.922   1.778
 5178SOL    HW216434   1.173   4.046   1.880
 5179SOL     OW16435   6.144   4.456   2.837
 5179SOL    HW116436   6.148   4.359   2.861
 5179SOL    HW216437   6.234   4.498   2.853
 5180SOL     OW16438   2.188   6.876   2.115
 5180SOL    HW116439   2.273   6.884   2.063
 5180SOL    HW216440   2.201   6.910   2.207
 5181SOL     OW16441   0.645   6.973   5.890
 5181SOL    HW116442   0.653   6.880   5.924
 5181SOL    HW216443   0.697   0.017   5.949
 5182SOL     OW16444   3.577   5.568   3.187
 5182SOL    HW116445   3.478   5.575   3.187
 5182SOL    HW216446   3.611   5.577   3.093
 5183SOL     OW16447   4.373   1.523   3.907
 5183SOL    HW116448   4.389   1.440   3.961
 5183SOL    HW216449   4.448   1.587   3.921
 5184SOL     OW16450   2.315   1.142   3.978
 5184SOL    HW116451   2.264   1.165   3.895
 5184SOL    HW216452   2.317   1.221   4.039
 5185SOL     OW16453   6.051   0.937   1.850
 5185SOL    HW116454   5.984   0.972   1.785
 5185SOL    HW216455   6.038   0.981   1.938
 5186SOL     OW16456   6.721   3.715   6.468
 5186SOL    HW116457   6.709   3.663   6.383
 5186SOL    HW216458   6.819   3.727   6.486
 5187SOL     OW16459   2.034   4.906   5.238
 5187SOL    HW116460   2.132   4.906   5.258
 5187SOL    HW216461   2.020   4.902   5.139
 5188SOL     OW16462   6.245   6.852   2.365
 5188SOL    HW116463   6.163   6.882   2.315
 5188SOL    HW216464   6.245   6.895   2.456
 5189SOL     OW16465   5.228   6.871   5.878
 5189SOL    HW116466   5.144   6.910   5.917
 5189SOL    HW216467   5.242   6.907   5.786
 5190SOL     OW16468   1.661   3.988   1.181
 5190SOL    HW116469   1.622   3.907   1.223
 5190SOL    HW216470   1.693   3.966   1.089
 5191SOL     OW16471   3.141   5.056   2.312
 5191SOL    HW116472   3.131   5.142   2.362
 5191SOL    HW216473   3.218   5.004   2.350
 5192SOL     OW16474   2.404   4.886   2.262
 5192SOL    HW116475   2.467   4.914   2.190
 5192SOL    HW216476   2.430   4.930   2.348
 5193SOL     OW16477   6.102   0.456   6.391
 5193SOL    HW116478   6.170   0.473   6.462
 5193SOL    HW216479   6.076   0.543   6.348
 5194SOL     OW16480   4.937   2.437   6.516
 5194SOL    HW116481   4.970   2.526   6.549
 5194SOL    HW216482   4.994   2.406   6.440
 5195SOL     OW16483   6.597   0.522   4.951
 5195SOL    HW116484   6.659   0.452   4.986
 5195SOL    HW216485   6.508   0.480   4.930
 5196SOL     OW16486   5.753   6.326   2.470
 5196SOL    HW116487   5.674   6.365   2.422
 5196SOL    HW216488   5.730   6.234   2.502
 5197SOL     OW16489   1.231   4.253   5.899
 5197SOL    HW116490   1.191   4.223   5.986
 5197SOL    HW216491   1.182   4.334   5.866
 5198SOL     OW16492   5.637   5.654   2.548
 5198SOL    HW116493   5.699   5.710   2.493
 5198SOL    HW216494   5.663   5.558   2.538
 5199SOL     OW16495   6.845   4.808   1.192
 5199SOL    HW116496   6.880   4.721   1.227
 5199SOL    HW216497   6.800   4.793   1.104
 5200SOL     OW16498   0.425   3.889   5.359
 5200SOL    HW116499   0.410   3.942   5.276
 5200SOL    HW216500   0.503   3.828   5.347
 5201SOL     OW16501   1.492   5.135   4.096
 5201SOL    HW116502   1.416   5.137   4.161
 5201SOL    HW216503   1.487   5.050   4.043
 5202SOL     OW16504   0.128   4.276   0.703
 5202SOL    HW116505   0.226   4.266   0.721
 5202SOL    HW216506   0.076   4.225   0.772
 5203SOL     OW16507   1.056   2.775   6.863
 5203SOL    HW116508   1.132   2.722   6.900
 5203SOL    HW216509   0.990   2.795   6.936
 5204SOL     OW16510   4.231   5.304   0.093
 5204SOL    HW116511   4.204   5.364   0.018
 5204SOL    HW216512   4.153   5.293   0.156
 5205SOL     OW16513   1.668   0.436   2.111
 5205SOL    HW116514   1.737   0.490   2.062
 5205SOL    HW216515   1.621   0.376   2.047
 5206SOL     OW16516   0.838   4.506   6.929
 5206SOL    HW116517   0.906   4.433   6.921
 5206SOL    HW216518   0.852   4.555   7.015
 5207SOL     OW16519   1.383   5.146   4.379
 5207SOL    HW116520   1.374   5.050   4.355
 5207SOL    HW216521   1.459   5.158   4.443
 5208SOL     OW16522   3.820   1.323   0.252
 5208SOL    HW116523   3.915   1.299   0.230
 5208SOL    HW216524   3.767   1.331   0.168
 5209SOL     OW16525   5.882   6.049   3.069
 5209SOL    HW116526   5.886   5.955   3.034
 5209SOL    HW216527   5.869   6.046   3.169
 5210SOL     OW16528   5.412   4.931   4.003
 5210SOL    HW116529   5.479   4.969   4.067
 5210SOL    HW216530   5.325   4.980   4.014
 5211SOL     OW16531   3.636   3.187   3.495
 5211SOL    HW116532   3.592   3.104   3.461
 5211SOL    HW216533   3.569   3.262   3.496
 5212SOL     OW16534   0.712   2.251   1.024
 5212SOL    HW116535   0.649   2.296   0.961
 5212SOL    HW216536   0.691   2.153   1.027
 5213SOL     OW16537   4.653   2.568   5.708
 5213SOL    HW116538   4.682   2.511   5.631
 5213SOL    HW216539   4.553   2.562   5.717
 5214SOL     OW16540   5.224   1.593   6.010
 5214SOL    HW116541   5.126   1.603   6.027
 5214SOL    HW216542   5.267   1.683   6.004
 5215SOL     OW16543   4.795   4.884   3.145
 5215SOL    HW116544   4.791   4.914   3.049
 5215SOL    HW216545   4.705   4.851   3.173
 5216SOL     OW16546   4.915   5.173   0.520
 5216SOL    HW116547   4.940   5.078   0.542
 5216SOL    HW216548   4.955   5.198   0.432
 5217SOL     OW16549   3.252   5.433   4.078
 5217SOL    HW116550   3.172   5.412   4.135
 5217SOL    HW216551   3.255   5.531   4.060
 5218SOL     OW16552   1.472   6.313   3.376
 5218SOL    HW116553   1.453   6.379   3.303
 5218SOL    HW216554   1.396   6.249   3.384
 5219SOL     OW16555   3.286   6.996   6.419
 5219SOL    HW116556   3.346   6.916   6.424
 5219SOL    HW216557   3.198   6.974   6.460
 5220SOL     OW16558   0.267   6.115   2.805
 5220SOL    HW116559   0.237   6.106   2.710
 5220SOL    HW216560   0.225   6.042   2.859
 5221SOL     OW16561   5.087   0.975   4.858
 5221SOL    HW116562   5.154   0.916   4.903
 5221SOL    HW216563   5.129   1.020   4.779
 5222SOL     OW16564   1.721   0.589   3.822
 5222SOL    HW116565   1.745   0.685   3.806
 5222SOL    HW216566   1.802   0.532   3.811
 5223SOL     OW16567   4.971   0.655   1.544
 5223SOL    HW116568   4.897   0.662   1.477
 5223SOL    HW216569   4.983   0.743   1.591
 5224SOL     OW16570   6.301   2.044   2.596
 5224SOL    HW116571   6.254   2.005   2.516
 5224SOL    HW216572   6.399   2.023   2.590
 5225SOL     OW16573   6.123   6.189   4.035
 5225SOL    HW116574   6.186   6.214   4.109
 5225SOL    HW216575   6.072   6.270   4.006
 5226SOL     OW16576   0.759   6.553   4.118
 5226SOL    HW116577   0.853   6.522   4.104
 5226SOL    HW216578   0.702   6.521   4.042
 5227SOL     OW16579   6.327   4.571   3.250
 5227SOL    HW116580   6.244   4.515   3.244
 5227SOL    HW216581   6.383   4.540   3.327
 5228SOL     OW16582   5.628   1.661   0.480
 5228SOL    HW116583   5.564   1.629   0.550
 5228SOL    HW216584   5.642   1.589   0.412
 5229SOL     OW16585   1.278   3.597   5.916
 5229SOL    HW116586   1.208   3.525   5.911
 5229SOL    HW216587   1.363   3.564   5.875
 5230SOL     OW16588   0.149   0.236   0.240
 5230SOL    HW116589   0.124   0.287   0.323
 5230SOL    HW216590   0.165   0.300   0.165
 5231SOL     OW16591   4.056   3.201   3.946
 5231SOL    HW116592   3.975   3.192   4.004
 5231SOL    HW216593   4.138   3.186   4.001
 5232SOL     OW16594   4.771   2.499   7.008
 5232SOL    HW116595   4.748   2.533   0.081
 5232SOL    HW216596   4.690   2.460   6.965
 5233SOL     OW16597   0.152   6.281   2.328
 5233SOL    HW116598   0.146   6.371   2.287
 5233SOL    HW216599   0.118   6.212   2.263
 5234SOL     OW16600   3.325   6.747   0.778
 5234SOL    HW116601   3.408   6.788   0.739
 5234SOL    HW216602   3.255   6.740   0.707
 5235SOL     OW16603   1.258   3.101   0.946
 5235SOL    HW116604   1.235   3.033   1.015
 5235SOL    HW216605   1.174   3.136   0.904
 5236SOL     OW16606   4.802   3.601   1.245
 5236SOL    HW116607   4.722   3.543   1.259
 5236SOL    HW216608   4.794   3.650   1.159
 5237SOL     OW16609   2.616   1.990   5.306
 5237SOL    HW116610   2.653   1.897   5.310
 5237SOL    HW216611   2.593   2.021   5.398
 5238SOL     OW16612   1.699   4.695   0.627
 5238SOL    HW116613   1.666   4.601   0.635
 5238SOL    HW216614   1.728   4.728   0.716
 5239SOL     OW16615   3.131   3.050   3.600
 5239SOL    HW116616   3.112   3.054   3.502
 5239SOL    HW216617   3.080   3.122   3.647
 5240SOL     OW16618   3.361   2.192   5.250
 5240SOL    HW116619   3.285   2.138   5.285
 5240SOL    HW216620   3.326   2.280   5.216
 5241SOL     OW16621   1.186   6.229   6.129
 5241SOL    HW116622   1.239   6.144   6.129
 5241SOL    HW216623   1.188   6.269   6.221
 5242SOL     OW16624   5.957   1.080   6.041
 5242SOL    HW116625   6.022   1.153   6.021
 5242SOL    HW216626   6.002   0.991   6.028
 5243SOL     OW16627   1.169   5.234   0.882
 5243SOL    HW116628   1.087   5.250   0.828
 5243SOL    HW216629   1.249   5.271   0.834
 5244SOL     OW16630   4.427   4.432   5.832
 5244SOL    HW116631   4.404   4.364   5.900
 5244SOL    HW216632   4.358   4.431   5.759
 5245SOL     OW16633   4.461   3.665   6.584
 5245SOL    HW116634   4.447   3.749   6.532
 5245SOL    HW216635   4.555   3.661   6.617
 5246SOL     OW16636   0.895   3.535   2.542
 5246SOL    HW116637   0.823   3.478   2.582
 5246SOL    HW216638   0.936   3.592   2.614
 5247SOL     OW16639   6.999   5.101   0.776
 5247SOL    HW116640   7.015   5.177   0.712
 5247SOL    HW216641   6.993   5.015   0.725
 5248SOL     OW16642   5.419   0.773   6.087
 5248SOL    HW116643   5.370   0.795   6.171
 5248SOL    HW216644   5.432   0.856   6.033
 5249SOL     OW16645   0.858   4.811   5.236
 5249SOL    HW116646   0.823   4.876   5.168
 5249SOL    HW216647   0.792   4.800   5.310
 5250SOL     OW16648   0.211   1.904   5.689
 5250SOL    HW116649   0.294   1.854   5.715
 5250SOL    HW216650   0.205   1.988   5.742
 5251SOL     OW16651   6.134   3.391   1.443
 5251SOL    HW116652   6.094   3.482   1.433
 5251SOL    HW216653   6.099   3.348   1.527
 5252SOL     OW16654   3.614   6.373   0.429
 5252SOL    HW116655   3.685   6.336   0.488
 5252SOL    HW216656   3.631   6.470   0.412
 5253SOL     OW16657   5.652   3.653   4.231
 5253SOL    HW116658   5.592   3.681   4.306
 5253SOL    HW216659   5.720   3.725   4.215
 5254SOL     OW16660   4.306   0.890   4.169
 5254SOL    HW116661   4.262   0.866   4.256
 5254SOL    HW216662   4.405   0.892   4.181
 5255SOL     OW16663   3.082   6.588   5.425
 5255SOL    HW116664   3.155   6.535   5.466
 5255SOL    HW216665   3.096   6.595   5.327
 5256SOL     OW16666   4.972   0.781   3.315
 5256SOL    HW116667   5.023   0.777   3.230
 5256SOL    HW216668   4.996   0.864   3.365
 5257SOL     OW16669   3.833   7.007   0.073
 5257SOL    HW116670   3.748   0.041   0.082
 5257SOL    HW216671   3.822   6.916   0.113
 5258SOL     OW16672   4.764   4.357   2.300
 5258SOL    HW116673   4.670   4.375   2.271
 5258SOL    HW216674   4.828   4.403   2.238
 5259SOL     OW16675   4.337   6.212   2.846
 5259SOL    HW116676   4.345   6.217   2.945
 5259SOL    HW216677   4.411   6.265   2.804
 5260SOL     OW16678   5.721   3.322   1.270
 5260SOL    HW116679   5.673   3.282   1.191
 5260SOL    HW216680   5.769   3.404   1.241
 5261SOL     OW16681   0.338   2.499   4.648
 5261SOL    HW116682   0.367   2.467   4.738
 5261SOL    HW216683   0.260   2.444   4.617
 5262SOL     OW16684   2.604   6.515   2.334
 5262SOL    HW116685   2.538   6.547   2.266
 5262SOL    HW216686   2.556   6.485   2.416
 5263SOL     OW16687   1.622   6.869   6.436
 5263SOL    HW116688   1.662   6.943   6.490
 5263SOL    HW216689   1.689   6.796   6.422
 5264SOL     OW16690   6.807   1.385   1.343
 5264SOL    HW116691   6.824   1.475   1.384
 5264SOL    HW216692   6.747   1.332   1.402
 5265SOL     OW16693   5.490   4.810   2.063
 5265SOL    HW116694   5.524   4.764   1.980
 5265SOL    HW216695   5.533   4.770   2.143
 5266SOL     OW16696   1.425   6.556   1.730
 5266SOL    HW116697   1.414   6.496   1.809
 5266SOL    HW216698   1.462   6.644   1.760
 5267SOL     OW16699   4.822   5.051   5.024
 5267SOL    HW116700   4.841   5.087   4.932
 5267SOL    HW216701   4.907   5.048   5.076
 5268SOL     OW16702   6.872   5.181   5.627
 5268SOL    HW116703   6.970   5.185   5.610
 5268SOL    HW216704   6.849   5.239   5.705
 5269SOL     OW16705   1.684   5.239   4.269
 5269SOL    HW116706   1.618   5.194   4.209
 5269SOL    HW216707   1.776   5.227   4.232
 5270SOL     OW16708   6.048   2.832   2.117
 5270SOL    HW116709   6.031   2.895   2.193
 5270SOL    HW216710   5.963   2.816   2.068
 5271SOL     OW16711   5.090   4.635   4.940
 5271SOL    HW116712   5.173   4.634   4.883
 5271SOL    HW216713   5.111   4.677   5.028
 5272SOL     OW16714   0.112   6.298   4.467
 5272SOL    HW116715   0.186   6.359   4.439
 5272SOL    HW216716   0.147   6.230   4.531
 5273SOL     OW16717   0.456   1.667   3.899
 5273SOL    HW116718   0.394   1.739   3.928
 5273SOL    HW216719   0.424   1.627   3.813
 5274SOL     OW16720   6.717   4.681   3.965
 5274SOL    HW116721   6.783   4.613   3.997
 5274SOL    HW216722   6.753   4.728   3.885
 5275SOL     OW16723   2.312   0.201   6.252
 5275SOL    HW116724   2.268   0.210   6.341
 5275SOL    HW216725   2.242   0.186   6.182
 5276SOL     OW16726   6.949   6.835   1.641
 5276SOL    HW116727   6.962   6.934   1.632
 5276SOL    HW216728   6.949   6.794   1.550
 5277SOL     OW16729   1.172   1.742   3.219
 5277SOL    HW116730   1.072   1.752   3.218
 5277SOL    HW216731   1.205   1.756   3.312
 5278SOL     OW16732   0.453   5.911   5.974
 5278SOL    HW116733   0.468   5.953   5.885
 5278SOL    HW216734   0.540   5.880   6.012
 5279SOL     OW16735   1.511   5.888   6.109
 5279SOL    HW116736   1.521   5.935   6.021
 5279SOL    HW216737   1.602   5.875   6.150
 5280SOL     OW16738   3.511   6.365   4.613
 5280SOL    HW116739   3.609   6.353   4.624
 5280SOL    HW216740   3.464   6.278   4.629
 5281SOL     OW16741   1.284   1.194   4.235
 5281SOL    HW116742   1.212   1.130   4.261
 5281SOL    HW216743   1.249   1.257   4.165
 5282SOL     OW16744   1.537   0.261   2.686
 5282SOL    HW116745   1.593   0.278   2.605
 5282SOL    HW216746   1.567   0.321   2.760
 5283SOL     OW16747   0.217   0.690   3.998
 5283SOL    HW116748   0.270   0.609   3.970
 5283SOL    HW216749   0.193   0.681   4.094
 5284SOL     OW16750   5.447   2.148   2.032
 5284SOL    HW116751   5.394   2.195   1.962
 5284SOL    HW216752   5.461   2.210   2.110
 5285SOL     OW16753   0.801   2.878   3.450
 5285SOL    HW116754   0.830   2.826   3.370
 5285SOL    HW216755   0.879   2.927   3.488
 5286SOL     OW16756   6.366   2.887   0.978
 5286SOL    HW116757   6.361   2.980   0.941
 5286SOL    HW216758   6.315   2.882   1.064
 5287SOL     OW16759   3.542   5.266   1.506
 5287SOL    HW116760   3.461   5.299   1.555
 5287SOL    HW216761   3.538   5.296   1.410
 5288SOL     OW16762   5.292   0.207   1.545
 5288SOL    HW116763   5.361   0.279   1.538
 5288SOL    HW216764   5.335   0.117   1.535
 5289SOL     OW16765   1.765   5.148   6.879
 5289SOL    HW116766   1.858   5.150   6.915
 5289SOL    HW216767   1.767   5.114   6.784
 5290SOL     OW16768   1.939   3.729   5.759
 5290SOL    HW116769   1.950   3.825   5.737
 5290SOL    HW216770   1.842   3.710   5.777
 5291SOL     OW16771   2.921   3.905   5.471
 5291SOL    HW116772   2.851   3.849   5.515
 5291SOL    HW216773   2.969   3.959   5.540
 5292SOL     OW16774   6.889   4.309   6.683
 5292SOL    HW116775   6.912   4.352   6.596
 5292SOL    HW216776   6.791   4.314   6.699
 5293SOL     OW16777   2.260   5.469   4.592
 5293SOL    HW116778   2.330   5.521   4.544
 5293SOL    HW216779   2.265   5.488   4.690
 5294SOL     OW16780   4.360   0.419   5.044
 5294SOL    HW116781   4.445   0.368   5.058
 5294SOL    HW216782   4.332   0.462   5.130
 5295SOL     OW16783   3.105   0.797   2.949
 5295SOL    HW116784   3.129   0.877   3.005
 5295SOL    HW216785   3.079   0.721   3.009
 5296SOL     OW16786   3.752   4.489   0.856
 5296SOL    HW116787   3.837   4.459   0.813
 5296SOL    HW216788   3.770   4.523   0.948
 5297SOL     OW16789   2.813   3.706   0.533
 5297SOL    HW116790   2.714   3.694   0.526
 5297SOL    HW216791   2.833   3.781   0.596
 5298SOL     OW16792   2.453   6.827   0.017
 5298SOL    HW116793   2.458   6.906   0.078
 5298SOL    HW216794   2.495   6.850   6.947
 5299SOL     OW16795   3.072   1.919   0.746
 5299SOL    HW116796   3.131   1.994   0.775
 5299SOL    HW216797   3.117   1.831   0.767
 5300SOL     OW16798   1.292   4.492   0.465
 5300SOL    HW116799   1.336   4.408   0.431
 5300SOL    HW216800   1.345   4.528   0.542
 5301SOL     OW16801   4.585   0.560   6.623
 5301SOL    HW116802   4.503   0.574   6.678
 5301SOL    HW216803   4.663   0.543   6.684
 5302SOL     OW16804   4.512   5.920   3.306
 5302SOL    HW116805   4.598   5.911   3.356
 5302SOL    HW216806   4.530   5.917   3.208
 5303SOL     OW16807   6.747   5.256   6.213
 5303SOL    HW116808   6.765   5.159   6.233
 5303SOL    HW216809   6.652   5.267   6.184
 5304SOL     OW16810   6.010   1.260   1.094
 5304SOL    HW116811   6.005   1.275   1.192
 5304SOL    HW216812   6.075   1.324   1.053
 5305SOL     OW16813   1.448   5.272   2.617
 5305SOL    HW116814   1.351   5.247   2.609
 5305SOL    HW216815   1.471   5.283   2.714
 5306SOL     OW16816   6.991   4.335   6.161
 5306SOL    HW116817   0.032   4.386   6.099
 5306SOL    HW216818   6.961   4.251   6.116
 5307SOL     OW16819   4.859   2.319   0.267
 5307SOL    HW116820   4.788   2.253   0.243
 5307SOL    HW216821   4.817   2.408   0.286
 5308SOL     OW16822   1.472   4.666   2.827
 5308SOL    HW116823   1.571   4.672   2.817
 5308SOL    HW216824   1.433   4.619   2.748
 5309SOL     OW16825   3.769   5.826   2.533
 5309SOL    HW116826   3.754   5.733   2.567
 5309SOL    HW216827   3.867   5.840   2.519
 5310SOL     OW16828   5.819   3.311   2.701
 5310SOL    HW116829   5.719   3.313   2.694
 5310SOL    HW216830   5.859   3.312   2.610
 5311SOL     OW16831   5.784   0.125   0.095
 5311SOL    HW116832   5.779   0.031   0.128
 5311SOL    HW216833   5.806   0.126   7.016
 5312SOL     OW16834   0.390   6.099   1.688
 5312SOL    HW116835   0.418   6.033   1.758
 5312SOL    HW216836   0.461   6.169   1.677
 5313SOL     OW16837   6.903   4.964   5.290
 5313SOL    HW116838   6.834   5.030   5.320
 5313SOL    HW216839   6.991   5.010   5.280
 5314SOL     OW16840   5.722   6.679   0.852
 5314SOL    HW116841   5.681   6.719   0.933
 5314SOL    HW216842   5.655   6.621   0.805
 5315SOL     OW16843   4.610   2.173   3.574
 5315SOL    HW116844   4.674   2.199   3.646
 5315SOL    HW216845   4.629   2.079   3.545
 5316SOL     OW16846   0.939   3.474   5.130
 5316SOL    HW116847   1.018   3.412   5.124
 5316SOL    HW216848   0.867   3.441   5.069
 5317SOL     OW16849   6.957   1.395   5.869
 5317SOL    HW116850   0.014   1.367   5.928
 5317SOL    HW216851   6.940   1.324   5.801
 5318SOL     OW16852   0.135   2.982   0.259
 5318SOL    HW116853   0.158   2.885   0.266
 5318SOL    HW216854   0.058   3.002   0.321
 5319SOL     OW16855   4.522   6.641   0.571
 5319SOL    HW116856   4.433   6.604   0.545
 5319SOL    HW216857   4.590   6.567   0.570
 5320SOL     OW16858   4.174   5.700   1.296
 5320SOL    HW116859   4.074   5.710   1.302
 5320SOL    HW216860   4.196   5.612   1.254
 5321SOL     OW16861   1.804   4.233   5.116
 5321SOL    HW116862   1.710   4.209   5.093
 5321SOL    HW216863   1.807   4.327   5.149
 5322SOL     OW16864   5.552   0.187   1.003
 5322SOL    HW116865   5.587   0.256   0.939
 5322SOL    HW216866   5.462   0.156   0.972
 5323SOL     OW16867   4.334   1.524   6.043
 5323SOL    HW116868   4.249   1.472   6.033
 5323SOL    HW216869   4.412   1.464   6.023
 5324SOL     OW16870   2.797   2.266   7.009
 5324SOL    HW116871   2.711   2.223   6.981
 5324SOL    HW216872   2.782   2.315   0.077
 5325SOL     OW16873   2.697   1.721   5.250
 5325SOL    HW116874   2.651   1.639   5.215
 5325SOL    HW216875   2.774   1.744   5.190
 5326SOL     OW16876   6.353   6.125   3.462
 5326SOL    HW116877   6.253   6.126   3.463
 5326SOL    HW216878   6.385   6.141   3.369
 5327SOL     OW16879   5.357   2.282   4.713
 5327SOL    HW116880   5.273   2.326   4.745
 5327SOL    HW216881   5.387   2.214   4.780
 5328SOL     OW16882   3.977   3.903   5.854
 5328SOL    HW116883   3.891   3.853   5.863
 5328SOL    HW216884   4.054   3.839   5.864
 5329SOL     OW16885   1.277   5.513   6.344
 5329SOL    HW116886   1.319   5.555   6.263
 5329SOL    HW216887   1.209   5.576   6.383
 5330SOL     OW16888   3.795   3.978   0.571
 5330SOL    HW116889   3.835   3.886   0.578
 5330SOL    HW216890   3.714   3.983   0.629
 5331SOL     OW16891   6.291   1.932   7.015
 5331SOL    HW116892   6.240   2.016   7.000
 5331SOL    HW216893   6.321   1.894   6.928
 5332SOL     OW16894   1.621   4.203   1.832
 5332SOL    HW116895   1.535   4.182   1.877
 5332SOL    HW216896   1.651   4.125   1.778
 5333SOL     OW16897   0.990   0.957   3.050
 5333SOL    HW116898   1.000   1.052   3.082
 5333SOL    HW216899   0.894   0.936   3.037
 5334SOL     OW16900   3.085   0.538   5.095
 5334SOL    HW116901   3.113   0.624   5.138
 5334SOL    HW216902   2.989   0.544   5.067
 5335SOL     OW16903   6.232   5.880   0.976
 5335SOL    HW116904   6.140   5.880   1.013
 5335SOL    HW216905   6.266   5.786   0.971
 5336SOL     OW16906   1.598   3.216   2.171
 5336SOL    HW116907   1.639   3.216   2.262
 5336SOL    HW216908   1.651   3.158   2.110
 5337SOL     OW16909   4.609   3.984   1.450
 5337SOL    HW116910   4.708   3.971   1.440
 5337SOL    HW216911   4.591   4.033   1.535
 5338SOL     OW16912   6.018   1.825   6.668
 5338SOL    HW116913   6.081   1.804   6.593
 5338SOL    HW216914   5.932   1.776   6.654
 5339SOL     OW16915   6.355   1.992   3.837
 5339SOL    HW116916   6.429   1.955   3.893
 5339SOL    HW216917   6.341   1.934   3.757
 5340SOL     OW16918   5.659   2.967   6.970
 5340SOL    HW116919   5.716   2.936   0.028
 5340SOL    HW216920   5.695   2.931   6.884
 5341SOL     OW16921   3.895   2.473   5.859
 5341SOL    HW116922   3.808   2.514   5.887
 5341SOL    HW216923   3.967   2.500   5.923
 5342SOL     OW16924   3.727   0.410   5.334
 5342SOL    HW116925   3.631   0.412   5.360
 5342SOL    HW216926   3.755   0.315   5.319
 5343SOL     OW16927   3.636   3.668   3.291
 5343SOL    HW116928   3.577   3.734   3.245
 5343SOL    HW216929   3.604   3.575   3.271
 5344SOL     OW16930   1.656   2.662   2.583
 5344SOL    HW116931   1.743   2.614   2.566
 5344SOL    HW216932   1.674   2.743   2.638
 5345SOL     OW16933   4.544   6.141   0.785
 5345SOL    HW116934   4.616   6.203   0.814
 5345SOL    HW216935   4.584   6.058   0.748
 5346SOL     OW16936   3.154   6.269   3.815
 5346SOL    HW116937   3.059   6.300   3.807
 5346SOL    HW216938   3.172   6.199   3.746
 5347SOL     OW16939   6.903   2.157   2.284
 5347SOL    HW116940   6.805   2.171   2.302
 5347SOL    HW216941   6.915   2.092   2.210
 5348SOL     OW16942   1.111   1.752   0.474
 5348SOL    HW116943   1.209   1.758   0.491
 5348SOL    HW216944   1.062   1.776   0.558
 5349SOL     OW16945   0.685   2.177   0.195
 5349SOL    HW116946   0.601   2.137   0.232
 5349SOL    HW216947   0.762   2.149   0.252
 5350SOL     OW16948   2.518   0.501   6.333
 5350SOL    HW116949   2.544   0.569   6.402
 5350SOL    HW216950   2.567   0.519   6.248
 5351SOL     OW16951   4.904   5.999   1.373
 5351SOL    HW116952   4.979   6.065   1.382
 5351SOL    HW216953   4.849   6.001   1.456
 5352SOL     OW16954   2.430   6.331   3.900
 5352SOL    HW116955   2.348   6.386   3.917
 5352SOL    HW216956   2.433   6.254   3.964
 5353SOL     OW16957   4.248   6.397   4.419
 5353SOL    HW116958   4.259   6.428   4.514
 5353SOL    HW216959   4.150   6.386   4.399
 5354SOL     OW16960   2.536   4.675   2.547
 5354SOL    HW116961   2.609   4.731   2.510
 5354SOL    HW216962   2.464   4.734   2.583
 5355SOL     OW16963   4.636   2.231   3.988
 5355SOL    HW116964   4.621   2.160   4.056
 5355SOL    HW216965   4.570   2.305   4.001
 5356SOL     OW16966   6.098   3.848   1.658
 5356SOL    HW116967   6.082   3.863   1.755
 5356SOL    HW216968   6.069   3.929   1.606
 5357SOL     OW16969   3.540   1.166   1.085
 5357SOL    HW116970   3.465   1.153   1.021
 5357SOL    HW216971   3.506   1.208   1.169
 5358SOL     OW16972   4.145   2.145   0.555
 5358SOL    HW116973   4.181   2.121   0.646
 5358SOL    HW216974   4.117   2.061   0.508
 5359SOL     OW16975   2.284   1.606   1.102
 5359SOL    HW116976   2.321   1.515   1.123
 5359SOL    HW216977   2.207   1.597   1.038
 5360SOL     OW16978   3.895   6.699   5.322
 5360SOL    HW116979   3.916   6.781   5.376
 5360SOL    HW216980   3.979   6.666   5.278
 5361SOL     OW16981   2.321   1.196   4.532
 5361SOL    HW116982   2.315   1.295   4.545
 5361SOL    HW216983   2.415   1.165   4.547
 5362SOL     OW16984   5.000   4.480   3.371
 5362SOL    HW116985   4.996   4.578   3.348
 5362SOL    HW216986   5.068   4.436   3.312
 5363SOL     OW16987   0.816   6.032   5.811
 5363SOL    HW116988   0.825   6.073   5.902
 5363SOL    HW216989   0.900   6.044   5.759
 5364SOL     OW16990   6.138   5.200   0.789
 5364SOL    HW116991   6.184   5.139   0.854
 5364SOL    HW216992   6.167   5.295   0.806
 5365SOL     OW16993   4.487   3.009   6.213
 5365SOL    HW116994   4.421   2.968   6.150
 5365SOL    HW216995   4.580   2.993   6.178
 5366SOL     OW16996   4.562   4.898   0.802
 5366SOL    HW116997   4.550   4.803   0.830
 5366SOL    HW216998   4.500   4.956   0.856
 5367SOL     OW16999   0.554   5.253   0.203
 5367SOL    HW117000   0.472   5.310   0.217
 5367SOL    HW217001   0.570   5.198   0.284
 5368SOL     OW17002   5.473   1.762   2.717
 5368SOL    HW117003   5.522   1.715   2.790
 5368SOL    HW217004   5.397   1.705   2.686
 5369SOL     OW17005   2.384   5.552   3.368
 5369SOL    HW117006   2.375   5.513   3.277
 5369SOL    HW217007   2.303   5.606   3.390
 5370SOL     OW17008   4.272   2.988   1.434
 5370SOL    HW117009   4.341   2.918   1.418
 5370SOL    HW217010   4.297   3.072   1.385
 5371SOL     OW17011   1.956   4.304   4.328
 5371SOL    HW117012   1.861   4.285   4.353
 5371SOL    HW217013   2.011   4.313   4.412
 5372SOL     OW17014   2.983   5.792   1.910
 5372SOL    HW117015   2.901   5.849   1.917
 5372SOL    HW217016   3.051   5.823   1.976
 5373SOL     OW17017   2.933   4.922   4.249
 5373SOL    HW117018   2.980   4.925   4.337
 5373SOL    HW217019   2.839   4.890   4.262
 5374SOL     OW17020   1.319   3.218   6.455
 5374SOL    HW117021   1.330   3.189   6.550
 5374SOL    HW217022   1.383   3.167   6.397
 5375SOL     OW17023   0.994   4.574   5.222
 5375SOL    HW117024   0.949   4.663   5.209
 5375SOL    HW217025   0.936   4.502   5.185
 5376SOL     OW17026   1.318   3.357   1.547
 5376SOL    HW117027   1.393   3.349   1.481
 5376SOL    HW217028   1.353   3.337   1.638
 5377SOL     OW17029   6.629   0.020   1.651
 5377SOL    HW117030   6.647   0.107   1.695
 5377SOL    HW217031   6.679   6.966   1.697
 5378SOL     OW17032   6.281   0.754   0.836
 5378SOL    HW117033   6.205   0.764   0.772
 5378SOL    HW217034   6.300   0.842   0.880
 5379SOL     OW17035   0.092   5.067   3.807
 5379SOL    HW117036   0.007   5.073   3.755
 5379SOL    HW217037   0.169   5.059   3.744
 5380SOL     OW17038   2.098   1.026   3.323
 5380SOL    HW117039   2.016   0.972   3.344
 5380SOL    HW217040   2.168   0.966   3.284
 5381SOL     OW17041   6.772   3.853   0.777
 5381SOL    HW117042   6.841   3.879   0.709
 5381SOL    HW217043   6.696   3.918   0.774
 5382SOL     OW17044   3.063   0.091   1.666
 5382SOL    HW117045   3.136   0.024   1.678
 5382SOL    HW217046   3.067   0.128   1.573
 5383SOL     OW17047   2.926   2.249   5.382
 5383SOL    HW117048   2.900   2.196   5.463
 5383SOL    HW217049   2.918   2.191   5.301
 5384SOL     OW17050   6.444   6.618   3.886
 5384SOL    HW117051   6.521   6.581   3.834
 5384SOL    HW217052   6.474   6.638   3.979
 5385SOL     OW17053   2.985   3.889   2.724
 5385SOL    HW117054   2.964   3.796   2.694
 5385SOL    HW217055   2.916   3.953   2.690
 5386SOL     OW17056   4.900   6.482   4.111
 5386SOL    HW117057   4.931   6.486   4.016
 5386SOL    HW217058   4.978   6.461   4.171
 5387SOL     OW17059   2.591   5.845   2.590
 5387SOL    HW117060   2.575   5.746   2.589
 5387SOL    HW217061   2.610   5.876   2.497
 5388SOL     OW17062   5.537   6.537   2.623
 5388SOL    HW117063   5.501   6.477   2.551
 5388SOL    HW217064   5.463   6.560   2.687
 5389SOL     OW17065   4.952   1.248   1.250
 5389SOL    HW117066   4.921   1.340   1.225
 5389SOL    HW217067   4.896   1.180   1.203
 5390SOL     OW17068   4.822   5.502   4.014
 5390SOL    HW117069   4.865   5.512   3.924
 5390SOL    HW217070   4.822   5.406   4.040
 5391SOL     OW17071   2.522   3.008   0.448
 5391SOL    HW117072   2.451   2.947   0.413
 5391SOL    HW217073   2.570   2.963   0.524
 5392SOL     OW17074   6.326   3.228   1.294
 5392SOL    HW117075   6.260   3.297   1.324
 5392SOL    HW217076   6.280   3.159   1.239
 5393SOL     OW17077   6.792   6.693   0.113
 5393SOL    HW117078   6.740   6.740   0.184
 5393SOL    HW217079   6.770   6.733   0.024
 5394SOL     OW17080   0.414   3.770   6.579
 5394SOL    HW117081   0.470   3.693   6.548
 5394SOL    HW217082   0.474   3.847   6.601
 5395SOL     OW17083   4.816   0.722   1.314
 5395SOL    HW117084   4.897   0.754   1.265
 5395SOL    HW217085   4.774   0.648   1.263
 5396SOL     OW17086   5.270   3.772   2.716
 5396SOL    HW117087   5.366   3.791   2.696
 5396SOL    HW217088   5.255   3.674   2.718
 5397SOL     OW17089   6.912   2.968   2.130
 5397SOL    HW117090   6.863   3.026   2.065
 5397SOL    HW217091   6.961   2.896   2.081
 5398SOL     OW17092   3.444   2.630   1.659
 5398SOL    HW117093   3.382   2.552   1.645
 5398SOL    HW217094   3.538   2.596   1.666
 5399SOL     OW17095   2.511   6.430   1.007
 5399SOL    HW117096   2.464   6.345   1.029
 5399SOL    HW217097   2.598   6.410   0.962
 5400SOL     OW17098   2.866   4.333   0.825
 5400SOL    HW117099   2.827   4.253   0.778
 5400SOL    HW217100   2.792   4.388   0.863
 5401SOL     OW17101   5.683   3.163   2.376
 5401SOL    HW117102   5.782   3.162   2.387
 5401SOL    HW217103   5.648   3.255   2.395
 5402SOL     OW17104   2.507   5.586   1.867
 5402SOL    HW117105   2.581   5.653   1.871
 5402SOL    HW217106   2.529   5.516   1.799
 5403SOL     OW17107   6.729   3.401   6.626
 5403SOL    HW117108   6.699   3.405   6.531
 5403SOL    HW217109   6.655   3.434   6.685
 5404SOL     OW17110   1.002   2.770   3.778
 5404SOL    HW117111   0.935   2.736   3.844
 5404SOL    HW217112   1.002   2.712   3.697
 5405SOL     OW17113   6.756   5.462   6.929
 5405SOL    HW117114   6.669   5.435   6.888
 5405SOL    HW217115   6.739   5.509   7.015
 5406SOL     OW17116   2.306   1.881   0.062
 5406SOL    HW117117   2.389   1.931   0.035
 5406SOL    HW217118   2.258   1.932   0.133
 5407SOL     OW17119   4.341   3.203   0.251
 5407SOL    HW117120   4.377   3.143   0.323
 5407SOL    HW217121   4.360   3.298   0.274
 5408SOL     OW17122   2.310   1.140   5.571
 5408SOL    HW117123   2.344   1.063   5.518
 5408SOL    HW217124   2.263   1.205   5.511
 5409SOL     OW17125   5.463   0.279   3.135
 5409SOL    HW117126   5.487   0.376   3.135
 5409SOL    HW217127   5.448   0.249   3.229
 5410SOL     OW17128   2.425   2.355   1.707
 5410SOL    HW117129   2.422   2.261   1.675
 5410SOL    HW217130   2.500   2.367   1.772
 5411SOL     OW17131   6.344   5.136   6.192
 5411SOL    HW117132   6.288   5.164   6.270
 5411SOL    HW217133   6.402   5.212   6.164
 5412SOL     OW17134   5.171   2.675   0.500
 5412SOL    HW117135   5.165   2.747   0.430
 5412SOL    HW217136   5.176   2.717   0.590
 5413SOL     OW17137   3.032   1.538   1.675
 5413SOL    HW117138   3.093   1.612   1.705
 5413SOL    HW217139   2.940   1.554   1.711
 5414SOL     OW17140   5.340   1.944   4.607
 5414SOL    HW117141   5.335   2.025   4.549
 5414SOL    HW217142   5.424   1.946   4.660
 5415SOL     OW17143   0.557   5.952   1.391
 5415SOL    HW117144   0.502   5.881   1.347
 5415SOL    HW217145   0.616   5.997   1.323
 5416SOL     OW17146   4.331   5.028   5.237
 5416SOL    HW117147   4.425   4.996   5.228
 5416SOL    HW217148   4.282   4.969   5.302
 5417SOL     OW17149   3.870   6.594   5.656
 5417SOL    HW117150   3.890   6.578   5.559
 5417SOL    HW217151   3.817   6.517   5.692
 5418SOL     OW17152   3.024   0.341   2.880
 5418SOL    HW117153   3.052   0.409   2.947
 5418SOL    HW217154   2.930   0.312   2.898
 5419SOL     OW17155   3.609   4.830   0.153
 5419SOL    HW117156   3.679   4.851   0.222
 5419SOL    HW217157   3.569   4.740   0.172
 5420SOL     OW17158   2.156   3.116   3.029
 5420SOL    HW117159   2.075   3.084   3.078
 5420SOL    HW217160   2.163   3.216   3.038
 5421SOL     OW17161   1.694   3.711   1.399
 5421SOL    HW117162   1.734   3.626   1.366
 5421SOL    HW217163   1.595   3.711   1.380
 5422SOL     OW17164   0.827   4.984   0.721
 5422SOL    HW117165   0.830   5.074   0.765
 5422SOL    HW217166   0.743   4.975   0.668
 5423SOL     OW17167   6.580   3.386   0.064
 5423SOL    HW117168   6.490   3.427   0.046
 5423SOL    HW217169   6.568   3.300   0.113
 5424SOL     OW17170   5.102   3.439   4.263
 5424SOL    HW117171   5.035   3.391   4.206
 5424SOL    HW217172   5.089   3.415   4.359
 5425SOL     OW17173   4.127   1.131   5.109
 5425SOL    HW117174   4.138   1.054   5.172
 5425SOL    HW217175   4.208   1.139   5.051
 5426SOL     OW17176   5.774   6.228   4.244
 5426SOL    HW117177   5.775   6.183   4.155
 5426SOL    HW217178   5.764   6.159   4.316
 5427SOL     OW17179   4.465   6.102   6.790
 5427SOL    HW117180   4.442   6.027   6.852
 5427SOL    HW217181   4.417   6.185   6.819
 5428SOL     OW17182   0.662   0.169   0.946
 5428SOL    HW117183   0.708   0.087   0.912
 5428SOL    HW217184   0.688   0.247   0.889
 5429SOL     OW17185   1.602   1.928   6.926
 5429SOL    HW117186   1.677   1.867   6.902
 5429SOL    HW217187   1.524   1.909   6.866
 5430SOL     OW17188   0.242   2.202   5.757
 5430SOL    HW117189   0.250   2.300   5.778
 5430SOL    HW217190   0.170   2.189   5.688
 5431SOL     OW17191   3.697   6.500   6.699
 5431SOL    HW117192   3.711   6.401   6.705
 5431SOL    HW217193   3.781   6.548   6.726
 5432SOL     OW17194   5.559   0.044   6.754
 5432SOL    HW117195   5.520   6.982   6.707
 5432SOL    HW217196   5.553   0.031   6.853
 5433SOL     OW17197   0.291   2.051   4.723
 5433SOL    HW117198   0.259   1.980   4.662
 5433SOL    HW217199   0.319   2.132   4.670
 5434SOL     OW17200   2.869   0.535   5.516
 5434SOL    HW117201   2.865   0.615   5.576
 5434SOL    HW217202   2.919   0.559   5.433
 5435SOL     OW17203   5.064   0.422   1.841
 5435SOL    HW117204   5.047   0.414   1.743
 5435SOL    HW217205   5.153   0.383   1.863
 5436SOL     OW17206   4.950   4.166   3.864
 5436SOL    HW117207   4.867   4.207   3.902
 5436SOL    HW217208   5.018   4.238   3.848
 5437SOL     OW17209   2.746   4.560   0.298
 5437SOL    HW117210   2.740   4.597   0.391
 5437SOL    HW217211   2.711   4.627   0.233
 5438SOL     OW17212   6.888   2.395   1.767
 5438SOL    HW117213   6.974   2.440   1.743
 5438SOL    HW217214   6.864   2.417   1.861
 5439SOL     OW17215   1.412   1.627   1.457
 5439SOL    HW117216   1.499   1.585   1.483
 5439SOL    HW217217   1.429   1.711   1.407
 5440SOL     OW17218   1.533   1.123   1.193
 5440SOL    HW117219   1.487   1.068   1.262
 5440SOL    HW217220   1.525   1.220   1.216
 5441SOL     OW17221   3.884   1.760   4.000
 5441SOL    HW117222   3.878   1.718   3.909
 5441SOL    HW217223   3.980   1.761   4.029
 5442SOL     OW17224   4.310   6.896   2.500
 5442SOL    HW117225   4.307   6.880   2.402
 5442SOL    HW217226   4.337   6.812   2.548
 5443SOL     OW17227   3.348   7.001   4.901
 5443SOL    HW117228   3.414   0.054   4.877
 5443SOL    HW217229   3.317   6.956   4.817
 5444SOL     OW17230   1.054   0.780   4.117
 5444SOL    HW117231   0.977   0.722   4.091
 5444SOL    HW217232   1.033   0.875   4.093
 5445SOL     OW17233   6.605   4.156   3.483
 5445SOL    HW117234   6.572   4.063   3.498
 5445SOL    HW217235   6.695   4.167   3.524
 5446SOL     OW17236   6.409   5.796   4.717
 5446SOL    HW117237   6.366   5.762   4.634
 5446SOL    HW217238   6.342   5.842   4.774
 5447SOL     OW17239   3.056   2.301   6.885
 5447SOL    HW117240   3.059   2.369   6.811
 5447SOL    HW217241   2.961   2.277   6.904
 5448SOL     OW17242   4.325   2.682   5.355
 5448SOL    HW117243   4.240   2.674   5.302
 5448SOL    HW217244   4.354   2.777   5.356
 5449SOL     OW17245   1.601   2.578   5.947
 5449SOL    HW117246   1.690   2.548   5.981
 5449SOL    HW217247   1.615   2.652   5.880
 5450SOL     OW17248   2.547   0.666   1.960
 5450SOL    HW117249   2.645   0.643   1.954
 5450SOL    HW217250   2.515   0.700   1.872
 5451SOL     OW17251   1.957   6.116   3.400
 5451SOL    HW117252   2.051   6.118   3.365
 5451SOL    HW217253   1.895   6.150   3.329
 5452SOL     OW17254   2.097   4.555   6.942
 5452SOL    HW117255   2.165   4.500   6.989
 5452SOL    HW217256   2.013   4.502   6.931
 5453SOL     OW17257   6.560   4.025   0.743
 5453SOL    HW117258   6.551   4.124   0.751
 5453SOL    HW217259   6.497   3.991   0.674
 5454SOL     OW17260   0.277   4.244   6.928
 5454SOL    HW117261   0.309   4.252   0.004
 5454SOL    HW217262   0.179   4.260   6.925
 5455SOL     OW17263   6.309   3.174   0.846
 5455SOL    HW117264   6.271   3.173   0.753
 5455SOL    HW217265   6.253   3.234   0.903
 5456SOL     OW17266   3.365   0.498   6.481
 5456SOL    HW117267   3.355   0.399   6.494
 5456SOL    HW217268   3.406   0.516   6.392
 5457SOL     OW17269   5.394   2.175   1.004
 5457SOL    HW117270   5.489   2.184   0.975
 5457SOL    HW217271   5.335   2.231   0.945
 5458SOL     OW17272   1.212   4.808   6.933
 5458SOL    HW117273   1.197   4.709   6.936
 5458SOL    HW217274   1.227   4.842   0.008
 5459SOL     OW17275   1.831   5.272   0.349
 5459SOL    HW117276   1.816   5.225   0.436
 5459SOL    HW217277   1.762   5.242   0.283
 5460SOL     OW17278   3.133   6.797   1.995
 5460SOL    HW117279   3.035   6.799   2.017
 5460SOL    HW217280   3.145   6.787   1.897
 5461SOL     OW17281   5.554   6.394   5.339
 5461SOL    HW117282   5.613   6.321   5.373
 5461SOL    HW217283   5.559   6.397   5.239
 5462SOL     OW17284   1.860   0.635   1.040
 5462SOL    HW117285   1.955   0.633   1.070
 5462SOL    HW217286   1.856   0.622   0.941
 5463SOL     OW17287   6.262   2.257   0.413
 5463SOL    HW117288   6.317   2.210   0.343
 5463SOL    HW217289   6.264   2.355   0.397
 5464SOL     OW17290   1.457   1.020   4.101
 5464SOL    HW117291   1.400   1.081   4.157
 5464SOL    HW217292   1.418   1.013   4.010
 5465SOL     OW17293   3.758   7.000   3.338
 5465SOL    HW117294   3.849   0.019   3.352
 5465SOL    HW217295   3.752   6.909   3.379
 5466SOL     OW17296   5.397   4.888   4.761
 5466SOL    HW117297   5.476   4.941   4.790
 5466SOL    HW217298   5.428   4.806   4.713
 5467SOL     OW17299   5.253   2.249   2.771
 5467SOL    HW117300   5.195   2.323   2.805
 5467SOL    HW217301   5.198   2.167   2.756
 5468SOL     OW17302   5.042   1.728   4.371
 5468SOL    HW117303   4.998   1.719   4.461
 5468SOL    HW217304   4.972   1.722   4.300
 5469SOL     OW17305   3.613   4.566   6.309
 5469SOL    HW117306   3.532   4.556   6.252
 5469SOL    HW217307   3.687   4.608   6.256
 5470SOL     OW17308   1.860   5.242   3.549
 5470SOL    HW117309   1.902   5.230   3.459
 5470SOL    HW217310   1.930   5.240   3.620
 5471SOL     OW17311   5.522   6.416   1.231
 5471SOL    HW117312   5.503   6.320   1.211
 5471SOL    HW217313   5.514   6.470   1.148
 5472SOL     OW17314   4.779   3.959   5.916
 5472SOL    HW117315   4.841   3.887   5.884
 5472SOL    HW217316   4.833   4.037   5.949
 5473SOL     OW17317   0.792   3.649   3.285
 5473SOL    HW117318   0.817   3.652   3.188
 5473SOL    HW217319   0.865   3.603   3.336
 5474SOL     OW17320   1.830   5.143   4.661
 5474SOL    HW117321   1.917   5.144   4.611
 5474SOL    HW217322   1.848   5.144   4.759
 5475SOL     OW17323   3.954   2.674   1.241
 5475SOL    HW117324   3.960   2.606   1.315
 5475SOL    HW217325   3.930   2.763   1.280
 5476SOL     OW17326   2.316   3.477   6.090
 5476SOL    HW117327   2.390   3.521   6.141
 5476SOL    HW217328   2.287   3.536   6.015
 5477SOL     OW17329   2.073   3.629   3.177
 5477SOL    HW117330   1.990   3.685   3.178
 5477SOL    HW217331   2.079   3.577   3.263
 5478SOL     OW17332   5.630   5.872   6.484
 5478SOL    HW117333   5.698   5.845   6.553
 5478SOL    HW217334   5.672   5.872   6.394
 5479SOL     OW17335   4.561   0.744   5.278
 5479SOL    HW117336   4.540   0.831   5.322
 5479SOL    HW217337   4.628   0.695   5.334
 5480SOL     OW17338   0.851   4.064   4.519
 5480SOL    HW117339   0.793   4.039   4.597
 5480SOL    HW217340   0.837   3.998   4.445
 5481SOL     OW17341   2.958   0.176   4.692
 5481SOL    HW117342   2.885   0.189   4.624
 5481SOL    HW217343   2.917   0.166   4.783
 5482SOL     OW17344   3.726   4.444   1.714
 5482SOL    HW117345   3.676   4.519   1.758
 5482SOL    HW217346   3.669   4.405   1.641
 5483SOL     OW17347   0.724   2.643   5.438
 5483SOL    HW117348   0.793   2.706   5.474
 5483SOL    HW217349   0.755   2.549   5.449
 5484SOL     OW17350   4.338   0.269   4.762
 5484SOL    HW117351   4.257   0.218   4.793
 5484SOL    HW217352   4.334   0.362   4.797
 5485SOL     OW17353   2.782   6.498   5.438
 5485SOL    HW117354   2.762   6.511   5.341
 5485SOL    HW217355   2.875   6.531   5.457
 5486SOL     OW17356   2.836   5.876   5.157
 5486SOL    HW117357   2.898   5.841   5.087
 5486SOL    HW217358   2.873   5.961   5.196
 5487SOL     OW17359   2.886   4.451   5.905
 5487SOL    HW117360   2.799   4.496   5.925
 5487SOL    HW217361   2.882   4.410   5.814
 5488SOL     OW17362   6.221   1.221   0.361
 5488SOL    HW117363   6.242   1.294   0.425
 5488SOL    HW217364   6.122   1.206   0.358
 5489SOL     OW17365   6.677   3.104   2.037
 5489SOL    HW117366   6.670   3.198   2.071
 5489SOL    HW217367   6.591   3.056   2.055
 5490SOL     OW17368   1.233   6.870   2.077
 5490SOL    HW117369   1.174   6.806   2.026
 5490SOL    HW217370   1.208   6.867   2.174
 5491SOL     OW17371   6.749   3.131   0.618
 5491SOL    HW117372   6.786   3.112   0.709
 5491SOL    HW217373   6.661   3.178   0.627
 5492SOL     OW17374   0.851   2.420   5.586
 5492SOL    HW117375   0.771   2.388   5.638
 5492SOL    HW217376   0.934   2.380   5.625
 5493SOL     OW17377   4.198   3.590   1.791
 5493SOL    HW117378   4.188   3.608   1.889
 5493SOL    HW217379   4.231   3.496   1.778
 5494SOL     OW17380   5.983   4.281   4.938
 5494SOL    HW117381   6.054   4.258   4.871
 5494SOL    HW217382   5.936   4.364   4.909
 5495SOL     OW17383   6.305   0.563   0.492
 5495SOL    HW117384   6.279   0.544   0.586
 5495SOL    HW217385   6.294   0.480   0.437
 5496SOL     OW17386   4.326   0.571   4.210
 5496SOL    HW117387   4.413   0.527   4.185
 5496SOL    HW217388   4.287   0.615   4.129
 5497SOL     OW17389   0.770   0.839   5.822
 5497SOL    HW117390   0.718   0.754   5.814
 5497SOL    HW217391   0.712   0.910   5.861
 5498SOL     OW17392   0.338   4.586   1.870
 5498SOL    HW117393   0.305   4.676   1.898
 5498SOL    HW217394   0.295   4.560   1.783
 5499SOL     OW17395   0.057   0.476   4.600
 5499SOL    HW117396   0.150   0.513   4.601
 5499SOL    HW217397   7.017   0.532   4.540
 5500SOL     OW17398   1.795   0.502   0.380
 5500SOL    HW117399   1.740   0.469   0.457
 5500SOL    HW217400   1.831   0.425   0.328
 5501SOL     OW17401   4.032   1.853   0.173
 5501SOL    HW117402   3.979   1.769   0.166
 5501SOL    HW217403   4.107   1.850   0.107
 5502SOL     OW17404   5.152   3.136   6.716
 5502SOL    HW117405   5.178   3.231   6.729
 5502SOL    HW217406   5.124   3.097   6.804
 5503SOL     OW17407   0.644   3.590   0.257
 5503SOL    HW117408   0.681   3.668   0.207
 5503SOL    HW217409   0.546   3.600   0.267
 5504SOL     OW17410   3.880   1.086   6.925
 5504SOL    HW117411   3.891   1.053   0.001
 5504SOL    HW217412   3.886   1.009   6.861
 5505SOL     OW17413   2.313   4.417   4.106
 5505SOL    HW117414   2.217   4.405   4.081
 5505SOL    HW217415   2.332   4.514   4.119
 5506SOL     OW17416   0.306   3.644   6.048
 5506SOL    HW117417   0.301   3.714   5.977
 5506SOL    HW217418   0.239   3.572   6.028
 5507SOL     OW17419   3.283   0.149   6.205
 5507SOL    HW117420   3.248   0.232   6.249
 5507SOL    HW217421   3.267   0.071   6.265
 5508SOL     OW17422   0.955   1.046   6.981
 5508SOL    HW117423   0.965   1.013   6.887
 5508SOL    HW217424   0.963   0.969   0.026
 5509SOL     OW17425   0.114   5.472   1.087
 5509SOL    HW117426   0.213   5.476   1.089
 5509SOL    HW217427   0.077   5.564   1.075
 5510SOL     OW17428   4.020   5.240   6.656
 5510SOL    HW117429   4.095   5.276   6.601
 5510SOL    HW217430   4.024   5.140   6.658
 5511SOL     OW17431   0.643   1.611   5.656
 5511SOL    HW117432   0.694   1.533   5.693
 5511SOL    HW217433   0.600   1.584   5.570
 5512SOL     OW17434   3.861   0.949   1.999
 5512SOL    HW117435   3.801   0.941   2.079
 5512SOL    HW217436   3.808   0.934   1.916
 5513SOL     OW17437   4.261   4.615   6.815
 5513SOL    HW117438   4.325   4.653   6.749
 5513SOL    HW217439   4.308   4.549   6.873
 5514SOL     OW17440   2.749   6.746   5.699
 5514SOL    HW117441   2.746   6.798   5.614
 5514SOL    HW217442   2.679   6.675   5.698
 5515SOL     OW17443   2.110   5.669   2.195
 5515SOL    HW117444   2.186   5.637   2.138
 5515SOL    HW217445   2.023   5.643   2.153
 5516SOL     OW17446   2.586   2.775   5.323
 5516SOL    HW117447   2.542   2.696   5.281
 5516SOL    HW217448   2.556   2.859   5.277
 5517SOL     OW17449   1.788   4.010   2.676
 5517SOL    HW117450   1.833   4.034   2.590
 5517SOL    HW217451   1.703   3.961   2.657
 5518SOL     OW17452   4.839   4.298   5.351
 5518SOL    HW117453   4.880   4.353   5.424
 5518SOL    HW217454   4.830   4.203   5.383
 5519SOL     OW17455   4.451   2.485   3.740
 5519SOL    HW117456   4.475   2.460   3.645
 5519SOL    HW217457   4.354   2.464   3.756
 5520SOL     OW17458   5.588   6.558   2.123
 5520SOL    HW117459   5.573   6.592   2.030
 5520SOL    HW217460   5.576   6.632   2.189
 5521SOL     OW17461   5.524   5.434   1.743
 5521SOL    HW117462   5.430   5.417   1.774
 5521SOL    HW217463   5.546   5.372   1.668
 5522SOL     OW17464   5.685   5.225   0.818
 5522SOL    HW117465   5.762   5.285   0.797
 5522SOL    HW217466   5.669   5.163   0.741
 5523SOL     OW17467   5.941   1.551   2.344
 5523SOL    HW117468   5.910   1.457   2.360
 5523SOL    HW217469   5.971   1.560   2.249
 5524SOL     OW17470   2.960   0.584   4.764
 5524SOL    HW117471   2.920   0.544   4.847
 5524SOL    HW217472   3.045   0.631   4.788
 5525SOL     OW17473   6.353   2.682   1.466
 5525SOL    HW117474   6.428   2.737   1.502
 5525SOL    HW217475   6.297   2.648   1.542
 5526SOL     OW17476   4.634   4.845   3.503
 5526SOL    HW117477   4.615   4.790   3.421
 5526SOL    HW217478   4.698   4.918   3.480
 5527SOL     OW17479   5.203   2.357   4.175
 5527SOL    HW117480   5.295   2.380   4.205
 5527SOL    HW217481   5.202   2.262   4.143
 5528SOL     OW17482   1.137   1.677   1.385
 5528SOL    HW117483   1.130   1.638   1.293
 5528SOL    HW217484   1.233   1.683   1.412
 5529SOL     OW17485   3.578   0.673   2.277
 5529SOL    HW117486   3.483   0.701   2.269
 5529SOL    HW217487   3.608   0.684   2.372
 5530SOL     OW17488   6.678   2.433   1.582
 5530SOL    HW117489   6.606   2.497   1.607
 5530SOL    HW217490   6.735   2.415   1.662
 5531SOL     OW17491   3.575   4.019   1.156
 5531SOL    HW117492   3.502   3.981   1.099
 5531SOL    HW217493   3.619   4.094   1.107
 5532SOL     OW17494   1.652   3.080   1.016
 5532SOL    HW117495   1.598   3.019   0.957
 5532SOL    HW217496   1.749   3.056   1.008
 5533SOL     OW17497   4.212   1.580   4.433
 5533SOL    HW117498   4.120   1.618   4.442
 5533SOL    HW217499   4.279   1.654   4.432
 5534SOL     OW17500   1.130   1.732   5.715
 5534SOL    HW117501   1.133   1.790   5.796
 5534SOL    HW217502   1.036   1.722   5.684
 5535SOL     OW17503   0.880   2.309   3.131
 5535SOL    HW117504   0.963   2.293   3.185
 5535SOL    HW217505   0.819   2.231   3.139
 5536SOL     OW17506   3.311   0.516   4.494
 5536SOL    HW117507   3.339   0.500   4.588
 5536SOL    HW217508   3.335   0.610   4.467
 5537SOL     OW17509   2.868   0.906   2.723
 5537SOL    HW117510   2.779   0.925   2.680
 5537SOL    HW217511   2.876   0.808   2.741
 5538SOL     OW17512   4.849   6.042   4.584
 5538SOL    HW117513   4.785   6.011   4.654
 5538SOL    HW217514   4.802   6.049   4.496
 5539SOL     OW17515   2.602   2.617   1.062
 5539SOL    HW117516   2.546   2.699   1.055
 5539SOL    HW217517   2.574   2.551   0.992
 5540SOL     OW17518   4.739   4.564   2.938
 5540SOL    HW117519   4.666   4.628   2.912
 5540SOL    HW217520   4.698   4.477   2.967
 5541SOL     OW17521   4.766   1.054   5.512
 5541SOL    HW117522   4.787   1.151   5.519
 5541SOL    HW217523   4.795   1.019   5.423
 5542SOL     OW17524   4.209   4.247   6.227
 5542SOL    HW117525   4.279   4.264   6.157
 5542SOL    HW217526   4.173   4.154   6.216
 5543SOL     OW17527   6.421   2.707   6.406
 5543SOL    HW117528   6.480   2.787   6.391
 5543SOL    HW217529   6.325   2.734   6.393
 5544SOL     OW17530   6.198   0.665   5.826
 5544SOL    HW117531   6.184   0.572   5.793
 5544SOL    HW217532   6.277   0.667   5.888
 5545SOL     OW17533   2.999   2.211   2.306
 5545SOL    HW117534   3.045   2.151   2.241
 5545SOL    HW217535   2.946   2.279   2.256
 5546SOL     OW17536   1.904   4.985   5.882
 5546SOL    HW117537   1.869   5.058   5.942
 5546SOL    HW217538   1.992   4.953   5.918
 5547SOL     OW17539   3.705   5.513   5.133
 5547SOL    HW117540   3.790   5.490   5.181
 5547SOL    HW217541   3.659   5.429   5.104
 5548SOL     OW17542   6.288   3.074   5.106
 5548SOL    HW117543   6.220   3.113   5.167
 5548SOL    HW217544   6.304   3.136   5.029
 5549SOL     OW17545   2.659   5.038   6.973
 5549SOL    HW117546   2.639   5.134   6.992
 5549SOL    HW217547   2.575   4.984   6.983
 5550SOL     OW17548   4.294   6.459   1.233
 5550SOL    HW117549   4.353   6.519   1.287
 5550SOL    HW217550   4.204   6.453   1.277
 5551SOL     OW17551   0.901   1.893   2.913
 5551SOL    HW117552   1.000   1.902   2.901
 5551SOL    HW217553   0.858   1.983   2.910
 5552SOL     OW17554   0.070   2.603   1.735
 5552SOL    HW117555   0.108   2.587   1.825
 5552SOL    HW217556   7.002   2.653   1.744
 5553SOL     OW17557   5.191   5.825   0.948
 5553SOL    HW117558   5.135   5.829   0.866
 5553SOL    HW217559   5.222   5.731   0.964
 5554SOL     OW17560   2.886   2.336   4.593
 5554SOL    HW117561   2.925   2.247   4.618
 5554SOL    HW217562   2.897   2.351   4.495
 5555SOL     OW17563   0.097   5.912   2.923
 5555SOL    HW117564   0.108   5.901   3.021
 5555SOL    HW217565   7.018   5.918   2.901
 5556SOL     OW17566   0.294   1.830   5.241
 5556SOL    HW117567   0.275   1.734   5.259
 5556SOL    HW217568   0.211   1.876   5.209
 5557SOL     OW17569   2.246   0.445   3.864
 5557SOL    HW117570   2.285   0.404   3.782
 5557SOL    HW217571   2.198   0.530   3.839
 5558SOL     OW17572   5.166   3.128   5.136
 5558SOL    HW117573   5.116   3.069   5.200
 5558SOL    HW217574   5.184   3.216   5.180
 5559SOL     OW17575   2.055   0.551   1.451
 5559SOL    HW117576   1.988   0.478   1.440
 5559SOL    HW217577   2.065   0.573   1.548
 5560SOL     OW17578   0.177   1.173   4.061
 5560SOL    HW117579   0.242   1.104   4.030
 5560SOL    HW217580   0.165   1.167   4.160
 5561SOL     OW17581   1.698   2.804   3.261
 5561SOL    HW117582   1.630   2.769   3.325
 5561SOL    HW217583   1.753   2.728   3.226
 5562SOL     OW17584   2.608   2.597   5.928
 5562SOL    HW117585   2.562   2.677   5.967
 5562SOL    HW217586   2.552   2.516   5.944
 5563SOL     OW17587   4.616   5.712   1.795
 5563SOL    HW117588   4.631   5.633   1.736
 5563SOL    HW217589   4.518   5.723   1.812
 5564SOL     OW17590   5.756   3.985   1.851
 5564SOL    HW117591   5.791   3.896   1.881
 5564SOL    HW217592   5.725   3.979   1.756
 5565SOL     OW17593   3.501   3.419   5.450
 5565SOL    HW117594   3.590   3.412   5.405
 5565SOL    HW217595   3.434   3.458   5.387
 5566SOL     OW17596   1.639   4.665   1.423
 5566SOL    HW117597   1.668   4.616   1.340
 5566SOL    HW217598   1.709   4.732   1.447
 5567SOL     OW17599   1.514   5.422   1.720
 5567SOL    HW117600   1.537   5.477   1.801
 5567SOL    HW217601   1.544   5.328   1.734
 5568SOL     OW17602   3.270   2.422   1.652
 5568SOL    HW117603   3.211   2.390   1.578
 5568SOL    HW217604   3.276   2.352   1.723
 5569SOL     OW17605   5.233   1.692   0.042
 5569SOL    HW117606   5.321   1.656   0.073
 5569SOL    HW217607   5.243   1.788   0.019
 5570SOL     OW17608   6.829   4.631   5.868
 5570SOL    HW117609   6.913   4.590   5.833
 5570SOL    HW217610   6.752   4.605   5.809
 5571SOL     OW17611   6.943   4.857   5.729
 5571SOL    HW117612   6.904   4.783   5.783
 5571SOL    HW217613   0.024   4.849   5.728
 5572SOL     OW17614   5.196   2.146   5.895
 5572SOL    HW117615   5.282   2.197   5.901
 5572SOL    HW217616   5.208   2.069   5.833
 5573SOL     OW17617   1.141   3.713   0.276
 5573SOL    HW117618   1.216   3.647   0.283
 5573SOL    HW217619   1.161   3.793   0.333
 5574SOL     OW17620   0.785   6.019   4.761
 5574SOL    HW117621   0.755   5.967   4.841
 5574SOL    HW217622   0.736   5.987   4.680
 5575SOL     OW17623   1.779   1.015   0.874
 5575SOL    HW117624   1.834   1.008   0.957
 5575SOL    HW217625   1.815   0.953   0.804
 5576SOL     OW17626   5.962   5.804   0.193
 5576SOL    HW117627   5.881   5.770   0.240
 5576SOL    HW217628   5.942   5.820   0.097
 5577SOL     OW17629   2.042   3.773   5.396
 5577SOL    HW117630   2.069   3.709   5.325
 5577SOL    HW217631   2.097   3.857   5.388
 5578SOL     OW17632   3.945   2.622   6.592
 5578SOL    HW117633   3.859   2.654   6.632
 5578SOL    HW217634   3.954   2.657   6.499
 5579SOL     OW17635   4.830   4.329   0.114
 5579SOL    HW117636   4.853   4.259   0.046
 5579SOL    HW217637   4.877   4.414   0.092
 5580SOL     OW17638   5.957   1.294   0.392
 5580SOL    HW117639   5.918   1.265   0.305
 5580SOL    HW217640   5.968   1.394   0.392
 5581SOL     OW17641   2.570   2.122   6.957
 5581SOL    HW117642   2.478   2.160   6.968
 5581SOL    HW217643   2.586   2.052   0.009
 5582SOL     OW17644   3.962   3.670   3.346
 5582SOL    HW117645   3.871   3.642   3.313
 5582SOL    HW217646   4.032   3.612   3.303
 5583SOL     OW17647   4.099   6.996   1.102
 5583SOL    HW117648   4.184   0.022   1.073
 5583SOL    HW217649   4.080   0.000   1.197
 5584SOL     OW17650   6.521   3.043   3.632
 5584SOL    HW117651   6.497   3.015   3.539
 5584SOL    HW217652   6.578   3.125   3.628
 5585SOL     OW17653   6.200   6.803   3.776
 5585SOL    HW117654   6.223   6.896   3.803
 5585SOL    HW217655   6.261   6.738   3.821
 5586SOL     OW17656   1.996   1.076   6.500
 5586SOL    HW117657   1.971   1.000   6.558
 5586SOL    HW217658   1.931   1.085   6.425
 5587SOL     OW17659   3.583   7.007   4.458
 5587SOL    HW117660   3.627   6.999   4.368
 5587SOL    HW217661   3.490   0.022   4.447
 5588SOL     OW17662   4.073   0.348   6.508
 5588SOL    HW117663   4.057   0.444   6.527
 5588SOL    HW217664   4.059   0.329   6.411
 5589SOL     OW17665   4.301   3.371   6.859
 5589SOL    HW117666   4.349   3.304   6.802
 5589SOL    HW217667   4.226   3.411   6.807
 5590SOL     OW17668   0.445   6.453   3.298
 5590SOL    HW117669   0.445   6.392   3.377
 5590SOL    HW217670   0.415   6.403   3.217
 5591SOL     OW17671   4.778   0.985   0.120
 5591SOL    HW117672   4.704   0.990   0.052
 5591SOL    HW217673   4.848   0.922   0.087
 5592SOL     OW17674   1.865   2.461   2.526
 5592SOL    HW117675   1.912   2.463   2.614
 5592SOL    HW217676   1.932   2.456   2.452
 5593SOL     OW17677   1.705   3.236   5.257
 5593SOL    HW117678   1.730   3.330   5.233
 5593SOL    HW217679   1.616   3.236   5.302
 5594SOL     OW17680   2.641   0.854   0.041
 5594SOL    HW117681   2.577   0.850   0.117
 5594SOL    HW217682   2.599   0.816   6.978
 5595SOL     OW17683   0.074   1.827   5.478
 5595SOL    HW117684   0.138   1.855   5.550
 5595SOL    HW217685   0.096   1.735   5.447
 5596SOL     OW17686   4.987   1.360   3.066
 5596SOL    HW117687   4.970   1.427   3.138
 5596SOL    HW217688   4.981   1.405   2.976
 5597SOL     OW17689   0.235   1.174   6.187
 5597SOL    HW117690   0.145   1.160   6.229
 5597SOL    HW217691   0.231   1.253   6.126
 5598SOL     OW17692   6.631   2.209   4.094
 5598SOL    HW117693   6.547   2.239   4.049
 5598SOL    HW217694   6.644   2.111   4.080
 5599SOL     OW17695   4.966   2.710   3.329
 5599SOL    HW117696   4.873   2.744   3.339
 5599SOL    HW217697   4.981   2.634   3.391
 5600SOL     OW17698   2.711   1.372   2.039
 5600SOL    HW117699   2.634   1.334   1.989
 5600SOL    HW217700   2.678   1.432   2.112
 5601SOL     OW17701   6.144   2.923   5.491
 5601SOL    HW117702   6.110   2.993   5.429
 5601SOL    HW217703   6.077   2.848   5.497
 5602SOL     OW17704   6.480   2.412   2.887
 5602SOL    HW117705   6.567   2.429   2.934
 5602SOL    HW217706   6.474   2.472   2.807
 5603SOL     OW17707   4.283   1.292   5.304
 5603SOL    HW117708   4.249   1.225   5.238
 5603SOL    HW217709   4.309   1.376   5.255
 5604SOL     OW17710   1.252   0.572   4.313
 5604SOL    HW117711   1.215   0.656   4.353
 5604SOL    HW217712   1.317   0.596   4.241
 5605SOL     OW17713   3.716   6.346   4.380
 5605SOL    HW117714   3.648   6.274   4.368
 5605SOL    HW217715   3.678   6.434   4.349
 5606SOL     OW17716   4.858   2.707   0.590
 5606SOL    HW117717   4.772   2.668   0.556
 5606SOL    HW217718   4.934   2.670   0.537
 5607SOL     OW17719   6.164   2.731   2.465
 5607SOL    HW117720   6.253   2.709   2.426
 5607SOL    HW217721   6.130   2.653   2.517
 5608SOL     OW17722   4.885   0.338   3.107
 5608SOL    HW117723   4.871   0.425   3.155
 5608SOL    HW217724   4.798   0.305   3.070
 5609SOL     OW17725   0.353   0.301   0.412
 5609SOL    HW117726   0.400   0.371   0.358
 5609SOL    HW217727   0.407   0.217   0.412
 5610SOL     OW17728   5.478   4.638   0.547
 5610SOL    HW117729   5.477   4.695   0.629
 5610SOL    HW217730   5.387   4.640   0.504
 5611SOL     OW17731   6.353   4.763   1.617
 5611SOL    HW117732   6.272   4.820   1.630
 5611SOL    HW217733   6.332   4.668   1.642
 5612SOL     OW17734   3.265   1.564   0.573
 5612SOL    HW117735   3.359   1.545   0.545
 5612SOL    HW217736   3.202   1.522   0.508
 5613SOL     OW17737   5.785   4.951   6.088
 5613SOL    HW117738   5.777   4.998   6.000
 5613SOL    HW217739   5.741   4.861   6.083
 5614SOL     OW17740   5.347   3.159   4.063
 5614SOL    HW117741   5.296   3.237   4.026
 5614SOL    HW217742   5.325   3.149   4.160
 5615SOL     OW17743   0.168   2.557   3.196
 5615SOL    HW117744   0.191   2.481   3.257
 5615SOL    HW217745   0.162   2.523   3.102
 5616SOL     OW17746   1.437   3.226   2.505
 5616SOL    HW117747   1.360   3.284   2.478
 5616SOL    HW217748   1.423   3.134   2.469
 5617SOL     OW17749   2.313   5.043   5.850
 5617SOL    HW117750   2.364   4.982   5.790
 5617SOL    HW217751   2.239   4.991   5.894
 5618SOL     OW17752   6.287   5.931   2.871
 5618SOL    HW117753   6.359   5.943   2.803
 5618SOL    HW217754   6.233   6.015   2.878
 5619SOL     OW17755   3.914   3.002   3.786
 5619SOL    HW117756   3.870   2.933   3.843
 5619SOL    HW217757   3.964   3.067   3.843
 5620SOL     OW17758   5.365   4.229   4.904
 5620SOL    HW117759   5.277   4.276   4.907
 5620SOL    HW217760   5.359   4.150   4.843
 5621SOL     OW17761   1.429   2.002   5.493
 5621SOL    HW117762   1.448   1.930   5.560
 5621SOL    HW217763   1.425   1.962   5.401
 5622SOL     OW17764   4.840   6.012   4.196
 5622SOL    HW117765   4.800   5.937   4.145
 5622SOL    HW217766   4.768   6.064   4.242
 5623SOL     OW17767   4.804   5.507   3.723
 5623SOL    HW117768   4.738   5.462   3.662
 5623SOL    HW217769   4.820   5.601   3.691
 5624SOL     OW17770   6.030   5.389   3.013
 5624SOL    HW117771   6.033   5.407   2.915
 5624SOL    HW217772   5.947   5.430   3.051
 5625SOL     OW17773   1.362   6.163   5.127
 5625SOL    HW117774   1.289   6.181   5.061
 5625SOL    HW217775   1.447   6.147   5.078
 5626SOL     OW17776   0.849   4.447   6.526
 5626SOL    HW117777   0.862   4.464   6.429
 5626SOL    HW217778   0.752   4.449   6.548
 5627SOL     OW17779   0.596   6.095   0.130
 5627SOL    HW117780   0.684   6.133   0.104
 5627SOL    HW217781   0.525   6.127   0.067
 5628SOL     OW17782   2.251   2.396   1.484
 5628SOL    HW117783   2.165   2.353   1.511
 5628SOL    HW217784   2.302   2.423   1.566
 5629SOL     OW17785   5.775   3.645   2.546
 5629SOL    HW117786   5.799   3.736   2.513
 5629SOL    HW217787   5.811   3.633   2.638
 5630SOL     OW17788   1.227   3.910   6.659
 5630SOL    HW117789   1.288   3.853   6.603
 5630SOL    HW217790   1.133   3.875   6.652
 5631SOL     OW17791   3.583   1.760   2.065
 5631SOL    HW117792   3.636   1.829   2.016
 5631SOL    HW217793   3.576   1.784   2.161
 5632SOL     OW17794   5.314   6.987   5.614
 5632SOL    HW117795   5.265   6.994   5.528
 5632SOL    HW217796   5.406   6.951   5.598
 5633SOL     OW17797   0.607   4.985   5.646
 5633SOL    HW117798   0.626   4.952   5.739
 5633SOL    HW217799   0.534   5.053   5.650
 5634SOL     OW17800   2.392   6.873   1.085
 5634SOL    HW117801   2.368   6.881   0.988
 5634SOL    HW217802   2.443   6.954   1.113
 5635SOL     OW17803   2.628   0.593   0.273
 5635SOL    HW117804   2.637   0.676   0.218
 5635SOL    HW217805   2.614   0.618   0.369
 5636SOL     OW17806   5.489   1.459   5.472
 5636SOL    HW117807   5.476   1.555   5.496
 5636SOL    HW217808   5.412   1.428   5.416
 5637SOL     OW17809   4.868   6.738   4.244
 5637SOL    HW117810   4.816   6.663   4.203
 5637SOL    HW217811   4.830   6.825   4.213
 5638SOL     OW17812   5.972   5.336   1.046
 5638SOL    HW117813   5.955   5.361   0.951
 5638SOL    HW217814   5.989   5.238   1.052
 5639SOL     OW17815   1.967   0.199   1.602
 5639SOL    HW117816   1.933   0.261   1.532
 5639SOL    HW217817   1.973   0.106   1.565
 5640SOL     OW17818   2.769   6.228   2.939
 5640SOL    HW117819   2.794   6.161   2.869
 5640SOL    HW217820   2.844   6.292   2.953
 5641SOL     OW17821   0.611   4.322   4.100
 5641SOL    HW117822   0.613   4.240   4.158
 5641SOL    HW217823   0.635   4.402   4.155
 5642SOL     OW17824   1.833   4.733   6.918
 5642SOL    HW117825   1.926   4.769   6.931
 5642SOL    HW217826   1.839   4.637   6.891
 5643SOL     OW17827   4.431   2.352   5.182
 5643SOL    HW117828   4.337   2.381   5.164
 5643SOL    HW217829   4.463   2.296   5.106
 5644SOL     OW17830   4.347   1.184   4.963
 5644SOL    HW117831   4.365   1.280   4.943
 5644SOL    HW217832   4.433   1.134   4.970
 5645SOL     OW17833   6.269   5.859   4.136
 5645SOL    HW117834   6.332   5.908   4.196
 5645SOL    HW217835   6.225   5.785   4.188
 5646SOL     OW17836   0.423   5.735   4.324
 5646SOL    HW117837   0.352   5.758   4.390
 5646SOL    HW217838   0.512   5.729   4.369
 5647SOL     OW17839   5.527   5.303   6.182
 5647SOL    HW117840   5.518   5.302   6.282
 5647SOL    HW217841   5.614   5.344   6.157
 5648SOL     OW17842   1.977   1.722   4.878
 5648SOL    HW117843   2.071   1.696   4.903
 5648SOL    HW217844   1.917   1.708   4.957
 5649SOL     OW17845   0.862   0.749   5.329
 5649SOL    HW117846   0.841   0.737   5.426
 5649SOL    HW217847   0.793   0.808   5.287
 5650SOL     OW17848   6.121   4.972   6.818
 5650SOL    HW117849   6.194   5.028   6.857
 5650SOL    HW217850   6.160   4.889   6.778
 5651SOL     OW17851   6.898   0.735   3.021
 5651SOL    HW117852   6.833   0.662   2.999
 5651SOL    HW217853   6.989   0.709   2.989
 5652SOL     OW17854   4.675   4.917   0.535
 5652SOL    HW117855   4.585   4.895   0.500
 5652SOL    HW217856   4.669   4.938   0.633
 5653SOL     OW17857   1.261   5.956   6.101
 5653SOL    HW117858   1.206   5.936   6.020
 5653SOL    HW217859   1.340   5.895   6.105
 5654SOL     OW17860   0.021   5.872   5.730
 5654SOL    HW117861   0.056   5.797   5.786
 5654SOL    HW217862   0.031   5.848   5.633
 5655SOL     OW17863   6.816   3.433   3.865
 5655SOL    HW117864   6.736   3.489   3.884
 5655SOL    HW217865   6.884   3.487   3.816
 5656SOL     OW17866   3.546   4.546   0.234
 5656SOL    HW117867   3.608   4.500   0.170
 5656SOL    HW217868   3.548   4.499   0.322
 5657SOL     OW17869   4.058   6.646   2.012
 5657SOL    HW117870   4.146   6.648   2.059
 5657SOL    HW217871   4.017   6.737   2.013
 5658SOL     OW17872   4.223   0.222   5.652
 5658SOL    HW117873   4.175   0.142   5.615
 5658SOL    HW217874   4.297   0.191   5.712
 5659SOL     OW17875   3.502   3.883   2.611
 5659SOL    HW117876   3.564   3.904   2.686
 5659SOL    HW217877   3.454   3.967   2.585
 5660SOL     OW17878   5.797   6.371   0.287
 5660SOL    HW117879   5.872   6.385   0.351
 5660SOL    HW217880   5.755   6.459   0.265
 5661SOL     OW17881   6.186   5.614   4.274
 5661SOL    HW117882   6.092   5.637   4.247
 5661SOL    HW217883   6.204   5.518   4.253
 5662SOL     OW17884   2.508   4.772   4.549
 5662SOL    HW117885   2.516   4.722   4.635
 5662SOL    HW217886   2.566   4.728   4.480
 5663SOL     OW17887   1.754   4.312   0.083
 5663SOL    HW117888   1.718   4.259   0.006
 5663SOL    HW217889   1.688   4.311   0.158
 5664SOL     OW17890   0.574   4.582   2.707
 5664SOL    HW117891   0.479   4.556   2.688
 5664SOL    HW217892   0.608   4.529   2.785
 5665SOL     OW17893   2.266   2.518   6.000
 5665SOL    HW117894   2.198   2.586   5.973
 5665SOL    HW217895   2.276   2.518   6.099
 5666SOL     OW17896   5.293   5.358   0.593
 5666SOL    HW117897   5.373   5.413   0.567
 5666SOL    HW217898   5.254   5.393   0.678
 5667SOL     OW17899   0.159   5.410   3.471
 5667SOL    HW117900   0.170   5.390   3.568
 5667SOL    HW217901   0.062   5.426   3.452
 5668SOL     OW17902   6.071   2.293   6.005
 5668SOL    HW117903   6.095   2.309   5.909
 5668SOL    HW217904   6.017   2.209   6.012
 5669SOL     OW17905   0.257   4.263   6.652
 5669SOL    HW117906   0.184   4.196   6.640
 5669SOL    HW217907   0.288   4.262   6.747
 5670SOL     OW17908   0.825   3.821   3.848
 5670SOL    HW117909   0.735   3.864   3.853
 5670SOL    HW217910   0.824   3.749   3.779
 5671SOL     OW17911   1.716   0.920   6.035
 5671SOL    HW117912   1.753   0.972   5.958
 5671SOL    HW217913   1.756   0.829   6.036
 5672SOL     OW17914   4.442   5.156   5.733
 5672SOL    HW117915   4.523   5.101   5.755
 5672SOL    HW217916   4.366   5.128   5.792
 5673SOL     OW17917   0.462   0.624   2.391
 5673SOL    HW117918   0.465   0.527   2.370
 5673SOL    HW217919   0.397   0.670   2.330
 5674SOL     OW17920   6.916   3.379   1.816
 5674SOL    HW117921   6.886   3.419   1.729
 5674SOL    HW217922   7.015   3.378   1.820
 5675SOL     OW17923   4.069   2.590   5.617
 5675SOL    HW117924   4.061   2.558   5.711
 5675SOL    HW217925   4.074   2.512   5.555
 5676SOL     OW17926   2.152   0.497   2.033
 5676SOL    HW117927   2.207   0.414   2.030
 5676SOL    HW217928   2.211   0.577   2.047
 5677SOL     OW17929   6.534   0.734   3.780
 5677SOL    HW117930   6.553   0.825   3.742
 5677SOL    HW217931   6.583   0.665   3.727
 5678SOL     OW17932   2.529   6.344   2.987
 5678SOL    HW117933   2.623   6.323   2.959
 5678SOL    HW217934   2.471   6.349   2.906
 5679SOL     OW17935   1.978   6.397   4.911
 5679SOL    HW117936   2.006   6.460   4.984
 5679SOL    HW217937   2.048   6.328   4.897
 5680SOL     OW17938   2.106   6.300   6.460
 5680SOL    HW117939   2.043   6.224   6.443
 5680SOL    HW217940   2.199   6.265   6.468
 5681SOL     OW17941   1.299   2.649   6.998
 5681SOL    HW117942   1.311   2.607   0.070
 5681SOL    HW217943   1.312   2.748   7.006
 5682SOL     OW17944   1.332   3.476   5.030
 5682SOL    HW117945   1.380   3.459   4.944
 5682SOL    HW217946   1.254   3.413   5.038
 5683SOL     OW17947   3.446   2.181   6.004
 5683SOL    HW117948   3.433   2.280   6.013
 5683SOL    HW217949   3.359   2.134   6.023
 5684SOL     OW17950   3.243   4.096   3.943
 5684SOL    HW117951   3.268   4.137   4.031
 5684SOL    HW217952   3.318   4.106   3.879
 5685SOL     OW17953   0.067   5.276   2.016
 5685SOL    HW117954   0.064   5.192   2.070
 5685SOL    HW217955   0.005   5.344   2.056
 5686SOL     OW17956   3.130   6.802   0.249
 5686SOL    HW117957   3.108   6.733   0.180
 5686SOL    HW217958   3.049   6.856   0.270
 5687SOL     OW17959   5.295   5.094   5.559
 5687SOL    HW117960   5.335   5.020   5.504
 5687SOL    HW217961   5.325   5.182   5.522
 5688SOL     OW17962   5.916   1.839   1.282
 5688SOL    HW117963   5.976   1.759   1.280
 5688SOL    HW217964   5.820   1.809   1.280
 5689SOL     OW17965   3.579   2.428   0.901
 5689SOL    HW117966   3.612   2.505   0.847
 5689SOL    HW217967   3.605   2.343   0.857
 5690SOL     OW17968   4.753   6.463   0.844
 5690SOL    HW117969   4.747   6.400   0.922
 5690SOL    HW217970   4.778   6.554   0.876
 5691SOL     OW17971   1.536   0.260   1.940
 5691SOL    HW117972   1.459   0.323   1.932
 5691SOL    HW217973   1.505   0.174   1.980
 5692SOL     OW17974   6.473   2.583   0.014
 5692SOL    HW117975   6.498   2.546   6.942
 5692SOL    HW217976   6.503   2.520   0.085
 5693SOL     OW17977   5.092   2.779   2.894
 5693SOL    HW117978   5.134   2.831   2.820
 5693SOL    HW217979   4.998   2.811   2.908
 5694SOL     OW17980   6.986   1.722   3.789
 5694SOL    HW117981   0.039   1.778   3.746
 5694SOL    HW217982   0.010   1.641   3.829
 5695SOL     OW17983   1.795   3.320   3.290
 5695SOL    HW117984   1.750   3.326   3.201
 5695SOL    HW217985   1.886   3.278   3.279
 5696SOL     OW17986   2.792   0.505   4.985
 5696SOL    HW117987   2.756   0.412   4.980
 5696SOL    HW217988   2.717   0.571   4.984
 5697SOL     OW17989   6.596   2.947   0.486
 5697SOL    HW117990   6.546   2.881   0.541
 5697SOL    HW217991   6.677   2.977   0.536
 5698SOL     OW17992   0.785   3.673   1.761
 5698SOL    HW117993   0.778   3.626   1.849
 5698SOL    HW217994   0.838   3.757   1.772
 5699SOL     OW17995   6.207   0.726   4.934
 5699SOL    HW117996   6.124   0.768   4.899
 5699SOL    HW217997   6.184   0.664   5.010
 5700SOL     OW17998   1.690   5.591   3.990
 5700SOL    HW117999   1.591   5.598   4.003
 5700SOL    HW218000   1.721   5.665   3.930
 5701SOL     OW18001   6.221   5.526   1.594
 5701SOL    HW118002   6.200   5.499   1.499
 5701SOL    HW218003   6.305   5.580   1.595
 5702SOL     OW18004   2.235   0.526   6.304
 5702SOL    HW118005   2.216   0.598   6.238
 5702SOL    HW218006   2.334   0.518   6.318
 5703SOL     OW18007   4.355   4.618   0.665
 5703SOL    HW118008   4.300   4.605   0.747
 5703SOL    HW218009   4.424   4.546   0.660
 5704SOL     OW18010   4.054   5.422   3.500
 5704SOL    HW118011   4.094   5.331   3.499
 5704SOL    HW218012   4.094   5.477   3.426
 5705SOL     OW18013   6.026   0.864   1.359
 5705SOL    HW118014   5.975   0.949   1.361
 5705SOL    HW218015   6.061   0.847   1.266
 5706SOL     OW18016   1.144   1.255   6.649
 5706SOL    HW118017   1.109   1.299   6.731
 5706SOL    HW218018   1.190   1.324   6.592
 5707SOL     OW18019   2.396   2.121   0.184
 5707SOL    HW118020   2.443   2.119   0.273
 5707SOL    HW218021   2.390   2.215   0.152
 5708SOL     OW18022   4.954   6.771   2.142
 5708SOL    HW118023   4.893   6.827   2.086
 5708SOL    HW218024   4.935   6.674   2.125
 5709SOL     OW18025   1.041   0.245   2.531
 5709SOL    HW118026   1.113   0.285   2.587
 5709SOL    HW218027   0.982   0.187   2.588
 5710SOL     OW18028   3.094   3.316   6.121
 5710SOL    HW118029   3.076   3.414   6.132
 5710SOL    HW218030   3.192   3.302   6.107
 5711SOL     OW18031   4.152   0.979   4.507
 5711SOL    HW118032   4.189   0.887   4.497
 5711SOL    HW218033   4.179   1.016   4.596
 5712SOL     OW18034   0.075   5.921   6.303
 5712SOL    HW118035   0.108   5.985   6.373
 5712SOL    HW218036   0.130   5.931   6.220
 5713SOL     OW18037   0.042   2.732   2.437
 5713SOL    HW118038   0.047   2.769   2.530
 5713SOL    HW218039   6.968   2.747   2.401
 5714SOL     OW18040   1.558   0.656   6.305
 5714SOL    HW118041   1.506   0.617   6.381
 5714SOL    HW218042   1.516   0.743   6.276
 5715SOL     OW18043   1.384   6.619   2.541
 5715SOL    HW118044   1.424   6.563   2.613
 5715SOL    HW218045   1.288   6.593   2.527
 5716SOL     OW18046   2.370   3.768   5.957
 5716SOL    HW118047   2.437   3.784   5.885
 5716SOL    HW218048   2.294   3.715   5.920
 5717SOL     OW18049   1.510   4.000   0.364
 5717SOL    HW118050   1.508   3.935   0.440
 5717SOL    HW218051   1.574   3.968   0.295
 5718SOL     OW18052   2.986   4.536   6.331
 5718SOL    HW118053   2.938   4.548   6.418
 5718SOL    HW218054   3.084   4.530   6.348
 5719SOL     OW18055   3.434   0.889   6.647
 5719SOL    HW118056   3.382   0.833   6.711
 5719SOL    HW218057   3.509   0.835   6.609
 5720SOL     OW18058   1.220   5.041   5.155
 5720SOL    HW118059   1.298   4.980   5.142
 5720SOL    HW218060   1.253   5.133   5.175
 5721SOL     OW18061   0.579   4.016   1.358
 5721SOL    HW118062   0.668   3.980   1.388
 5721SOL    HW218063   0.589   4.059   1.268
 5722SOL     OW18064   5.516   6.573   4.300
 5722SOL    HW118065   5.483   6.498   4.356
 5722SOL    HW218066   5.514   6.658   4.353
 5723SOL     OW18067   3.049   5.127   0.475
 5723SOL    HW118068   3.013   5.082   0.557
 5723SOL    HW218069   3.046   5.226   0.489
 5724SOL     OW18070   5.301   1.700   6.333
 5724SOL    HW118071   5.212   1.658   6.318
 5724SOL    HW218072   5.373   1.633   6.317
 5725SOL     OW18073   5.169   5.352   5.769
 5725SOL    HW118074   5.219   5.385   5.689
 5725SOL    HW218075   5.228   5.355   5.849
 5726SOL     OW18076   5.585   3.508   5.822
 5726SOL    HW118077   5.617   3.490   5.729
 5726SOL    HW218078   5.564   3.422   5.867
 5727SOL     OW18079   5.723   2.050   3.711
 5727SOL    HW118080   5.774   2.035   3.795
 5727SOL    HW218081   5.686   1.963   3.678
 5728SOL     OW18082   6.358   0.624   5.469
 5728SOL    HW118083   6.442   0.605   5.417
 5728SOL    HW218084   6.315   0.537   5.493
 5729SOL     OW18085   0.583   2.043   6.672
 5729SOL    HW118086   0.652   2.094   6.621
 5729SOL    HW218087   0.493   2.060   6.632
 5730SOL     OW18088   4.346   4.773   5.870
 5730SOL    HW118089   4.254   4.737   5.862
 5730SOL    HW218090   4.342   4.872   5.884
 5731SOL     OW18091   3.024   0.971   3.997
 5731SOL    HW118092   3.095   0.955   3.928
 5731SOL    HW218093   3.061   0.951   4.087
 5732SOL     OW18094   5.972   5.317   5.281
 5732SOL    HW118095   5.912   5.377   5.229
 5732SOL    HW218096   6.067   5.344   5.266
 5733SOL     OW18097   3.257   1.199   0.053
 5733SOL    HW118098   3.336   1.226   7.017
 5733SOL    HW218099   3.282   1.124   0.115
 5734SOL     OW18100   1.937   6.280   5.855
 5734SOL    HW118101   1.941   6.246   5.950
 5734SOL    HW218102   1.994   6.222   5.797
 5735SOL     OW18103   3.979   0.536   2.374
 5735SOL    HW118104   4.032   0.613   2.410
 5735SOL    HW218105   4.041   0.468   2.335
 5736SOL     OW18106   4.699   4.231   6.650
 5736SOL    HW118107   4.791   4.195   6.634
 5736SOL    HW218108   4.673   4.291   6.575
 5737SOL     OW18109   4.485   5.237   1.116
 5737SOL    HW118110   4.506   5.159   1.176
 5737SOL    HW218111   4.555   5.307   1.125
 5738SOL     OW18112   3.144   1.043   6.386
 5738SOL    HW118113   3.171   1.041   6.290
 5738SOL    HW218114   3.045   1.053   6.393
 5739SOL     OW18115   2.408   0.385   5.654
 5739SOL    HW118116   2.422   0.328   5.735
 5739SOL    HW218117   2.321   0.361   5.611
 5740SOL     OW18118   5.377   3.902   1.957
 5740SOL    HW118119   5.428   3.987   1.945
 5740SOL    HW218120   5.331   3.903   2.046
 5741SOL     OW18121   0.432   3.610   4.049
 5741SOL    HW118122   0.444   3.513   4.069
 5741SOL    HW218123   0.437   3.663   4.133
 5742SOL     OW18124   4.719   0.529   3.261
 5742SOL    HW118125   4.697   0.623   3.287
 5742SOL    HW218126   4.758   0.480   3.339
 5743SOL     OW18127   3.597   4.144   5.368
 5743SOL    HW118128   3.652   4.174   5.289
 5743SOL    HW218129   3.576   4.047   5.358
 5744SOL     OW18130   5.695   6.708   2.471
 5744SOL    HW118131   5.656   6.641   2.534
 5744SOL    HW218132   5.628   6.733   2.401
 5745SOL     OW18133   2.083   2.501   3.438
 5745SOL    HW118134   2.134   2.414   3.436
 5745SOL    HW218135   2.108   2.552   3.520
 5746SOL     OW18136   4.323   0.560   3.198
 5746SOL    HW118137   4.365   0.532   3.284
 5746SOL    HW218138   4.232   0.598   3.216
 5747SOL     OW18139   0.853   6.077   1.685
 5747SOL    HW118140   0.902   6.011   1.629
 5747SOL    HW218141   0.767   6.037   1.717
 5748SOL     OW18142   0.500   6.016   0.374
 5748SOL    HW118143   0.535   6.063   0.456
 5748SOL    HW218144   0.530   6.065   0.293
 5749SOL     OW18145   1.898   6.269   5.179
 5749SOL    HW118146   1.908   6.200   5.107
 5749SOL    HW218147   1.971   6.257   5.246
 5750SOL     OW18148   6.491   4.686   4.102
 5750SOL    HW118149   6.477   4.771   4.154
 5750SOL    HW218150   6.573   4.694   4.045
 5751SOL     OW18151   2.219   3.789   4.180
 5751SOL    HW118152   2.187   3.882   4.197
 5751SOL    HW218153   2.210   3.736   4.264
 5752SOL     OW18154   5.365   0.838   1.086
 5752SOL    HW118155   5.403   0.767   1.145
 5752SOL    HW218156   5.369   0.926   1.133
 5753SOL     OW18157   3.102   4.036   4.494
 5753SOL    HW118158   3.164   3.969   4.536
 5753SOL    HW218159   3.033   4.065   4.561
 5754SOL     OW18160   0.987   6.149   1.221
 5754SOL    HW118161   1.060   6.084   1.203
 5754SOL    HW218162   0.900   6.100   1.233
 5755SOL     OW18163   1.813   2.232   0.115
 5755SOL    HW118164   1.726   2.268   0.081
 5755SOL    HW218165   1.868   2.307   0.152
 5756SOL     OW18166   5.746   5.935   1.686
 5756SOL    HW118167   5.790   5.944   1.776
 5756SOL    HW218168   5.700   5.846   1.680
 5757SOL     OW18169   6.901   0.182   3.607
 5757SOL    HW118170   6.942   0.273   3.599
 5757SOL    HW218171   6.840   0.166   3.530
 5758SOL     OW18172   1.063   6.821   2.983
 5758SOL    HW118173   1.061   6.908   2.934
 5758SOL    HW218174   1.055   6.745   2.917
 5759SOL     OW18175   3.861   6.686   1.308
 5759SOL    HW118176   3.913   6.693   1.223
 5759SOL    HW218177   3.840   6.778   1.341
 5760SOL     OW18178   0.100   3.118   1.695
 5760SOL    HW118179   0.143   3.036   1.732
 5760SOL    HW218180   0.119   3.196   1.754
 5761SOL     OW18181   5.614   5.315   5.038
 5761SOL    HW118182   5.636   5.226   5.077
 5761SOL    HW218183   5.663   5.386   5.089
 5762SOL     OW18184   5.260   4.623   6.927
 5762SOL    HW118185   5.354   4.602   6.902
 5762SOL    HW218186   5.258   4.705   6.984
 5763SOL     OW18187   5.413   0.308   0.238
 5763SOL    HW118188   5.322   0.323   0.276
 5763SOL    HW218189   5.460   0.396   0.228
 5764SOL     OW18190   4.263   5.694   3.648
 5764SOL    HW118191   4.292   5.760   3.717
 5764SOL    HW218192   4.168   5.711   3.623
 5765SOL     OW18193   5.882   4.726   1.497
 5765SOL    HW118194   5.831   4.750   1.414
 5765SOL    HW218195   5.826   4.747   1.578
 5766SOL     OW18196   0.563   1.888   4.681
 5766SOL    HW118197   0.535   1.938   4.599
 5766SOL    HW218198   0.485   1.881   4.744
 5767SOL     OW18199   2.146   0.075   0.919
 5767SOL    HW118200   2.226   0.023   0.887
 5767SOL    HW218201   2.169   0.172   0.922
 5768SOL     OW18202   6.853   6.088   4.405
 5768SOL    HW118203   6.789   6.147   4.455
 5768SOL    HW218204   6.868   6.126   4.314
 5769SOL     OW18205   1.358   5.021   6.187
 5769SOL    HW118206   1.406   4.982   6.109
 5769SOL    HW218207   1.347   5.119   6.174
 5770SOL     OW18208   1.398   5.892   1.262
 5770SOL    HW118209   1.332   5.857   1.328
 5770SOL    HW218210   1.391   5.992   1.258
 5771SOL     OW18211   2.431   5.230   3.943
 5771SOL    HW118212   2.477   5.142   3.929
 5771SOL    HW218213   2.443   5.259   4.038
 5772SOL     OW18214   4.527   0.350   2.209
 5772SOL    HW118215   4.507   0.267   2.260
 5772SOL    HW218216   4.626   0.368   2.211
 5773SOL     OW18217   4.451   2.421   2.301
 5773SOL    HW118218   4.517   2.445   2.230
 5773SOL    HW218219   4.380   2.362   2.262
 5774SOL     OW18220   0.527   6.299   3.522
 5774SOL    HW118221   0.495   6.216   3.568
 5774SOL    HW218222   0.625   6.292   3.506
 5775SOL     OW18223   0.446   5.609   2.621
 5775SOL    HW118224   0.534   5.585   2.661
 5775SOL    HW218225   0.393   5.525   2.605
 5776SOL     OW18226   1.778   0.406   2.921
 5776SOL    HW118227   1.814   0.377   2.833
 5776SOL    HW218228   1.678   0.400   2.920
 5777SOL     OW18229   1.657   0.315   3.344
 5777SOL    HW118230   1.590   0.291   3.274
 5777SOL    HW218231   1.635   0.266   3.428
 5778SOL     OW18232   0.871   1.525   6.512
 5778SOL    HW118233   0.875   1.494   6.607
 5778SOL    HW218234   0.912   1.455   6.453
 5779SOL     OW18235   5.093   2.091   6.129
 5779SOL    HW118236   5.179   2.089   6.181
 5779SOL    HW218237   5.110   2.126   6.037
 5780SOL     OW18238   5.208   4.645   3.713
 5780SOL    HW118239   5.222   4.739   3.742
 5780SOL    HW218240   5.113   4.619   3.728
 5781SOL     OW18241   0.699   3.885   5.030
 5781SOL    HW118242   0.647   3.937   5.098
 5781SOL    HW218243   0.772   3.834   5.075
 5782SOL     OW18244   0.585   1.201   0.812
 5782SOL    HW118245   0.646   1.145   0.868
 5782SOL    HW218246   0.639   1.258   0.751
 5783SOL     OW18247   1.943   1.968   2.141
 5783SOL    HW118248   1.913   1.899   2.207
 5783SOL    HW218249   1.864   2.021   2.110
 5784SOL     OW18250   0.714   6.415   6.642
 5784SOL    HW118251   0.621   6.408   6.604
 5784SOL    HW218252   0.718   6.493   6.705
 5785SOL     OW18253   2.315   1.288   1.178
 5785SOL    HW118254   2.333   1.258   1.272
 5785SOL    HW218255   2.355   1.223   1.114
 5786SOL     OW18256   0.321   3.896   0.557
 5786SOL    HW118257   0.279   3.805   0.562
 5786SOL    HW218258   0.313   3.941   0.645
 5787SOL     OW18259   2.556   1.687   5.649
 5787SOL    HW118260   2.511   1.657   5.565
 5787SOL    HW218261   2.537   1.784   5.664
 5788SOL     OW18262   2.439   0.595   3.105
 5788SOL    HW118263   2.394   0.611   3.017
 5788SOL    HW218264   2.483   0.680   3.135
 5789SOL     OW18265   4.019   5.007   6.336
 5789SOL    HW118266   3.980   4.919   6.312
 5789SOL    HW218267   4.114   5.011   6.305
 5790SOL     OW18268   0.882   3.105   3.924
 5790SOL    HW118269   0.901   3.019   3.971
 5790SOL    HW218270   0.811   3.155   3.973
 5791SOL     OW18271   2.546   0.317   3.105
 5791SOL    HW118272   2.478   0.390   3.101
 5791SOL    HW218273   2.622   0.339   3.043
 5792SOL     OW18274   6.826   1.855   3.085
 5792SOL    HW118275   6.735   1.829   3.050
 5792SOL    HW218276   6.856   1.788   3.153
 5793SOL     OW18277   6.327   1.071   3.879
 5793SOL    HW118278   6.306   1.015   3.959
 5793SOL    HW218279   6.249   1.071   3.816
 5794SOL     OW18280   3.789   2.941   0.458
 5794SOL    HW118281   3.851   3.017   0.479
 5794SOL    HW218282   3.783   2.929   0.358
 5795SOL     OW18283   5.480   4.563   5.910
 5795SOL    HW118284   5.388   4.525   5.914
 5795SOL    HW218285   5.516   4.554   5.817
 5796SOL     OW18286   3.116   1.425   0.395
 5796SOL    HW118287   3.188   1.371   0.351
 5796SOL    HW218288   3.030   1.374   0.390
 5797SOL     OW18289   3.384   2.133   4.574
 5797SOL    HW118290   3.345   2.160   4.662
 5797SOL    HW218291   3.484   2.147   4.576
 5798SOL     OW18292   0.407   4.429   4.905
 5798SOL    HW118293   0.392   4.371   4.825
 5798SOL    HW218294   0.360   4.516   4.893
 5799SOL     OW18295   5.122   0.009   3.259
 5799SOL    HW118296   5.032   0.036   3.225
 5799SOL    HW218297   5.188   0.011   3.184
 5800SOL     OW18298   5.539   4.472   1.320
 5800SOL    HW118299   5.444   4.443   1.336
 5800SOL    HW218300   5.545   4.517   1.231
 5801SOL     OW18301   0.399   1.338   3.586
 5801SOL    HW118302   0.368   1.375   3.499
 5801SOL    HW218303   0.367   1.244   3.595
 5802SOL     OW18304   0.546   4.025   6.609
 5802SOL    HW118305   0.641   4.016   6.640
 5802SOL    HW218306   0.503   4.101   6.657
 5803SOL     OW18307   1.160   4.682   1.044
 5803SOL    HW118308   1.151   4.767   0.992
 5803SOL    HW218309   1.167   4.605   0.982
 5804SOL     OW18310   6.431   3.996   4.595
 5804SOL    HW118311   6.361   3.935   4.559
 5804SOL    HW218312   6.446   3.975   4.692
 5805SOL     OW18313   4.187   3.965   6.189
 5805SOL    HW118314   4.163   3.969   6.092
 5805SOL    HW218315   4.120   3.909   6.238
 5806SOL     OW18316   0.888   6.921   0.424
 5806SOL    HW118317   0.877   6.985   0.500
 5806SOL    HW218318   0.899   6.972   0.339
 5807SOL     OW18319   1.711   3.788   0.617
 5807SOL    HW118320   1.795   3.841   0.627
 5807SOL    HW218321   1.709   3.714   0.683
 5808SOL     OW18322   5.391   4.152   2.436
 5808SOL    HW118323   5.314   4.152   2.373
 5808SOL    HW218324   5.368   4.099   2.518
 5809SOL     OW18325   6.664   3.029   4.766
 5809SOL    HW118326   6.655   2.976   4.682
 5809SOL    HW218327   6.612   3.114   4.758
 5810SOL     OW18328   3.379   1.589   3.593
 5810SOL    HW118329   3.289   1.611   3.631
 5810SOL    HW218330   3.369   1.527   3.515
 5811SOL     OW18331   2.576   0.234   5.039
 5811SOL    HW118332   2.605   0.287   5.118
 5811SOL    HW218333   2.657   0.201   4.990
 5812SOL     OW18334   4.767   0.374   3.471
 5812SOL    HW118335   4.778   0.315   3.552
 5812SOL    HW218336   4.700   0.332   3.409
 5813SOL     OW18337   1.222   1.236   5.810
 5813SOL    HW118338   1.142   1.181   5.790
 5813SOL    HW218339   1.268   1.262   5.725
 5814SOL     OW18340   0.222   4.690   0.537
 5814SOL    HW118341   0.308   4.639   0.535
 5814SOL    HW218342   0.207   4.727   0.629
 5815SOL     OW18343   4.035   2.103   2.943
 5815SOL    HW118344   3.979   2.146   3.014
 5815SOL    HW218345   3.975   2.069   2.870
 5816SOL     OW18346   5.172   0.143   6.975
 5816SOL    HW118347   5.197   0.056   7.017
 5816SOL    HW218348   5.172   0.133   6.875
 5817SOL     OW18349   6.016   3.041   6.212
 5817SOL    HW118350   5.922   3.017   6.236
 5817SOL    HW218351   6.016   3.094   6.127
 5818SOL     OW18352   5.934   6.608   5.479
 5818SOL    HW118353   6.031   6.596   5.501
 5818SOL    HW218354   5.878   6.563   5.548
 5819SOL     OW18355   5.087   0.621   1.020
 5819SOL    HW118356   5.166   0.560   1.018
 5819SOL    HW218357   5.008   0.574   0.982
 5820SOL     OW18358   4.893   0.039   3.138
 5820SOL    HW118359   4.897   0.131   3.099
 5820SOL    HW218360   4.875   6.991   3.065
 5821SOL     OW18361   2.808   0.427   1.931
 5821SOL    HW118362   2.880   0.485   1.892
 5821SOL    HW218363   2.801   0.343   1.877
 5822SOL     OW18364   0.447   2.547   1.828
 5822SOL    HW118365   0.543   2.524   1.842
 5822SOL    HW218366   0.436   2.596   1.742
 5823SOL     OW18367   1.229   0.842   5.111
 5823SOL    HW118368   1.131   0.858   5.094
 5823SOL    HW218369   1.248   0.744   5.109
 5824SOL     OW18370   6.367   6.851   3.386
 5824SOL    HW118371   6.385   6.761   3.424
 5824SOL    HW218372   6.432   6.870   3.312
 5825SOL     OW18373   2.463   1.695   6.369
 5825SOL    HW118374   2.386   1.635   6.391
 5825SOL    HW218375   2.537   1.679   6.434
 5826SOL     OW18376   6.024   6.285   5.508
 5826SOL    HW118377   6.064   6.362   5.458
 5826SOL    HW218378   6.054   6.289   5.604
 5827SOL     OW18379   0.452   5.439   4.912
 5827SOL    HW118380   0.373   5.491   4.944
 5827SOL    HW218381   0.458   5.444   4.813
 5828SOL     OW18382   0.500   3.798   1.947
 5828SOL    HW118383   0.571   3.779   1.879
 5828SOL    HW218384   0.534   3.777   2.038
 5829SOL     OW18385   3.128   1.004   2.282
 5829SOL    HW118386   3.116   0.904   2.282
 5829SOL    HW218387   3.123   1.038   2.376
 5830SOL     OW18388   3.669   0.960   5.955
 5830SOL    HW118389   3.651   1.042   5.901
 5830SOL    HW218390   3.766   0.955   5.978
 5831SOL     OW18391   6.062   6.103   2.727
 5831SOL    HW118392   6.082   6.105   2.630
 5831SOL    HW218393   6.131   6.156   2.777
 5832SOL     OW18394   4.096   4.098   5.261
 5832SOL    HW118395   4.098   3.999   5.275
 5832SOL    HW218396   4.189   4.134   5.272
 5833SOL     OW18397   2.872   3.400   4.010
 5833SOL    HW118398   2.912   3.480   3.965
 5833SOL    HW218399   2.774   3.398   3.994
 5834SOL     OW18400   6.236   1.447   0.525
 5834SOL    HW118401   6.255   1.472   0.620
 5834SOL    HW218402   6.171   1.512   0.487
 5835SOL     OW18403   4.917   1.964   3.656
 5835SOL    HW118404   4.849   1.912   3.708
 5835SOL    HW218405   4.972   2.019   3.719
 5836SOL     OW18406   3.188   6.408   2.633
 5836SOL    HW118407   3.282   6.383   2.656
 5836SOL    HW218408   3.133   6.324   2.624
 5837SOL     OW18409   4.585   4.532   0.042
 5837SOL    HW118410   4.663   4.486   0.083
 5837SOL    HW218411   4.506   4.470   0.042
 5838SOL     OW18412   1.525   1.557   6.244
 5838SOL    HW118413   1.602   1.567   6.182
 5838SOL    HW218414   1.545   1.484   6.310
 5839SOL     OW18415   6.682   3.118   2.433
 5839SOL    HW118416   6.734   3.118   2.347
 5839SOL    HW218417   6.633   3.204   2.442
 5840SOL     OW18418   1.389   5.813   6.368
 5840SOL    HW118419   1.418   5.853   6.281
 5840SOL    HW218420   1.301   5.851   6.395
 5841SOL     OW18421   5.993   3.368   3.163
 5841SOL    HW118422   6.014   3.464   3.145
 5841SOL    HW218423   5.920   3.338   3.101
 5842SOL     OW18424   3.814   2.928   0.747
 5842SOL    HW118425   3.784   3.002   0.809
 5842SOL    HW218426   3.794   2.954   0.653
 5843SOL     OW18427   1.907   3.684   2.438
 5843SOL    HW118428   1.868   3.707   2.528
 5843SOL    HW218429   1.943   3.591   2.441
 5844SOL     OW18430   0.239   5.529   6.318
 5844SOL    HW118431   0.213   5.449   6.373
 5844SOL    HW218432   0.177   5.605   6.340
 5845SOL     OW18433   1.003   2.615   3.561
 5845SOL    HW118434   1.060   2.654   3.489
 5845SOL    HW218435   0.907   2.629   3.538
 5846SOL     OW18436   6.823   2.928   5.504
 5846SOL    HW118437   6.904   2.960   5.455
 5846SOL    HW218438   6.759   2.886   5.440
 5847SOL     OW18439   2.434   2.301   2.602
 5847SOL    HW118440   2.368   2.360   2.648
 5847SOL    HW218441   2.459   2.342   2.514
 5848SOL     OW18442   2.315   5.054   3.537
 5848SOL    HW118443   2.293   4.973   3.592
 5848SOL    HW218444   2.340   5.025   3.444
 5849SOL     OW18445   1.103   0.134   5.647
 5849SOL    HW118446   1.189   0.183   5.664
 5849SOL    HW218447   1.057   0.118   5.734
 5850SOL     OW18448   1.582   3.916   2.346
 5850SOL    HW118449   1.591   3.828   2.300
 5850SOL    HW218450   1.639   3.984   2.301
 5851SOL     OW18451   6.195   4.064   2.658
 5851SOL    HW118452   6.209   4.122   2.738
 5851SOL    HW218453   6.274   4.072   2.597
 5852SOL     OW18454   3.840   6.399   2.789
 5852SOL    HW118455   3.884   6.325   2.840
 5852SOL    HW218456   3.766   6.360   2.733
 5853SOL     OW18457   3.133   5.107   6.250
 5853SOL    HW118458   3.094   5.191   6.214
 5853SOL    HW218459   3.097   5.029   6.198
 5854SOL     OW18460   6.970   2.442   5.713
 5854SOL    HW118461   6.925   2.523   5.676
 5854SOL    HW218462   0.020   2.408   5.647
 5855SOL     OW18463   1.171   1.065   4.529
 5855SOL    HW118464   1.094   1.123   4.555
 5855SOL    HW218465   1.252   1.091   4.582
 5856SOL     OW18466   2.420   5.188   3.264
 5856SOL    HW118467   2.396   5.091   3.258
 5856SOL    HW218468   2.347   5.237   3.312
 5857SOL     OW18469   6.117   2.599   5.020
 5857SOL    HW118470   6.174   2.680   5.024
 5857SOL    HW218471   6.100   2.566   5.113
 5858SOL     OW18472   3.239   1.377   2.449
 5858SOL    HW118473   3.329   1.411   2.423
 5858SOL    HW218474   3.190   1.448   2.500
 5859SOL     OW18475   6.484   6.214   0.606
 5859SOL    HW118476   6.471   6.225   0.508
 5859SOL    HW218477   6.399   6.184   0.648
 5860SOL     OW18478   1.675   4.579   1.868
 5860SOL    HW118479   1.636   4.580   1.776
 5860SOL    HW218480   1.770   4.548   1.863
 5861SOL     OW18481   5.293   2.132   4.083
 5861SOL    HW118482   5.389   2.160   4.082
 5861SOL    HW218483   5.282   2.052   4.023
 5862SOL     OW18484   3.864   5.050   3.108
 5862SOL    HW118485   3.949   5.039   3.159
 5862SOL    HW218486   3.790   5.004   3.156
 5863SOL     OW18487   2.123   1.003   6.207
 5863SOL    HW118488   2.140   1.095   6.171
 5863SOL    HW218489   2.029   0.976   6.186
 5864SOL     OW18490   4.248   4.207   1.697
 5864SOL    HW118491   4.237   4.107   1.689
 5864SOL    HW218492   4.321   4.227   1.761
 5865SOL     OW18493   5.286   0.757   3.480
 5865SOL    HW118494   5.206   0.796   3.526
 5865SOL    HW218495   5.279   0.657   3.481
 5866SOL     OW18496   4.277   6.645   5.719
 5866SOL    HW118497   4.314   6.592   5.643
 5866SOL    HW218498   4.189   6.608   5.746
 5867SOL     OW18499   0.205   2.919   1.337
 5867SOL    HW118500   0.287   2.937   1.391
 5867SOL    HW218501   0.124   2.930   1.394
 5868SOL     OW18502   0.718   0.314   5.201
 5868SOL    HW118503   0.683   0.382   5.266
 5868SOL    HW218504   0.801   0.272   5.238
 5869SOL     OW18505   2.699   4.729   4.329
 5869SOL    HW118506   2.791   4.696   4.309
 5869SOL    HW218507   2.643   4.724   4.247
 5870SOL     OW18508   5.511   5.384   4.566
 5870SOL    HW118509   5.420   5.365   4.604
 5870SOL    HW218510   5.501   5.414   4.471
 5871SOL     OW18511   3.617   3.193   0.110
 5871SOL    HW118512   3.614   3.226   0.016
 5871SOL    HW218513   3.555   3.115   0.120
 5872SOL     OW18514   4.397   5.920   6.574
 5872SOL    HW118515   4.306   5.942   6.537
 5872SOL    HW218516   4.439   6.004   6.608
 5873SOL     OW18517   2.327   2.852   0.332
 5873SOL    HW118518   2.374   2.818   0.250
 5873SOL    HW218519   2.258   2.785   0.360
 5874SOL     OW18520   2.342   3.438   1.439
 5874SOL    HW118521   2.368   3.504   1.510
 5874SOL    HW218522   2.389   3.351   1.456
 5875SOL     OW18523   3.314   1.836   0.295
 5875SOL    HW118524   3.256   1.775   0.240
 5875SOL    HW218525   3.276   1.929   0.292
 5876SOL     OW18526   3.364   3.226   6.900
 5876SOL    HW118527   3.301   3.284   6.848
 5876SOL    HW218528   3.313   3.173   6.967
 5877SOL     OW18529   6.472   0.495   1.134
 5877SOL    HW118530   6.468   0.395   1.142
 5877SOL    HW218531   6.397   0.536   1.186
 5878SOL     OW18532   4.610   5.486   2.132
 5878SOL    HW118533   4.705   5.513   2.118
 5878SOL    HW218534   4.551   5.567   2.130
 5879SOL     OW18535   3.677   2.987   6.438
 5879SOL    HW118536   3.688   3.077   6.479
 5879SOL    HW218537   3.646   2.997   6.343
 5880SOL     OW18538   5.243   3.242   5.509
 5880SOL    HW118539   5.195   3.200   5.586
 5880SOL    HW218540   5.198   3.328   5.484
 5881SOL     OW18541   0.856   6.536   2.506
 5881SOL    HW118542   0.843   6.635   2.509
 5881SOL    HW218543   0.774   6.490   2.540
 5882SOL     OW18544   1.128   6.353   5.659
 5882SOL    HW118545   1.127   6.375   5.562
 5882SOL    HW218546   1.036   6.329   5.689
 5883SOL     OW18547   0.088   3.896   0.832
 5883SOL    HW118548   0.182   3.929   0.821
 5883SOL    HW218549   0.087   3.815   0.892
 5884SOL     OW18550   5.854   1.783   4.023
 5884SOL    HW118551   5.857   1.876   3.985
 5884SOL    HW218552   5.903   1.721   3.962
 5885SOL     OW18553   0.451   5.509   0.265
 5885SOL    HW118554   0.389   5.455   0.322
 5885SOL    HW218555   0.428   5.606   0.272
 5886SOL     OW18556   1.479   3.703   2.969
 5886SOL    HW118557   1.519   3.678   3.058
 5886SOL    HW218558   1.535   3.665   2.896
 5887SOL     OW18559   2.221   2.067   1.464
 5887SOL    HW118560   2.147   2.126   1.496
 5887SOL    HW218561   2.284   2.120   1.407
 5888SOL     OW18562   2.550   6.541   1.884
 5888SOL    HW118563   2.621   6.472   1.871
 5888SOL    HW218564   2.517   6.571   1.794
 5889SOL     OW18565   0.363   0.834   0.931
 5889SOL    HW118566   0.363   0.922   0.884
 5889SOL    HW218567   0.330   0.846   1.024
 5890SOL     OW18568   2.924   6.204   2.392
 5890SOL    HW118569   2.970   6.196   2.480
 5890SOL    HW218570   2.939   6.120   2.339
 5891SOL     OW18571   2.901   3.358   0.780
 5891SOL    HW118572   2.930   3.329   0.872
 5891SOL    HW218573   2.957   3.436   0.751
 5892SOL     OW18574   0.974   3.606   0.538
 5892SOL    HW118575   0.966   3.680   0.471
 5892SOL    HW218576   0.937   3.637   0.625
 5893SOL     OW18577   0.802   5.472   1.984
 5893SOL    HW118578   0.843   5.496   2.072
 5893SOL    HW218579   0.705   5.497   1.984
 5894SOL     OW18580   1.279   5.766   5.753
 5894SOL    HW118581   1.358   5.820   5.725
 5894SOL    HW218582   1.210   5.768   5.681
 5895SOL     OW18583   5.641   3.206   4.816
 5895SOL    HW118584   5.642   3.183   4.719
 5895SOL    HW218585   5.680   3.131   4.869
 5896SOL     OW18586   5.986   1.605   1.607
 5896SOL    HW118587   5.938   1.626   1.692
 5896SOL    HW218588   6.076   1.650   1.607
 5897SOL     OW18589   4.712   1.593   1.220
 5897SOL    HW118590   4.734   1.652   1.142
 5897SOL    HW218591   4.678   1.649   1.296
 5898SOL     OW18592   2.034   1.412   5.722
 5898SOL    HW118593   2.022   1.382   5.817
 5898SOL    HW218594   2.106   1.480   5.717
 5899SOL     OW18595   6.975   5.344   6.300
 5899SOL    HW118596   6.993   5.439   6.272
 5899SOL    HW218597   6.885   5.316   6.265
 5900SOL     OW18598   6.645   6.309   3.084
 5900SOL    HW118599   6.615   6.376   3.017
 5900SOL    HW218600   6.631   6.345   3.176
 5901SOL     OW18601   1.788   0.202   6.652
 5901SOL    HW118602   1.816   0.188   6.747
 5901SOL    HW218603   1.704   0.150   6.635
 5902SOL     OW18604   5.773   4.526   4.774
 5902SOL    HW118605   5.836   4.464   4.728
 5902SOL    HW218606   5.825   4.590   4.831
 5903SOL     OW18607   6.388   2.329   6.816
 5903SOL    HW118608   6.449   2.278   6.755
 5903SOL    HW218609   6.394   2.427   6.795
 5904SOL     OW18610   2.129   4.636   2.909
 5904SOL    HW118611   2.226   4.623   2.927
 5904SOL    HW218612   2.083   4.547   2.906
 5905SOL     OW18613   5.534   0.901   4.247
 5905SOL    HW118614   5.582   0.987   4.266
 5905SOL    HW218615   5.453   0.894   4.305
 5906SOL     OW18616   5.082   1.059   5.571
 5906SOL    HW118617   5.053   1.061   5.475
 5906SOL    HW218618   5.010   1.019   5.627
 5907SOL     OW18619   1.770   1.687   6.908
 5907SOL    HW118620   1.740   1.710   6.816
 5907SOL    HW218621   1.870   1.688   6.912
 5908SOL     OW18622   4.655   3.561   6.265
 5908SOL    HW118623   4.655   3.612   6.179
 5908SOL    HW218624   4.587   3.488   6.260
 5909SOL     OW18625   6.860   4.560   5.195
 5909SOL    HW118626   6.895   4.571   5.288
 5909SOL    HW218627   6.837   4.650   5.157
 5910SOL     OW18628   2.166   3.678   1.162
 5910SOL    HW118629   2.082   3.730   1.143
 5910SOL    HW218630   2.239   3.740   1.189
 5911SOL     OW18631   6.166   5.276   6.346
 5911SOL    HW118632   6.096   5.229   6.292
 5911SOL    HW218633   6.165   5.374   6.326
 5912SOL     OW18634   6.296   3.854   6.842
 5912SOL    HW118635   6.234   3.844   6.765
 5912SOL    HW218636   6.378   3.799   6.827
 5913SOL     OW18637   1.977   2.062   5.784
 5913SOL    HW118638   2.068   2.067   5.741
 5913SOL    HW218639   1.946   2.154   5.807
 5914SOL     OW18640   2.478   5.397   0.583
 5914SOL    HW118641   2.414   5.354   0.518
 5914SOL    HW218642   2.541   5.457   0.533
 5915SOL     OW18643   5.039   3.053   2.535
 5915SOL    HW118644   4.977   3.064   2.612
 5915SOL    HW218645   4.987   3.025   2.454
 5916SOL     OW18646   4.026   0.008   5.659
 5916SOL    HW118647   3.971   0.092   5.658
 5916SOL    HW218648   4.037   6.992   5.566
 5917SOL     OW18649   3.585   3.445   3.051
 5917SOL    HW118650   3.500   3.394   3.040
 5917SOL    HW218651   3.583   3.525   2.991
 5918SOL     OW18652   1.837   3.578   3.706
 5918SOL    HW118653   1.926   3.536   3.722
 5918SOL    HW218654   1.804   3.554   3.615
 5919SOL     OW18655   2.301   2.351   0.056
 5919SOL    HW118656   2.224   2.400   0.097
 5919SOL    HW218657   2.379   2.412   0.048
 5920SOL     OW18658   3.783   0.581   6.712
 5920SOL    HW118659   3.777   0.497   6.765
 5920SOL    HW218660   3.808   0.560   6.618
 5921SOL     OW18661   3.772   4.990   5.633
 5921SOL    HW118662   3.865   4.955   5.646
 5921SOL    HW218663   3.757   5.067   5.695
 5922SOL     OW18664   6.506   4.738   3.122
 5922SOL    HW118665   6.464   4.827   3.104
 5922SOL    HW218666   6.439   4.677   3.163
 5923SOL     OW18667   6.835   0.116   3.350
 5923SOL    HW118668   6.752   0.142   3.302
 5923SOL    HW218669   6.902   0.190   3.344
 5924SOL     OW18670   5.247   2.250   4.436
 5924SOL    HW118671   5.332   2.253   4.383
 5924SOL    HW218672   5.269   2.243   4.533
 5925SOL     OW18673   5.491   5.787   1.393
 5925SOL    HW118674   5.452   5.877   1.370
 5925SOL    HW218675   5.587   5.785   1.365
 5926SOL     OW18676   3.698   5.072   1.587
 5926SOL    HW118677   3.641   4.990   1.585
 5926SOL    HW218678   3.652   5.145   1.537
 5927SOL     OW18679   2.661   5.816   1.919
 5927SOL    HW118680   2.638   5.858   1.831
 5927SOL    HW218681   2.710   5.883   1.975
 5928SOL     OW18682   1.229   7.001   2.571
 5928SOL    HW118683   1.247   0.062   2.629
 5928SOL    HW218684   1.264   6.918   2.614
 5929SOL     OW18685   1.167   6.625   6.049
 5929SOL    HW118686   1.213   6.608   6.137
 5929SOL    HW218687   1.182   6.548   5.988
 5930SOL     OW18688   6.254   1.215   4.930
 5930SOL    HW118689   6.354   1.215   4.936
 5930SOL    HW218690   6.226   1.158   4.853
 5931SOL     OW18691   5.891   5.505   1.443
 5931SOL    HW118692   5.924   5.518   1.537
 5931SOL    HW218693   5.953   5.444   1.394
 5932SOL     OW18694   2.206   6.530   1.207
 5932SOL    HW118695   2.250   6.602   1.261
 5932SOL    HW218696   2.252   6.443   1.224
 5933SOL     OW18697   0.041   4.155   2.971
 5933SOL    HW118698   0.090   4.163   3.058
 5933SOL    HW218699   6.969   4.115   2.987
 5934SOL     OW18700   3.593   3.651   2.828
 5934SOL    HW118701   3.604   3.735   2.882
 5934SOL    HW218702   3.669   3.644   2.763
 5935SOL     OW18703   3.778   4.040   4.589
 5935SOL    HW118704   3.826   4.007   4.508
 5935SOL    HW218705   3.706   4.104   4.561
 5936SOL     OW18706   4.737   4.606   6.626
 5936SOL    HW118707   4.822   4.554   6.620
 5936SOL    HW218708   4.729   4.646   6.718
 5937SOL     OW18709   1.447   3.888   0.617
 5937SOL    HW118710   1.406   3.819   0.676
 5937SOL    HW218711   1.545   3.894   0.635
 5938SOL     OW18712   2.395   4.360   3.176
 5938SOL    HW118713   2.471   4.425   3.182
 5938SOL    HW218714   2.395   4.317   3.086
 5939SOL     OW18715   2.769   0.214   2.932
 5939SOL    HW118716   2.802   0.122   2.908
 5939SOL    HW218717   2.793   0.234   3.027
 5940SOL     OW18718   3.951   0.247   3.163
 5940SOL    HW118719   3.962   0.189   3.244
 5940SOL    HW218720   4.039   0.255   3.116
 5941SOL     OW18721   6.351   4.980   2.245
 5941SOL    HW118722   6.360   5.073   2.278
 5941SOL    HW218723   6.398   4.917   2.306
 5942SOL     OW18724   4.193   3.518   6.310
 5942SOL    HW118725   4.252   3.479   6.380
 5942SOL    HW218726   4.099   3.525   6.345
 5943SOL     OW18727   1.800   5.902   0.487
 5943SOL    HW118728   1.899   5.918   0.482
 5943SOL    HW218729   1.762   5.949   0.566
 5944SOL     OW18730   5.010   1.464   2.290
 5944SOL    HW118731   4.911   1.454   2.302
 5944SOL    HW218732   5.034   1.441   2.196
 5945SOL     OW18733   6.371   4.809   5.893
 5945SOL    HW118734   6.371   4.790   5.795
 5945SOL    HW218735   6.281   4.844   5.920
 5946SOL     OW18736   4.524   3.320   6.232
 5946SOL    HW118737   4.519   3.350   6.137
 5946SOL    HW218738   4.551   3.224   6.235
 5947SOL     OW18739   4.269   3.317   1.726
 5947SOL    HW118740   4.190   3.316   1.665
 5947SOL    HW218741   4.262   3.242   1.791
 5948SOL     OW18742   3.591   4.860   2.881
 5948SOL    HW118743   3.638   4.811   2.808
 5948SOL    HW218744   3.629   4.833   2.969
 5949SOL     OW18745   4.047   4.808   1.163
 5949SOL    HW118746   4.138   4.794   1.203
 5949SOL    HW218747   3.987   4.732   1.187
 5950SOL     OW18748   5.972   2.001   4.417
 5950SOL    HW118749   5.961   1.905   4.392
 5950SOL    HW218750   5.916   2.020   4.498
 5951SOL     OW18751   2.224   6.054   4.211
 5951SOL    HW118752   2.135   6.089   4.242
 5951SOL    HW218753   2.250   5.976   4.268
 5952SOL     OW18754   6.639   6.351   3.901
 5952SOL    HW118755   6.684   6.265   3.880
 5952SOL    HW218756   6.599   6.389   3.817
 5953SOL     OW18757   6.873   3.256   5.679
 5953SOL    HW118758   6.798   3.208   5.725
 5953SOL    HW218759   6.864   3.354   5.696
 5954SOL     OW18760   6.931   4.701   6.429
 5954SOL    HW118761   6.905   4.719   6.334
 5954SOL    HW218762   6.941   4.788   6.477
 5955SOL     OW18763   5.081   5.224   2.044
 5955SOL    HW118764   5.011   5.253   1.978
 5955SOL    HW218765   5.087   5.124   2.044
 5956SOL     OW18766   4.198   2.304   0.016
 5956SOL    HW118767   4.098   2.303   0.007
 5956SOL    HW218768   4.239   2.329   6.946
 5957SOL     OW18769   5.952   6.022   5.867
 5957SOL    HW118770   5.883   6.064   5.808
 5957SOL    HW218771   6.036   6.005   5.815
 5958SOL     OW18772   6.694   5.763   1.825
 5958SOL    HW118773   6.680   5.678   1.774
 5958SOL    HW218774   6.625   5.769   1.898
 5959SOL     OW18775   3.010   1.668   5.906
 5959SOL    HW118776   3.009   1.733   5.830
 5959SOL    HW218777   2.984   1.577   5.873
 5960SOL     OW18778   2.775   0.149   3.577
 5960SOL    HW118779   2.862   0.192   3.551
 5960SOL    HW218780   2.713   0.151   3.499
 5961SOL     OW18781   3.385   0.946   5.250
 5961SOL    HW118782   3.391   1.009   5.328
 5961SOL    HW218783   3.444   0.867   5.268
 5962SOL     OW18784   4.889   5.440   2.431
 5962SOL    HW118785   4.947   5.471   2.356
 5962SOL    HW218786   4.849   5.352   2.408
 5963SOL     OW18787   3.909   3.735   2.440
 5963SOL    HW118788   3.981   3.680   2.397
 5963SOL    HW218789   3.849   3.676   2.494
 5964SOL     OW18790   0.214   4.936   6.377
 5964SOL    HW118791   0.263   4.918   6.462
 5964SOL    HW218792   0.226   5.032   6.351
 5965SOL     OW18793   2.189   2.887   6.181
 5965SOL    HW118794   2.103   2.937   6.198
 5965SOL    HW218795   2.230   2.860   6.269
 5966SOL     OW18796   3.240   5.802   4.755
 5966SOL    HW118797   3.313   5.775   4.818
 5966SOL    HW218798   3.203   5.721   4.710
 5967SOL     OW18799   4.424   7.013   2.971
 5967SOL    HW118800   4.386   0.039   2.890
 5967SOL    HW218801   4.358   7.017   3.046
 5968SOL     OW18802   6.489   2.413   3.400
 5968SOL    HW118803   6.429   2.335   3.382
 5968SOL    HW218804   6.577   2.398   3.355
 5969SOL     OW18805   5.553   3.790   3.734
 5969SOL    HW118806   5.622   3.733   3.689
 5969SOL    HW218807   5.471   3.793   3.677
 5970SOL     OW18808   1.309   3.624   2.637
 5970SOL    HW118809   1.215   3.657   2.646
 5970SOL    HW218810   1.344   3.649   2.547
 5971SOL     OW18811   1.836   6.283   3.027
 5971SOL    HW118812   1.799   6.272   2.934
 5971SOL    HW218813   1.928   6.322   3.022
 5972SOL     OW18814   5.245   6.945   0.119
 5972SOL    HW118815   5.327   6.983   0.163
 5972SOL    HW218816   5.266   6.922   0.024
 5973SOL     OW18817   1.574   4.325   2.801
 5973SOL    HW118818   1.613   4.323   2.709
 5973SOL    HW218819   1.538   4.235   2.824
 5974SOL     OW18820   0.176   3.641   0.514
 5974SOL    HW118821   0.152   3.614   0.421
 5974SOL    HW218822   0.106   3.608   0.577
 5975SOL     OW18823   3.615   2.797   1.097
 5975SOL    HW118824   3.697   2.854   1.091
 5975SOL    HW218825   3.642   2.701   1.106
 5976SOL     OW18826   3.212   3.277   5.196
 5976SOL    HW118827   3.244   3.369   5.174
 5976SOL    HW218828   3.174   3.234   5.114
 5977SOL     OW18829   1.679   4.844   1.966
 5977SOL    HW118830   1.658   4.756   1.922
 5977SOL    HW218831   1.773   4.842   2.001
 5978SOL     OW18832   5.175   4.488   2.388
 5978SOL    HW118833   5.207   4.544   2.465
 5978SOL    HW218834   5.109   4.421   2.420
 5979SOL     OW18835   6.327   0.987   3.463
 5979SOL    HW118836   6.327   1.067   3.403
 5979SOL    HW218837   6.343   1.015   3.557
 5980SOL     OW18838   5.114   4.239   0.532
 5980SOL    HW118839   5.079   4.321   0.578
 5980SOL    HW218840   5.133   4.169   0.600
 5981SOL     OW18841   5.772   1.666   2.507
 5981SOL    HW118842   5.743   1.743   2.450
 5981SOL    HW218843   5.843   1.614   2.460
 5982SOL     OW18844   6.757   2.059   6.616
 5982SOL    HW118845   6.784   1.982   6.557
 5982SOL    HW218846   6.838   2.093   6.664
 5983SOL     OW18847   1.833   1.542   4.038
 5983SOL    HW118848   1.879   1.621   3.998
 5983SOL    HW218849   1.888   1.460   4.023
 5984SOL     OW18850   6.722   5.854   4.441
 5984SOL    HW118851   6.794   5.922   4.426
 5984SOL    HW218852   6.682   5.867   4.531
 5985SOL     OW18853   5.099   1.822   3.960
 5985SOL    HW118854   5.048   1.737   3.974
 5985SOL    HW218855   5.043   1.899   3.988
 5986SOL     OW18856   3.637   3.148   2.854
 5986SOL    HW118857   3.674   3.203   2.929
 5986SOL    HW218858   3.687   3.169   2.770
 5987SOL     OW18859   4.539   6.586   4.755
 5987SOL    HW118860   4.457   6.586   4.697
 5987SOL    HW218861   4.570   6.680   4.767
 5988SOL     OW18862   4.241   0.210   3.941
 5988SOL    HW118863   4.331   0.172   3.961
 5988SOL    HW218864   4.176   0.136   3.927
 5989SOL     OW18865   2.971   0.305   6.044
 5989SOL    HW118866   2.912   0.290   5.964
 5989SOL    HW218867   3.046   0.238   6.043
 5990SOL     OW18868   3.414   5.090   0.987
 5990SOL    HW118869   3.365   5.008   1.015
 5990SOL    HW218870   3.488   5.109   1.052
 5991SOL     OW18871   3.595   5.413   4.570
 5991SOL    HW118872   3.625   5.323   4.603
 5991SOL    HW218873   3.559   5.466   4.647
 5992SOL     OW18874   3.618   0.637   3.838
 5992SOL    HW118875   3.530   0.591   3.838
 5992SOL    HW218876   3.680   0.590   3.901
 5993SOL     OW18877   2.337   6.110   5.749
 5993SOL    HW118878   2.344   6.043   5.676
 5993SOL    HW218879   2.309   6.199   5.711
 5994SOL     OW18880   5.821   2.798   2.521
 5994SOL    HW118881   5.892   2.866   2.540
 5994SOL    HW218882   5.863   2.716   2.483
 5995SOL     OW18883   6.659   5.118   1.368
 5995SOL    HW118884   6.696   5.040   1.418
 5995SOL    HW218885   6.673   5.104   1.270
 5996SOL     OW18886   0.665   5.021   6.470
 5996SOL    HW118887   0.614   4.975   6.542
 5996SOL    HW218888   0.744   5.068   6.510
 5997SOL     OW18889   0.397   6.692   1.700
 5997SOL    HW118890   0.403   6.790   1.721
 5997SOL    HW218891   0.460   6.669   1.626
 5998SOL     OW18892   5.541   1.986   2.612
 5998SOL    HW118893   5.494   1.907   2.649
 5998SOL    HW218894   5.605   2.022   2.680
 5999SOL     OW18895   1.803   1.765   2.924
 5999SOL    HW118896   1.836   1.759   3.018
 5999SOL    HW218897   1.824   1.855   2.886
 6000SOL     OW18898   4.448   5.381   2.629
 6000SOL    HW118899   4.434   5.297   2.577
 6000SOL    HW218900   4.509   5.442   2.577
 6001SOL     OW18901   6.637   2.813   6.851
 6001SOL    HW118902   6.618   2.742   6.919
 6001SOL    HW218903   6.595   2.899   6.879
 6002SOL     OW18904   1.593   0.661   1.786
 6002SOL    HW118905   1.655   0.686   1.712
 6002SOL    HW218906   1.602   0.563   1.805
 6003SOL     OW18907   5.354   4.062   4.656
 6003SOL    HW118908   5.424   4.127   4.626
 6003SOL    HW218909   5.281   4.058   4.588
 6004SOL     OW18910   0.641   3.465   2.604
 6004SOL    HW118911   0.611   3.425   2.517
 6004SOL    HW218912   0.632   3.565   2.599
 6005SOL     OW18913   3.418   5.716   4.093
 6005SOL    HW118914   3.452   5.760   4.010
 6005SOL    HW218915   3.494   5.673   4.141
 6006SOL     OW18916   2.713   6.787   6.587
 6006SOL    HW118917   2.766   6.854   6.535
 6006SOL    HW218918   2.639   6.752   6.530
 6007SOL     OW18919   5.753   2.709   4.052
 6007SOL    HW118920   5.796   2.626   4.017
 6007SOL    HW218921   5.726   2.767   3.975
 6008SOL     OW18922   3.396   4.549   6.141
 6008SOL    HW118923   3.338   4.578   6.217
 6008SOL    HW218924   3.367   4.458   6.110
 6009SOL     OW18925   2.896   1.693   4.075
 6009SOL    HW118926   2.892   1.644   3.988
 6009SOL    HW218927   2.972   1.758   4.073
 6010SOL     OW18928   1.711   4.536   2.381
 6010SOL    HW118929   1.702   4.456   2.440
 6010SOL    HW218930   1.723   4.506   2.286
 6011SOL     OW18931   5.256   2.880   2.202
 6011SOL    HW118932   5.165   2.852   2.171
 6011SOL    HW218933   5.281   2.826   2.283
 6012SOL     OW18934   6.838   2.623   0.616
 6012SOL    HW118935   6.833   2.691   0.542
 6012SOL    HW218936   6.747   2.612   0.657
 6013SOL     OW18937   6.258   0.824   2.188
 6013SOL    HW118938   6.275   0.831   2.090
 6013SOL    HW218939   6.168   0.863   2.209
 6014SOL     OW18940   5.965   0.536   0.312
 6014SOL    HW118941   6.023   0.579   0.242
 6014SOL    HW218942   5.896   0.479   0.267
 6015SOL     OW18943   5.813   2.034   4.705
 6015SOL    HW118944   5.880   1.997   4.770
 6015SOL    HW218945   5.800   2.131   4.723
 6016SOL     OW18946   1.866   0.655   5.001
 6016SOL    HW118947   1.961   0.688   5.008
 6016SOL    HW218948   1.834   0.628   5.092
 6017SOL     OW18949   6.349   5.275   2.994
 6017SOL    HW118950   6.311   5.355   2.948
 6017SOL    HW218951   6.396   5.304   3.078
 6018SOL     OW18952   3.080   3.258   0.611
 6018SOL    HW118953   3.013   3.271   0.684
 6018SOL    HW218954   3.060   3.321   0.536
 6019SOL     OW18955   3.612   0.939   4.187
 6019SOL    HW118956   3.686   0.877   4.213
 6019SOL    HW218957   3.633   1.031   4.220
 6020SOL     OW18958   3.693   0.760   2.757
 6020SOL    HW118959   3.787   0.734   2.735
 6020SOL    HW218960   3.678   0.856   2.731
 6021SOL     OW18961   4.030   1.185   2.252
 6021SOL    HW118962   4.051   1.205   2.348
 6021SOL    HW218963   4.010   1.088   2.242
 6022SOL     OW18964   4.560   1.439   3.494
 6022SOL    HW118965   4.482   1.496   3.469
 6022SOL    HW218966   4.645   1.487   3.473
 6023SOL     OW18967   0.347   1.717   3.264
 6023SOL    HW118968   0.299   1.710   3.176
 6023SOL    HW218969   0.327   1.636   3.320
 6024SOL     OW18970   0.591   5.012   1.405
 6024SOL    HW118971   0.648   4.940   1.446
 6024SOL    HW218972   0.648   5.088   1.377
 6025SOL     OW18973   4.505   1.479   1.700
 6025SOL    HW118974   4.505   1.572   1.736
 6025SOL    HW218975   4.598   1.452   1.676
 6026SOL     OW18976   6.245   4.841   5.274
 6026SOL    HW118977   6.340   4.831   5.304
 6026SOL    HW218978   6.226   4.937   5.254
 6027SOL     OW18979   2.741   2.501   6.512
 6027SOL    HW118980   2.671   2.527   6.446
 6027SOL    HW218981   2.738   2.562   6.591
 6028SOL     OW18982   1.800   4.321   6.620
 6028SOL    HW118983   1.780   4.418   6.625
 6028SOL    HW218984   1.715   4.268   6.620
 6029SOL     OW18985   2.219   5.986   0.713
 6029SOL    HW118986   2.179   5.955   0.799
 6029SOL    HW218987   2.278   6.065   0.729
 6030SOL     OW18988   2.447   0.642   1.711
 6030SOL    HW118989   2.500   0.695   1.644
 6030SOL    HW218990   2.354   0.677   1.716
 6031SOL     OW18991   4.999   6.496   5.999
 6031SOL    HW118992   5.008   6.555   6.079
 6031SOL    HW218993   5.023   6.548   5.917
 6032SOL     OW18994   1.319   3.179   2.132
 6032SOL    HW118995   1.288   3.238   2.057
 6032SOL    HW218996   1.412   3.206   2.158
 6033SOL     OW18997   1.334   2.049   3.173
 6033SOL    HW118998   1.433   2.061   3.165
 6033SOL    HW218999   1.313   1.951   3.178
 6034SOL     OW19000   2.223   4.491   5.214
 6034SOL    HW119001   2.284   4.535   5.280
 6034SOL    HW219002   2.157   4.434   5.263
 6035SOL     OW19003   5.480   0.585   4.558
 6035SOL    HW119004   5.551   0.525   4.596
 6035SOL    HW219005   5.445   0.547   4.473
 6036SOL     OW19006   0.623   6.862   5.245
 6036SOL    HW119007   0.699   6.909   5.290
 6036SOL    HW219008   0.556   6.930   5.213
 6037SOL     OW19009   5.843   5.778   5.210
 6037SOL    HW119010   5.940   5.752   5.213
 6037SOL    HW219011   5.832   5.861   5.156
 6038SOL     OW19012   6.265   4.405   5.792
 6038SOL    HW119013   6.168   4.426   5.805
 6038SOL    HW219014   6.300   4.359   5.874
 6039SOL     OW19015   3.293   3.449   2.283
 6039SOL    HW119016   3.265   3.524   2.223
 6039SOL    HW219017   3.224   3.436   2.354
 6040SOL     OW19018   0.633   2.409   6.685
 6040SOL    HW119019   0.598   2.451   6.601
 6040SOL    HW219020   0.667   2.317   6.665
 6041SOL     OW19021   0.770   1.537   0.005
 6041SOL    HW119022   0.843   1.545   0.072
 6041SOL    HW219023   0.721   1.623   7.015
 6042SOL     OW19024   5.109   4.839   3.052
 6042SOL    HW119025   5.053   4.872   2.976
 6042SOL    HW219026   5.053   4.785   3.114
 6043SOL     OW19027   0.969   4.713   4.893
 6043SOL    HW119028   0.899   4.781   4.916
 6043SOL    HW219029   1.058   4.758   4.889
 6044SOL     OW19030   0.784   0.655   1.146
 6044SOL    HW119031   0.864   0.636   1.203
 6044SOL    HW219032   0.809   0.718   1.072
 6045SOL     OW19033   5.704   5.035   0.630
 6045SOL    HW119034   5.760   4.953   0.618
 6045SOL    HW219035   5.667   5.063   0.542
 6046SOL     OW19036   2.998   2.551   0.494
 6046SOL    HW119037   3.063   2.533   0.567
 6046SOL    HW219038   3.023   2.636   0.448
 6047SOL     OW19039   6.738   0.316   3.889
 6047SOL    HW119040   6.709   0.228   3.926
 6047SOL    HW219041   6.699   0.328   3.797
 6048SOL     OW19042   3.886   0.242   3.702
 6048SOL    HW119043   3.926   0.332   3.685
 6048SOL    HW219044   3.921   0.206   3.788
 6049SOL     OW19045   4.916   3.696   6.607
 6049SOL    HW119046   4.901   3.727   6.514
 6049SOL    HW219047   5.014   3.699   6.628
 6050SOL     OW19048   4.714   4.654   5.339
 6050SOL    HW119049   4.725   4.746   5.377
 6050SOL    HW219050   4.804   4.610   5.332
 6051SOL     OW19051   2.420   2.016   2.612
 6051SOL    HW119052   2.375   1.989   2.698
 6051SOL    HW219053   2.428   2.115   2.608
 6052SOL     OW19054   0.029   1.705   0.805
 6052SOL    HW119055   7.018   1.724   0.899
 6052SOL    HW219056   6.995   1.627   0.769
 6053SOL     OW19057   2.393   0.173   6.774
 6053SOL    HW119058   2.485   0.161   6.812
 6053SOL    HW219059   2.398   0.228   6.690
 6054SOL     OW19060   1.441   5.178   0.820
 6054SOL    HW119061   1.456   5.277   0.814
 6054SOL    HW219062   1.502   5.131   0.757
 6055SOL     OW19063   4.823   0.881   4.855
 6055SOL    HW119064   4.912   0.922   4.876
 6055SOL    HW219065   4.801   0.897   4.759
 6056SOL     OW19066   3.770   1.455   6.333
 6056SOL    HW119067   3.806   1.467   6.426
 6056SOL    HW219068   3.800   1.532   6.276
 6057SOL     OW19069   3.685   0.958   5.215
 6057SOL    HW119070   3.633   1.002   5.288
 6057SOL    HW219071   3.622   0.910   5.154
 6058SOL     OW19072   5.496   2.505   4.584
 6058SOL    HW119073   5.579   2.467   4.543
 6058SOL    HW219074   5.434   2.431   4.608
 6059SOL     OW19075   5.130   4.421   6.413
 6059SOL    HW119076   5.157   4.326   6.427
 6059SOL    HW219077   5.043   4.424   6.363
 6060SOL     OW19078   4.525   5.305   5.511
 6060SOL    HW119079   4.477   5.236   5.565
 6060SOL    HW219080   4.517   5.394   5.557
 6061SOL     OW19081   2.939   2.040   0.043
 6061SOL    HW119082   2.887   2.123   0.021
 6061SOL    HW219083   2.937   1.979   6.982
 6062SOL     OW19084   1.632   1.074   4.460
 6062SOL    HW119085   1.545   1.052   4.505
 6062SOL    HW219086   1.687   1.131   4.521
 6063SOL     OW19087   4.171   1.005   6.842
 6063SOL    HW119088   4.163   0.916   6.796
 6063SOL    HW219089   4.185   0.990   6.940
 6064SOL     OW19090   1.386   5.605   2.881
 6064SOL    HW119091   1.484   5.619   2.899
 6064SOL    HW219092   1.369   5.509   2.863
 6065SOL     OW19093   6.383   6.640   0.707
 6065SOL    HW119094   6.414   6.731   0.735
 6065SOL    HW219095   6.459   6.576   0.710
 6066SOL     OW19096   4.648   2.086   1.053
 6066SOL    HW119097   4.609   2.048   1.137
 6066SOL    HW219098   4.585   2.071   0.977
 6067SOL     OW19099   6.139   1.521   6.063
 6067SOL    HW119100   6.238   1.511   6.049
 6067SOL    HW219101   6.113   1.474   6.147
 6068SOL     OW19102   4.841   2.920   4.853
 6068SOL    HW119103   4.851   3.019   4.860
 6068SOL    HW219104   4.929   2.879   4.830
 6069SOL     OW19105   6.681   4.122   5.466
 6069SOL    HW119106   6.672   4.051   5.396
 6069SOL    HW219107   6.676   4.081   5.557
 6070SOL     OW19108   4.334   2.485   6.848
 6070SOL    HW119109   4.336   2.508   6.750
 6070SOL    HW219110   4.319   2.568   6.902
 6071SOL     OW19111   4.194   6.235   5.337
 6071SOL    HW119112   4.098   6.254   5.357
 6071SOL    HW219113   4.215   6.265   5.244
 6072SOL     OW19114   1.252   1.458   2.119
 6072SOL    HW119115   1.172   1.400   2.101
 6072SOL    HW219116   1.331   1.423   2.068
 6073SOL     OW19117   6.722   2.798   1.253
 6073SOL    HW119118   6.803   2.770   1.306
 6073SOL    HW219119   6.746   2.804   1.157
 6074SOL     OW19120   0.544   0.216   4.822
 6074SOL    HW119121   0.456   0.171   4.838
 6074SOL    HW219122   0.583   0.183   4.736
 6075SOL     OW19123   6.081   3.350   0.115
 6075SOL    HW119124   6.035   3.411   0.050
 6075SOL    HW219125   6.032   3.353   0.202
 6076SOL     OW19126   2.134   6.958   3.395
 6076SOL    HW119127   2.129   0.034   3.426
 6076SOL    HW219128   2.094   6.950   3.304
 6077SOL     OW19129   5.805   6.272   2.127
 6077SOL    HW119130   5.763   6.303   2.213
 6077SOL    HW219131   5.899   6.242   2.145
 6078SOL     OW19132   2.986   4.834   3.838
 6078SOL    HW119133   3.076   4.876   3.850
 6078SOL    HW219134   2.967   4.826   3.740
 6079SOL     OW19135   2.477   2.776   0.117
 6079SOL    HW119136   2.477   2.708   0.043
 6079SOL    HW219137   2.565   2.823   0.119
 6080SOL     OW19138   6.248   2.131   1.620
 6080SOL    HW119139   6.149   2.137   1.622
 6080SOL    HW219140   6.277   2.063   1.553
 6081SOL     OW19141   6.320   3.694   3.960
 6081SOL    HW119142   6.293   3.600   3.981
 6081SOL    HW219143   6.407   3.693   3.910
 6082SOL     OW19144   4.644   0.954   2.721
 6082SOL    HW119145   4.671   0.985   2.812
 6082SOL    HW219146   4.605   1.031   2.671
 6083SOL     OW19147   1.572   5.737   6.558
 6083SOL    HW119148   1.663   5.731   6.517
 6083SOL    HW219149   1.506   5.764   6.488
 6084SOL     OW19150   6.668   5.396   5.230
 6084SOL    HW119151   6.687   5.392   5.132
 6084SOL    HW219152   6.606   5.472   5.250
 6085SOL     OW19153   6.313   3.494   0.049
 6085SOL    HW119154   6.312   3.567   0.116
 6085SOL    HW219155   6.234   3.434   0.062
 6086SOL     OW19156   3.881   1.379   4.486
 6086SOL    HW119157   3.947   1.430   4.430
 6086SOL    HW219158   3.930   1.311   4.540
 6087SOL     OW19159   5.729   6.284   6.605
 6087SOL    HW119160   5.697   6.374   6.573
 6087SOL    HW219161   5.650   6.223   6.615
 6088SOL     OW19162   0.813   0.366   4.766
 6088SOL    HW119163   0.873   0.342   4.690
 6088SOL    HW219164   0.817   0.294   4.836
 6089SOL     OW19165   0.816   3.433   0.889
 6089SOL    HW119166   0.778   3.391   0.807
 6089SOL    HW219167   0.830   3.531   0.873
 6090SOL     OW19168   0.294   5.856   5.350
 6090SOL    HW119169   0.218   5.819   5.404
 6090SOL    HW219170   0.260   5.929   5.291
 6091SOL     OW19171   6.275   1.832   2.089
 6091SOL    HW119172   6.283   1.809   2.186
 6091SOL    HW219173   6.357   1.880   2.058
 6092SOL     OW19174   2.119   1.057   2.335
 6092SOL    HW119175   2.097   0.970   2.291
 6092SOL    HW219176   2.035   1.099   2.368
 6093SOL     OW19177   1.626   2.702   1.192
 6093SOL    HW119178   1.559   2.759   1.240
 6093SOL    HW219179   1.632   2.731   1.097
 6094SOL     OW19180   1.286   1.275   1.681
 6094SOL    HW119181   1.259   1.179   1.680
 6094SOL    HW219182   1.228   1.325   1.745
 6095SOL     OW19183   5.746   3.484   6.797
 6095SOL    HW119184   5.692   3.526   6.869
 6095SOL    HW219185   5.759   3.387   6.816
 6096SOL     OW19186   4.195   1.401   4.205
 6096SOL    HW119187   4.119   1.411   4.141
 6096SOL    HW219188   4.199   1.480   4.266
 6097SOL     OW19189   2.452   0.974   2.278
 6097SOL    HW119190   2.373   0.997   2.335
 6097SOL    HW219191   2.467   0.875   2.281
 6098SOL     OW19192   2.579   2.368   5.406
 6098SOL    HW119193   2.656   2.423   5.373
 6098SOL    HW219194   2.509   2.362   5.334
 6099SOL     OW19195   5.864   6.026   5.053
 6099SOL    HW119196   5.925   6.014   4.975
 6099SOL    HW219197   5.842   6.123   5.064
 6100SOL     OW19198   6.629   3.181   0.271
 6100SOL    HW119199   6.615   3.231   0.357
 6100SOL    HW219200   6.564   3.106   0.265
 6101SOL     OW19201   6.704   1.502   5.856
 6101SOL    HW119202   6.791   1.454   5.854
 6101SOL    HW219203   6.721   1.600   5.870
 6102SOL     OW19204   3.410   1.140   5.057
 6102SOL    HW119205   3.369   1.080   5.125
 6102SOL    HW219206   3.431   1.087   4.975
 6103SOL     OW19207   6.300   0.048   4.606
 6103SOL    HW119208   6.375   7.002   4.623
 6103SOL    HW219209   6.214   7.016   4.601
 6104SOL     OW19210   5.921   1.509   6.840
 6104SOL    HW119211   5.886   1.449   6.912
 6104SOL    HW219212   5.845   1.546   6.787
 6105SOL     OW19213   3.507   5.694   5.768
 6105SOL    HW119214   3.480   5.772   5.711
 6105SOL    HW219215   3.603   5.703   5.793
 6106SOL     OW19216   2.981   4.641   6.084
 6106SOL    HW119217   2.948   4.606   6.171
 6106SOL    HW219218   2.932   4.596   6.009
 6107SOL     OW19219   2.371   4.987   4.753
 6107SOL    HW119220   2.303   4.916   4.738
 6107SOL    HW219221   2.327   5.077   4.750
 6108SOL     OW19222   0.838   2.266   4.279
 6108SOL    HW119223   0.913   2.328   4.302
 6108SOL    HW219224   0.754   2.296   4.326
 6109SOL     OW19225   5.611   3.241   0.667
 6109SOL    HW119226   5.607   3.145   0.638
 6109SOL    HW219227   5.549   3.295   0.610
 6110SOL     OW19228   3.424   1.605   5.226
 6110SOL    HW119229   3.351   1.601   5.157
 6110SOL    HW219230   3.402   1.542   5.300
 6111SOL     OW19231   1.450   4.773   3.108
 6111SOL    HW119232   1.503   4.691   3.089
 6111SOL    HW219233   1.419   4.770   3.203
 6112SOL     OW19234   1.325   1.805   2.767
 6112SOL    HW119235   1.340   1.713   2.803
 6112SOL    HW219236   1.403   1.863   2.789
 6113SOL     OW19237   1.402   6.933   5.821
 6113SOL    HW119238   1.420   6.977   5.734
 6113SOL    HW219239   1.479   6.873   5.844
 6114SOL     OW19240   4.672   5.870   0.706
 6114SOL    HW119241   4.625   5.894   0.621
 6114SOL    HW219242   4.701   5.774   0.702
 6115SOL     OW19243   4.781   5.244   2.656
 6115SOL    HW119244   4.738   5.259   2.567
 6115SOL    HW219245   4.730   5.176   2.708
 6116SOL     OW19246   3.768   0.866   2.246
 6116SOL    HW119247   3.728   0.956   2.264
 6116SOL    HW219248   3.695   0.798   2.235
 6117SOL     OW19249   5.733   6.492   4.872
 6117SOL    HW119250   5.783   6.579   4.867
 6117SOL    HW219251   5.729   6.451   4.781
 6118SOL     OW19252   6.276   1.228   3.335
 6118SOL    HW119253   6.200   1.212   3.272
 6118SOL    HW219254   6.246   1.289   3.409
 6119SOL     OW19255   0.235   5.497   4.326
 6119SOL    HW119256   0.314   5.513   4.267
 6119SOL    HW219257   0.204   5.584   4.364
 6120SOL     OW19258   2.741   6.607   2.729
 6120SOL    HW119259   2.687   6.581   2.649
 6120SOL    HW219260   2.837   6.617   2.702
 6121SOL     OW19261   0.207   2.675   3.540
 6121SOL    HW119262   0.169   2.712   3.624
 6121SOL    HW219263   0.133   2.639   3.483
 6122SOL     OW19264   3.915   6.103   3.186
 6122SOL    HW119265   4.011   6.102   3.216
 6122SOL    HW219266   3.881   6.009   3.181
 6123SOL     OW19267   6.494   1.225   1.935
 6123SOL    HW119268   6.395   1.219   1.943
 6123SOL    HW219269   6.528   1.147   1.883
 6124SOL     OW19270   3.179   0.394   5.849
 6124SOL    HW119271   3.107   0.333   5.816
 6124SOL    HW219272   3.239   0.418   5.773
 6125SOL     OW19273   2.005   6.001   1.458
 6125SOL    HW119274   2.041   6.059   1.531
 6125SOL    HW219275   1.910   6.026   1.438
 6126SOL     OW19276   5.293   4.599   3.052
 6126SOL    HW119277   5.226   4.673   3.054
 6126SOL    HW219278   5.376   4.628   3.101
 6127SOL     OW19279   2.272   5.928   1.680
 6127SOL    HW119280   2.186   5.877   1.680
 6127SOL    HW219281   2.285   5.973   1.768
 6128SOL     OW19282   6.917   2.215   0.346
 6128SOL    HW119283   6.856   2.219   0.426
 6128SOL    HW219284   6.930   2.308   0.310
 6129SOL     OW19285   6.184   4.150   2.185
 6129SOL    HW119286   6.253   4.219   2.209
 6129SOL    HW219287   6.094   4.194   2.177
 6130SOL     OW19288   4.958   3.021   3.532
 6130SOL    HW119289   4.943   2.981   3.622
 6130SOL    HW219290   5.002   2.954   3.472
 6131SOL     OW19291   6.604   1.302   5.449
 6131SOL    HW119292   6.538   1.333   5.381
 6131SOL    HW219293   6.615   1.203   5.442
 6132SOL     OW19294   4.227   2.890   1.127
 6132SOL    HW119295   4.145   2.899   1.183
 6132SOL    HW219296   4.202   2.860   1.035
 6133SOL     OW19297   0.968   3.800   1.156
 6133SOL    HW119298   0.975   3.888   1.109
 6133SOL    HW219299   0.872   3.782   1.177
 6134SOL     OW19300   4.153   3.731   6.585
 6134SOL    HW119301   4.118   3.697   6.672
 6134SOL    HW219302   4.210   3.660   6.543
 6135SOL     OW19303   6.439   6.876   0.822
 6135SOL    HW119304   6.382   6.929   0.885
 6135SOL    HW219305   6.491   6.938   0.763
 6136SOL     OW19306   0.997   2.035   2.080
 6136SOL    HW119307   0.953   2.125   2.077
 6136SOL    HW219308   0.982   1.987   1.994
 6137SOL     OW19309   2.589   6.178   6.073
 6137SOL    HW119310   2.489   6.184   6.072
 6137SOL    HW219311   2.616   6.083   6.060
 6138SOL     OW19312   3.463   5.934   2.669
 6138SOL    HW119313   3.445   6.032   2.675
 6138SOL    HW219314   3.547   5.918   2.618
 6139SOL     OW19315   1.913   4.058   4.774
 6139SOL    HW119316   1.892   4.155   4.768
 6139SOL    HW219317   2.002   4.045   4.818
 6140SOL     OW19318   1.258   6.835   1.687
 6140SOL    HW119319   1.342   6.846   1.740
 6140SOL    HW219320   1.186   6.798   1.746
 6141SOL     OW19321   6.459   5.290   5.682
 6141SOL    HW119322   6.532   5.238   5.726
 6141SOL    HW219323   6.396   5.324   5.752
 6142SOL     OW19324   6.708   3.913   1.033
 6142SOL    HW119325   6.707   4.013   1.045
 6142SOL    HW219326   6.731   3.891   0.938
 6143SOL     OW19327   5.910   5.133   6.759
 6143SOL    HW119328   5.987   5.084   6.799
 6143SOL    HW219329   5.825   5.087   6.783
 6144SOL     OW19330   0.162   3.992   3.699
 6144SOL    HW119331   0.260   4.011   3.702
 6144SOL    HW219332   0.131   3.959   3.788
 6145SOL     OW19333   4.708   5.724   3.087
 6145SOL    HW119334   4.796   5.712   3.133
 6145SOL    HW219335   4.696   5.651   3.019
 6146SOL     OW19336   5.257   1.629   3.017
 6146SOL    HW119337   5.274   1.540   2.975
 6146SOL    HW219338   5.188   1.621   3.088
 6147SOL     OW19339   2.142   4.019   2.560
 6147SOL    HW119340   2.153   3.966   2.475
 6147SOL    HW219341   2.109   4.110   2.538
 6148SOL     OW19342   6.301   6.258   4.238
 6148SOL    HW119343   6.393   6.294   4.220
 6148SOL    HW219344   6.271   6.289   4.328
 6149SOL     OW19345   3.568   5.142   3.090
 6149SOL    HW119346   3.588   5.054   3.046
 6149SOL    HW219347   3.491   5.131   3.153
 6150SOL     OW19348   4.753   6.418   5.899
 6150SOL    HW119349   4.832   6.451   5.950
 6150SOL    HW219350   4.701   6.355   5.957
 6151SOL     OW19351   5.366   2.192   5.131
 6151SOL    HW119352   5.300   2.121   5.105
 6151SOL    HW219353   5.318   2.268   5.174
 6152SOL     OW19354   5.799   4.472   6.625
 6152SOL    HW119355   5.798   4.479   6.525
 6152SOL    HW219356   5.706   4.483   6.660
 6153SOL     OW19357   4.225   3.956   1.482
 6153SOL    HW119358   4.282   3.887   1.527
 6153SOL    HW219359   4.132   3.922   1.474
 6154SOL     OW19360   5.652   2.566   3.319
 6154SOL    HW119361   5.576   2.609   3.269
 6154SOL    HW219362   5.734   2.568   3.262
 6155SOL     OW19363   0.448   3.319   4.912
 6155SOL    HW119364   0.401   3.406   4.898
 6155SOL    HW219365   0.438   3.290   5.007
 6156SOL     OW19366   6.041   6.811   2.749
 6156SOL    HW119367   6.040   6.711   2.742
 6156SOL    HW219368   5.947   6.845   2.753
 6157SOL     OW19369   2.106   1.550   4.371
 6157SOL    HW119370   2.008   1.528   4.375
 6157SOL    HW219371   2.134   1.560   4.276
 6158SOL     OW19372   4.896   1.013   6.632
 6158SOL    HW119373   4.947   1.059   6.559
 6158SOL    HW219374   4.957   0.949   6.680
 6159SOL     OW19375   5.587   2.914   0.725
 6159SOL    HW119376   5.506   2.951   0.769
 6159SOL    HW219377   5.561   2.857   0.647
 6160SOL     OW19378   5.612   6.149   1.567
 6160SOL    HW119379   5.663   6.069   1.601
 6160SOL    HW219380   5.627   6.226   1.629
 6161SOL     OW19381   5.299   0.081   6.054
 6161SOL    HW119382   5.293   0.154   6.122
 6161SOL    HW219383   5.307   7.011   6.101
 6162SOL     OW19384   0.357   5.237   4.324
 6162SOL    HW119385   0.375   5.236   4.423
 6162SOL    HW219386   0.315   5.324   4.299
 6163SOL     OW19387   6.195   4.114   0.716
 6163SOL    HW119388   6.253   4.107   0.797
 6163SOL    HW219389   6.100   4.095   0.741
 6164SOL     OW19390   3.103   1.408   0.930
 6164SOL    HW119391   3.027   1.347   0.908
 6164SOL    HW219392   3.137   1.387   1.022
 6165SOL     OW19393   3.841   6.550   0.093
 6165SOL    HW119394   3.783   6.625   0.126
 6165SOL    HW219395   3.793   6.463   0.104
 6166SOL     OW19396   2.648   1.139   6.066
 6166SOL    HW119397   2.687   1.229   6.044
 6166SOL    HW219398   2.588   1.147   6.146
 6167SOL     OW19399   0.418   4.089   3.155
 6167SOL    HW119400   0.442   3.992   3.145
 6167SOL    HW219401   0.460   4.125   3.238
 6168SOL     OW19402   0.438   4.148   2.533
 6168SOL    HW119403   0.398   4.171   2.444
 6168SOL    HW219404   0.378   4.084   2.581
 6169SOL     OW19405   2.103   4.257   2.417
 6169SOL    HW119406   2.180   4.262   2.353
 6169SOL    HW219407   2.125   4.309   2.500
 6170SOL     OW19408   0.001   3.684   5.333
 6170SOL    HW119409   0.080   3.698   5.393
 6170SOL    HW219410   0.005   3.591   5.295
 6171SOL     OW19411   0.316   0.265   6.827
 6171SOL    HW119412   0.254   0.319   6.883
 6171SOL    HW219413   0.268   0.185   6.792
 6172SOL     OW19414   0.555   3.222   2.709
 6172SOL    HW119415   0.458   3.243   2.723
 6172SOL    HW219416   0.603   3.305   2.681
 6173SOL     OW19417   6.451   6.835   2.743
 6173SOL    HW119418   6.371   6.874   2.698
 6173SOL    HW219419   6.447   6.854   2.841
 6174SOL     OW19420   5.817   4.175   2.765
 6174SOL    HW119421   5.843   4.221   2.850
 6174SOL    HW219422   5.741   4.225   2.722
 6175SOL     OW19423   2.304   1.315   4.905
 6175SOL    HW119424   2.300   1.231   4.959
 6175SOL    HW219425   2.212   1.337   4.872
 6176SOL     OW19426   4.153   4.491   5.388
 6176SOL    HW119427   4.066   4.529   5.355
 6176SOL    HW219428   4.207   4.459   5.310
 6177SOL     OW19429   6.049   1.543   2.105
 6177SOL    HW119430   6.137   1.521   2.148
 6177SOL    HW219431   6.031   1.478   2.031
 6178SOL     OW19432   5.524   4.144   1.902
 6178SOL    HW119433   5.573   4.158   1.816
 6178SOL    HW219434   5.579   4.180   1.977
 6179SOL     OW19435   6.417   4.977   3.018
 6179SOL    HW119436   6.385   5.072   3.023
 6179SOL    HW219437   6.455   4.959   2.928
 6180SOL     OW19438   2.959   4.449   0.061
 6180SOL    HW119439   2.892   4.461   0.134
 6180SOL    HW219440   2.934   4.505   7.001
 6181SOL     OW19441   4.592   5.128   6.349
 6181SOL    HW119442   4.655   5.050   6.353
 6181SOL    HW219443   4.541   5.135   6.435
 6182SOL     OW19444   3.086   3.301   0.165
 6182SOL    HW119445   3.121   3.264   0.251
 6182SOL    HW219446   3.143   3.269   0.090
 6183SOL     OW19447   0.921   1.962   1.204
 6183SOL    HW119448   0.881   2.049   1.233
 6183SOL    HW219449   0.897   1.891   1.271
 6184SOL     OW19450   2.596   0.721   5.848
 6184SOL    HW119451   2.548   0.777   5.915
 6184SOL    HW219452   2.541   0.713   5.765
 6185SOL     OW19453   3.171   2.676   5.565
 6185SOL    HW119454   3.140   2.594   5.517
 6185SOL    HW219455   3.132   2.678   5.657
 6186SOL     OW19456   6.079   1.879   1.896
 6186SOL    HW119457   6.069   1.877   1.995
 6186SOL    HW219458   6.150   1.814   1.868
 6187SOL     OW19459   5.133   1.588   5.715
 6187SOL    HW119460   5.091   1.668   5.672
 6187SOL    HW219461   5.124   1.594   5.814
 6188SOL     OW19462   1.850   1.736   5.111
 6188SOL    HW119463   1.876   1.742   5.207
 6188SOL    HW219464   1.771   1.675   5.101
 6189SOL     OW19465   5.196   6.305   2.394
 6189SOL    HW119466   5.193   6.288   2.492
 6189SOL    HW219467   5.103   6.300   2.356
 6190SOL     OW19468   0.433   2.240   5.336
 6190SOL    HW119469   0.442   2.166   5.403
 6190SOL    HW219470   0.362   2.304   5.367
 6191SOL     OW19471   3.475   3.457   6.715
 6191SOL    HW119472   3.499   3.488   6.807
 6191SOL    HW219473   3.376   3.440   6.712
 6192SOL     OW19474   2.855   2.069   0.834
 6192SOL    HW119475   2.795   2.000   0.874
 6192SOL    HW219476   2.926   2.025   0.779
 6193SOL     OW19477   4.883   5.571   6.776
 6193SOL    HW119478   4.942   5.643   6.738
 6193SOL    HW219479   4.871   5.499   6.708
 6194SOL     OW19480   6.542   0.135   6.205
 6194SOL    HW119481   6.584   0.103   6.120
 6194SOL    HW219482   6.594   0.100   6.283
 6195SOL     OW19483   6.214   6.600   5.525
 6195SOL    HW119484   6.255   6.663   5.459
 6195SOL    HW219485   6.271   6.518   5.532
 6196SOL     OW19486   5.635   3.894   3.328
 6196SOL    HW119487   5.658   3.802   3.296
 6196SOL    HW219488   5.535   3.906   3.326
 6197SOL     OW19489   2.867   5.499   1.962
 6197SOL    HW119490   2.931   5.464   2.030
 6197SOL    HW219491   2.896   5.590   1.932
 6198SOL     OW19492   6.566   6.753   6.540
 6198SOL    HW119493   6.641   6.735   6.604
 6198SOL    HW219494   6.600   6.746   6.446
 6199SOL     OW19495   1.434   0.122   1.071
 6199SOL    HW119496   1.384   0.113   0.984
 6199SOL    HW219497   1.514   0.180   1.057
 6200SOL     OW19498   2.035   2.149   2.594
 6200SOL    HW119499   2.104   2.086   2.558
 6200SOL    HW219500   1.944   2.113   2.575
 6201SOL     OW19501   6.778   3.500   4.272
 6201SOL    HW119502   6.824   3.554   4.343
 6201SOL    HW219503   6.844   3.479   4.199
 6202SOL     OW19504   6.312   1.769   2.952
 6202SOL    HW119505   6.216   1.783   2.928
 6202SOL    HW219506   6.355   1.710   2.885
 6203SOL     OW19507   5.893   5.876   1.932
 6203SOL    HW119508   5.962   5.927   1.984
 6203SOL    HW219509   5.906   5.778   1.947
 6204SOL     OW19510   1.981   0.323   5.132
 6204SOL    HW119511   1.965   0.342   5.035
 6204SOL    HW219512   2.050   0.251   5.141
 6205SOL     OW19513   4.756   4.333   3.282
 6205SOL    HW119514   4.827   4.401   3.305
 6205SOL    HW219515   4.797   4.242   3.279
 6206SOL     OW19516   5.037   2.174   3.819
 6206SOL    HW119517   5.121   2.206   3.776
 6206SOL    HW219518   5.058   2.105   3.888
 6207SOL     OW19519   2.242   5.819   4.336
 6207SOL    HW119520   2.148   5.786   4.324
 6207SOL    HW219521   2.306   5.745   4.322
 6208SOL     OW19522   3.831   2.781   5.793
 6208SOL    HW119523   3.913   2.828   5.825
 6208SOL    HW219524   3.837   2.768   5.694
 6209SOL     OW19525   3.931   3.649   1.052
 6209SOL    HW119526   3.967   3.709   1.123
 6209SOL    HW219527   3.870   3.581   1.093
 6210SOL     OW19528   4.556   2.416   3.473
 6210SOL    HW119529   4.639   2.423   3.417
 6210SOL    HW219530   4.546   2.321   3.505
 6211SOL     OW19531   5.257   5.373   4.671
 6211SOL    HW119532   5.207   5.450   4.631
 6211SOL    HW219533   5.204   5.289   4.660
 6212SOL     OW19534   4.306   4.232   5.985
 6212SOL    HW119535   4.239   4.215   5.913
 6212SOL    HW219536   4.378   4.163   5.981
 6213SOL     OW19537   4.385   5.747   0.302
 6213SOL    HW119538   4.433   5.747   0.214
 6213SOL    HW219539   4.335   5.662   0.313
 6214SOL     OW19540   5.883   5.724   5.957
 6214SOL    HW119541   5.924   5.810   5.930
 6214SOL    HW219542   5.858   5.671   5.876
 6215SOL     OW19543   5.678   2.289   5.747
 6215SOL    HW119544   5.776   2.266   5.747
 6215SOL    HW219545   5.666   2.381   5.784
 6216SOL     OW19546   4.779   2.339   3.318
 6216SOL    HW119547   4.850   2.375   3.379
 6216SOL    HW219548   4.793   2.373   3.226
 6217SOL     OW19549   1.027   4.629   2.093
 6217SOL    HW119550   0.941   4.603   2.136
 6217SOL    HW219551   1.025   4.604   1.996
 6218SOL     OW19552   4.600   6.536   6.741
 6218SOL    HW119553   4.585   6.617   6.684
 6218SOL    HW219554   4.556   6.550   6.830
 6219SOL     OW19555   1.015   1.014   6.237
 6219SOL    HW119556   1.041   0.918   6.250
 6219SOL    HW219557   1.096   1.072   6.238
 6220SOL     OW19558   4.426   0.851   0.931
 6220SOL    HW119559   4.519   0.885   0.947
 6220SOL    HW219560   4.367   0.926   0.903
 6221SOL     OW19561   6.298   5.680   6.682
 6221SOL    HW119562   6.355   5.598   6.688
 6221SOL    HW219563   6.243   5.677   6.598
 6222SOL     OW19564   6.619   1.388   2.842
 6222SOL    HW119565   6.688   1.351   2.904
 6222SOL    HW219566   6.529   1.353   2.868
 6223SOL     OW19567   0.452   4.715   3.783
 6223SOL    HW119568   0.431   4.711   3.685
 6223SOL    HW219569   0.551   4.724   3.796
 6224SOL     OW19570   4.548   2.111   6.968
 6224SOL    HW119571   4.459   2.082   7.002
 6224SOL    HW219572   4.540   2.201   6.925
 6225SOL     OW19573   4.345   6.972   6.502
 6225SOL    HW119574   4.380   0.046   6.516
 6225SOL    HW219575   4.364   6.916   6.583
 6226SOL     OW19576   0.742   1.613   4.290
 6226SOL    HW119577   0.741   1.642   4.194
 6226SOL    HW219578   0.837   1.599   4.319
 6227SOL     OW19579   2.888   3.901   5.020
 6227SOL    HW119580   2.878   3.805   5.045
 6227SOL    HW219581   2.799   3.946   5.024
 6228SOL     OW19582   1.971   2.677   3.640
 6228SOL    HW119583   1.918   2.604   3.683
 6228SOL    HW219584   2.024   2.725   3.710
 6229SOL     OW19585   0.418   3.825   3.892
 6229SOL    HW119586   0.415   3.739   3.943
 6229SOL    HW219587   0.334   3.877   3.908
 6230SOL     OW19588   0.465   1.112   2.022
 6230SOL    HW119589   0.555   1.074   2.004
 6230SOL    HW219590   0.397   1.065   1.966
 6231SOL     OW19591   0.756   5.648   0.092
 6231SOL    HW119592   0.818   5.578   0.129
 6231SOL    HW219593   0.735   5.715   0.163
 6232SOL     OW19594   4.601   1.548   6.891
 6232SOL    HW119595   4.635   1.460   6.923
 6232SOL    HW219596   4.660   1.621   6.924
 6233SOL     OW19597   0.299   3.493   1.701
 6233SOL    HW119598   0.399   3.488   1.705
 6233SOL    HW219599   0.269   3.583   1.730
 6234SOL     OW19600   5.374   0.025   4.661
 6234SOL    HW119601   5.350   0.108   4.712
 6234SOL    HW219602   5.377   0.046   4.563
 6235SOL     OW19603   6.755   0.526   2.932
 6235SOL    HW119604   6.668   0.478   2.933
 6235SOL    HW219605   6.814   0.487   2.862
 6236SOL     OW19606   0.514   4.750   0.927
 6236SOL    HW119607   0.540   4.815   0.999
 6236SOL    HW219608   0.442   4.791   0.870
 6237SOL     OW19609   4.017   1.087   1.161
 6237SOL    HW119610   3.931   1.132   1.137
 6237SOL    HW219611   4.092   1.125   1.107
 6238SOL     OW19612   2.249   6.919   4.642
 6238SOL    HW119613   2.174   6.906   4.577
 6238SOL    HW219614   2.321   6.852   4.623
 6239SOL     OW19615   4.654   1.448   2.962
 6239SOL    HW119616   4.709   1.371   2.994
 6239SOL    HW219617   4.573   1.458   3.020
 6240SOL     OW19618   4.018   3.570   4.184
 6240SOL    HW119619   4.001   3.668   4.186
 6240SOL    HW219620   4.052   3.543   4.094
 6241SOL     OW19621   3.335   6.720   3.470
 6241SOL    HW119622   3.282   6.653   3.523
 6241SOL    HW219623   3.279   6.755   3.395
 6242SOL     OW19624   2.898   1.960   3.850
 6242SOL    HW119625   2.931   1.971   3.756
 6242SOL    HW219626   2.970   1.920   3.906
 6243SOL     OW19627   5.385   1.357   5.887
 6243SOL    HW119628   5.324   1.280   5.866
 6243SOL    HW219629   5.330   1.439   5.905
 6244SOL     OW19630   4.303   4.731   3.041
 6244SOL    HW119631   4.336   4.653   3.094
 6244SOL    HW219632   4.271   4.700   2.952
 6245SOL     OW19633   0.852   4.554   2.577
 6245SOL    HW119634   0.765   4.541   2.626
 6245SOL    HW219635   0.871   4.473   2.521
 6246SOL     OW19636   6.806   6.443   4.530
 6246SOL    HW119637   6.887   6.388   4.507
 6246SOL    HW219638   6.723   6.388   4.514
 6247SOL     OW19639   6.571   6.151   2.225
 6247SOL    HW119640   6.508   6.229   2.225
 6247SOL    HW219641   6.664   6.184   2.241
 6248SOL     OW19642   3.393   3.000   6.701
 6248SOL    HW119643   3.320   3.016   6.635
 6248SOL    HW219644   3.366   2.925   6.762
 6249SOL     OW19645   5.899   3.148   1.424
 6249SOL    HW119646   5.850   3.231   1.400
 6249SOL    HW219647   5.835   3.071   1.424
 6250SOL     OW19648   6.856   0.336   0.546
 6250SOL    HW119649   6.857   0.374   0.638
 6250SOL    HW219650   6.924   0.383   0.490
 6251SOL     OW19651   2.730   6.826   4.115
 6251SOL    HW119652   2.745   6.793   4.208
 6251SOL    HW219653   2.671   6.762   4.066
 6252SOL     OW19654   2.643   5.323   7.000
 6252SOL    HW119655   2.648   5.292   0.077
 6252SOL    HW219656   2.734   5.352   6.970
 6253SOL     OW19657   3.390   5.074   4.791
 6253SOL    HW119658   3.297   5.038   4.794
 6253SOL    HW219659   3.431   5.052   4.703
 6254SOL     OW19660   0.185   6.054   0.869
 6254SOL    HW119661   0.246   6.132   0.861
 6254SOL    HW219662   0.092   6.087   0.886
 6255SOL     OW19663   0.585   1.205   1.480
 6255SOL    HW119664   0.585   1.300   1.449
 6255SOL    HW219665   0.679   1.172   1.486
 6256SOL     OW19666   4.987   5.598   2.680
 6256SOL    HW119667   4.906   5.652   2.703
 6256SOL    HW219668   4.969   5.545   2.597
 6257SOL     OW19669   3.904   4.177   1.612
 6257SOL    HW119670   3.950   4.108   1.667
 6257SOL    HW219671   3.948   4.266   1.627
 6258SOL     OW19672   4.515   6.007   5.724
 6258SOL    HW119673   4.546   6.063   5.647
 6258SOL    HW219674   4.538   6.053   5.810
 6259SOL     OW19675   2.549   0.914   4.944
 6259SOL    HW119676   2.576   1.009   4.959
 6259SOL    HW219677   2.628   0.862   4.911
 6260SOL     OW19678   2.113   1.813   0.322
 6260SOL    HW119679   2.192   1.836   0.378
 6260SOL    HW219680   2.069   1.897   0.289
 6261SOL     OW19681   4.047   6.631   1.036
 6261SOL    HW119682   4.122   6.649   1.100
 6261SOL    HW219683   4.084   6.614   0.945
 6262SOL     OW19684   6.428   0.497   1.738
 6262SOL    HW119685   6.451   0.425   1.673
 6262SOL    HW219686   6.380   0.457   1.816
 6263SOL     OW19687   6.383   6.340   5.823
 6263SOL    HW119688   6.403   6.374   5.915
 6263SOL    HW219689   6.436   6.257   5.806
 6264SOL     OW19690   1.700   6.775   0.956
 6264SOL    HW119691   1.602   6.758   0.944
 6264SOL    HW219692   1.717   6.874   0.956
 6265SOL     OW19693   4.866   1.399   0.146
 6265SOL    HW119694   4.956   1.426   0.113
 6265SOL    HW219695   4.798   1.413   0.074
 6266SOL     OW19696   2.727   5.168   3.026
 6266SOL    HW119697   2.678   5.085   3.053
 6266SOL    HW219698   2.805   5.183   3.087
 6267SOL     OW19699   1.378   6.520   4.617
 6267SOL    HW119700   1.309   6.505   4.547
 6267SOL    HW219701   1.335   6.522   4.707
 6268SOL     OW19702   3.881   0.700   1.348
 6268SOL    HW119703   3.932   0.755   1.414
 6268SOL    HW219704   3.945   0.662   1.281
 6269SOL     OW19705   5.906   5.447   0.789
 6269SOL    HW119706   5.858   5.534   0.772
 6269SOL    HW219707   5.942   5.412   0.702
 6270SOL     OW19708   1.965   6.247   0.430
 6270SOL    HW119709   1.907   6.205   0.361
 6270SOL    HW219710   2.057   6.207   0.426
 6271SOL     OW19711   6.168   3.169   6.369
 6271SOL    HW119712   6.125   3.205   6.452
 6271SOL    HW219713   6.099   3.128   6.310
 6272SOL     OW19714   7.012   6.780   0.706
 6272SOL    HW119715   6.936   6.737   0.756
 6272SOL    HW219716   6.976   6.823   0.624
 6273SOL     OW19717   0.012   0.088   1.385
 6273SOL    HW119718   0.111   0.094   1.373
 6273SOL    HW219719   7.009   0.079   1.482
 6274SOL     OW19720   3.120   5.566   4.550
 6274SOL    HW119721   3.034   5.589   4.595
 6274SOL    HW219722   3.135   5.467   4.556
 6275SOL     OW19723   2.018   5.358   6.911
 6275SOL    HW119724   2.085   5.389   6.979
 6275SOL    HW219725   2.024   5.259   6.902
 6276SOL     OW19726   1.493   5.736   2.598
 6276SOL    HW119727   1.491   5.703   2.692
 6276SOL    HW219728   1.583   5.774   2.577
 6277SOL     OW19729   5.386   3.431   1.321
 6277SOL    HW119730   5.442   3.356   1.357
 6277SOL    HW219731   5.293   3.422   1.357
 6278SOL     OW19732   2.939   0.509   6.209
 6278SOL    HW119733   2.951   0.445   6.133
 6278SOL    HW219734   3.004   0.488   6.281
 6279SOL     OW19735   2.808   0.183   1.758
 6279SOL    HW119736   2.886   0.125   1.732
 6279SOL    HW219737   2.734   0.172   1.692
 6280SOL     OW19738   6.808   1.796   0.057
 6280SOL    HW119739   6.757   1.782   0.142
 6280SOL    HW219740   6.745   1.814   7.000
 6281SOL     OW19741   5.933   3.941   5.504
 6281SOL    HW119742   5.942   3.858   5.449
 6281SOL    HW219743   5.970   3.924   5.596
 6282SOL     OW19744   0.308   3.740   5.801
 6282SOL    HW119745   0.277   3.646   5.809
 6282SOL    HW219746   0.386   3.744   5.738
 6283SOL     OW19747   1.424   5.722   4.746
 6283SOL    HW119748   1.446   5.660   4.670
 6283SOL    HW219749   1.484   5.700   4.823
 6284SOL     OW19750   2.269   4.335   6.248
 6284SOL    HW119751   2.327   4.389   6.188
 6284SOL    HW219752   2.322   4.305   6.328
 6285SOL     OW19753   1.044   3.880   3.589
 6285SOL    HW119754   1.072   3.817   3.661
 6285SOL    HW219755   1.091   3.968   3.600
 6286SOL     OW19756   1.035   2.635   5.732
 6286SOL    HW119757   1.113   2.578   5.708
 6286SOL    HW219758   1.011   2.621   5.828
 6287SOL     OW19759   4.865   4.706   4.820
 6287SOL    HW119760   4.947   4.679   4.870
 6287SOL    HW219761   4.885   4.711   4.722
 6288SOL     OW19762   3.675   2.972   6.875
 6288SOL    HW119763   3.606   2.905   6.904
 6288SOL    HW219764   3.766   2.939   6.902
 6289SOL     OW19765   2.712   4.735   5.857
 6289SOL    HW119766   2.741   4.822   5.818
 6289SOL    HW219767   2.689   4.671   5.784
 6290SOL     OW19768   5.040   5.822   4.671
 6290SOL    HW119769   5.019   5.905   4.620
 6290SOL    HW219770   5.093   5.846   4.752
 6291SOL     OW19771   3.706   3.222   3.239
 6291SOL    HW119772   3.686   3.213   3.337
 6291SOL    HW219773   3.640   3.284   3.197
 6292SOL     OW19774   1.710   3.278   4.506
 6292SOL    HW119775   1.789   3.218   4.490
 6292SOL    HW219776   1.631   3.243   4.456
 6293SOL     OW19777   4.309   1.481   6.845
 6293SOL    HW119778   4.406   1.498   6.828
 6293SOL    HW219779   4.258   1.497   6.760
 6294SOL     OW19780   1.884   1.667   3.201
 6294SOL    HW119781   1.972   1.711   3.219
 6294SOL    HW219782   1.810   1.725   3.234
 6295SOL     OW19783   5.695   3.639   5.347
 6295SOL    HW119784   5.596   3.628   5.353
 6295SOL    HW219785   5.727   3.605   5.258
 6296SOL     OW19786   0.512   2.657   6.563
 6296SOL    HW119787   0.488   2.582   6.501
 6296SOL    HW219788   0.452   2.654   6.643
 6297SOL     OW19789   5.796   0.557   3.948
 6297SOL    HW119790   5.885   0.587   3.915
 6297SOL    HW219791   5.727   0.627   3.927
 6298SOL     OW19792   6.183   5.060   0.547
 6298SOL    HW119793   6.247   4.986   0.568
 6298SOL    HW219794   6.145   5.097   0.632
 6299SOL     OW19795   4.642   1.883   2.618
 6299SOL    HW119796   4.594   1.955   2.568
 6299SOL    HW219797   4.580   1.839   2.683
 6300SOL     OW19798   3.057   0.279   6.349
 6300SOL    HW119799   3.026   0.212   6.417
 6300SOL    HW219800   3.000   0.272   6.267
 6301SOL     OW19801   3.544   6.100   0.086
 6301SOL    HW119802   3.445   6.083   0.084
 6301SOL    HW219803   3.584   6.053   0.164
 6302SOL     OW19804   2.750   1.392   6.057
 6302SOL    HW119805   2.713   1.438   5.976
 6302SOL    HW219806   2.825   1.332   6.029
 6303SOL     OW19807   1.293   5.813   5.384
 6303SOL    HW119808   1.333   5.830   5.474
 6303SOL    HW219809   1.263   5.717   5.379
 6304SOL     OW19810   4.308   1.118   3.200
 6304SOL    HW119811   4.288   1.106   3.298
 6304SOL    HW219812   4.230   1.085   3.147
 6305SOL     OW19813   0.913   6.186   6.027
 6305SOL    HW119814   0.989   6.192   6.091
 6305SOL    HW219815   0.917   6.263   5.963
 6306SOL     OW19816   6.992   4.522   3.935
 6306SOL    HW119817   0.054   4.571   3.902
 6306SOL    HW219818   6.928   4.507   3.860
 6307SOL     OW19819   4.130   3.602   2.948
 6307SOL    HW119820   4.087   3.677   2.997
 6307SOL    HW219821   4.186   3.549   3.011
 6308SOL     OW19822   0.258   2.377   0.276
 6308SOL    HW119823   0.336   2.367   0.214
 6308SOL    HW219824   0.213   2.288   0.287
 6309SOL     OW19825   1.783   6.031   4.257
 6309SOL    HW119826   1.734   5.983   4.330
 6309SOL    HW219827   1.837   5.965   4.204
 6310SOL     OW19828   1.279   6.123   3.338
 6310SOL    HW119829   1.221   6.170   3.270
 6310SOL    HW219830   1.297   6.030   3.307
 6311SOL     OW19831   4.895   0.954   5.754
 6311SOL    HW119832   4.835   0.951   5.673
 6311SOL    HW219833   4.840   0.977   5.834
 6312SOL     OW19834   4.067   6.443   6.651
 6312SOL    HW119835   3.993   6.388   6.612
 6312SOL    HW219836   4.150   6.388   6.654
 6313SOL     OW19837   5.782   6.173   3.982
 6313SOL    HW119838   5.773   6.265   3.945
 6313SOL    HW219839   5.779   6.106   3.908
 6314SOL     OW19840   1.630   6.554   2.421
 6314SOL    HW119841   1.623   6.456   2.435
 6314SOL    HW219842   1.549   6.599   2.459
 6315SOL     OW19843   2.185   2.642   4.188
 6315SOL    HW119844   2.088   2.668   4.183
 6315SOL    HW219845   2.237   2.718   4.227
 6316SOL     OW19846   5.438   0.690   4.834
 6316SOL    HW119847   5.461   0.654   4.744
 6316SOL    HW219848   5.346   0.660   4.860
 6317SOL     OW19849   5.011   4.893   1.722
 6317SOL    HW119850   5.089   4.911   1.781
 6317SOL    HW219851   4.985   4.796   1.729
 6318SOL     OW19852   6.711   6.897   6.323
 6318SOL    HW119853   6.697   6.882   6.226
 6318SOL    HW219854   6.808   6.887   6.345
 6319SOL     OW19855   5.681   1.466   4.741
 6319SOL    HW119856   5.762   1.460   4.682
 6319SOL    HW219857   5.693   1.542   4.805
 6320SOL     OW19858   6.229   0.296   4.990
 6320SOL    HW119859   6.170   0.307   4.911
 6320SOL    HW219860   6.296   0.370   4.993
 6321SOL     OW19861   5.636   1.977   0.256
 6321SOL    HW119862   5.707   2.013   0.196
 6321SOL    HW219863   5.629   2.035   0.338
 6322SOL     OW19864   1.675   1.160   1.894
 6322SOL    HW119865   1.718   1.093   1.954
 6322SOL    HW219866   1.622   1.113   1.824
 6323SOL     OW19867   2.908   3.436   1.348
 6323SOL    HW119868   2.858   3.491   1.281
 6323SOL    HW219869   2.877   3.341   1.345
 6324SOL     OW19870   5.020   1.581   1.232
 6324SOL    HW119871   5.091   1.638   1.192
 6324SOL    HW219872   4.935   1.633   1.238
 6325SOL     OW19873   1.652   2.491   3.569
 6325SOL    HW119874   1.704   2.480   3.484
 6325SOL    HW219875   1.715   2.506   3.645
 6326SOL     OW19876   5.555   4.693   5.643
 6326SOL    HW119877   5.633   4.639   5.612
 6326SOL    HW219878   5.587   4.783   5.675
 6327SOL     OW19879   0.185   0.445   3.216
 6327SOL    HW119880   0.238   0.404   3.291
 6327SOL    HW219881   0.242   0.448   3.134
 6328SOL     OW19882   4.494   3.708   5.387
 6328SOL    HW119883   4.559   3.671   5.321
 6328SOL    HW219884   4.464   3.799   5.358
 6329SOL     OW19885   1.369   2.779   5.626
 6329SOL    HW119886   1.458   2.818   5.602
 6329SOL    HW219887   1.297   2.827   5.577
 6330SOL     OW19888   5.428   1.531   3.633
 6330SOL    HW119889   5.475   1.546   3.546
 6330SOL    HW219890   5.406   1.434   3.642
 6331SOL     OW19891   0.194   3.341   2.995
 6331SOL    HW119892   0.105   3.300   3.017
 6331SOL    HW219893   0.267   3.287   3.037
 6332SOL     OW19894   2.853   1.538   0.533
 6332SOL    HW119895   2.773   1.526   0.592
 6332SOL    HW219896   2.935   1.543   0.589
 6333SOL     OW19897   5.142   1.521   0.692
 6333SOL    HW119898   5.179   1.434   0.660
 6333SOL    HW219899   5.062   1.504   0.749
 6334SOL     OW19900   1.944   1.023   1.948
 6334SOL    HW119901   2.004   1.101   1.930
 6334SOL    HW219902   1.905   0.991   1.862
 6335SOL     OW19903   6.240   1.736   0.781
 6335SOL    HW119904   6.223   1.831   0.753
 6335SOL    HW219905   6.182   1.714   0.859
 6336SOL     OW19906   0.462   3.048   5.455
 6336SOL    HW119907   0.470   2.951   5.431
 6336SOL    HW219908   0.524   3.069   5.531
 6337SOL     OW19909   4.550   5.672   4.772
 6337SOL    HW119910   4.610   5.751   4.769
 6337SOL    HW219911   4.600   5.592   4.806
 6338SOL     OW19912   3.144   1.670   3.683
 6338SOL    HW119913   3.081   1.653   3.760
 6338SOL    HW219914   3.101   1.734   3.620
 6339SOL     OW19915   0.763   4.502   3.380
 6339SOL    HW119916   0.744   4.436   3.452
 6339SOL    HW219917   0.708   4.585   3.394
 6340SOL     OW19918   2.018   4.288   1.208
 6340SOL    HW119919   2.116   4.291   1.189
 6340SOL    HW219920   2.001   4.234   1.290
 6341SOL     OW19921   0.663   4.765   3.441
 6341SOL    HW119922   0.569   4.763   3.475
 6341SOL    HW219923   0.696   4.860   3.439
 6342SOL     OW19924   1.823   1.744   1.495
 6342SOL    HW119925   1.733   1.772   1.530
 6342SOL    HW219926   1.894   1.777   1.556
 6343SOL     OW19927   2.351   5.696   0.670
 6343SOL    HW119928   2.310   5.623   0.725
 6343SOL    HW219929   2.342   5.783   0.718
 6344SOL     OW19930   6.469   1.286   3.825
 6344SOL    HW119931   6.402   1.215   3.848
 6344SOL    HW219932   6.456   1.314   3.730
 6345SOL     OW19933   5.565   3.694   1.986
 6345SOL    HW119934   5.503   3.769   1.965
 6345SOL    HW219935   5.653   3.708   1.939
 6346SOL     OW19936   6.881   4.291   5.403
 6346SOL    HW119937   6.836   4.379   5.389
 6346SOL    HW219938   6.811   4.220   5.416
 6347SOL     OW19939   2.256   1.912   2.791
 6347SOL    HW119940   2.327   1.861   2.840
 6347SOL    HW219941   2.166   1.882   2.822
 6348SOL     OW19942   6.812   2.418   6.031
 6348SOL    HW119943   6.777   2.357   6.101
 6348SOL    HW219944   6.870   2.488   6.073
 6349SOL     OW19945   6.876   1.210   6.769
 6349SOL    HW119946   6.834   1.298   6.747
 6349SOL    HW219947   6.954   1.224   6.830
 6350SOL     OW19948   1.580   5.003   1.381
 6350SOL    HW119949   1.652   4.961   1.436
 6350SOL    HW219950   1.491   4.982   1.422
 6351SOL     OW19951   5.549   3.306   2.676
 6351SOL    HW119952   5.461   3.322   2.721
 6351SOL    HW219953   5.557   3.366   2.596
 6352SOL     OW19954   2.835   0.601   4.521
 6352SOL    HW119955   2.736   0.582   4.522
 6352SOL    HW219956   2.872   0.588   4.612
 6353SOL     OW19957   3.939   6.096   6.038
 6353SOL    HW119958   3.981   6.042   6.111
 6353SOL    HW219959   3.988   6.082   5.953
 6354SOL     OW19960   4.566   5.225   2.179
 6354SOL    HW119961   4.511   5.190   2.103
 6354SOL    HW219962   4.601   5.316   2.156
 6355SOL     OW19963   2.537   4.825   0.806
 6355SOL    HW119964   2.518   4.793   0.899
 6355SOL    HW219965   2.452   4.830   0.754
 6356SOL     OW19966   6.159   4.089   6.869
 6356SOL    HW119967   6.212   4.007   6.849
 6356SOL    HW219968   6.084   4.097   6.803
 6357SOL     OW19969   5.946   1.290   1.339
 6357SOL    HW119970   5.905   1.353   1.406
 6357SOL    HW219971   5.921   1.196   1.362
 6358SOL     OW19972   1.095   2.384   6.809
 6358SOL    HW119973   1.186   2.346   6.825
 6358SOL    HW219974   1.036   2.363   6.887
 6359SOL     OW19975   5.292   6.176   0.662
 6359SOL    HW119976   5.269   6.264   0.622
 6359SOL    HW219977   5.303   6.186   0.761
 6360SOL     OW19978   0.914   2.659   2.039
 6360SOL    HW119979   0.931   2.631   1.945
 6360SOL    HW219980   0.996   2.703   2.076
 6361SOL     OW19981   0.623   0.116   6.821
 6361SOL    HW119982   0.527   0.132   6.795
 6361SOL    HW219983   0.670   0.204   6.829
 6362SOL     OW19984   1.352   5.724   7.005
 6362SOL    HW119985   1.265   5.736   6.958
 6362SOL    HW219986   1.348   5.770   0.075
 6363SOL     OW19987   2.854   4.767   3.575
 6363SOL    HW119988   2.819   4.687   3.623
 6363SOL    HW219989   2.824   4.765   3.480
 6364SOL     OW19990   2.175   2.924   4.557
 6364SOL    HW119991   2.137   2.917   4.649
 6364SOL    HW219992   2.201   3.019   4.539
 6365SOL     OW19993   5.349   5.425   3.256
 6365SOL    HW119994   5.320   5.447   3.350
 6365SOL    HW219995   5.361   5.327   3.247
 6366SOL     OW19996   5.794   6.937   4.650
 6366SOL    HW119997   5.859   6.998   4.694
 6366SOL    HW219998   5.784   6.854   4.705
 6367SOL     OW19999   1.675   2.370   2.309
 6367SOL    HW120000   1.682   2.301   2.380
 6367SOL    HW220001   1.719   2.455   2.340
 6368SOL     OW20002   4.814   2.968   4.529
 6368SOL    HW120003   4.854   3.045   4.481
 6368SOL    HW220004   4.775   2.999   4.616
 6369SOL     OW20005   3.415   5.392   6.447
 6369SOL    HW120006   3.332   5.436   6.412
 6369SOL    HW220007   3.416   5.297   6.419
 6370SOL     OW20008   5.636   3.151   4.550
 6370SOL    HW120009   5.590   3.177   4.465
 6370SOL    HW220010   5.682   3.063   4.538
 6371SOL     OW20011   4.874   4.614   1.739
 6371SOL    HW120012   4.910   4.613   1.832
 6371SOL    HW220013   4.880   4.522   1.700
 6372SOL     OW20014   6.437   1.601   2.774
 6372SOL    HW120015   6.493   1.521   2.796
 6372SOL    HW220016   6.390   1.585   2.687
 6373SOL     OW20017   4.839   4.259   1.128
 6373SOL    HW120018   4.824   4.348   1.170
 6373SOL    HW220019   4.750   4.215   1.112
 6374SOL     OW20020   4.398   3.445   0.309
 6374SOL    HW120021   4.431   3.444   0.214
 6374SOL    HW220022   4.438   3.523   0.357
 6375SOL     OW20023   6.172   2.532   1.657
 6375SOL    HW120024   6.133   2.617   1.695
 6375SOL    HW220025   6.187   2.467   1.731
 6376SOL     OW20026   3.486   1.159   6.716
 6376SOL    HW120027   3.481   1.068   6.675
 6376SOL    HW220028   3.582   1.180   6.737
 6377SOL     OW20029   6.918   0.577   0.320
 6377SOL    HW120030   6.974   0.513   0.373
 6377SOL    HW220031   6.844   0.611   0.377
 6378SOL     OW20032   5.409   5.976   2.456
 6378SOL    HW120033   5.502   6.000   2.485
 6378SOL    HW220034   5.413   5.913   2.378
 6379SOL     OW20035   2.212   6.122   0.374
 6379SOL    HW120036   2.169   6.038   0.406
 6379SOL    HW220037   2.217   6.121   0.274
 6380SOL     OW20038   1.480   3.710   5.028
 6380SOL    HW120039   1.543   3.704   5.106
 6380SOL    HW220040   1.413   3.636   5.033
 6381SOL     OW20041   4.763   2.589   0.300
 6381SOL    HW120042   4.857   2.602   0.270
 6381SOL    HW220043   4.710   2.672   0.281
 6382SOL     OW20044   1.650   1.507   1.549
 6382SOL    HW120045   1.659   1.422   1.601
 6382SOL    HW220046   1.656   1.585   1.611
 6383SOL     OW20047   2.062   2.529   2.322
 6383SOL    HW120048   2.092   2.480   2.241
 6383SOL    HW220049   2.141   2.547   2.381
 6384SOL     OW20050   6.102   2.702   2.832
 6384SOL    HW120051   6.033   2.682   2.902
 6384SOL    HW220052   6.091   2.639   2.756
 6385SOL     OW20053   6.593   3.187   1.619
 6385SOL    HW120054   6.670   3.146   1.669
 6385SOL    HW220055   6.610   3.181   1.521
 6386SOL     OW20056   2.593   3.581   0.352
 6386SOL    HW120057   2.508   3.557   0.306
 6386SOL    HW220058   2.631   3.500   0.397
 6387SOL     OW20059   0.171   0.542   6.343
 6387SOL    HW120060   0.263   0.539   6.382
 6387SOL    HW220061   0.157   0.631   6.299
 6388SOL     OW20062   6.818   5.357   2.251
 6388SOL    HW120063   6.814   5.326   2.157
 6388SOL    HW220064   6.862   5.288   2.308
 6389SOL     OW20065   0.976   0.524   6.847
 6389SOL    HW120066   0.914   0.589   6.804
 6389SOL    HW220067   1.067   0.565   6.856
 6390SOL     OW20068   6.699   1.185   6.261
 6390SOL    HW120069   6.662   1.156   6.349
 6390SOL    HW220070   6.683   1.113   6.193
 6391SOL     OW20071   0.836   1.420   5.186
 6391SOL    HW120072   0.863   1.498   5.130
 6391SOL    HW220073   0.918   1.378   5.227
 6392SOL     OW20074   4.050   6.598   3.752
 6392SOL    HW120075   4.033   6.566   3.846
 6392SOL    HW220076   4.134   6.651   3.749
 6393SOL     OW20077   6.934   5.325   0.516
 6393SOL    HW120078   6.960   5.297   0.424
 6393SOL    HW220079   6.965   5.419   0.533
 6394SOL     OW20080   1.312   5.523   1.261
 6394SOL    HW120081   1.384   5.455   1.277
 6394SOL    HW220082   1.321   5.559   1.169
 6395SOL     OW20083   2.244   4.595   3.273
 6395SOL    HW120084   2.201   4.662   3.212
 6395SOL    HW220085   2.318   4.548   3.224
 6396SOL     OW20086   0.931   3.389   6.877
 6396SOL    HW120087   1.009   3.452   6.874
 6396SOL    HW220088   0.895   3.386   6.971
 6397SOL     OW20089   5.758   3.151   3.779
 6397SOL    HW120090   5.804   3.237   3.753
 6397SOL    HW220091   5.663   3.171   3.804
 6398SOL     OW20092   1.660   0.322   1.069
 6398SOL    HW120093   1.756   0.312   1.097
 6398SOL    HW220094   1.604   0.344   1.150
 6399SOL     OW20095   3.006   1.241   6.034
 6399SOL    HW120096   2.960   1.166   6.080
 6399SOL    HW220097   3.105   1.226   6.038
 6400SOL     OW20098   1.286   5.919   2.878
 6400SOL    HW120099   1.307   5.821   2.880
 6400SOL    HW220100   1.187   5.931   2.885
 6401SOL     OW20101   3.630   6.149   3.730
 6401SOL    HW120102   3.630   6.131   3.632
 6401SOL    HW220103   3.694   6.086   3.775
 6402SOL     OW20104   1.764   4.992   5.150
 6402SOL    HW120105   1.724   5.059   5.213
 6402SOL    HW220106   1.826   4.932   5.201
 6403SOL     OW20107   4.760   5.837   4.745
 6403SOL    HW120108   4.763   5.889   4.830
 6403SOL    HW220109   4.851   5.800   4.724
 6404SOL     OW20110   4.133   0.115   2.103
 6404SOL    HW120111   4.113   0.117   2.005
 6404SOL    HW220112   4.121   0.206   2.142
 6405SOL     OW20113   5.236   1.663   2.396
 6405SOL    HW120114   5.202   1.735   2.335
 6405SOL    HW220115   5.172   1.586   2.395
 6406SOL     OW20116   0.569   2.807   3.174
 6406SOL    HW120117   0.615   2.720   3.154
 6406SOL    HW220118   0.476   2.789   3.207
 6407SOL     OW20119   1.755   5.825   2.621
 6407SOL    HW120120   1.823   5.807   2.550
 6407SOL    HW220121   1.801   5.862   2.702
 6408SOL     OW20122   6.552   0.684   0.960
 6408SOL    HW120123   6.512   0.609   1.013
 6408SOL    HW220124   6.479   0.743   0.925
 6409SOL     OW20125   5.472   5.147   3.210
 6409SOL    HW120126   5.441   5.083   3.141
 6409SOL    HW220127   5.497   5.098   3.293
 6410SOL     OW20128   2.242   1.558   5.871
 6410SOL    HW120129   2.295   1.642   5.883
 6410SOL    HW220130   2.301   1.479   5.889
 6411SOL     OW20131   0.480   2.688   2.269
 6411SOL    HW120132   0.385   2.709   2.243
 6411SOL    HW220133   0.482   2.659   2.365
 6412SOL     OW20134   3.476   0.296   0.277
 6412SOL    HW120135   3.397   0.263   0.226
 6412SOL    HW220136   3.489   0.394   0.259
 6413SOL     OW20137   5.239   6.408   3.485
 6413SOL    HW120138   5.288   6.480   3.535
 6413SOL    HW220139   5.263   6.414   3.388
 6414SOL     OW20140   1.776   0.247   0.276
 6414SOL    HW120141   1.776   0.186   0.356
 6414SOL    HW220142   1.683   0.280   0.260
 6415SOL     OW20143   0.040   2.425   3.424
 6415SOL    HW120144   0.035   2.418   3.524
 6415SOL    HW220145   0.032   2.334   3.383
 6416SOL     OW20146   2.794   6.755   0.268
 6416SOL    HW120147   2.717   6.696   0.244
 6416SOL    HW220148   2.768   6.851   0.255
 6417SOL     OW20149   3.981   1.593   0.247
 6417SOL    HW120150   4.043   1.538   0.303
 6417SOL    HW220151   3.893   1.547   0.240
 6418SOL     OW20152   4.718   5.237   0.685
 6418SOL    HW120153   4.744   5.226   0.781
 6418SOL    HW220154   4.792   5.206   0.626
 6419SOL     OW20155   0.810   6.648   6.797
 6419SOL    HW120156   0.894   6.605   6.829
 6419SOL    HW220157   0.833   6.732   6.747
 6420SOL     OW20158   1.962   3.930   4.334
 6420SOL    HW120159   2.030   4.002   4.320
 6420SOL    HW220160   1.886   3.943   4.270
 6421SOL     OW20161   4.630   0.440   1.800
 6421SOL    HW120162   4.541   0.459   1.760
 6421SOL    HW220163   4.687   0.522   1.794
 6422SOL     OW20164   6.316   1.890   4.858
 6422SOL    HW120165   6.294   1.868   4.762
 6422SOL    HW220166   6.290   1.812   4.916
 6423SOL     OW20167   2.454   4.382   4.375
 6423SOL    HW120168   2.552   4.404   4.369
 6423SOL    HW220169   2.416   4.378   4.283
 6424SOL     OW20170   6.459   4.821   4.823
 6424SOL    HW120171   6.412   4.790   4.905
 6424SOL    HW220172   6.517   4.748   4.788
 6425SOL     OW20173   0.189   5.709   3.619
 6425SOL    HW120174   0.273   5.742   3.663
 6425SOL    HW220175   0.137   5.654   3.685
 6426SOL     OW20176   4.680   4.474   4.800
 6426SOL    HW120177   4.658   4.459   4.704
 6426SOL    HW220178   4.727   4.561   4.811
 6427SOL     OW20179   3.691   2.913   3.348
 6427SOL    HW120180   3.754   2.935   3.423
 6427SOL    HW220181   3.741   2.908   3.262
 6428SOL     OW20182   5.175   3.044   0.454
 6428SOL    HW120183   5.268   3.051   0.489
 6428SOL    HW220184   5.175   2.992   0.369
 6429SOL     OW20185   2.265   0.795   5.336
 6429SOL    HW120186   2.345   0.847   5.370
 6429SOL    HW220187   2.202   0.858   5.290
 6430SOL     OW20188   6.913   0.290   5.415
 6430SOL    HW120189   6.999   0.323   5.455
 6430SOL    HW220190   6.839   0.354   5.437
 6431SOL     OW20191   3.971   5.059   1.620
 6431SOL    HW120192   3.872   5.057   1.631
 6431SOL    HW220193   4.001   4.980   1.567
 6432SOL     OW20194   4.709   4.299   5.627
 6432SOL    HW120195   4.724   4.357   5.707
 6432SOL    HW220196   4.647   4.345   5.563
 6433SOL     OW20197   2.446   5.871   6.766
 6433SOL    HW120198   2.507   5.852   6.689
 6433SOL    HW220199   2.415   5.784   6.806
 6434SOL     OW20200   3.693   5.196   5.814
 6434SOL    HW120201   3.629   5.262   5.774
 6434SOL    HW220202   3.661   5.169   5.905
 6435SOL     OW20203   4.731   1.183   0.763
 6435SOL    HW120204   4.826   1.156   0.780
 6435SOL    HW220205   4.716   1.192   0.665
 6436SOL     OW20206   0.042   4.134   4.307
 6436SOL    HW120207   7.017   4.050   4.273
 6436SOL    HW220208   0.001   4.213   4.262
 6437SOL     OW20209   1.005   2.212   5.158
 6437SOL    HW120210   0.980   2.298   5.114
 6437SOL    HW220211   1.102   2.215   5.184
 6438SOL     OW20212   0.363   5.764   0.278
 6438SOL    HW120213   0.403   5.836   0.335
 6438SOL    HW220214   0.341   5.802   0.188
 6439SOL     OW20215   5.574   0.398   2.786
 6439SOL    HW120216   5.493   0.386   2.728
 6439SOL    HW220217   5.604   0.309   2.819
 6440SOL     OW20218   2.652   1.714   6.826
 6440SOL    HW120219   2.684   1.807   6.813
 6440SOL    HW220220   2.658   1.664   6.740
 6441SOL     OW20221   0.756   1.556   2.576
 6441SOL    HW120222   0.774   1.474   2.522
 6441SOL    HW220223   0.843   1.601   2.598
 6442SOL     OW20224   3.363   2.829   5.087
 6442SOL    HW120225   3.272   2.847   5.125
 6442SOL    HW220226   3.360   2.749   5.029
 6443SOL     OW20227   5.024   2.313   0.511
 6443SOL    HW120228   5.061   2.221   0.517
 6443SOL    HW220229   4.979   2.326   0.422
 6444SOL     OW20230   6.754   3.307   4.974
 6444SOL    HW120231   6.666   3.266   4.948
 6444SOL    HW220232   6.793   3.257   5.051
 6445SOL     OW20233   2.879   3.435   3.006
 6445SOL    HW120234   2.797   3.461   2.956
 6445SOL    HW220235   2.945   3.395   2.943
 6446SOL     OW20236   2.366   0.815   6.626
 6446SOL    HW120237   2.428   0.833   6.703
 6446SOL    HW220238   2.348   0.900   6.577
 6447SOL     OW20239   6.232   3.441   1.727
 6447SOL    HW120240   6.268   3.485   1.645
 6447SOL    HW220241   6.265   3.347   1.731
 6448SOL     OW20242   3.919   5.703   1.284
 6448SOL    HW120243   3.881   5.690   1.192
 6448SOL    HW220244   3.844   5.717   1.349
 6449SOL     OW20245   2.313   5.254   1.006
 6449SOL    HW120246   2.394   5.311   0.991
 6449SOL    HW220247   2.340   5.159   1.015
 6450SOL     OW20248   0.192   4.309   1.161
 6450SOL    HW120249   0.249   4.384   1.127
 6450SOL    HW220250   0.242   4.259   1.232
 6451SOL     OW20251   3.738   2.244   1.443
 6451SOL    HW120252   3.698   2.324   1.397
 6451SOL    HW220253   3.795   2.274   1.519
 6452SOL     OW20254   4.867   2.528   3.718
 6452SOL    HW120255   4.833   2.600   3.779
 6452SOL    HW220256   4.818   2.443   3.736
 6453SOL     OW20257   3.164   0.700   1.112
 6453SOL    HW120258   3.214   0.617   1.138
 6453SOL    HW220259   3.202   0.778   1.161
 6454SOL     OW20260   5.544   2.932   3.514
 6454SOL    HW120261   5.551   2.959   3.418
 6454SOL    HW220262   5.468   2.867   3.524
 6455SOL     OW20263   6.530   3.595   3.168
 6455SOL    HW120264   6.452   3.642   3.128
 6455SOL    HW220265   6.529   3.605   3.267
 6456SOL     OW20266   6.205   1.684   3.212
 6456SOL    HW120267   6.107   1.695   3.197
 6456SOL    HW220268   6.254   1.716   3.131
 6457SOL     OW20269   4.118   0.697   2.087
 6457SOL    HW120270   4.129   0.606   2.050
 6457SOL    HW220271   4.057   0.751   2.028
 6458SOL     OW20272   0.300   5.059   3.584
 6458SOL    HW120273   0.262   4.971   3.612
 6458SOL    HW220274   0.399   5.054   3.583
 6459SOL     OW20275   6.253   3.194   2.394
 6459SOL    HW120276   6.240   3.248   2.477
 6459SOL    HW220277   6.216   3.243   2.316
 6460SOL     OW20278   0.686   5.796   6.076
 6460SOL    HW120279   0.776   5.831   6.051
 6460SOL    HW220280   0.689   5.697   6.084
 6461SOL     OW20281   2.799   5.279   1.049
 6461SOL    HW120282   2.845   5.359   1.088
 6461SOL    HW220283   2.760   5.303   0.961
 6462SOL     OW20284   1.637   3.664   5.245
 6462SOL    HW120285   1.584   3.632   5.323
 6462SOL    HW220286   1.716   3.604   5.231
 6463SOL     OW20287   5.071   2.025   1.621
 6463SOL    HW120288   5.001   2.084   1.662
 6463SOL    HW220289   5.146   2.082   1.587
 6464SOL     OW20290   0.900   5.271   4.589
 6464SOL    HW120291   0.890   5.361   4.632
 6464SOL    HW220292   0.969   5.218   4.639
 6465SOL     OW20293   3.765   0.889   3.098
 6465SOL    HW120294   3.826   0.811   3.113
 6465SOL    HW220295   3.775   0.922   3.004
 6466SOL     OW20296   0.669   2.850   0.432
 6466SOL    HW120297   0.766   2.845   0.408
 6466SOL    HW220298   0.640   2.945   0.433
 6467SOL     OW20299   3.287   1.643   1.050
 6467SOL    HW120300   3.299   1.740   1.070
 6467SOL    HW220301   3.211   1.632   0.985
 6468SOL     OW20302   2.643   0.648   0.996
 6468SOL    HW120303   2.573   0.718   0.980
 6468SOL    HW220304   2.714   0.684   1.056
 6469SOL     OW20305   3.471   1.968   3.435
 6469SOL    HW120306   3.409   1.917   3.376
 6469SOL    HW220307   3.420   2.011   3.510
 6470SOL     OW20308   6.632   1.929   6.860
 6470SOL    HW120309   6.704   1.936   6.792
 6470SOL    HW220310   6.621   2.017   6.906
 6471SOL     OW20311   0.265   6.276   5.432
 6471SOL    HW120312   0.349   6.296   5.382
 6471SOL    HW220313   0.203   6.223   5.374
 6472SOL     OW20314   6.782   6.258   2.557
 6472SOL    HW120315   6.751   6.298   2.643
 6472SOL    HW220316   6.733   6.172   2.540
 6473SOL     OW20317   2.396   1.432   3.833
 6473SOL    HW120318   2.335   1.511   3.831
 6473SOL    HW220319   2.388   1.386   3.922
 6474SOL     OW20320   3.542   5.163   5.434
 6474SOL    HW120321   3.635   5.139   5.407
 6474SOL    HW220322   3.506   5.092   5.494
 6475SOL     OW20323   5.625   4.612   2.790
 6475SOL    HW120324   5.654   4.609   2.886
 6475SOL    HW220325   5.567   4.692   2.775
 6476SOL     OW20326   3.232   1.302   6.618
 6476SOL    HW120327   3.315   1.266   6.659
 6476SOL    HW220328   3.220   1.261   6.527
 6477SOL     OW20329   6.386   6.406   1.500
 6477SOL    HW120330   6.309   6.418   1.563
 6477SOL    HW220331   6.462   6.361   1.547
 6478SOL     OW20332   3.465   5.709   1.227
 6478SOL    HW120333   3.543   5.733   1.285
 6478SOL    HW220334   3.397   5.660   1.281
 6479SOL     OW20335   3.393   6.219   3.947
 6479SOL    HW120336   3.422   6.293   4.008
 6479SOL    HW220337   3.296   6.228   3.926
 6480SOL     OW20338   3.244   1.577   6.959
 6480SOL    HW120339   3.170   1.534   6.908
 6480SOL    HW220340   3.220   1.581   0.038
 6481SOL     OW20341   3.461   2.843   1.810
 6481SOL    HW120342   3.371   2.865   1.849
 6481SOL    HW220343   3.450   2.774   1.739
 6482SOL     OW20344   5.920   3.883   5.201
 6482SOL    HW120345   5.949   3.978   5.209
 6482SOL    HW220346   5.847   3.876   5.133
 6483SOL     OW20347   1.296   5.580   5.036
 6483SOL    HW120348   1.388   5.599   5.001
 6483SOL    HW220349   1.263   5.493   4.998
 6484SOL     OW20350   2.816   0.945   4.348
 6484SOL    HW120351   2.768   0.958   4.261
 6484SOL    HW220352   2.751   0.948   4.423
 6485SOL     OW20353   2.158   6.922   4.012
 6485SOL    HW120354   2.130   6.936   4.108
 6485SOL    HW220355   2.168   6.825   3.994
 6486SOL     OW20356   1.695   4.821   3.543
 6486SOL    HW120357   1.608   4.866   3.561
 6486SOL    HW220358   1.703   4.739   3.598
 6487SOL     OW20359   6.037   4.608   3.726
 6487SOL    HW120360   6.054   4.615   3.825
 6487SOL    HW220361   6.066   4.518   3.693
 6488SOL     OW20362   4.360   5.319   4.299
 6488SOL    HW120363   4.377   5.362   4.388
 6488SOL    HW220364   4.309   5.234   4.312
 6489SOL     OW20365   4.262   3.248   5.673
 6489SOL    HW120366   4.219   3.302   5.745
 6489SOL    HW220367   4.319   3.309   5.616
 6490SOL     OW20368   2.008   2.064   0.252
 6490SOL    HW120369   1.947   2.114   0.191
 6490SOL    HW220370   2.054   2.128   0.314
 6491SOL     OW20371   2.552   0.081   1.113
 6491SOL    HW120372   2.619   0.055   1.183
 6491SOL    HW220373   2.503   0.163   1.142
 6492SOL     OW20374   3.285   3.864   4.601
 6492SOL    HW120375   3.375   3.868   4.643
 6492SOL    HW220376   3.233   3.789   4.641
 6493SOL     OW20377   1.014   3.930   5.654
 6493SOL    HW120378   1.108   3.963   5.665
 6493SOL    HW220379   0.990   3.927   5.557
 6494SOL     OW20380   5.716   0.127   1.730
 6494SOL    HW120381   5.774   0.170   1.661
 6494SOL    HW220382   5.754   0.144   1.821
 6495SOL     OW20383   6.311   0.045   3.844
 6495SOL    HW120384   6.225   0.095   3.833
 6495SOL    HW220385   6.360   0.044   3.757
 6496SOL     OW20386   4.066   0.972   1.439
 6496SOL    HW120387   4.026   1.028   1.511
 6496SOL    HW220388   4.096   1.031   1.364
 6497SOL     OW20389   0.113   1.342   1.005
 6497SOL    HW120390   0.146   1.394   0.926
 6497SOL    HW220391   0.189   1.328   1.068
 6498SOL     OW20392   1.088   4.149   4.442
 6498SOL    HW120393   0.990   4.130   4.449
 6498SOL    HW220394   1.114   4.217   4.510
 6499SOL     OW20395   5.318   3.126   3.584
 6499SOL    HW120396   5.264   3.122   3.500
 6499SOL    HW220397   5.270   3.077   3.657
 6500SOL     OW20398   1.639   4.009   3.042
 6500SOL    HW120399   1.547   3.997   3.007
 6500SOL    HW220400   1.635   4.030   3.140
 6501SOL     OW20401   6.013   2.102   0.804
 6501SOL    HW120402   6.101   2.087   0.759
 6501SOL    HW220403   6.017   2.186   0.859
 6502SOL     OW20404   6.527   3.842   1.888
 6502SOL    HW120405   6.468   3.864   1.966
 6502SOL    HW220406   6.476   3.853   1.803
 6503SOL     OW20407   6.581   3.177   5.828
 6503SOL    HW120408   6.558   3.107   5.760
 6503SOL    HW220409   6.547   3.266   5.797
 6504SOL     OW20410   4.673   6.245   6.706
 6504SOL    HW120411   4.611   6.191   6.763
 6504SOL    HW220412   4.635   6.337   6.693
 6505SOL     OW20413   6.515   5.787   0.835
 6505SOL    HW120414   6.499   5.883   0.858
 6505SOL    HW220415   6.597   5.780   0.778
 6506SOL     OW20416   0.309   3.831   2.306
 6506SOL    HW120417   0.262   3.841   2.393
 6506SOL    HW220418   0.254   3.871   2.233
 6507SOL     OW20419   4.123   4.304   6.947
 6507SOL    HW120420   4.155   4.211   6.926
 6507SOL    HW220421   4.092   4.348   6.863
 6508SOL     OW20422   0.676   6.692   2.172
 6508SOL    HW120423   0.682   6.594   2.156
 6508SOL    HW220424   0.768   6.731   2.180
 6509SOL     OW20425   2.923   1.490   6.265
 6509SOL    HW120426   2.914   1.588   6.285
 6509SOL    HW220427   2.844   1.459   6.212
 6510SOL     OW20428   4.379   5.481   5.847
 6510SOL    HW120429   4.451   5.508   5.783
 6510SOL    HW220430   4.385   5.537   5.930
 6511SOL     OW20431   3.047   0.796   0.185
 6511SOL    HW120432   3.002   0.867   0.131
 6511SOL    HW220433   3.020   0.804   0.280
 6512SOL     OW20434   4.072   1.062   0.656
 6512SOL    HW120435   4.156   1.065   0.710
 6512SOL    HW220436   4.059   1.149   0.609
 6513SOL     OW20437   2.188   5.354   3.401
 6513SOL    HW120438   2.275   5.399   3.382
 6513SOL    HW220439   2.114   5.422   3.397
 6514SOL     OW20440   5.859   6.856   5.750
 6514SOL    HW120441   5.835   6.835   5.655
 6514SOL    HW220442   5.776   6.863   5.805
 6515SOL     OW20443   2.114   4.817   1.830
 6515SOL    HW120444   2.148   4.911   1.819
 6515SOL    HW220445   2.190   4.753   1.822
 6516SOL     OW20446   6.841   3.513   1.603
 6516SOL    HW120447   6.927   3.483   1.562
 6516SOL    HW220448   6.766   3.495   1.540
 6517SOL     OW20449   6.979   3.075   0.452
 6517SOL    HW120450   6.952   2.981   0.432
 6517SOL    HW220451   6.904   3.122   0.497
 6518SOL     OW20452   0.900   1.764   3.166
 6518SOL    HW120453   0.827   1.800   3.224
 6518SOL    HW220454   0.901   1.812   3.079
 6519SOL     OW20455   0.633   1.658   2.840
 6519SOL    HW120456   0.678   1.744   2.864
 6519SOL    HW220457   0.659   1.631   2.748
 6520SOL     OW20458   0.452   5.605   7.006
 6520SOL    HW120459   0.472   5.559   0.074
 6520SOL    HW220460   0.457   5.704   0.001
 6521SOL     OW20461   1.233   3.855   4.138
 6521SOL    HW120462   1.316   3.812   4.102
 6521SOL    HW220463   1.212   3.817   4.228
 6522SOL     OW20464   2.774   3.306   5.215
 6522SOL    HW120465   2.795   3.307   5.312
 6522SOL    HW220466   2.760   3.212   5.185
 6523SOL     OW20467   5.874   0.124   6.847
 6523SOL    HW120468   5.879   0.027   6.823
 6523SOL    HW220469   5.904   0.180   6.771
 6524SOL     OW20470   2.294   2.409   2.099
 6524SOL    HW120471   2.391   2.411   2.126
 6524SOL    HW220472   2.280   2.338   2.030
 6525SOL     OW20473   1.030   4.977   3.351
 6525SOL    HW120474   1.042   4.978   3.451
 6525SOL    HW220475   1.054   4.886   3.316
 6526SOL     OW20476   0.401   7.012   0.685
 6526SOL    HW120477   0.433   0.062   0.751
 6526SOL    HW220478   0.304   6.993   0.700
 6527SOL     OW20479   0.486   2.399   0.541
 6527SOL    HW120480   0.487   2.299   0.532
 6527SOL    HW220481   0.399   2.434   0.506
 6528SOL     OW20482   5.276   0.552   6.335
 6528SOL    HW120483   5.323   0.598   6.410
 6528SOL    HW220484   5.304   0.594   6.248
 6529SOL     OW20485   6.713   0.987   2.136
 6529SOL    HW120486   6.705   0.980   2.037
 6529SOL    HW220487   6.773   0.914   2.170
 6530SOL     OW20488   1.434   2.933   2.491
 6530SOL    HW120489   1.381   2.900   2.413
 6530SOL    HW220490   1.381   2.921   2.575
 6531SOL     OW20491   4.172   3.840   5.312
 6531SOL    HW120492   4.261   3.885   5.308
 6531SOL    HW220493   4.140   3.820   5.219
 6532SOL     OW20494   1.426   0.778   1.019
 6532SOL    HW120495   1.406   0.713   0.945
 6532SOL    HW220496   1.430   0.871   0.982
 6533SOL     OW20497   5.015   3.910   0.520
 6533SOL    HW120498   5.070   3.966   0.582
 6533SOL    HW220499   4.973   3.968   0.451
 6534SOL     OW20500   0.072   4.428   3.167
 6534SOL    HW120501   0.017   4.346   3.183
 6534SOL    HW220502   0.133   4.412   3.090
 6535SOL     OW20503   6.412   3.104   5.460
 6535SOL    HW120504   6.470   3.178   5.424
 6535SOL    HW220505   6.466   3.045   5.519
 6536SOL     OW20506   1.135   3.742   4.881
 6536SOL    HW120507   1.121   3.788   4.794
 6536SOL    HW220508   1.118   3.644   4.870
 6537SOL     OW20509   5.911   5.324   4.050
 6537SOL    HW120510   5.843   5.388   4.085
 6537SOL    HW220511   5.990   5.374   4.015
 6538SOL     OW20512   2.780   3.354   5.497
 6538SOL    HW120513   2.692   3.343   5.543
 6538SOL    HW220514   2.852   3.361   5.566
 6539SOL     OW20515   5.652   1.196   5.284
 6539SOL    HW120516   5.657   1.199   5.383
 6539SOL    HW220517   5.654   1.102   5.252
 6540SOL     OW20518   5.352   2.351   5.884
 6540SOL    HW120519   5.307   2.434   5.915
 6540SOL    HW220520   5.360   2.353   5.784
 6541SOL     OW20521   5.685   0.863   4.782
 6541SOL    HW120522   5.607   0.805   4.808
 6541SOL    HW220523   5.699   0.856   4.683
 6542SOL     OW20524   1.612   4.187   3.708
 6542SOL    HW120525   1.687   4.243   3.744
 6542SOL    HW220526   1.529   4.242   3.701
 6543SOL     OW20527   3.952   2.103   5.037
 6543SOL    HW120528   4.036   2.153   5.017
 6543SOL    HW220529   3.973   2.008   5.057
 6544SOL     OW20530   1.245   6.485   1.542
 6544SOL    HW120531   1.158   6.472   1.590
 6544SOL    HW220532   1.314   6.519   1.606
 6545SOL     OW20533   4.652   0.041   0.517
 6545SOL    HW120534   4.624   6.994   0.447
 6545SOL    HW220535   4.616   0.011   0.606
 6546SOL     OW20536   5.072   3.490   6.397
 6546SOL    HW120537   5.044   3.420   6.462
 6546SOL    HW220538   5.156   3.534   6.430
 6547SOL     OW20539   5.979   5.436   0.167
 6547SOL    HW120540   5.975   5.381   0.251
 6547SOL    HW220541   5.980   5.533   0.191
 6548SOL     OW20542   0.421   1.964   5.469
 6548SOL    HW120543   0.376   1.922   5.390
 6548SOL    HW220544   0.353   1.981   5.541
 6549SOL     OW20545   4.815   0.249   1.316
 6549SOL    HW120546   4.864   0.280   1.398
 6549SOL    HW220547   4.763   0.167   1.336
 6550SOL     OW20548   6.254   0.218   3.050
 6550SOL    HW120549   6.220   0.283   2.982
 6550SOL    HW220550   6.211   0.236   3.138
 6551SOL     OW20551   2.960   3.868   0.810
 6551SOL    HW120552   3.016   3.819   0.877
 6551SOL    HW220553   2.866   3.835   0.814
 6552SOL     OW20554   2.689   6.360   0.545
 6552SOL    HW120555   2.604   6.326   0.505
 6552SOL    HW220556   2.766   6.335   0.487
 6553SOL     OW20557   0.143   1.726   3.554
 6553SOL    HW120558   0.062   1.671   3.573
 6553SOL    HW220559   0.221   1.690   3.607
 6554SOL     OW20560   2.885   1.293   4.869
 6554SOL    HW120561   2.861   1.340   4.784
 6554SOL    HW220562   2.823   1.216   4.883
 6555SOL     OW20563   7.006   3.490   4.080
 6555SOL    HW120564   0.041   3.573   4.092
 6555SOL    HW220565   6.952   3.497   3.996
 6556SOL     OW20566   4.710   2.838   3.332
 6556SOL    HW120567   4.687   2.814   3.426
 6556SOL    HW220568   4.635   2.810   3.272
 6557SOL     OW20569   2.045   0.354   2.239
 6557SOL    HW120570   1.950   0.347   2.269
 6557SOL    HW220571   2.049   0.406   2.153
 6558SOL     OW20572   5.407   5.268   0.158
 6558SOL    HW120573   5.357   5.236   0.239
 6558SOL    HW220574   5.345   5.319   0.099
 6559SOL     OW20575   0.279   2.666   6.211
 6559SOL    HW120576   0.310   2.717   6.131
 6559SOL    HW220577   0.221   2.725   6.268
 6560SOL     OW20578   5.615   4.800   0.271
 6560SOL    HW120579   5.666   4.730   0.321
 6560SOL    HW220580   5.632   4.890   0.313
 6561SOL     OW20581   4.047   4.395   0.684
 6561SOL    HW120582   4.130   4.391   0.740
 6561SOL    HW220583   4.011   4.303   0.670
 6562SOL     OW20584   5.641   3.086   1.103
 6562SOL    HW120585   5.709   3.023   1.140
 6562SOL    HW220586   5.575   3.109   1.174
 6563SOL     OW20587   5.280   6.193   5.308
 6563SOL    HW120588   5.258   6.230   5.398
 6563SOL    HW220589   5.272   6.093   5.310
 6564SOL     OW20590   6.844   3.987   3.037
 6564SOL    HW120591   6.838   3.980   3.137
 6564SOL    HW220592   6.891   3.907   3.001
 6565SOL     OW20593   5.660   0.372   3.547
 6565SOL    HW120594   5.750   0.345   3.513
 6565SOL    HW220595   5.653   0.347   3.644
 6566SOL     OW20596   4.291   6.050   2.631
 6566SOL    HW120597   4.259   6.104   2.554
 6566SOL    HW220598   4.292   6.106   2.714
 6567SOL     OW20599   4.360   0.482   0.696
 6567SOL    HW120600   4.429   0.523   0.637
 6567SOL    HW220601   4.276   0.537   0.692
 6568SOL     OW20602   3.785   1.080   1.372
 6568SOL    HW120603   3.780   1.179   1.387
 6568SOL    HW220604   3.870   1.057   1.326
 6569SOL     OW20605   0.318   4.236   5.547
 6569SOL    HW120606   0.254   4.251   5.471
 6569SOL    HW220607   0.297   4.148   5.591
 6570SOL     OW20608   4.166   6.287   1.831
 6570SOL    HW120609   4.199   6.274   1.737
 6570SOL    HW220610   4.066   6.297   1.830
 6571SOL     OW20611   3.097   5.885   2.874
 6571SOL    HW120612   3.172   5.950   2.888
 6571SOL    HW220613   3.021   5.909   2.934
 6572SOL     OW20614   1.017   5.830   3.764
 6572SOL    HW120615   1.044   5.746   3.811
 6572SOL    HW220616   0.925   5.818   3.726
 6573SOL     OW20617   1.228   1.472   3.576
 6573SOL    HW120618   1.188   1.562   3.591
 6573SOL    HW220619   1.274   1.441   3.659
 6574SOL     OW20620   1.717   5.971   1.825
 6574SOL    HW120621   1.790   6.028   1.864
 6574SOL    HW220622   1.636   6.027   1.810
 6575SOL     OW20623   6.826   0.585   2.527
 6575SOL    HW120624   6.835   0.530   2.445
 6575SOL    HW220625   6.818   0.526   2.607
 6576SOL     OW20626   4.318   6.116   0.924
 6576SOL    HW120627   4.303   6.208   0.963
 6576SOL    HW220628   4.390   6.120   0.855
 6577SOL     OW20629   2.145   1.625   3.546
 6577SOL    HW120630   2.195   1.701   3.504
 6577SOL    HW220631   2.155   1.542   3.491
 6578SOL     OW20632   1.528   4.754   1.686
 6578SOL    HW120633   1.556   4.702   1.605
 6578SOL    HW220634   1.476   4.835   1.658
 6579SOL     OW20635   6.624   1.293   4.040
 6579SOL    HW120636   6.572   1.356   4.097
 6579SOL    HW220637   6.582   1.288   3.949
 6580SOL     OW20638   1.171   0.173   0.188
 6580SOL    HW120639   1.240   0.103   0.168
 6580SOL    HW220640   1.195   0.258   0.142
 6581SOL     OW20641   1.204   1.916   6.878
 6581SOL    HW120642   1.157   1.990   6.925
 6581SOL    HW220643   1.147   1.834   6.880
 6582SOL     OW20644   6.854   1.304   2.966
 6582SOL    HW120645   6.924   1.260   2.909
 6582SOL    HW220646   6.888   1.313   3.059
 6583SOL     OW20647   4.320   6.289   6.587
 6583SOL    HW120648   4.369   6.351   6.648
 6583SOL    HW220649   4.386   6.238   6.532
 6584SOL     OW20650   3.350   2.303   1.002
 6584SOL    HW120651   3.339   2.325   1.098
 6584SOL    HW220652   3.431   2.349   0.966
 6585SOL     OW20653   6.328   6.732   1.136
 6585SOL    HW120654   6.369   6.822   1.149
 6585SOL    HW220655   6.374   6.685   1.060
 6586SOL     OW20656   6.164   2.168   6.964
 6586SOL    HW120657   6.089   2.137   6.905
 6586SOL    HW220658   6.226   2.226   6.911
 6587SOL     OW20659   1.828   4.212   5.748
 6587SOL    HW120660   1.910   4.227   5.804
 6587SOL    HW220661   1.753   4.183   5.806
 6588SOL     OW20662   0.366   3.584   0.710
 6588SOL    HW120663   0.325   3.604   0.621
 6588SOL    HW220664   0.409   3.494   0.707
 6589SOL     OW20665   0.251   1.045   1.844
 6589SOL    HW120666   0.256   1.116   1.773
 6589SOL    HW220667   0.262   0.955   1.801
 6590SOL     OW20668   1.174   6.944   3.730
 6590SOL    HW120669   1.258   6.949   3.784
 6590SOL    HW220670   1.114   0.001   3.756
 6591SOL     OW20671   5.526   4.179   4.272
 6591SOL    HW120672   5.459   4.204   4.202
 6591SOL    HW220673   5.619   4.188   4.234
 6592SOL     OW20674   5.792   6.339   2.783
 6592SOL    HW120675   5.816   6.332   2.686
 6592SOL    HW220676   5.720   6.273   2.805
 6593SOL     OW20677   2.821   1.885   2.442
 6593SOL    HW120678   2.743   1.861   2.385
 6593SOL    HW220679   2.851   1.805   2.494
 6594SOL     OW20680   4.746   1.569   6.663
 6594SOL    HW120681   4.825   1.518   6.697
 6594SOL    HW220682   4.673   1.565   6.731
 6595SOL     OW20683   1.437   2.230   5.182
 6595SOL    HW120684   1.382   2.309   5.209
 6595SOL    HW220685   1.503   2.210   5.255
 6596SOL     OW20686   5.670   6.047   2.468
 6596SOL    HW120687   5.653   6.061   2.371
 6596SOL    HW220688   5.755   5.996   2.480
 6597SOL     OW20689   1.559   5.086   1.943
 6597SOL    HW120690   1.578   5.145   2.021
 6597SOL    HW220691   1.576   4.991   1.968
 6598SOL     OW20692   2.151   4.741   4.785
 6598SOL    HW120693   2.196   4.753   4.697
 6598SOL    HW220694   2.133   4.644   4.801
 6599SOL     OW20695   6.139   5.553   6.500
 6599SOL    HW120696   6.129   5.482   6.570
 6599SOL    HW220697   6.226   5.541   6.453
 6600SOL     OW20698   4.639   6.842   4.841
 6600SOL    HW120699   4.671   6.831   4.747
 6600SOL    HW220700   4.591   6.930   4.850
 6601SOL     OW20701   1.453   2.242   1.829
 6601SOL    HW120702   1.425   2.192   1.747
 6601SOL    HW220703   1.547   2.274   1.818
 6602SOL     OW20704   2.457   6.209   1.792
 6602SOL    HW120705   2.522   6.219   1.716
 6602SOL    HW220706   2.370   6.252   1.768
 6603SOL     OW20707   0.182   2.968   3.089
 6603SOL    HW120708   0.252   3.039   3.095
 6603SOL    HW220709   0.205   2.893   3.151
 6604SOL     OW20710   1.941   6.251   2.531
 6604SOL    HW120711   1.888   6.264   2.447
 6604SOL    HW220712   1.961   6.341   2.571
 6605SOL     OW20713   0.042   5.487   1.348
 6605SOL    HW120714   0.062   5.491   1.250
 6605SOL    HW220715   0.004   5.575   1.378
 6606SOL     OW20716   1.857   3.783   3.260
 6606SOL    HW120717   1.830   3.771   3.355
 6606SOL    HW220718   1.931   3.850   3.254
 6607SOL     OW20719   5.758   3.959   3.657
 6607SOL    HW120720   5.853   3.932   3.674
 6607SOL    HW220721   5.696   3.896   3.703
 6608SOL     OW20722   0.338   6.212   5.678
 6608SOL    HW120723   0.311   6.234   5.584
 6608SOL    HW220724   0.437   6.196   5.681
 6609SOL     OW20725   4.346   2.034   6.082
 6609SOL    HW120726   4.370   1.940   6.056
 6609SOL    HW220727   4.364   2.095   6.005
 6610SOL     OW20728   2.900   5.048   1.125
 6610SOL    HW120729   2.845   5.129   1.106
 6610SOL    HW220730   2.979   5.072   1.180
 6611SOL     OW20731   4.470   1.335   4.398
 6611SOL    HW120732   4.386   1.382   4.425
 6611SOL    HW220733   4.449   1.264   4.331
 6612SOL     OW20734   5.984   1.741   5.992
 6612SOL    HW120735   6.060   1.676   6.003
 6612SOL    HW220736   5.900   1.699   6.026
 6613SOL     OW20737   5.183   0.024   6.735
 6613SOL    HW120738   5.242   6.978   6.784
 6613SOL    HW220739   5.190   0.008   6.637
 6614SOL     OW20740   4.344   5.888   1.425
 6614SOL    HW120741   4.428   5.849   1.386
 6614SOL    HW220742   4.265   5.836   1.393
 6615SOL     OW20743   3.096   4.902   0.090
 6615SOL    HW120744   3.181   4.939   0.053
 6615SOL    HW220745   3.105   4.803   0.102
 6616SOL     OW20746   4.763   1.323   5.496
 6616SOL    HW120747   4.668   1.296   5.506
 6616SOL    HW220748   4.786   1.390   5.567
 6617SOL     OW20749   3.797   0.516   4.015
 6617SOL    HW120750   3.788   0.556   4.106
 6617SOL    HW220751   3.764   0.422   4.017
 6618SOL     OW20752   6.650   2.217   2.318
 6618SOL    HW120753   6.607   2.278   2.385
 6618SOL    HW220754   6.580   2.181   2.256
 6619SOL     OW20755   5.011   6.528   3.841
 6619SOL    HW120756   5.069   6.597   3.797
 6619SOL    HW220757   4.962   6.475   3.772
 6620SOL     OW20758   0.604   3.074   3.314
 6620SOL    HW120759   0.597   3.000   3.381
 6620SOL    HW220760   0.638   3.038   3.227
 6621SOL     OW20761   3.690   2.967   4.770
 6621SOL    HW120762   3.639   2.945   4.687
 6621SOL    HW220763   3.721   3.062   4.767
 6622SOL     OW20764   0.498   5.538   0.667
 6622SOL    HW120765   0.446   5.605   0.614
 6622SOL    HW220766   0.436   5.466   0.700
 6623SOL     OW20767   3.417   4.211   5.606
 6623SOL    HW120768   3.352   4.287   5.610
 6623SOL    HW220769   3.469   4.216   5.521
 6624SOL     OW20770   1.192   2.214   4.137
 6624SOL    HW120771   1.220   2.242   4.046
 6624SOL    HW220772   1.154   2.293   4.186
 6625SOL     OW20773   5.905   2.720   5.494
 6625SOL    HW120774   5.916   2.677   5.583
 6625SOL    HW220775   5.856   2.807   5.504
 6626SOL     OW20776   2.309   6.395   5.118
 6626SOL    HW120777   2.393   6.350   5.150
 6626SOL    HW220778   2.271   6.344   5.041
 6627SOL     OW20779   1.997   5.714   4.358
 6627SOL    HW120780   1.994   5.615   4.376
 6627SOL    HW220781   1.960   5.733   4.267
 6628SOL     OW20782   4.421   5.974   3.799
 6628SOL    HW120783   4.322   5.968   3.815
 6628SOL    HW220784   4.465   6.013   3.880
 6629SOL     OW20785   5.541   6.000   6.868
 6629SOL    HW120786   5.573   5.920   6.919
 6629SOL    HW220787   5.600   6.079   6.889
 6630SOL     OW20788   2.270   1.609   1.372
 6630SOL    HW120789   2.178   1.594   1.408
 6630SOL    HW220790   2.266   1.610   1.272
 6631SOL     OW20791   2.254   4.676   6.411
 6631SOL    HW120792   2.233   4.671   6.313
 6631SOL    HW220793   2.348   4.707   6.424
 6632SOL     OW20794   1.445   0.973   0.680
 6632SOL    HW120795   1.361   0.920   0.668
 6632SOL    HW220796   1.450   1.007   0.774
 6633SOL     OW20797   3.583   5.781   6.422
 6633SOL    HW120798   3.570   5.699   6.367
 6633SOL    HW220799   3.540   5.769   6.512
 6634SOL     OW20800   4.351   2.399   4.760
 6634SOL    HW120801   4.413   2.473   4.785
 6634SOL    HW220802   4.276   2.395   4.826
 6635SOL     OW20803   5.282   4.832   2.792
 6635SOL    HW120804   5.296   4.736   2.767
 6635SOL    HW220805   5.185   4.855   2.782
 6636SOL     OW20806   3.488   6.976   1.109
 6636SOL    HW120807   3.454   6.883   1.095
 6636SOL    HW220808   3.587   6.973   1.124
 6637SOL     OW20809   1.453   1.322   0.875
 6637SOL    HW120810   1.548   1.315   0.908
 6637SOL    HW220811   1.437   1.414   0.840
 6638SOL     OW20812   2.901   3.527   3.541
 6638SOL    HW120813   2.936   3.528   3.447
 6638SOL    HW220814   2.908   3.618   3.580
 6639SOL     OW20815   5.135   2.965   1.452
 6639SOL    HW120816   5.040   2.948   1.480
 6639SOL    HW220817   5.137   3.042   1.388
 6640SOL     OW20818   1.015   2.725   4.961
 6640SOL    HW120819   0.956   2.800   4.929
 6640SOL    HW220820   1.110   2.748   4.943
 6641SOL     OW20821   4.216   2.008   1.314
 6641SOL    HW120822   4.231   1.909   1.316
 6641SOL    HW220823   4.187   2.039   1.405
 6642SOL     OW20824   1.253   5.773   0.797
 6642SOL    HW120825   1.343   5.765   0.754
 6642SOL    HW220826   1.182   5.760   0.728
 6643SOL     OW20827   4.490   6.569   6.985
 6643SOL    HW120828   4.414   6.633   6.978
 6643SOL    HW220829   4.499   6.537   0.061
 6644SOL     OW20830   1.727   6.257   3.288
 6644SOL    HW120831   1.753   6.285   3.196
 6644SOL    HW220832   1.637   6.293   3.310
 6645SOL     OW20833   6.471   2.813   0.696
 6645SOL    HW120834   6.473   2.812   0.796
 6645SOL    HW220835   6.452   2.721   0.662
 6646SOL     OW20836   4.690   0.326   6.377
 6646SOL    HW120837   4.665   0.354   6.284
 6646SOL    HW220838   4.727   0.405   6.427
 6647SOL     OW20839   4.705   5.137   0.952
 6647SOL    HW120840   4.733   5.043   0.972
 6647SOL    HW220841   4.607   5.146   0.970
 6648SOL     OW20842   2.518   6.286   5.481
 6648SOL    HW120843   2.529   6.378   5.519
 6648SOL    HW220844   2.441   6.240   5.526
 6649SOL     OW20845   6.063   2.372   0.131
 6649SOL    HW120846   6.083   2.462   0.091
 6649SOL    HW220847   6.115   2.302   0.084
 6650SOL     OW20848   2.811   1.109   5.231
 6650SOL    HW120849   2.789   1.180   5.297
 6650SOL    HW220850   2.808   1.019   5.276
 6651SOL     OW20851   0.014   2.069   6.695
 6651SOL    HW120852   0.027   2.031   6.603
 6651SOL    HW220853   0.068   2.015   6.760
 6652SOL     OW20854   0.954   4.597   0.196
 6652SOL    HW120855   0.974   4.686   0.235
 6652SOL    HW220856   0.864   4.566   0.227
 6653SOL     OW20857   5.269   3.572   0.557
 6653SOL    HW120858   5.234   3.664   0.573
 6653SOL    HW220859   5.196   3.505   0.573
 6654SOL     OW20860   0.386   4.389   3.343
 6654SOL    HW120861   0.394   4.464   3.277
 6654SOL    HW220862   0.454   4.319   3.322
 6655SOL     OW20863   6.713   5.532   1.678
 6655SOL    HW120864   6.751   5.499   1.591
 6655SOL    HW220865   6.719   5.459   1.746
 6656SOL     OW20866   3.829   1.139   2.937
 6656SOL    HW120867   3.767   1.123   2.860
 6656SOL    HW220868   3.778   1.182   3.012
 6657SOL     OW20869   5.564   1.888   3.937
 6657SOL    HW120870   5.594   1.929   4.023
 6657SOL    HW220871   5.519   1.958   3.881
 6658SOL     OW20872   6.135   6.391   4.988
 6658SOL    HW120873   6.067   6.346   4.930
 6658SOL    HW220874   6.114   6.488   4.996
 6659SOL     OW20875   1.477   5.571   1.943
 6659SOL    HW120876   1.424   5.540   2.022
 6659SOL    HW220877   1.506   5.666   1.957
 6660SOL     OW20878   0.193   6.434   3.558
 6660SOL    HW120879   0.182   6.338   3.533
 6660SOL    HW220880   0.133   6.490   3.501
 6661SOL     OW20881   3.756   6.932   4.262
 6661SOL    HW120882   3.849   6.945   4.295
 6661SOL    HW220883   3.757   6.899   4.168
 6662SOL     OW20884   2.930   6.578   2.037
 6662SOL    HW120885   2.878   6.511   1.985
 6662SOL    HW220886   3.027   6.567   2.017
 6663SOL     OW20887   1.382   3.907   6.000
 6663SOL    HW120888   1.453   3.860   6.053
 6663SOL    HW220889   1.296   3.905   6.049
 6664SOL     OW20890   3.018   0.670   1.548
 6664SOL    HW120891   3.004   0.643   1.453
 6664SOL    HW220892   3.114   0.655   1.573
 6665SOL     OW20893   2.394   0.667   5.672
 6665SOL    HW120894   2.398   0.567   5.666
 6665SOL    HW220895   2.336   0.693   5.749
 6666SOL     OW20896   4.800   6.531   5.054
 6666SOL    HW120897   4.787   6.627   5.079
 6666SOL    HW220898   4.855   6.485   5.124
 6667SOL     OW20899   0.390   6.107   6.370
 6667SOL    HW120900   0.482   6.077   6.343
 6667SOL    HW220901   0.360   6.055   6.450
 6668SOL     OW20902   6.996   5.784   0.486
 6668SOL    HW120903   0.021   5.851   0.427
 6668SOL    HW220904   6.951   5.830   0.563
 6669SOL     OW20905   1.239   1.381   3.041
 6669SOL    HW120906   1.283   1.365   3.130
 6669SOL    HW220907   1.186   1.301   3.015
 6670SOL     OW20908   3.974   2.201   1.007
 6670SOL    HW120909   3.908   2.217   0.934
 6670SOL    HW220910   3.950   2.257   1.086
 6671SOL     OW20911   5.096   5.772   0.204
 6671SOL    HW120912   5.107   5.772   0.104
 6671SOL    HW220913   5.154   5.845   0.242
 6672SOL     OW20914   1.412   1.867   1.085
 6672SOL    HW120915   1.446   1.773   1.081
 6672SOL    HW220916   1.313   1.866   1.076
 6673SOL     OW20917   5.632   3.950   4.386
 6673SOL    HW120918   5.572   3.902   4.450
 6673SOL    HW220919   5.598   4.042   4.370
 6674SOL     OW20920   0.228   2.728   0.219
 6674SOL    HW120921   0.325   2.712   0.239
 6674SOL    HW220922   0.202   2.674   0.138
 6675SOL     OW20923   4.981   2.722   6.580
 6675SOL    HW120924   4.933   2.727   6.667
 6675SOL    HW220925   4.915   2.717   6.505
 6676SOL     OW20926   1.395   3.774   3.909
 6676SOL    HW120927   1.425   3.735   3.822
 6676SOL    HW220928   1.466   3.835   3.945
 6677SOL     OW20929   0.381   2.150   0.543
 6677SOL    HW120930   0.300   2.125   0.489
 6677SOL    HW220931   0.355   2.159   0.640
 6678SOL     OW20932   1.722   4.824   0.188
 6678SOL    HW120933   1.733   4.797   0.093
 6678SOL    HW220934   1.681   4.749   0.240
 6679SOL     OW20935   1.890   1.439   3.615
 6679SOL    HW120936   1.820   1.494   3.569
 6679SOL    HW220937   1.886   1.456   3.714
 6680SOL     OW20938   5.530   6.566   0.698
 6680SOL    HW120939   5.492   6.484   0.655
 6680SOL    HW220940   5.503   6.646   0.646
 6681SOL     OW20941   3.645   5.776   1.412
 6681SOL    HW120942   3.656   5.876   1.406
 6681SOL    HW220943   3.625   5.751   1.507
 6682SOL     OW20944   3.205   5.426   6.690
 6682SOL    HW120945   3.294   5.425   6.736
 6682SOL    HW220946   3.197   5.509   6.635
 6683SOL     OW20947   6.307   3.540   6.666
 6683SOL    HW120948   6.224   3.509   6.714
 6683SOL    HW220949   6.312   3.496   6.577
 6684SOL     OW20950   3.303   6.568   1.340
 6684SOL    HW120951   3.274   6.664   1.342
 6684SOL    HW220952   3.300   6.534   1.246
 6685SOL     OW20953   4.442   3.887   6.812
 6685SOL    HW120954   4.428   3.788   6.812
 6685SOL    HW220955   4.453   3.918   6.717
 6686SOL     OW20956   5.361   5.667   3.635
 6686SOL    HW120957   5.312   5.745   3.595
 6686SOL    HW220958   5.410   5.697   3.717
 6687SOL     OW20959   6.483   2.256   1.517
 6687SOL    HW120960   6.415   2.243   1.589
 6687SOL    HW220961   6.557   2.313   1.551
 6688SOL     OW20962   3.760   5.516   0.739
 6688SOL    HW120963   3.719   5.608   0.732
 6688SOL    HW220964   3.804   5.493   0.653
 6689SOL     OW20965   2.565   5.265   5.969
 6689SOL    HW120966   2.516   5.180   5.986
 6689SOL    HW220967   2.636   5.249   5.900
 6690SOL     OW20968   1.024   0.129   5.939
 6690SOL    HW120969   1.083   0.056   5.973
 6690SOL    HW220970   0.931   0.116   5.975
 6691SOL     OW20971   2.480   2.633   2.954
 6691SOL    HW120972   2.510   2.622   2.859
 6691SOL    HW220973   2.433   2.721   2.964
 6692SOL     OW20974   5.022   5.004   1.290
 6692SOL    HW120975   5.000   5.048   1.377
 6692SOL    HW220976   4.961   4.926   1.275
 6693SOL     OW20977   4.027   1.680   4.672
 6693SOL    HW120978   4.117   1.713   4.643
 6693SOL    HW220979   4.037   1.618   4.750
 6694SOL     OW20980   3.951   5.195   0.506
 6694SOL    HW120981   4.004   5.111   0.500
 6694SOL    HW220982   3.861   5.175   0.544
 6695SOL     OW20983   2.790   2.199   6.481
 6695SOL    HW120984   2.775   2.292   6.512
 6695SOL    HW220985   2.856   2.154   6.541
 6696SOL     OW20986   4.012   3.960   4.403
 6696SOL    HW120987   3.979   3.941   4.311
 6696SOL    HW220988   4.069   4.042   4.402
 6697SOL     OW20989   4.606   2.643   2.495
 6697SOL    HW120990   4.679   2.577   2.483
 6697SOL    HW220991   4.517   2.599   2.478
 6698SOL     OW20992   3.580   4.013   1.692
 6698SOL    HW120993   3.614   4.079   1.759
 6698SOL    HW220994   3.505   3.960   1.733
 6699SOL     OW20995   1.175   4.424   5.497
 6699SOL    HW120996   1.225   4.501   5.458
 6699SOL    HW220997   1.082   4.452   5.519
 6700SOL     OW20998   6.197   0.395   0.275
 6700SOL    HW120999   6.161   0.322   0.217
 6700SOL    HW221000   6.121   0.448   0.314
 6701SOL     OW21001   6.116   6.882   1.283
 6701SOL    HW121002   6.110   6.981   1.278
 6701SOL    HW221003   6.165   6.847   1.203
 6702SOL     OW21004   3.274   1.906   1.122
 6702SOL    HW121005   3.352   1.946   1.073
 6702SOL    HW221006   3.199   1.972   1.125
 6703SOL     OW21007   1.096   1.787   6.296
 6703SOL    HW121008   1.055   1.875   6.319
 6703SOL    HW221009   1.105   1.781   6.196
 6704SOL     OW21010   3.546   1.146   5.430
 6704SOL    HW121011   3.564   1.118   5.525
 6704SOL    HW221012   3.474   1.215   5.429
 6705SOL     OW21013   6.297   3.505   2.014
 6705SOL    HW121014   6.288   3.478   1.918
 6705SOL    HW221015   6.387   3.547   2.028
 6706SOL     OW21016   6.992   6.502   2.012
 6706SOL    HW121017   6.976   6.593   1.973
 6706SOL    HW221018   6.939   6.434   1.961
 6707SOL     OW21019   5.812   0.770   2.297
 6707SOL    HW121020   5.735   0.783   2.359
 6707SOL    HW221021   5.781   0.722   2.215
 6708SOL     OW21022   0.207   4.126   1.689
 6708SOL    HW121023   0.298   4.085   1.688
 6708SOL    HW221024   0.143   4.065   1.642
 6709SOL     OW21025   1.273   5.033   2.453
 6709SOL    HW121026   1.329   4.992   2.380
 6709SOL    HW221027   1.212   5.101   2.414
 6710SOL     OW21028   4.779   1.426   1.601
 6710SOL    HW121029   4.847   1.362   1.637
 6710SOL    HW221030   4.745   1.393   1.514
 6711SOL     OW21031   4.243   6.141   6.206
 6711SOL    HW121032   4.243   6.053   6.157
 6711SOL    HW221033   4.268   6.125   6.302
 6712SOL     OW21034   6.172   3.583   1.028
 6712SOL    HW121035   6.151   3.485   1.029
 6712SOL    HW221036   6.088   3.634   1.006
 6713SOL     OW21037   1.838   0.070   4.425
 6713SOL    HW121038   1.759   0.099   4.479
 6713SOL    HW221039   1.917   0.127   4.448
 6714SOL     OW21040   5.856   1.185   0.139
 6714SOL    HW121041   5.858   1.091   0.170
 6714SOL    HW221042   5.948   1.214   0.113
 6715SOL     OW21043   1.529   0.149   0.479
 6715SOL    HW121044   1.433   0.152   0.450
 6715SOL    HW221045   1.540   0.079   0.550
 6716SOL     OW21046   6.779   5.086   2.197
 6716SOL    HW121047   6.712   5.026   2.153
 6716SOL    HW221048   6.761   5.089   2.295
 6717SOL     OW21049   4.147   2.889   6.467
 6717SOL    HW121050   4.190   2.966   6.421
 6717SOL    HW221051   4.098   2.833   6.401
 6718SOL     OW21052   2.952   6.985   2.256
 6718SOL    HW121053   2.998   0.043   2.299
 6718SOL    HW221054   3.005   6.901   2.269
 6719SOL     OW21055   2.003   0.613   0.046
 6719SOL    HW121056   1.937   0.671   7.017
 6719SOL    HW221057   1.969   0.519   0.049
 6720SOL     OW21058   2.218   0.658   5.872
 6720SOL    HW121059   2.206   0.559   5.880
 6720SOL    HW221060   2.228   0.698   5.963
 6721SOL     OW21061   0.393   1.453   0.773
 6721SOL    HW121062   0.464   1.394   0.735
 6721SOL    HW221063   0.304   1.425   0.738
 6722SOL     OW21064   6.328   3.297   0.273
 6722SOL    HW121065   6.356   3.204   0.295
 6722SOL    HW221066   6.253   3.295   0.208
 6723SOL     OW21067   1.664   1.967   6.590
 6723SOL    HW121068   1.692   1.874   6.615
 6723SOL    HW221069   1.565   1.975   6.600
 6724SOL     OW21070   2.172   3.594   5.844
 6724SOL    HW121071   2.098   3.638   5.794
 6724SOL    HW221072   2.206   3.515   5.793
 6725SOL     OW21073   5.940   2.989   3.371
 6725SOL    HW121074   6.033   2.954   3.383
 6725SOL    HW221075   5.874   2.915   3.385
 6726SOL     OW21076   0.012   1.001   5.627
 6726SOL    HW121077   6.993   0.925   5.680
 6726SOL    HW221078   0.089   0.969   5.571
 6727SOL     OW21079   1.062   4.639   5.892
 6727SOL    HW121080   1.048   4.543   5.868
 6727SOL    HW221081   1.160   4.657   5.902
 6728SOL     OW21082   3.880   2.086   3.830
 6728SOL    HW121083   3.813   2.013   3.827
 6728SOL    HW221084   3.857   2.149   3.904
 6729SOL     OW21085   5.146   1.796   1.069
 6729SOL    HW121086   5.186   1.885   1.091
 6729SOL    HW221087   5.069   1.808   1.007
 6730SOL     OW21088   0.972   0.900   1.461
 6730SOL    HW121089   1.018   0.861   1.381
 6730SOL    HW221090   0.894   0.843   1.486
 6731SOL     OW21091   3.419   6.460   0.141
 6731SOL    HW121092   3.370   6.411   0.214
 6731SOL    HW221093   3.451   6.394   0.073
 6732SOL     OW21094   5.969   5.442   4.417
 6732SOL    HW121095   5.922   5.523   4.382
 6732SOL    HW221096   6.059   5.435   4.374
 6733SOL     OW21097   3.721   5.152   6.458
 6733SOL    HW121098   3.801   5.211   6.470
 6733SOL    HW221099   3.710   5.129   6.362
 6734SOL     OW21100   5.339   1.258   4.990
 6734SOL    HW121101   5.366   1.178   4.936
 6734SOL    HW221102   5.275   1.230   5.062
 6735SOL     OW21103   6.296   3.329   3.450
 6735SOL    HW121104   6.280   3.318   3.352
 6735SOL    HW221105   6.282   3.241   3.496
 6736SOL     OW21106   3.368   3.868   1.043
 6736SOL    HW121107   3.341   3.795   1.106
 6736SOL    HW221108   3.379   3.830   0.951
 6737SOL     OW21109   1.421   3.001   1.218
 6737SOL    HW121110   1.390   2.906   1.225
 6737SOL    HW221111   1.471   3.014   1.133
 6738SOL     OW21112   2.080   5.722   3.095
 6738SOL    HW121113   2.179   5.736   3.106
 6738SOL    HW221114   2.052   5.752   3.003
 6739SOL     OW21115   0.017   0.313   4.267
 6739SOL    HW121116   7.014   0.226   4.222
 6739SOL    HW221117   6.983   0.321   4.352
 6740SOL     OW21118   6.527   6.655   4.156
 6740SOL    HW121119   6.607   6.615   4.201
 6740SOL    HW221120   6.518   6.751   4.182
 6741SOL     OW21121   4.584   2.051   5.580
 6741SOL    HW121122   4.586   2.018   5.485
 6741SOL    HW221123   4.666   2.105   5.598
 6742SOL     OW21124   5.475   4.999   3.441
 6742SOL    HW121125   5.430   4.975   3.528
 6742SOL    HW221126   5.564   4.954   3.438
 6743SOL     OW21127   4.055   3.961   0.392
 6743SOL    HW121128   4.090   4.053   0.376
 6743SOL    HW221129   4.132   3.898   0.405
 6744SOL     OW21130   6.488   5.341   6.077
 6744SOL    HW121131   6.521   5.269   6.015
 6744SOL    HW221132   6.555   5.415   6.080
 6745SOL     OW21133   0.018   6.401   4.218
 6745SOL    HW121134   0.022   6.499   4.241
 6745SOL    HW221135   0.050   6.348   4.297
 6746SOL     OW21136   1.349   1.181   2.738
 6746SOL    HW121137   1.385   1.102   2.689
 6746SOL    HW221138   1.422   1.247   2.754
 6747SOL     OW21139   1.573   6.817   6.811
 6747SOL    HW121140   1.546   6.890   6.749
 6747SOL    HW221141   1.672   6.803   6.806
 6748SOL     OW21142   2.257   1.872   4.013
 6748SOL    HW121143   2.330   1.815   4.051
 6748SOL    HW221144   2.210   1.920   4.086
 6749SOL     OW21145   3.470   4.444   0.716
 6749SOL    HW121146   3.488   4.391   0.633
 6749SOL    HW221147   3.436   4.535   0.692
 6750SOL     OW21148   3.020   2.114   4.646
 6750SOL    HW121149   3.005   2.023   4.607
 6750SOL    HW221150   3.117   2.125   4.668
 6751SOL     OW21151   4.178   6.940   3.438
 6751SOL    HW121152   4.146   6.846   3.427
 6751SOL    HW221153   4.260   6.941   3.496
 6752SOL     OW21154   1.709   6.222   2.790
 6752SOL    HW121155   1.624   6.188   2.750
 6752SOL    HW221156   1.779   6.150   2.785
 6753SOL     OW21157   3.629   2.698   5.259
 6753SOL    HW121158   3.609   2.793   5.283
 6753SOL    HW221159   3.545   2.653   5.230
 6754SOL     OW21160   6.232   1.470   1.227
 6754SOL    HW121161   6.226   1.371   1.242
 6754SOL    HW221162   6.283   1.513   1.301
 6755SOL     OW21163   2.728   4.853   0.343
 6755SOL    HW121164   2.745   4.878   0.247
 6755SOL    HW221165   2.815   4.828   0.386
 6756SOL     OW21166   2.135   2.317   5.611
 6756SOL    HW121167   2.172   2.229   5.580
 6756SOL    HW221168   2.113   2.311   5.708
 6757SOL     OW21169   3.672   0.630   0.442
 6757SOL    HW121170   3.597   0.593   0.387
 6757SOL    HW221171   3.635   0.675   0.523
 6758SOL     OW21172   5.771   2.846   1.328
 6758SOL    HW121173   5.800   2.817   1.420
 6758SOL    HW221174   5.828   2.801   1.260
 6759SOL     OW21175   0.142   3.535   3.156
 6759SOL    HW121176   0.103   3.483   3.232
 6759SOL    HW221177   0.185   3.473   3.091
 6760SOL     OW21178   5.293   3.074   3.142
 6760SOL    HW121179   5.301   3.058   3.044
 6760SOL    HW221180   5.275   3.171   3.159
 6761SOL     OW21181   4.904   2.033   4.575
 6761SOL    HW121182   4.951   1.947   4.594
 6761SOL    HW221183   4.811   2.029   4.610
 6762SOL     OW21184   6.486   5.703   3.558
 6762SOL    HW121185   6.492   5.615   3.606
 6762SOL    HW221186   6.391   5.721   3.533
 6763SOL     OW21187   4.555   5.185   4.923
 6763SOL    HW121188   4.480   5.251   4.925
 6763SOL    HW221189   4.629   5.217   4.984
 6764SOL     OW21190   1.538   5.822   2.050
 6764SOL    HW121191   1.505   5.906   2.093
 6764SOL    HW221192   1.607   5.779   2.108
 6765SOL     OW21193   6.217   4.843   3.275
 6765SOL    HW121194   6.232   4.745   3.266
 6765SOL    HW221195   6.276   4.880   3.346
 6766SOL     OW21196   4.860   6.066   0.742
 6766SOL    HW121197   4.791   5.995   0.755
 6766SOL    HW221198   4.860   6.096   0.647
 6767SOL     OW21199   2.614   0.696   0.521
 6767SOL    HW121200   2.560   0.777   0.544
 6767SOL    HW221201   2.674   0.673   0.598
 6768SOL     OW21202   2.077   0.926   0.215
 6768SOL    HW121203   2.070   0.828   0.197
 6768SOL    HW221204   2.031   0.976   0.142
 6769SOL     OW21205   3.707   2.497   1.126
 6769SOL    HW121206   3.666   2.448   1.049
 6769SOL    HW221207   3.797   2.531   1.100
 6770SOL     OW21208   6.988   0.883   1.713
 6770SOL    HW121209   6.948   0.911   1.626
 6770SOL    HW221210   0.005   0.963   1.762
 6771SOL     OW21211   4.308   2.007   2.756
 6771SOL    HW121212   4.382   2.063   2.794
 6771SOL    HW221213   4.241   1.988   2.827
 6772SOL     OW21214   3.130   1.617   2.652
 6772SOL    HW121215   3.032   1.624   2.633
 6772SOL    HW221216   3.155   1.686   2.720
 6773SOL     OW21217   6.836   3.709   1.789
 6773SOL    HW121218   6.740   3.739   1.793
 6773SOL    HW221219   6.843   3.626   1.733
 6774SOL     OW21220   0.679   2.864   6.594
 6774SOL    HW121221   0.611   2.791   6.586
 6774SOL    HW221222   0.651   2.942   6.539
 6775SOL     OW21223   3.096   3.694   0.979
 6775SOL    HW121224   3.091   3.643   0.893
 6775SOL    HW221225   3.100   3.630   1.056
 6776SOL     OW21226   4.792   4.436   0.372
 6776SOL    HW121227   4.713   4.376   0.387
 6776SOL    HW221228   4.825   4.424   0.279
 6777SOL     OW21229   4.075   4.699   6.245
 6777SOL    HW121230   4.059   4.605   6.273
 6777SOL    HW221231   4.147   4.739   6.301
 6778SOL     OW21232   0.712   4.305   2.347
 6778SOL    HW121233   0.673   4.240   2.281
 6778SOL    HW221234   0.655   4.307   2.429
 6779SOL     OW21235   6.567   4.358   0.177
 6779SOL    HW121236   6.593   4.275   0.128
 6779SOL    HW221237   6.469   4.356   0.197
 6780SOL     OW21238   0.776   2.159   2.777
 6780SOL    HW121239   0.749   2.234   2.838
 6780SOL    HW221240   0.740   2.175   2.685
 6781SOL     OW21241   5.364   6.376   5.532
 6781SOL    HW121242   5.435   6.358   5.464
 6781SOL    HW221243   5.293   6.434   5.491
 6782SOL     OW21244   0.459   1.363   2.315
 6782SOL    HW121245   0.386   1.370   2.383
 6782SOL    HW221246   0.536   1.312   2.354
 6783SOL     OW21247   0.161   6.224   5.888
 6783SOL    HW121248   0.173   6.322   5.906
 6783SOL    HW221249   0.206   6.200   5.802
 6784SOL     OW21250   3.821   3.984   6.842
 6784SOL    HW121251   3.872   3.907   6.879
 6784SOL    HW221252   3.860   4.012   6.754
 6785SOL     OW21253   5.815   4.860   2.104
 6785SOL    HW121254   5.738   4.920   2.084
 6785SOL    HW221255   5.901   4.912   2.096
 6786SOL     OW21256   1.386   2.290   6.818
 6786SOL    HW121257   1.408   2.388   6.815
 6786SOL    HW221258   1.363   2.259   6.726
 6787SOL     OW21259   1.944   3.848   1.121
 6787SOL    HW121260   1.928   3.896   1.207
 6787SOL    HW221261   1.962   3.914   1.048
 6788SOL     OW21262   2.727   3.959   1.676
 6788SOL    HW121263   2.804   3.904   1.709
 6788SOL    HW221264   2.676   3.907   1.607
 6789SOL     OW21265   6.892   6.930   2.219
 6789SOL    HW121266   6.910   6.988   2.298
 6789SOL    HW221267   6.977   6.910   2.171
 6790SOL     OW21268   2.259   3.522   0.337
 6790SOL    HW121269   2.212   3.546   0.421
 6790SOL    HW221270   2.330   3.454   0.356
 6791SOL     OW21271   4.433   2.314   0.858
 6791SOL    HW121272   4.382   2.330   0.943
 6791SOL    HW221273   4.488   2.395   0.837
 6792SOL     OW21274   6.556   5.818   6.267
 6792SOL    HW121275   6.480   5.760   6.294
 6792SOL    HW221276   6.620   5.827   6.344
 6793SOL     OW21277   0.850   2.063   0.397
 6793SOL    HW121278   0.937   2.113   0.395
 6793SOL    HW221279   0.796   2.094   0.474
 6794SOL     OW21280   5.115   0.888   4.123
 6794SOL    HW121281   5.127   0.802   4.172
 6794SOL    HW221282   5.027   0.929   4.148
 6795SOL     OW21283   2.782   5.559   0.590
 6795SOL    HW121284   2.712   5.624   0.619
 6795SOL    HW221285   2.752   5.513   0.507
 6796SOL     OW21286   5.904   1.277   2.373
 6796SOL    HW121287   5.835   1.257   2.303
 6796SOL    HW221288   5.873   1.242   2.461
 6797SOL     OW21289   5.260   3.588   2.181
 6797SOL    HW121290   5.181   3.545   2.138
 6797SOL    HW221291   5.245   3.594   2.280
 6798SOL     OW21292   5.553   5.236   2.914
 6798SOL    HW121293   5.476   5.198   2.862
 6798SOL    HW221294   5.537   5.222   3.011
 6799SOL     OW21295   5.191   5.654   0.578
 6799SOL    HW121296   5.289   5.656   0.597
 6799SOL    HW221297   5.147   5.736   0.615
 6800SOL     OW21298   2.134   4.323   0.489
 6800SOL    HW121299   2.179   4.235   0.479
 6800SOL    HW221300   2.057   4.330   0.425
 6801SOL     OW21301   1.560   1.356   2.238
 6801SOL    HW121302   1.537   1.328   2.145
 6801SOL    HW221303   1.504   1.305   2.303
 6802SOL     OW21304   2.330   5.811   0.926
 6802SOL    HW121305   2.393   5.745   0.968
 6802SOL    HW221306   2.244   5.811   0.977
 6803SOL     OW21307   4.700   2.395   6.390
 6803SOL    HW121308   4.778   2.410   6.450
 6803SOL    HW221309   4.701   2.301   6.356
 6804SOL     OW21310   2.218   6.158   3.280
 6804SOL    HW121311   2.270   6.073   3.291
 6804SOL    HW221312   2.280   6.233   3.259
 6805SOL     OW21313   5.598   6.606   4.644
 6805SOL    HW121314   5.514   6.561   4.612
 6805SOL    HW221315   5.573   6.686   4.698
 6806SOL     OW21316   4.777   1.213   4.231
 6806SOL    HW121317   4.748   1.224   4.327
 6806SOL    HW221318   4.840   1.287   4.207
 6807SOL     OW21319   2.496   3.082   0.064
 6807SOL    HW121320   2.442   3.088   0.148
 6807SOL    HW221321   2.527   3.174   0.038
 6808SOL     OW21322   0.824   3.007   5.299
 6808SOL    HW121323   0.808   3.009   5.398
 6808SOL    HW221324   0.742   2.975   5.252
 6809SOL     OW21325   1.605   4.599   0.072
 6809SOL    HW121326   1.576   4.535   0.143
 6809SOL    HW221327   1.561   4.575   7.004
 6810SOL     OW21328   1.196   0.673   1.971
 6810SOL    HW121329   1.285   0.661   2.016
 6810SOL    HW221330   1.167   0.768   1.980
 6811SOL     OW21331   6.029   4.277   0.429
 6811SOL    HW121332   6.121   4.243   0.446
 6811SOL    HW221333   6.027   4.328   0.343
 6812SOL     OW21334   4.102   3.387   3.332
 6812SOL    HW121335   4.194   3.368   3.367
 6812SOL    HW221336   4.045   3.306   3.343
 6813SOL     OW21337   5.148   1.806   1.504
 6813SOL    HW121338   5.118   1.718   1.543
 6813SOL    HW221339   5.113   1.881   1.560
 6814SOL     OW21340   3.355   2.862   1.171
 6814SOL    HW121341   3.384   2.893   1.262
 6814SOL    HW221342   3.429   2.811   1.128
 6815SOL     OW21343   3.014   6.738   1.423
 6815SOL    HW121344   2.942   6.804   1.398
 6815SOL    HW221345   3.081   6.732   1.350
 6816SOL     OW21346   6.229   5.198   6.936
 6816SOL    HW121347   6.203   5.294   6.951
 6816SOL    HW221348   6.326   5.187   6.960
 6817SOL     OW21349   6.330   1.612   5.404
 6817SOL    HW121350   6.252   1.669   5.377
 6817SOL    HW221351   6.375   1.653   5.483
 6818SOL     OW21352   3.499   6.299   1.761
 6818SOL    HW121353   3.424   6.351   1.719
 6818SOL    HW221354   3.519   6.336   1.851
 6819SOL     OW21355   2.858   0.936   3.528
 6819SOL    HW121356   2.828   0.894   3.443
 6819SOL    HW221357   2.913   1.017   3.508
 6820SOL     OW21358   0.996   4.590   3.603
 6820SOL    HW121359   0.954   4.563   3.690
 6820SOL    HW221360   1.044   4.511   3.564
 6821SOL     OW21361   2.383   2.097   5.116
 6821SOL    HW121362   2.446   2.071   5.189
 6821SOL    HW221363   2.431   2.093   5.028
 6822SOL     OW21364   5.596   1.482   6.003
 6822SOL    HW121365   5.661   1.409   5.980
 6822SOL    HW221366   5.506   1.459   5.965
 6823SOL     OW21367   3.694   3.781   3.965
 6823SOL    HW121368   3.745   3.776   3.878
 6823SOL    HW221369   3.648   3.693   3.982
 6824SOL     OW21370   0.179   3.390   6.538
 6824SOL    HW121371   0.249   3.374   6.608
 6824SOL    HW221372   0.203   3.472   6.485
 6825SOL     OW21373   5.089   0.351   2.254
 6825SOL    HW121374   5.101   0.263   2.300
 6825SOL    HW221375   5.068   0.422   2.323
 6826SOL     OW21376   2.102   3.826   2.328
 6826SOL    HW121377   2.029   3.760   2.343
 6826SOL    HW221378   2.189   3.786   2.355
 6827SOL     OW21379   4.463   5.754   0.060
 6827SOL    HW121380   4.552   5.713   0.039
 6827SOL    HW221381   4.394   5.720   7.014
 6828SOL     OW21382   1.244   2.405   1.835
 6828SOL    HW121383   1.168   2.347   1.863
 6828SOL    HW221384   1.325   2.348   1.819
 6829SOL     OW21385   5.407   6.631   3.587
 6829SOL    HW121386   5.476   6.568   3.550
 6829SOL    HW221387   5.409   6.716   3.535
 6830SOL     OW21388   5.482   1.371   3.088
 6830SOL    HW121389   5.441   1.366   2.998
 6830SOL    HW221390   5.504   1.466   3.110
 6831SOL     OW21391   0.771   0.648   6.414
 6831SOL    HW121392   0.707   0.718   6.383
 6831SOL    HW221393   0.857   0.656   6.365
 6832SOL     OW21394   2.893   4.465   1.558
 6832SOL    HW121395   2.920   4.487   1.651
 6832SOL    HW221396   2.877   4.367   1.550
 6833SOL     OW21397   3.684   5.212   6.797
 6833SOL    HW121398   3.697   5.118   6.829
 6833SOL    HW221399   3.759   5.236   6.735
 6834SOL     OW21400   4.564   6.839   1.571
 6834SOL    HW121401   4.633   6.827   1.643
 6834SOL    HW221402   4.474   6.854   1.613
 6835SOL     OW21403   3.904   0.265   5.148
 6835SOL    HW121404   3.810   0.249   5.120
 6835SOL    HW221405   3.927   0.362   5.134
 6836SOL     OW21406   3.140   6.206   0.727
 6836SOL    HW121407   3.077   6.159   0.666
 6836SOL    HW221408   3.209   6.254   0.673
 6837SOL     OW21409   1.798   3.313   1.653
 6837SOL    HW121410   1.740   3.316   1.734
 6837SOL    HW221411   1.798   3.220   1.615
 6838SOL     OW21412   2.178   1.035   0.442
 6838SOL    HW121413   2.245   1.094   0.397
 6838SOL    HW221414   2.144   0.967   0.376
 6839SOL     OW21415   4.617   1.042   0.974
 6839SOL    HW121416   4.692   1.018   1.036
 6839SOL    HW221417   4.653   1.100   0.901
 6840SOL     OW21418   2.503   1.636   5.965
 6840SOL    HW121419   2.603   1.633   5.967
 6840SOL    HW221420   2.471   1.716   6.016
 6841SOL     OW21421   6.418   3.487   6.114
 6841SOL    HW121422   6.446   3.393   6.095
 6841SOL    HW221423   6.322   3.489   6.139
 6842SOL     OW21424   1.817   4.921   1.479
 6842SOL    HW121425   1.805   4.885   1.572
 6842SOL    HW221426   1.907   4.895   1.445
 6843SOL     OW21427   5.470   6.864   6.562
 6843SOL    HW121428   5.567   6.851   6.542
 6843SOL    HW221429   5.427   6.914   6.487
 6844SOL     OW21430   5.203   0.928   3.684
 6844SOL    HW121431   5.272   0.991   3.649
 6844SOL    HW221432   5.227   0.901   3.777
 6845SOL     OW21433   4.692   2.713   3.003
 6845SOL    HW121434   4.596   2.720   2.976
 6845SOL    HW221435   4.704   2.635   3.065
 6846SOL     OW21436   2.911   4.113   0.320
 6846SOL    HW121437   2.966   4.057   0.381
 6846SOL    HW221438   2.948   4.108   0.227
 6847SOL     OW21439   6.036   3.953   4.538
 6847SOL    HW121440   5.963   3.884   4.536
 6847SOL    HW221441   6.066   3.967   4.632
 6848SOL     OW21442   5.286   4.015   4.123
 6848SOL    HW121443   5.336   3.983   4.204
 6848SOL    HW221444   5.336   3.988   4.040
 6849SOL     OW21445   3.653   4.063   5.735
 6849SOL    HW121446   3.715   4.135   5.766
 6849SOL    HW221447   3.583   4.102   5.675
 6850SOL     OW21448   4.308   2.071   3.464
 6850SOL    HW121449   4.381   2.134   3.489
 6850SOL    HW221450   4.329   1.980   3.501
 6851SOL     OW21451   2.065   2.813   2.580
 6851SOL    HW121452   2.085   2.883   2.511
 6851SOL    HW221453   2.151   2.767   2.606
 6852SOL     OW21454   2.492   5.599   1.050
 6852SOL    HW121455   2.501   5.516   0.995
 6852SOL    HW221456   2.545   5.588   1.134
 6853SOL     OW21457   5.573   3.514   6.335
 6853SOL    HW121458   5.618   3.506   6.246
 6853SOL    HW221459   5.639   3.546   6.403
 6854SOL     OW21460   5.049   6.239   5.917
 6854SOL    HW121461   5.089   6.238   5.825
 6854SOL    HW221462   5.035   6.334   5.946
 6855SOL     OW21463   3.588   5.411   3.429
 6855SOL    HW121464   3.677   5.367   3.444
 6855SOL    HW221465   3.583   5.443   3.334
 6856SOL     OW21466   0.778   2.670   6.175
 6856SOL    HW121467   0.773   2.571   6.163
 6856SOL    HW221468   0.798   2.691   6.271
 6857SOL     OW21469   1.311   3.179   6.729
 6857SOL    HW121470   1.223   3.149   6.766
 6857SOL    HW221471   1.381   3.175   6.800
 6858SOL     OW21472   3.231   4.104   1.681
 6858SOL    HW121473   3.166   4.143   1.746
 6858SOL    HW221474   3.216   4.143   1.591
 6859SOL     OW21475   0.587   1.481   1.857
 6859SOL    HW121476   0.500   1.446   1.890
 6859SOL    HW221477   0.621   1.552   1.919
 6860SOL     OW21478   6.845   5.425   1.989
 6860SOL    HW121479   6.858   5.357   1.917
 6860SOL    HW221480   6.866   5.516   1.954
 6861SOL     OW21481   4.973   3.410   5.486
 6861SOL    HW121482   4.909   3.467   5.436
 6861SOL    HW221483   4.971   3.317   5.451
 6862SOL     OW21484   0.562   4.701   6.435
 6862SOL    HW121485   0.626   4.736   6.366
 6862SOL    HW221486   0.488   4.651   6.390
 6863SOL     OW21487   6.645   6.304   5.022
 6863SOL    HW121488   6.722   6.291   4.960
 6863SOL    HW221489   6.677   6.340   5.109
 6864SOL     OW21490   1.711   3.622   5.983
 6864SOL    HW121491   1.635   3.571   5.943
 6864SOL    HW221492   1.685   3.718   5.991
 6865SOL     OW21493   1.371   0.416   4.520
 6865SOL    HW121494   1.310   0.487   4.485
 6865SOL    HW221495   1.386   0.429   4.617
 6866SOL     OW21496   6.734   4.553   2.325
 6866SOL    HW121497   6.726   4.453   2.329
 6866SOL    HW221498   6.830   4.579   2.339
 6867SOL     OW21499   2.093   3.567   0.575
 6867SOL    HW121500   2.123   3.530   0.663
 6867SOL    HW221501   2.013   3.517   0.543
 6868SOL     OW21502   1.822   5.412   5.074
 6868SOL    HW121503   1.760   5.369   5.140
 6868SOL    HW221504   1.772   5.432   4.989
 6869SOL     OW21505   3.499   6.802   5.591
 6869SOL    HW121506   3.568   6.873   5.608
 6869SOL    HW221507   3.527   6.747   5.512
 6870SOL     OW21508   0.097   2.880   0.701
 6870SOL    HW121509   0.157   2.856   0.625
 6870SOL    HW221510   0.105   2.810   0.773
 6871SOL     OW21511   6.583   3.615   2.330
 6871SOL    HW121512   6.578   3.516   2.334
 6871SOL    HW221513   6.571   3.645   2.236
 6872SOL     OW21514   1.456   2.881   1.775
 6872SOL    HW121515   1.493   2.959   1.825
 6872SOL    HW221516   1.438   2.805   1.839
 6873SOL     OW21517   1.390   4.407   4.662
 6873SOL    HW121518   1.371   4.422   4.565
 6873SOL    HW221519   1.318   4.351   4.702
 6874SOL     OW21520   5.644   5.734   2.812
 6874SOL    HW121521   5.645   5.833   2.806
 6874SOL    HW221522   5.670   5.695   2.723
 6875SOL     OW21523   1.596   2.408   0.981
 6875SOL    HW121524   1.567   2.314   1.000
 6875SOL    HW221525   1.696   2.412   0.977
 6876SOL     OW21526   3.474   6.926   3.330
 6876SOL    HW121527   3.534   7.005   3.345
 6876SOL    HW221528   3.405   6.949   3.261
 6877SOL     OW21529   2.210   4.391   1.923
 6877SOL    HW121530   2.166   4.335   1.993
 6877SOL    HW221531   2.237   4.332   1.846
 6878SOL     OW21532   1.837   0.829   3.860
 6878SOL    HW121533   1.923   0.871   3.888
 6878SOL    HW221534   1.794   0.885   3.790
 6879SOL     OW21535   2.052   2.299   0.718
 6879SOL    HW121536   2.026   2.395   0.724
 6879SOL    HW221537   1.971   2.242   0.736
 6880SOL     OW21538   1.820   5.726   6.488
 6880SOL    HW121539   1.867   5.777   6.559
 6880SOL    HW221540   1.880   5.653   6.454
 6881SOL     OW21541   2.137   3.605   0.101
 6881SOL    HW121542   2.069   3.665   0.143
 6881SOL    HW221543   2.211   3.586   0.166
 6882SOL     OW21544   2.855   6.565   0.624
 6882SOL    HW121545   2.793   6.498   0.583
 6882SOL    HW221546   2.803   6.626   0.684
 6883SOL     OW21547   5.280   0.211   6.275
 6883SOL    HW121548   5.306   0.165   6.360
 6883SOL    HW221549   5.218   0.286   6.295
 6884SOL     OW21550   1.869   4.155   2.964
 6884SOL    HW121551   1.795   4.095   2.994
 6884SOL    HW221552   1.894   4.132   2.870
 6885SOL     OW21553   4.514   4.819   3.816
 6885SOL    HW121554   4.553   4.908   3.790
 6885SOL    HW221555   4.445   4.832   3.886
 6886SOL     OW21556   5.319   0.960   5.673
 6886SOL    HW121557   5.320   0.861   5.681
 6886SOL    HW221558   5.233   0.989   5.629
 6887SOL     OW21559   5.176   6.313   6.479
 6887SOL    HW121560   5.218   6.402   6.462
 6887SOL    HW221561   5.227   6.243   6.429
 6888SOL     OW21562   5.423   4.686   6.631
 6888SOL    HW121563   5.344   4.706   6.572
 6888SOL    HW221564   5.506   4.685   6.576
 6889SOL     OW21565   0.908   2.788   5.549
 6889SOL    HW121566   0.950   2.732   5.620
 6889SOL    HW221567   0.922   2.884   5.570
 6890SOL     OW21568   3.666   5.172   2.846
 6890SOL    HW121569   3.730   5.098   2.868
 6890SOL    HW221570   3.612   5.194   2.927
 6891SOL     OW21571   2.369   2.822   1.136
 6891SOL    HW121572   2.302   2.890   1.165
 6891SOL    HW221573   2.366   2.744   1.199
 6892SOL     OW21574   3.216   1.197   4.472
 6892SOL    HW121575   3.187   1.137   4.547
 6892SOL    HW221576   3.211   1.292   4.502
 6893SOL     OW21577   6.085   2.894   6.960
 6893SOL    HW121578   6.176   2.909   7.000
 6893SOL    HW221579   6.017   2.948   7.010
 6894SOL     OW21580   5.472   4.594   1.044
 6894SOL    HW121581   5.373   4.589   1.051
 6894SOL    HW221582   5.497   4.662   0.974
 6895SOL     OW21583   1.613   5.980   0.931
 6895SOL    HW121584   1.657   5.909   0.987
 6895SOL    HW221585   1.568   6.046   0.991
 6896SOL     OW21586   3.616   2.020   4.342
 6896SOL    HW121587   3.561   2.080   4.284
 6896SOL    HW221588   3.623   2.059   4.434
 6897SOL     OW21589   4.935   3.833   5.206
 6897SOL    HW121590   4.908   3.749   5.159
 6897SOL    HW221591   5.004   3.881   5.152
 6898SOL     OW21592   2.415   1.189   1.436
 6898SOL    HW121593   2.505   1.233   1.440
 6898SOL    HW221594   2.420   1.098   1.477
 6899SOL     OW21595   6.023   5.506   2.476
 6899SOL    HW121596   6.068   5.498   2.387
 6899SOL    HW221597   5.970   5.591   2.479
 6900SOL     OW21598   6.962   4.421   6.442
 6900SOL    HW121599   6.935   4.517   6.435
 6900SOL    HW221600   7.010   4.393   6.359
 6901SOL     OW21601   4.345   5.008   6.755
 6901SOL    HW121602   4.409   4.939   6.789
 6901SOL    HW221603   4.285   5.037   6.831
 6902SOL     OW21604   6.850   6.017   6.202
 6902SOL    HW121605   6.932   5.991   6.253
 6902SOL    HW221606   6.844   5.964   6.118
 6903SOL     OW21607   2.908   5.110   5.154
 6903SOL    HW121608   2.854   5.067   5.227
 6903SOL    HW221609   2.903   5.053   5.072
 6904SOL     OW21610   0.674   5.875   4.958
 6904SOL    HW121611   0.682   5.776   4.947
 6904SOL    HW221612   0.677   5.898   5.055
 6905SOL     OW21613   5.293   5.742   5.963
 6905SOL    HW121614   5.302   5.643   5.947
 6905SOL    HW221615   5.199   5.770   5.947
 6906SOL     OW21616   3.936   1.075   3.770
 6906SOL    HW121617   3.890   0.993   3.805
 6906SOL    HW221618   4.023   1.088   3.818
 6907SOL     OW21619   6.333   1.531   1.709
 6907SOL    HW121620   6.329   1.629   1.690
 6907SOL    HW221621   6.356   1.517   1.805
 6908SOL     OW21622   2.433   4.227   6.423
 6908SOL    HW121623   2.461   4.132   6.434
 6908SOL    HW221624   2.513   4.287   6.434
 6909SOL     OW21625   5.292   4.650   1.635
 6909SOL    HW121626   5.369   4.601   1.595
 6909SOL    HW221627   5.261   4.604   1.718
 6910SOL     OW21628   1.447   3.021   2.817
 6910SOL    HW121629   1.380   3.018   2.742
 6910SOL    HW221630   1.410   2.974   2.897
 6911SOL     OW21631   3.424   0.116   5.524
 6911SOL    HW121632   3.411   0.059   5.443
 6911SOL    HW221633   3.495   0.076   5.583
 6912SOL     OW21634   2.139   3.223   6.489
 6912SOL    HW121635   2.198   3.193   6.414
 6912SOL    HW221636   2.074   3.291   6.454
 6913SOL     OW21637   4.874   6.010   5.906
 6913SOL    HW121638   4.924   6.096   5.915
 6913SOL    HW221639   4.782   6.028   5.869
 6914SOL     OW21640   6.140   3.341   2.197
 6914SOL    HW121641   6.213   3.393   2.153
 6914SOL    HW221642   6.052   3.373   2.163
 6915SOL     OW21643   1.008   3.505   2.297
 6915SOL    HW121644   0.990   3.561   2.216
 6915SOL    HW221645   0.944   3.530   2.369
 6916SOL     OW21646   4.716   0.276   6.047
 6916SOL    HW121647   4.792   0.340   6.058
 6916SOL    HW221648   4.753   0.186   6.024
 6917SOL     OW21649   4.963   5.768   2.034
 6917SOL    HW121650   4.960   5.764   2.134
 6917SOL    HW221651   5.047   5.725   2.001
 6918SOL     OW21652   0.920   3.286   2.135
 6918SOL    HW121653   0.941   3.352   2.208
 6918SOL    HW221654   0.895   3.198   2.177
 6919SOL     OW21655   6.127   0.268   2.328
 6919SOL    HW121656   6.208   0.326   2.343
 6919SOL    HW221657   6.152   0.190   2.271
 6920SOL     OW21658   4.628   0.416   5.475
 6920SOL    HW121659   4.677   0.381   5.555
 6920SOL    HW221660   4.573   0.495   5.502
 6921SOL     OW21661   3.709   0.346   4.574
 6921SOL    HW121662   3.765   0.264   4.562
 6921SOL    HW221663   3.669   0.372   4.486
 6922SOL     OW21664   1.918   6.178   4.561
 6922SOL    HW121665   1.968   6.226   4.489
 6922SOL    HW221666   1.974   6.104   4.598
 6923SOL     OW21667   6.198   0.046   2.133
 6923SOL    HW121668   6.157   0.011   2.049
 6923SOL    HW221669   6.298   0.036   2.127
 6924SOL     OW21670   3.645   6.427   0.747
 6924SOL    HW121671   3.562   6.373   0.735
 6924SOL    HW221672   3.659   6.445   0.844
 6925SOL     OW21673   5.231   6.038   6.652
 6925SOL    HW121674   5.315   6.089   6.632
 6925SOL    HW221675   5.183   6.019   6.566
 6926SOL     OW21676   2.766   1.528   1.048
 6926SOL    HW121677   2.766   1.432   1.075
 6926SOL    HW221678   2.815   1.583   1.116
 6927SOL     OW21679   3.924   0.730   0.580
 6927SOL    HW121680   3.996   0.793   0.553
 6927SOL    HW221681   3.873   0.702   0.498
 6928SOL     OW21682   5.066   5.464   0.833
 6928SOL    HW121683   4.983   5.460   0.888
 6928SOL    HW221684   5.042   5.453   0.736
 6929SOL     OW21685   4.937   5.118   1.578
 6929SOL    HW121686   4.987   5.192   1.623
 6929SOL    HW221687   4.972   5.030   1.609
 6930SOL     OW21688   0.455   1.199   0.475
 6930SOL    HW121689   0.528   1.139   0.443
 6930SOL    HW221690   0.390   1.214   0.401
 6931SOL     OW21691   2.371   2.234   1.303
 6931SOL    HW121692   2.300   2.207   1.238
 6931SOL    HW221693   2.330   2.286   1.378
 6932SOL     OW21694   4.963   5.457   7.016
 6932SOL    HW121695   4.933   5.509   6.936
 6932SOL    HW221696   4.930   5.363   7.008
 6933SOL     OW21697   3.167   6.059   6.313
 6933SOL    HW121698   3.144   6.110   6.230
 6933SOL    HW221699   3.106   6.087   6.387
 6934SOL     OW21700   4.943   4.099   6.536
 6934SOL    HW121701   5.039   4.090   6.563
 6934SOL    HW221702   4.918   4.024   6.475
 6935SOL     OW21703   5.284   5.404   1.845
 6935SOL    HW121704   5.193   5.404   1.804
 6935SOL    HW221705   5.284   5.460   1.927
 6936SOL     OW21706   0.920   1.536   4.650
 6936SOL    HW121707   0.899   1.530   4.552
 6936SOL    HW221708   0.867   1.609   4.692
 6937SOL     OW21709   5.305   5.919   0.300
 6937SOL    HW121710   5.303   5.967   0.212
 6937SOL    HW221711   5.400   5.895   0.322
 6938SOL     OW21712   0.362   0.806   4.500
 6938SOL    HW121713   0.415   0.879   4.544
 6938SOL    HW221714   0.348   0.830   4.403
 6939SOL     OW21715   6.517   4.540   3.705
 6939SOL    HW121716   6.514   4.475   3.781
 6939SOL    HW221717   6.445   4.609   3.717
 6940SOL     OW21718   4.903   6.978   0.570
 6940SOL    HW121719   4.815   6.995   0.525
 6940SOL    HW221720   4.907   0.012   0.656
 6941SOL     OW21721   2.940   3.591   2.708
 6941SOL    HW121722   3.003   3.519   2.737
 6941SOL    HW221723   2.880   3.555   2.636
 6942SOL     OW21724   6.236   6.045   1.665
 6942SOL    HW121725   6.304   6.110   1.699
 6942SOL    HW221726   6.221   5.973   1.732
 6943SOL     OW21727   3.694   4.410   7.014
 6943SOL    HW121728   3.679   4.446   6.921
 6943SOL    HW221729   3.776   4.451   0.035
 6944SOL     OW21730   1.116   3.815   5.988
 6944SOL    HW121731   1.199   3.769   5.956
 6944SOL    HW221732   1.036   3.766   5.953
 6945SOL     OW21733   5.891   2.665   0.608
 6945SOL    HW121734   5.812   2.670   0.669
 6945SOL    HW221735   5.901   2.572   0.574
 6946SOL     OW21736   3.722   5.544   2.497
 6946SOL    HW121737   3.783   5.537   2.576
 6946SOL    HW221738   3.745   5.474   2.430
 6947SOL     OW21739   4.750   4.753   5.727
 6947SOL    HW121740   4.706   4.714   5.808
 6947SOL    HW221741   4.849   4.735   5.730
 6948SOL     OW21742   0.284   5.843   1.011
 6948SOL    HW121743   0.236   5.859   1.098
 6948SOL    HW221744   0.260   5.915   0.946
 6949SOL     OW21745   2.655   2.457   3.641
 6949SOL    HW121746   2.664   2.374   3.694
 6949SOL    HW221747   2.742   2.508   3.643
 6950SOL     OW21748   1.002   6.620   4.564
 6950SOL    HW121749   1.051   6.695   4.609
 6950SOL    HW221750   0.911   6.612   4.603
 6951SOL     OW21751   6.920   5.023   0.092
 6951SOL    HW121752   6.878   5.102   0.047
 6951SOL    HW221753   7.007   5.002   0.047
 6952SOL     OW21754   3.190   4.865   2.776
 6952SOL    HW121755   3.262   4.920   2.733
 6952SOL    HW221756   3.151   4.802   2.708
 6953SOL     OW21757   5.500   0.530   0.682
 6953SOL    HW121758   5.540   0.512   0.592
 6953SOL    HW221759   5.485   0.628   0.692
 6954SOL     OW21760   0.580   3.746   0.832
 6954SOL    HW121761   0.516   3.691   0.778
 6954SOL    HW221762   0.541   3.761   0.923
 6955SOL     OW21763   5.122   0.125   2.463
 6955SOL    HW121764   5.152   0.125   2.558
 6955SOL    HW221765   5.022   0.116   2.460
 6956SOL     OW21766   5.618   5.793   2.138
 6956SOL    HW121767   5.644   5.873   2.191
 6956SOL    HW221768   5.555   5.736   2.191
 6957SOL     OW21769   5.485   5.443   6.444
 6957SOL    HW121770   5.457   5.539   6.452
 6957SOL    HW221771   5.409   5.384   6.471
 6958SOL     OW21772   3.332   3.110   3.768
 6958SOL    HW121773   3.260   3.111   3.699
 6958SOL    HW221774   3.298   3.069   3.853
 6959SOL     OW21775   1.400   4.063   2.886
 6959SOL    HW121776   1.321   4.120   2.905
 6959SOL    HW221777   1.381   4.004   2.807
 6960SOL     OW21778   1.854   4.576   0.222
 6960SOL    HW121779   1.797   4.587   0.140
 6960SOL    HW221780   1.887   4.482   0.226
 6961SOL     OW21781   4.007   1.822   5.085
 6961SOL    HW121782   3.952   1.763   5.026
 6961SOL    HW221783   4.019   1.778   5.174
 6962SOL     OW21784   3.471   6.752   6.259
 6962SOL    HW121785   3.549   6.814   6.253
 6962SOL    HW221786   3.440   6.747   6.354
 6963SOL     OW21787   5.152   6.496   0.987
 6963SOL    HW121788   5.105   6.414   1.019
 6963SOL    HW221789   5.098   6.539   0.914
 6964SOL     OW21790   2.098   0.403   5.892
 6964SOL    HW121791   2.130   0.319   5.935
 6964SOL    HW221792   1.998   0.407   5.897
 6965SOL     OW21793   0.654   2.147   0.612
 6965SOL    HW121794   0.579   2.093   0.574
 6965SOL    HW221795   0.639   2.159   0.710
 6966SOL     OW21796   0.983   0.580   2.129
 6966SOL    HW121797   1.066   0.611   2.083
 6966SOL    HW221798   0.942   0.506   2.077
 6967SOL     OW21799   3.895   2.070   6.009
 6967SOL    HW121800   3.940   2.045   5.924
 6967SOL    HW221801   3.944   2.147   6.051
 6968SOL     OW21802   3.464   0.110   2.965
 6968SOL    HW121803   3.539   0.151   3.016
 6968SOL    HW221804   3.412   0.182   2.919
 6969SOL     OW21805   2.139   1.893   1.980
 6969SOL    HW121806   2.075   1.914   2.054
 6969SOL    HW221807   2.220   1.849   2.018
 6970SOL     OW21808   3.284   4.580   6.411
 6970SOL    HW121809   3.226   4.656   6.440
 6970SOL    HW221810   3.297   4.516   6.488
 6971SOL     OW21811   5.767   4.399   0.701
 6971SOL    HW121812   5.675   4.389   0.739
 6971SOL    HW221813   5.789   4.319   0.644
 6972SOL     OW21814   5.087   3.967   2.687
 6972SOL    HW121815   5.153   3.897   2.716
 6972SOL    HW221816   4.996   3.941   2.719
 6973SOL     OW21817   1.403   2.044   2.425
 6973SOL    HW121818   1.345   2.061   2.346
 6973SOL    HW221819   1.380   2.107   2.499
 6974SOL     OW21820   3.301   3.547   2.792
 6974SOL    HW121821   3.395   3.579   2.802
 6974SOL    HW221822   3.268   3.570   2.700
 6975SOL     OW21823   3.052   5.729   5.035
 6975SOL    HW121824   3.077   5.660   4.968
 6975SOL    HW221825   3.042   5.686   5.125
 6976SOL     OW21826   4.962   4.172   5.065
 6976SOL    HW121827   4.879   4.147   5.015
 6976SOL    HW221828   4.991   4.264   5.038
 6977SOL     OW21829   3.938   4.603   1.735
 6977SOL    HW121830   3.862   4.539   1.743
 6977SOL    HW221831   4.016   4.557   1.693
 6978SOL     OW21832   5.723   3.439   1.567
 6978SOL    HW121833   5.717   3.360   1.628
 6978SOL    HW221834   5.726   3.407   1.472
 6979SOL     OW21835   1.480   4.062   1.478
 6979SOL    HW121836   1.493   4.159   1.459
 6979SOL    HW221837   1.535   4.037   1.559
 6980SOL     OW21838   1.427   6.731   3.023
 6980SOL    HW121839   1.439   6.817   2.973
 6980SOL    HW221840   1.336   6.728   3.064
 6981SOL     OW21841   3.666   3.318   6.877
 6981SOL    HW121842   3.754   3.362   6.863
 6981SOL    HW221843   3.604   3.381   6.925
 6982SOL     OW21844   0.726   1.579   3.991
 6982SOL    HW121845   0.653   1.512   3.975
 6982SOL    HW221846   0.687   1.671   3.993
 6983SOL     OW21847   4.768   0.743   4.397
 6983SOL    HW121848   4.786   0.768   4.492
 6983SOL    HW221849   4.746   0.646   4.392
 6984SOL     OW21850   1.063   2.420   2.957
 6984SOL    HW121851   1.132   2.348   2.965
 6984SOL    HW221852   0.985   2.399   3.017
 6985SOL     OW21853   6.646   4.172   6.972
 6985SOL    HW121854   6.675   4.117   6.894
 6985SOL    HW221855   6.654   4.269   6.948
 6986SOL     OW21856   3.973   5.312   5.795
 6986SOL    HW121857   3.888   5.261   5.811
 6986SOL    HW221858   4.028   5.311   5.879
 6987SOL     OW21859   0.331   1.801   6.215
 6987SOL    HW121860   0.393   1.772   6.288
 6987SOL    HW221861   0.345   1.743   6.134
 6988SOL     OW21862   2.476   0.904   6.308
 6988SOL    HW121863   2.413   0.953   6.368
 6988SOL    HW221864   2.570   0.922   6.337
 6989SOL     OW21865   0.030   4.328   2.575
 6989SOL    HW121866   6.952   4.310   2.596
 6989SOL    HW221867   0.071   4.379   2.651
 6990SOL     OW21868   3.913   2.995   1.942
 6990SOL    HW121869   3.985   3.013   1.876
 6990SOL    HW221870   3.926   3.054   2.022
 6991SOL     OW21871   5.537   4.308   2.791
 6991SOL    HW121872   5.464   4.322   2.859
 6991SOL    HW221873   5.523   4.370   2.714
 6992SOL     OW21874   1.194   7.000   6.748
 6992SOL    HW121875   1.132   0.058   6.763
 6992SOL    HW221876   1.149   6.932   6.689
 6993SOL     OW21877   5.822   1.159   1.940
 6993SOL    HW121878   5.815   1.129   1.845
 6993SOL    HW221879   5.888   1.102   1.989
 6994SOL     OW21880   1.661   0.071   3.991
 6994SOL    HW121881   1.738   0.093   3.932
 6994SOL    HW221882   1.642   0.148   4.051
 6995SOL     OW21883   0.528   3.353   0.664
 6995SOL    HW121884   0.583   3.419   0.612
 6995SOL    HW221885   0.549   3.261   0.633
 6996SOL     OW21886   1.626   0.658   0.210
 6996SOL    HW121887   1.665   0.747   0.187
 6996SOL    HW221888   1.687   0.610   0.274
 6997SOL     OW21889   7.011   4.992   4.941
 6997SOL    HW121890   0.061   4.930   4.979
 6997SOL    HW221891   6.923   4.945   4.935
 6998SOL     OW21892   0.674   1.445   1.401
 6998SOL    HW121893   0.667   1.473   1.305
 6998SOL    HW221894   0.770   1.428   1.423
 6999SOL     OW21895   0.906   2.784   0.073
 6999SOL    HW121896   0.920   2.856   0.140
 6999SOL    HW221897   0.941   2.698   0.109
 7000SOL     OW21898   6.579   0.237   2.691
 7000SOL    HW121899   6.631   0.163   2.649
 7000SOL    HW221900   6.482   0.226   2.668
 7001SOL     OW21901   1.003   1.505   4.378
 7001SOL    HW121902   1.086   1.555   4.351
 7001SOL    HW221903   1.028   1.430   4.438
 7002SOL     OW21904   0.565   5.493   3.656
 7002SOL    HW121905   0.649   5.441   3.641
 7002SOL    HW221906   0.560   5.568   3.591
 7003SOL     OW21907   6.312   3.993   1.405
 7003SOL    HW121908   6.215   4.015   1.418
 7003SOL    HW221909   6.321   3.927   1.331
 7004SOL     OW21910   1.655   5.964   0.111
 7004SOL    HW121911   1.707   6.045   0.137
 7004SOL    HW221912   1.673   5.891   0.177
 7005SOL     OW21913   1.700   0.502   6.761
 7005SOL    HW121914   1.639   0.447   6.818
 7005SOL    HW221915   1.787   0.455   6.750
 7006SOL     OW21916   7.016   0.427   3.593
 7006SOL    HW121917   0.025   0.384   3.679
 7006SOL    HW221918   6.965   0.511   3.612
 7007SOL     OW21919   3.912   0.931   6.063
 7007SOL    HW121920   3.949   0.838   6.069
 7007SOL    HW221921   3.987   0.997   6.071
 7008SOL     OW21922   6.887   4.091   3.523
 7008SOL    HW121923   6.975   4.137   3.537
 7008SOL    HW221924   6.858   4.049   3.609
 7009SOL     OW21925   4.382   5.941   2.087
 7009SOL    HW121926   4.362   6.038   2.075
 7009SOL    HW221927   4.466   5.931   2.141
 7010SOL     OW21928   5.254   3.934   2.186
 7010SOL    HW121929   5.219   3.855   2.238
 7010SOL    HW221930   5.194   4.012   2.202
 7011SOL     OW21931   3.703   6.773   0.194
 7011SOL    HW121932   3.664   6.773   0.286
 7011SOL    HW221933   3.628   6.768   0.127
 7012SOL     OW21934   0.888   2.630   1.236
 7012SOL    HW121935   0.845   2.540   1.240
 7012SOL    HW221936   0.976   2.623   1.190
 7013SOL     OW21937   2.337   1.583   0.158
 7013SOL    HW121938   2.286   1.664   0.128
 7013SOL    HW221939   2.275   1.522   0.208
 7014SOL     OW21940   6.344   3.897   2.109
 7014SOL    HW121941   6.269   3.834   2.126
 7014SOL    HW221942   6.336   3.977   2.170
 7015SOL     OW21943   5.237   4.495   1.896
 7015SOL    HW121944   5.244   4.436   1.977
 7015SOL    HW221945   5.150   4.545   1.899
 7016SOL     OW21946   3.056   4.937   0.923
 7016SOL    HW121947   3.006   4.979   0.999
 7016SOL    HW221948   3.097   5.010   0.867
 7017SOL     OW21949   4.127   4.703   3.740
 7017SOL    HW121950   4.028   4.703   3.726
 7017SOL    HW221951   4.167   4.623   3.696
 7018SOL     OW21952   4.809   2.703   4.430
 7018SOL    HW121953   4.833   2.794   4.465
 7018SOL    HW221954   4.893   2.657   4.399
 7019SOL     OW21955   5.121   5.202   2.388
 7019SOL    HW121956   5.184   5.125   2.374
 7019SOL    HW221957   5.096   5.241   2.299
 7020SOL     OW21958   0.854   3.297   0.114
 7020SOL    HW121959   0.757   3.320   0.108
 7020SOL    HW221960   0.890   3.328   0.202
 7021SOL     OW21961   1.516   2.479   4.823
 7021SOL    HW121962   1.441   2.493   4.888
 7021SOL    HW221963   1.581   2.413   4.861
 7022SOL     OW21964   4.084   0.648   0.293
 7022SOL    HW121965   4.068   0.742   0.322
 7022SOL    HW221966   4.012   0.620   0.229
 7023SOL     OW21967   0.251   1.509   1.450
 7023SOL    HW121968   0.332   1.509   1.509
 7023SOL    HW221969   0.279   1.500   1.355
 7024SOL     OW21970   3.871   3.056   3.520
 7024SOL    HW121971   3.888   3.009   3.606
 7024SOL    HW221972   3.808   3.132   3.535
 7025SOL     OW21973   3.020   0.001   0.389
 7025SOL    HW121974   2.978   0.051   0.313
 7025SOL    HW221975   3.104   0.046   0.417
 7026SOL     OW21976   3.175   2.005   1.575
 7026SOL    HW121977   3.103   2.058   1.530
 7026SOL    HW221978   3.234   1.962   1.507
 7027SOL     OW21979   2.383   5.116   1.992
 7027SOL    HW121980   2.284   5.117   1.979
 7027SOL    HW221981   2.416   5.210   2.005
 7028SOL     OW21982   2.848   0.673   4.024
 7028SOL    HW121983   2.935   0.693   4.071
 7028SOL    HW221984   2.864   0.671   3.925
 7029SOL     OW21985   3.045   3.383   5.404
 7029SOL    HW121986   3.111   3.338   5.345
 7029SOL    HW221987   2.955   3.340   5.394
 7030SOL     OW21988   6.888   1.444   4.723
 7030SOL    HW121989   6.934   1.380   4.661
 7030SOL    HW221990   6.826   1.503   4.671
 7031SOL     OW21991   4.458   5.919   1.053
 7031SOL    HW121992   4.460   5.850   0.981
 7031SOL    HW221993   4.412   6.001   1.019
 7032SOL     OW21994   3.810   0.255   4.112
 7032SOL    HW121995   3.909   0.258   4.101
 7032SOL    HW221996   3.780   0.160   4.125
 7033SOL     OW21997   1.503   2.400   5.441
 7033SOL    HW121998   1.484   2.342   5.520
 7033SOL    HW221999   1.592   2.445   5.453
 7034SOL     OW22000   6.832   1.801   3.512
 7034SOL    HW122001   6.841   1.745   3.595
 7034SOL    HW222002   6.897   1.770   3.444
 7035SOL     OW22003   2.238   0.310   1.617
 7035SOL    HW122004   2.198   0.392   1.658
 7035SOL    HW222005   2.165   0.249   1.586
 7036SOL     OW22006   6.980   1.205   2.191
 7036SOL    HW122007   6.898   1.256   2.165
 7036SOL    HW222008   7.008   1.232   2.283
 7037SOL     OW22009   0.401   0.089   5.790
 7037SOL    HW122010   0.489   0.043   5.799
 7037SOL    HW222011   0.401   0.172   5.846
 7038SOL     OW22012   2.416   3.883   6.212
 7038SOL    HW122013   2.400   3.824   6.132
 7038SOL    HW222014   2.350   3.860   6.284
 7039SOL     OW22015   0.957   5.272   2.972
 7039SOL    HW122016   0.940   5.318   2.885
 7039SOL    HW222017   0.942   5.174   2.962
 7040SOL     OW22018   4.433   2.266   5.636
 7040SOL    HW122019   4.488   2.191   5.601
 7040SOL    HW222020   4.446   2.347   5.577
 7041SOL     OW22021   1.184   1.334   4.009
 7041SOL    HW122022   1.096   1.371   4.039
 7041SOL    HW222023   1.169   1.270   3.934
 7042SOL     OW22024   4.394   5.940   5.137
 7042SOL    HW122025   4.491   5.918   5.148
 7042SOL    HW222026   4.352   5.949   5.227
 7043SOL     OW22027   2.781   4.749   3.315
 7043SOL    HW122028   2.851   4.817   3.294
 7043SOL    HW222029   2.769   4.689   3.236
 7044SOL     OW22030   5.507   6.256   4.120
 7044SOL    HW122031   5.603   6.252   4.147
 7044SOL    HW222032   5.494   6.331   4.054
 7045SOL     OW22033   6.228   5.694   2.172
 7045SOL    HW122034   6.239   5.755   2.093
 7045SOL    HW222035   6.186   5.608   2.141
 7046SOL     OW22036   3.028   2.212   4.343
 7046SOL    HW122037   2.980   2.280   4.289
 7046SOL    HW222038   2.976   2.126   4.343
 7047SOL     OW22039   0.762   6.974   0.833
 7047SOL    HW122040   0.715   6.925   0.760
 7047SOL    HW222041   0.822   6.911   0.882
 7048SOL     OW22042   6.765   5.400   4.941
 7048SOL    HW122043   6.823   5.318   4.942
 7048SOL    HW222044   6.784   5.453   4.858
 7049SOL     OW22045   3.685   1.504   1.993
 7049SOL    HW122046   3.656   1.588   2.037
 7049SOL    HW222047   3.761   1.463   2.044
 7050SOL     OW22048   3.843   4.624   1.085
 7050SOL    HW122049   3.930   4.598   1.044
 7050SOL    HW222050   3.824   4.720   1.065
 7051SOL     OW22051   0.156   6.844   1.170
 7051SOL    HW122052   0.194   6.753   1.183
 7051SOL    HW222053   0.144   6.862   1.073
 7052SOL     OW22054   5.965   0.266   2.949
 7052SOL    HW122055   5.912   0.327   3.009
 7052SOL    HW222056   5.962   0.173   2.986
 7053SOL     OW22057   1.561   3.093   3.223
 7053SOL    HW122058   1.625   3.170   3.224
 7053SOL    HW222059   1.612   3.008   3.215
 7054SOL     OW22060   6.570   0.067   0.715
 7054SOL    HW122061   6.542   0.012   0.637
 7054SOL    HW222062   6.670   0.061   0.725
 7055SOL     OW22063   2.261   0.728   6.985
 7055SOL    HW122064   2.276   0.817   0.009
 7055SOL    HW222065   2.186   0.681   0.014
 7056SOL     OW22066   6.680   5.433   1.228
 7056SOL    HW122067   6.648   5.362   1.165
 7056SOL    HW222068   6.652   5.410   1.321
 7057SOL     OW22069   2.772   4.873   4.665
 7057SOL    HW122070   2.714   4.794   4.688
 7057SOL    HW222071   2.846   4.842   4.605
 7058SOL     OW22072   5.072   2.327   6.292
 7058SOL    HW122073   5.047   2.248   6.236
 7058SOL    HW222074   5.169   2.324   6.314
 7059SOL     OW22075   2.112   0.992   4.548
 7059SOL    HW122076   2.179   1.040   4.604
 7059SOL    HW222077   2.130   1.010   4.451
 7060SOL     OW22078   3.264   6.865   2.480
 7060SOL    HW122079   3.360   6.843   2.499
 7060SOL    HW222080   3.217   6.884   2.566
 7061SOL     OW22081   1.248   2.238   2.990
 7061SOL    HW122082   1.286   2.172   3.055
 7061SOL    HW222083   1.234   2.192   2.902
 7062SOL     OW22084   4.264   1.898   3.739
 7062SOL    HW122085   4.177   1.904   3.690
 7062SOL    HW222086   4.303   1.807   3.725
 7063SOL     OW22087   0.566   0.293   1.999
 7063SOL    HW122088   0.583   0.362   2.069
 7063SOL    HW222089   0.611   0.319   1.914
 7064SOL     OW22090   4.828   1.697   5.410
 7064SOL    HW122091   4.833   1.796   5.423
 7064SOL    HW222092   4.899   1.667   5.347
 7065SOL     OW22093   3.576   4.472   5.450
 7065SOL    HW122094   3.528   4.550   5.411
 7065SOL    HW222095   3.661   4.457   5.399
 7066SOL     OW22096   3.839   0.583   0.138
 7066SOL    HW122097   3.854   0.485   0.132
 7066SOL    HW222098   3.743   0.602   0.156
 7067SOL     OW22099   1.790   3.054   6.947
 7067SOL    HW122100   1.769   2.981   7.012
 7067SOL    HW222101   1.710   3.113   6.936
 7068SOL     OW22102   5.195   4.005   4.434
 7068SOL    HW122103   5.186   3.911   4.401
 7068SOL    HW222104   5.105   4.039   4.462
 7069SOL     OW22105   6.344   0.224   5.678
 7069SOL    HW122106   6.340   0.233   5.778
 7069SOL    HW222107   6.308   0.134   5.652
 7070SOL     OW22108   0.416   6.959   4.901
 7070SOL    HW122109   0.454   6.869   4.922
 7070SOL    HW222110   0.346   6.950   4.830
 7071SOL     OW22111   4.895   6.339   6.863
 7071SOL    HW122112   4.810   6.287   6.859
 7071SOL    HW222113   4.924   6.361   6.770
 7072SOL     OW22114   0.817   4.061   6.732
 7072SOL    HW122115   0.886   4.109   6.787
 7072SOL    HW222116   0.849   4.054   6.637
 7073SOL     OW22117   5.002   1.116   2.795
 7073SOL    HW122118   5.059   1.129   2.876
 7073SOL    HW222119   4.975   1.205   2.759
 7074SOL     OW22120   6.081   4.460   3.201
 7074SOL    HW122121   6.056   4.364   3.187
 7074SOL    HW222122   6.039   4.515   3.129
 7075SOL     OW22123   3.142   4.917   4.777
 7075SOL    HW122124   3.201   4.837   4.788
 7075SOL    HW222125   3.064   4.909   4.839
 7076SOL     OW22126   5.840   3.558   2.827
 7076SOL    HW122127   5.847   3.465   2.861
 7076SOL    HW222128   5.757   3.601   2.863
 7077SOL     OW22129   2.676   5.068   1.734
 7077SOL    HW122130   2.676   5.084   1.635
 7077SOL    HW222131   2.632   4.980   1.753
 7078SOL     OW22132   5.293   6.800   0.561
 7078SOL    HW122133   5.317   6.897   0.566
 7078SOL    HW222134   5.243   6.782   0.477
 7079SOL     OW22135   0.956   6.941   4.212
 7079SOL    HW122136   0.908   6.855   4.227
 7079SOL    HW222137   0.967   6.989   4.299
 7080SOL     OW22138   3.787   2.221   5.222
 7080SOL    HW122139   3.866   2.187   5.170
 7080SOL    HW222140   3.704   2.175   5.191
 7081SOL     OW22141   1.373   0.670   6.869
 7081SOL    HW122142   1.299   0.668   6.801
 7081SOL    HW222143   1.457   0.704   6.826
 7082SOL     OW22144   6.708   4.277   2.320
 7082SOL    HW122145   6.749   4.232   2.399
 7082SOL    HW222146   6.696   4.212   2.245
 7083SOL     OW22147   6.492   3.348   2.353
 7083SOL    HW122148   6.508   3.369   2.450
 7083SOL    HW222149   6.402   3.305   2.344
 7084SOL     OW22150   1.038   5.949   0.043
 7084SOL    HW122151   1.078   6.039   0.058
 7084SOL    HW222152   1.032   5.899   0.129
 7085SOL     OW22153   0.343   3.060   2.462
 7085SOL    HW122154   0.335   3.076   2.560
 7085SOL    HW222155   0.436   3.030   2.440
 7086SOL     OW22156   5.714   0.927   5.492
 7086SOL    HW122157   5.714   0.830   5.465
 7086SOL    HW222158   5.684   0.935   5.586
 7087SOL     OW22159   5.536   3.212   3.407
 7087SOL    HW122160   5.481   3.197   3.489
 7087SOL    HW222161   5.537   3.128   3.352
 7088SOL     OW22162   5.658   1.767   5.237
 7088SOL    HW122163   5.572   1.791   5.282
 7088SOL    HW222164   5.691   1.680   5.272
 7089SOL     OW22165   3.900   5.620   1.585
 7089SOL    HW122166   3.800   5.622   1.593
 7089SOL    HW222167   3.936   5.713   1.589
 7090SOL     OW22168   3.905   1.964   1.510
 7090SOL    HW122169   3.996   1.965   1.551
 7090SOL    HW222170   3.848   2.033   1.554
 7091SOL     OW22171   0.641   6.678   7.010
 7091SOL    HW122172   0.600   6.768   0.001
 7091SOL    HW222173   0.710   6.681   6.937
 7092SOL     OW22174   4.789   2.675   6.769
 7092SOL    HW122175   4.694   2.696   6.745
 7092SOL    HW222176   4.792   2.634   6.860
 7093SOL     OW22177   3.329   4.055   0.501
 7093SOL    HW122178   3.320   4.125   0.572
 7093SOL    HW222179   3.302   4.094   0.412
 7094SOL     OW22180   1.982   6.738   5.767
 7094SOL    HW122181   1.899   6.718   5.715
 7094SOL    HW222182   2.016   6.828   5.741
 7095SOL     OW22183   3.267   4.447   5.496
 7095SOL    HW122184   3.173   4.467   5.468
 7095SOL    HW222185   3.329   4.512   5.452
 7096SOL     OW22186   0.022   0.826   1.050
 7096SOL    HW122187   0.112   0.819   1.094
 7096SOL    HW222188   0.016   0.913   1.000
 7097SOL     OW22189   5.418   0.850   1.492
 7097SOL    HW122190   5.368   0.928   1.531
 7097SOL    HW222191   5.516   0.861   1.510
 7098SOL     OW22192   0.820   6.713   4.749
 7098SOL    HW122193   0.827   6.751   4.841
 7098SOL    HW222194   0.778   6.780   4.688
 7099SOL     OW22195   2.878   2.302   4.153
 7099SOL    HW122196   2.803   2.363   4.178
 7099SOL    HW222197   2.880   2.290   4.054
 7100SOL     OW22198   0.090   3.703   1.050
 7100SOL    HW122199   0.033   3.666   1.123
 7100SOL    HW222200   0.162   3.638   1.027
 7101SOL     OW22201   1.957   6.544   5.321
 7101SOL    HW122202   1.918   6.473   5.262
 7101SOL    HW222203   2.005   6.501   5.397
 7102SOL     OW22204   5.431   0.760   0.823
 7102SOL    HW122205   5.420   0.772   0.921
 7102SOL    HW222206   5.383   0.833   0.774
 7103SOL     OW22207   5.020   4.948   2.784
 7103SOL    HW122208   5.029   5.042   2.750
 7103SOL    HW222209   4.943   4.904   2.739
 7104SOL     OW22210   4.854   3.263   3.430
 7104SOL    HW122211   4.866   3.175   3.478
 7104SOL    HW222212   4.854   3.337   3.497
 7105SOL     OW22213   3.141   4.042   3.601
 7105SOL    HW122214   3.240   4.029   3.599
 7105SOL    HW222215   3.112   4.063   3.694
 7106SOL     OW22216   3.430   3.018   1.367
 7106SOL    HW122217   3.383   2.985   1.448
 7106SOL    HW222218   3.496   3.088   1.393
 7107SOL     OW22219   4.086   0.541   6.910
 7107SOL    HW122220   4.144   0.486   6.969
 7107SOL    HW222221   4.002   0.490   6.889
 7108SOL     OW22222   3.099   6.892   2.698
 7108SOL    HW122223   3.017   6.950   2.696
 7108SOL    HW222224   3.072   6.796   2.696
 7109SOL     OW22225   1.832   6.956   5.892
 7109SOL    HW122226   1.760   6.959   5.961
 7109SOL    HW222227   1.878   6.867   5.896
 7110SOL     OW22228   3.412   6.111   4.674
 7110SOL    HW122229   3.354   6.081   4.750
 7110SOL    HW222230   3.379   6.070   4.589
 7111SOL     OW22231   0.766   0.904   3.741
 7111SOL    HW122232   0.705   0.827   3.722
 7111SOL    HW222233   0.723   0.964   3.809
 7112SOL     OW22234   2.028   5.063   4.489
 7112SOL    HW122235   2.067   4.971   4.480
 7112SOL    HW222236   2.010   5.101   4.398
 7113SOL     OW22237   3.275   4.967   5.177
 7113SOL    HW122238   3.238   5.050   5.134
 7113SOL    HW222239   3.201   4.902   5.193
 7114SOL     OW22240   4.614   4.985   0.187
 7114SOL    HW122241   4.579   5.021   0.100
 7114SOL    HW222242   4.577   4.894   0.203
 7115SOL     OW22243   6.407   4.648   6.964
 7115SOL    HW122244   6.362   4.644   0.034
 7115SOL    HW222245   6.497   4.691   6.975
 7116SOL     OW22246   6.946   3.660   4.403
 7116SOL    HW122247   6.971   3.712   4.484
 7116SOL    HW222248   7.004   3.579   4.397
 7117SOL     OW22249   6.074   6.865   3.550
 7117SOL    HW122250   6.124   6.880   3.464
 7117SOL    HW222251   6.138   6.839   3.622
 7118SOL     OW22252   4.207   4.426   5.673
 7118SOL    HW122253   4.160   4.506   5.710
 7118SOL    HW222254   4.173   4.407   5.580
 7119SOL     OW22255   4.520   0.062   4.856
 7119SOL    HW122256   4.455   0.037   4.928
 7119SOL    HW222257   4.474   0.120   4.789
 7120SOL     OW22258   5.070   1.432   1.022
 7120SOL    HW122259   5.059   1.472   1.113
 7120SOL    HW222260   5.115   1.343   1.031
 7121SOL     OW22261   0.887   6.314   3.241
 7121SOL    HW122262   0.856   6.223   3.269
 7121SOL    HW222263   0.809   6.366   3.205
 7122SOL     OW22264   2.541   6.883   6.044
 7122SOL    HW122265   2.471   6.923   5.985
 7122SOL    HW222266   2.631   6.895   6.001
 7123SOL     OW22267   5.379   5.393   5.577
 7123SOL    HW122268   5.347   5.436   5.492
 7123SOL    HW222269   5.444   5.454   5.622
 7124SOL     OW22270   0.774   1.930   1.522
 7124SOL    HW122271   0.677   1.933   1.549
 7124SOL    HW222272   0.786   1.862   1.451
 7125SOL     OW22273   1.210   0.273   1.518
 7125SOL    HW122274   1.241   0.247   1.427
 7125SOL    HW222275   1.173   0.192   1.565
 7126SOL     OW22276   4.301   5.979   1.660
 7126SOL    HW122277   4.307   5.935   1.570
 7126SOL    HW222278   4.385   5.962   1.711
 7127SOL     OW22279   3.203   6.243   5.548
 7127SOL    HW122280   3.185   6.221   5.452
 7127SOL    HW222281   3.119   6.276   5.591
 7128SOL     OW22282   3.678   4.192   6.195
 7128SOL    HW122283   3.621   4.256   6.245
 7128SOL    HW222284   3.653   4.192   6.098
 7129SOL     OW22285   0.139   6.916   0.887
 7129SOL    HW122286   0.078   6.862   0.830
 7129SOL    HW222287   0.123   7.013   0.870
 7130SOL     OW22288   3.422   6.543   4.054
 7130SOL    HW122289   3.456   6.563   3.963
 7130SOL    HW222290   3.322   6.549   4.055
 7131SOL     OW22291   4.035   0.873   2.284
 7131SOL    HW122292   4.088   0.798   2.244
 7131SOL    HW222293   3.939   0.864   2.258
 7132SOL     OW22294   5.165   4.013   0.179
 7132SOL    HW122295   5.103   4.068   0.235
 7132SOL    HW222296   5.217   3.951   0.237
 7133SOL     OW22297   3.555   6.035   3.433
 7133SOL    HW122298   3.531   5.989   3.519
 7133SOL    HW222299   3.579   5.966   3.365
 7134SOL     OW22300   5.632   5.376   1.438
 7134SOL    HW122301   5.643   5.322   1.355
 7134SOL    HW222302   5.722   5.401   1.473
 7135SOL     OW22303   2.191   3.003   1.796
 7135SOL    HW122304   2.103   2.992   1.841
 7135SOL    HW222305   2.179   3.053   1.710
 7136SOL     OW22306   2.966   1.323   1.993
 7136SOL    HW122307   3.016   1.401   2.030
 7136SOL    HW222308   2.868   1.333   2.012
 7137SOL     OW22309   2.719   1.958   1.789
 7137SOL    HW122310   2.795   1.924   1.845
 7137SOL    HW222311   2.635   1.954   1.842
 7138SOL     OW22312   1.805   2.170   0.680
 7138SOL    HW122313   1.795   2.242   0.612
 7138SOL    HW222314   1.724   2.168   0.739
 7139SOL     OW22315   6.067   5.806   1.370
 7139SOL    HW122316   6.078   5.720   1.321
 7139SOL    HW222317   6.156   5.846   1.390
 7140SOL     OW22318   0.005   3.445   0.337
 7140SOL    HW122319   6.968   3.477   0.260
 7140SOL    HW222320   6.965   3.433   0.418
 7141SOL     OW22321   4.171   6.640   1.506
 7141SOL    HW122322   4.119   6.725   1.515
 7141SOL    HW222323   4.123   6.578   1.445
 7142SOL     OW22324   2.919   0.156   4.953
 7142SOL    HW122325   3.010   0.198   4.957
 7142SOL    HW222326   2.898   0.117   5.043
 7143SOL     OW22327   2.346   4.736   6.795
 7143SOL    HW122328   2.437   4.700   6.773
 7143SOL    HW222329   2.280   4.661   6.797
 7144SOL     OW22330   6.337   0.606   4.586
 7144SOL    HW122331   6.434   0.583   4.589
 7144SOL    HW222332   6.325   0.704   4.605
 7145SOL     OW22333   5.012   2.318   6.942
 7145SOL    HW122334   4.971   2.227   6.930
 7145SOL    HW222335   4.939   2.386   6.950
 7146SOL     OW22336   2.233   1.282   5.270
 7146SOL    HW122337   2.176   1.291   5.351
 7146SOL    HW222338   2.204   1.203   5.217
 7147SOL     OW22339   5.739   5.296   2.014
 7147SOL    HW122340   5.717   5.388   1.982
 7147SOL    HW222341   5.734   5.293   2.114
 7148SOL     OW22342   6.896   6.098   0.935
 7148SOL    HW122343   6.906   6.105   1.034
 7148SOL    HW222344   6.820   6.156   0.905
 7149SOL     OW22345   6.440   5.253   4.156
 7149SOL    HW122346   6.521   5.273   4.212
 7149SOL    HW222347   6.451   5.294   4.066
 7150SOL     OW22348   3.969   3.325   0.001
 7150SOL    HW122349   3.947   3.422   0.014
 7150SOL    HW222350   3.988   3.283   0.090
 7151SOL     OW22351   3.863   0.821   0.849
 7151SOL    HW122352   3.779   0.875   0.836
 7151SOL    HW222353   3.899   0.793   0.760
 7152SOL     OW22354   0.199   1.689   6.650
 7152SOL    HW122355   0.277   1.693   6.589
 7152SOL    HW222356   0.125   1.637   6.607
 7153SOL     OW22357   3.830   6.139   1.017
 7153SOL    HW122358   3.901   6.167   0.952
 7153SOL    HW222359   3.769   6.073   0.972
 7154SOL     OW22360   4.044   1.610   1.856
 7154SOL    HW122361   4.074   1.660   1.938
 7154SOL    HW222362   3.946   1.628   1.841
 7155SOL     OW22363   2.859   1.581   2.525
 7155SOL    HW122364   2.764   1.548   2.530
 7155SOL    HW222365   2.901   1.549   2.440
 7156SOL     OW22366   6.158   4.192   0.102
 7156SOL    HW122367   6.165   4.116   0.166
 7156SOL    HW222368   6.150   4.157   0.008
 7157SOL     OW22369   6.081   4.553   6.564
 7157SOL    HW122370   5.992   4.596   6.579
 7157SOL    HW222371   6.151   4.601   6.618
 7158SOL     OW22372   4.902   0.062   3.559
 7158SOL    HW122373   4.829   0.019   3.507
 7158SOL    HW222374   4.873   0.074   3.654
 7159SOL     OW22375   0.524   5.962   3.413
 7159SOL    HW122376   0.458   5.981   3.486
 7159SOL    HW222377   0.479   5.973   3.324
 7160SOL     OW22378   6.157   6.845   2.982
 7160SOL    HW122379   6.109   6.834   2.895
 7160SOL    HW222380   6.233   6.908   2.969
 7161SOL     OW22381   4.072   3.549   3.598
 7161SOL    HW122382   3.987   3.501   3.623
 7161SOL    HW222383   4.070   3.569   3.500
 7162SOL     OW22384   0.016   5.036   2.144
 7162SOL    HW122385   6.936   5.047   2.134
 7162SOL    HW222386   0.035   4.979   2.224
 7163SOL     OW22387   1.084   1.215   2.385
 7163SOL    HW122388   1.140   1.133   2.390
 7163SOL    HW222389   1.142   1.294   2.365
 7164SOL     OW22390   1.809   1.057   6.246
 7164SOL    HW122391   1.773   0.996   6.175
 7164SOL    HW222392   1.795   1.152   6.219
 7165SOL     OW22393   6.591   0.578   0.256
 7165SOL    HW122394   6.634   0.626   0.333
 7165SOL    HW222395   6.627   0.485   0.251
 7166SOL     OW22396   5.884   6.399   5.925
 7166SOL    HW122397   5.842   6.321   5.973
 7166SOL    HW222398   5.883   6.479   5.984
 7167SOL     OW22399   5.797   2.160   4.986
 7167SOL    HW122400   5.707   2.155   4.943
 7167SOL    HW222401   5.817   2.255   5.011
 7168SOL     OW22402   2.903   1.148   2.237
 7168SOL    HW122403   2.991   1.102   2.238
 7168SOL    HW222404   2.869   1.153   2.143
 7169SOL     OW22405   1.836   4.231   6.296
 7169SOL    HW122406   1.859   4.162   6.364
 7169SOL    HW222407   1.912   4.244   6.233
 7170SOL     OW22408   4.216   1.394   1.856
 7170SOL    HW122409   4.242   1.392   1.759
 7170SOL    HW222410   4.148   1.466   1.871
 7171SOL     OW22411   6.172   4.725   0.567
 7171SOL    HW122412   6.112   4.684   0.499
 7171SOL    HW222413   6.261   4.745   0.526
 7172SOL     OW22414   1.001   1.712   3.808
 7172SOL    HW122415   0.980   1.684   3.902
 7172SOL    HW222416   1.026   1.809   3.807
 7173SOL     OW22417   4.750   6.062   6.434
 7173SOL    HW122418   4.791   5.992   6.491
 7173SOL    HW222419   4.744   6.029   6.340
 7174SOL     OW22420   5.989   4.483   1.804
 7174SOL    HW122421   5.935   4.549   1.856
 7174SOL    HW222422   5.954   4.477   1.711
 7175SOL     OW22423   5.853   3.630   5.714
 7175SOL    HW122424   5.763   3.643   5.755
 7175SOL    HW222425   5.846   3.568   5.636
 7176SOL     OW22426   0.445   0.872   5.351
 7176SOL    HW122427   0.474   0.933   5.278
 7176SOL    HW222428   0.455   0.777   5.322
 7177SOL     OW22429   1.552   4.776   4.259
 7177SOL    HW122430   1.556   4.842   4.184
 7177SOL    HW222431   1.556   4.683   4.222
 7178SOL     OW22432   1.245   1.167   5.483
 7178SOL    HW122433   1.308   1.140   5.410
 7178SOL    HW222434   1.226   1.089   5.542
 7179SOL     OW22435   3.747   6.095   6.396
 7179SOL    HW122436   3.786   6.021   6.452
 7179SOL    HW222437   3.647   6.089   6.400
 7180SOL     OW22438   1.042   4.317   0.827
 7180SOL    HW122439   1.025   4.336   0.924
 7180SOL    HW222440   1.114   4.378   0.794
 7181SOL     OW22441   2.421   1.382   5.971
 7181SOL    HW122442   2.482   1.322   5.919
 7181SOL    HW222443   2.465   1.472   5.982
 7182SOL     OW22444   1.266   2.951   4.156
 7182SOL    HW122445   1.262   3.000   4.069
 7182SOL    HW222446   1.360   2.921   4.173
 7183SOL     OW22447   0.589   6.340   1.692
 7183SOL    HW122448   0.536   6.419   1.722
 7183SOL    HW222449   0.674   6.370   1.649
 7184SOL     OW22450   6.438   0.024   3.567
 7184SOL    HW122451   6.444   0.114   3.525
 7184SOL    HW222452   6.401   6.977   3.501
 7185SOL     OW22453   4.883   0.615   4.892
 7185SOL    HW122454   4.834   0.701   4.905
 7185SOL    HW222455   4.823   0.538   4.913
 7186SOL     OW22456   0.361   0.012   6.249
 7186SOL    HW122457   0.277   0.049   6.208
 7186SOL    HW222458   0.417   0.088   6.282
 7187SOL     OW22459   3.020   3.129   4.633
 7187SOL    HW122460   2.952   3.063   4.664
 7187SOL    HW222461   3.111   3.092   4.648
 7188SOL     OW22462   4.021   4.740   0.264
 7188SOL    HW122463   4.020   4.665   0.331
 7188SOL    HW222464   3.928   4.760   0.235
 7189SOL     OW22465   5.955   2.401   5.514
 7189SOL    HW122466   5.858   2.393   5.492
 7189SOL    HW222467   5.966   2.458   5.595
 7190SOL     OW22468   5.723   5.285   1.174
 7190SOL    HW122469   5.800   5.349   1.175
 7190SOL    HW222470   5.704   5.257   1.080
 7191SOL     OW22471   0.599   4.154   3.373
 7191SOL    HW122472   0.594   4.055   3.387
 7191SOL    HW222473   0.658   4.195   3.442
 7192SOL     OW22474   1.809   4.611   6.606
 7192SOL    HW122475   1.713   4.616   6.632
 7192SOL    HW222476   1.860   4.685   6.650
 7193SOL     OW22477   2.482   2.432   2.382
 7193SOL    HW122478   2.508   2.405   2.289
 7193SOL    HW222479   2.441   2.523   2.380
 7194SOL     OW22480   3.043   2.680   5.795
 7194SOL    HW122481   2.952   2.640   5.803
 7194SOL    HW222482   3.095   2.662   5.879
 7195SOL     OW22483   6.975   3.765   6.514
 7195SOL    HW122484   0.012   3.702   6.459
 7195SOL    HW222485   0.016   3.826   6.567
 7196SOL     OW22486   2.924   3.709   2.099
 7196SOL    HW122487   2.928   3.809   2.102
 7196SOL    HW222488   3.017   3.672   2.105
 7197SOL     OW22489   2.384   3.718   5.566
 7197SOL    HW122490   2.415   3.645   5.505
 7197SOL    HW222491   2.322   3.680   5.635
 7198SOL     OW22492   6.601   0.927   1.272
 7198SOL    HW122493   6.586   1.025   1.287
 7198SOL    HW222494   6.694   0.913   1.237
 7199SOL     OW22495   1.111   0.971   1.960
 7199SOL    HW122496   1.187   1.030   1.989
 7199SOL    HW222497   1.028   0.997   2.008
 7200SOL     OW22498   1.319   2.062   0.545
 7200SOL    HW122499   1.248   2.123   0.509
 7200SOL    HW222500   1.290   2.027   0.634
 7201SOL     OW22501   5.877   5.708   4.281
 7201SOL    HW122502   5.900   5.786   4.222
 7201SOL    HW222503   5.785   5.721   4.319
 7202SOL     OW22504   4.775   0.282   5.671
 7202SOL    HW122505   4.845   0.212   5.655
 7202SOL    HW222506   4.782   0.315   5.765
 7203SOL     OW22507   0.233   1.848   1.724
 7203SOL    HW122508   0.147   1.802   1.746
 7203SOL    HW222509   0.302   1.781   1.698
 7204SOL     OW22510   6.861   0.854   1.408
 7204SOL    HW122511   6.910   0.929   1.363
 7204SOL    HW222512   6.911   0.769   1.393
 7205SOL     OW22513   2.022   2.083   4.852
 7205SOL    HW122514   2.037   2.182   4.854
 7205SOL    HW222515   1.940   2.063   4.797
 7206SOL     OW22516   1.876   2.437   0.979
 7206SOL    HW122517   1.881   2.488   1.065
 7206SOL    HW222518   1.927   2.487   0.909
 7207SOL     OW22519   1.757   1.976   3.780
 7207SOL    HW122520   1.813   2.057   3.791
 7207SOL    HW222521   1.723   1.971   3.686
 7208SOL     OW22522   3.134   0.666   4.116
 7208SOL    HW122523   3.231   0.685   4.102
 7208SOL    HW222524   3.107   0.696   4.207
 7209SOL     OW22525   3.066   1.551   2.136
 7209SOL    HW122526   3.154   1.586   2.167
 7209SOL    HW222527   3.029   1.612   2.065
 7210SOL     OW22528   2.527   1.515   3.205
 7210SOL    HW122529   2.515   1.605   3.162
 7210SOL    HW222530   2.595   1.463   3.154
 7211SOL     OW22531   3.223   5.784   5.429
 7211SOL    HW122532   3.135   5.743   5.404
 7211SOL    HW222533   3.296   5.719   5.408
 7212SOL     OW22534   5.683   4.670   6.069
 7212SOL    HW122535   5.628   4.629   5.997
 7212SOL    HW222536   5.674   4.618   6.153
 7213SOL     OW22537   3.816   1.240   1.055
 7213SOL    HW122538   3.719   1.239   1.078
 7213SOL    HW222539   3.841   1.329   1.018
 7214SOL     OW22540   0.127   1.494   0.024
 7214SOL    HW122541   0.194   1.551   6.994
 7214SOL    HW222542   0.169   1.452   0.104
 7215SOL     OW22543   6.661   2.800   3.059
 7215SOL    HW122544   6.677   2.898   3.070
 7215SOL    HW222545   6.574   2.785   3.012
 7216SOL     OW22546   2.986   6.374   3.003
 7216SOL    HW122547   3.027   6.406   3.088
 7216SOL    HW222548   2.991   6.447   2.934
 7217SOL     OW22549   1.465   4.267   3.162
 7217SOL    HW122550   1.540   4.205   3.187
 7217SOL    HW222551   1.472   4.291   3.065
 7218SOL     OW22552   6.158   3.657   4.634
 7218SOL    HW122553   6.202   3.708   4.561
 7218SOL    HW222554   6.079   3.708   4.669
 7219SOL     OW22555   3.532   6.035   1.698
 7219SOL    HW122556   3.494   6.115   1.746
 7219SOL    HW222557   3.460   5.969   1.681
 7220SOL     OW22558   6.344   4.974   4.089
 7220SOL    HW122559   6.284   4.954   4.011
 7220SOL    HW222560   6.382   5.066   4.078
 7221SOL     OW22561   3.621   5.721   5.309
 7221SOL    HW122562   3.662   5.677   5.229
 7221SOL    HW222563   3.647   5.671   5.391
 7222SOL     OW22564   6.921   0.055   4.174
 7222SOL    HW122565   6.951   7.006   4.106
 7222SOL    HW222566   6.832   0.090   4.148
 7223SOL     OW22567   1.458   2.202   0.741
 7223SOL    HW122568   1.426   2.168   0.653
 7223SOL    HW222569   1.399   2.277   0.772
 7224SOL     OW22570   4.151   2.085   3.932
 7224SOL    HW122571   4.057   2.087   3.898
 7224SOL    HW222572   4.202   2.013   3.885
 7225SOL     OW22573   1.855   0.041   1.230
 7225SOL    HW122574   1.761   0.046   1.264
 7225SOL    HW222575   1.875   6.964   1.204
 7226SOL     OW22576   6.268   0.778   6.981
 7226SOL    HW122577   6.254   0.858   0.022
 7226SOL    HW222578   6.345   0.724   7.016
 7227SOL     OW22579   3.064   0.738   2.293
 7227SOL    HW122580   3.003   0.701   2.223
 7227SOL    HW222581   3.046   0.692   2.380
 7228SOL     OW22582   0.796   2.620   2.651
 7228SOL    HW122583   0.714   2.678   2.656
 7228SOL    HW222584   0.835   2.625   2.559
 7229SOL     OW22585   6.858   0.241   4.444
 7229SOL    HW122586   6.768   0.205   4.420
 7229SOL    HW222587   6.895   0.188   4.521
 7230SOL     OW22588   2.253   5.014   4.140
 7230SOL    HW122589   2.307   5.089   4.102
 7230SOL    HW222590   2.290   4.989   4.230
 7231SOL     OW22591   4.656   1.303   6.980
 7231SOL    HW122592   4.609   1.248   0.031
 7231SOL    HW222593   4.647   1.258   6.891
 7232SOL     OW22594   5.738   6.870   2.809
 7232SOL    HW122595   5.742   6.771   2.801
 7232SOL    HW222596   5.645   6.897   2.835
 7233SOL     OW22597   6.401   0.946   5.332
 7233SOL    HW122598   6.323   0.894   5.366
 7233SOL    HW222599   6.371   1.003   5.255
 7234SOL     OW22600   5.143   3.831   3.173
 7234SOL    HW122601   5.109   3.777   3.250
 7234SOL    HW222602   5.070   3.891   3.140
 7235SOL     OW22603   6.655   5.693   1.408
 7235SOL    HW122604   6.650   5.603   1.366
 7235SOL    HW222605   6.739   5.701   1.462
 7236SOL     OW22606   2.508   2.530   3.441
 7236SOL    HW122607   2.585   2.500   3.498
 7236SOL    HW222608   2.518   2.491   3.350
 7237SOL     OW22609   5.247   0.324   6.675
 7237SOL    HW122610   5.307   0.364   6.744
 7237SOL    HW222611   5.295   0.251   6.626
 7238SOL     OW22612   4.558   3.106   6.867
 7238SOL    HW122613   4.633   3.143   6.922
 7238SOL    HW222614   4.482   3.080   6.927
 7239SOL     OW22615   0.611   3.771   2.642
 7239SOL    HW122616   0.575   3.769   2.735
 7239SOL    HW222617   0.670   3.852   2.631
 7240SOL     OW22618   6.733   1.639   6.154
 7240SOL    HW122619   6.650   1.585   6.163
 7240SOL    HW222620   6.757   1.647   6.057
 7241SOL     OW22621   2.729   1.239   1.731
 7241SOL    HW122622   2.739   1.300   1.810
 7241SOL    HW222623   2.700   1.292   1.651
 7242SOL     OW22624   0.568   5.076   3.677
 7242SOL    HW122625   0.655   5.103   3.718
 7242SOL    HW222626   0.498   5.069   3.749
 7243SOL     OW22627   6.569   4.118   6.409
 7243SOL    HW122628   6.655   4.143   6.365
 7243SOL    HW222629   6.520   4.052   6.351
 7244SOL     OW22630   0.452   6.456   6.625
 7244SOL    HW122631   0.435   6.464   6.723
 7244SOL    HW222632   0.368   6.477   6.575
 7245SOL     OW22633   1.573   2.806   6.653
 7245SOL    HW122634   1.644   2.877   6.646
 7245SOL    HW222635   1.491   2.837   6.606
 7246SOL     OW22636   2.925   0.275   4.286
 7246SOL    HW122637   2.843   0.331   4.294
 7246SOL    HW222638   2.991   0.304   4.355
 7247SOL     OW22639   2.791   2.515   5.325
 7247SOL    HW122640   2.808   2.613   5.334
 7247SOL    HW222641   2.876   2.464   5.340
 7248SOL     OW22642   3.359   0.459   4.758
 7248SOL    HW122643   3.387   0.364   4.775
 7248SOL    HW222644   3.441   0.515   4.743
 7249SOL     OW22645   4.229   5.173   1.722
 7249SOL    HW122646   4.138   5.131   1.723
 7249SOL    HW222647   4.274   5.156   1.810
 7250SOL     OW22648   5.220   5.523   5.408
 7250SOL    HW122649   5.187   5.609   5.369
 7250SOL    HW222650   5.177   5.446   5.362
 7251SOL     OW22651   0.723   6.136   5.116
 7251SOL    HW122652   0.680   6.140   5.026
 7251SOL    HW222653   0.800   6.073   5.114
 7252SOL     OW22654   3.092   4.000   2.186
 7252SOL    HW122655   3.088   4.072   2.256
 7252SOL    HW222656   3.175   3.946   2.199
 7253SOL     OW22657   1.464   5.920   5.601
 7253SOL    HW122658   1.520   5.852   5.555
 7253SOL    HW222659   1.440   5.993   5.537
 7254SOL     OW22660   5.613   4.561   3.787
 7254SOL    HW122661   5.598   4.659   3.803
 7254SOL    HW222662   5.668   4.549   3.704
 7255SOL     OW22663   5.443   3.039   6.423
 7255SOL    HW122664   5.430   3.112   6.356
 7255SOL    HW222665   5.354   2.999   6.445
 7256SOL     OW22666   3.457   6.753   5.950
 7256SOL    HW122667   3.382   6.789   5.895
 7256SOL    HW222668   3.444   6.778   6.046
 7257SOL     OW22669   0.219   1.798   4.646
 7257SOL    HW122670   0.254   1.704   4.649
 7257SOL    HW222671   0.202   1.824   4.551
 7258SOL     OW22672   5.757   2.156   2.282
 7258SOL    HW122673   5.817   2.211   2.225
 7258SOL    HW222674   5.703   2.216   2.341
 7259SOL     OW22675   1.104   4.028   3.108
 7259SOL    HW122676   1.074   3.973   3.186
 7259SOL    HW222677   1.179   4.088   3.136
 7260SOL     OW22678   5.785   2.431   0.890
 7260SOL    HW122679   5.704   2.377   0.912
 7260SOL    HW222680   5.796   2.504   0.958
 7261SOL     OW22681   0.338   3.999   0.813
 7261SOL    HW122682   0.350   4.095   0.788
 7261SOL    HW222683   0.328   3.992   0.912
 7262SOL     OW22684   5.369   1.823   5.996
 7262SOL    HW122685   5.336   1.871   5.915
 7262SOL    HW222686   5.455   1.864   6.026
 7263SOL     OW22687   0.190   6.542   0.381
 7263SOL    HW122688   0.199   6.462   0.440
 7263SOL    HW222689   0.244   6.617   0.419
 7264SOL     OW22690   5.691   1.442   0.326
 7264SOL    HW122691   5.662   1.361   0.377
 7264SOL    HW222692   5.654   1.440   0.234
 7265SOL     OW22693   4.924   6.216   4.777
 7265SOL    HW122694   4.875   6.301   4.759
 7265SOL    HW222695   4.909   6.152   4.702
 7266SOL     OW22696   6.966   0.626   4.048
 7266SOL    HW122697   6.976   0.726   4.050
 7266SOL    HW222698   6.939   0.593   4.138
 7267SOL     OW22699   6.319   5.977   5.193
 7267SOL    HW122700   6.231   5.972   5.239
 7267SOL    HW222701   6.306   5.968   5.094
 7268SOL     OW22702   6.363   6.001   4.363
 7268SOL    HW122703   6.407   6.029   4.448
 7268SOL    HW222704   6.333   6.081   4.312
 7269SOL     OW22705   1.818   4.993   5.578
 7269SOL    HW122706   1.800   4.965   5.672
 7269SOL    HW222707   1.853   5.087   5.577
 7270SOL     OW22708   0.213   1.817   4.390
 7270SOL    HW122709   0.302   1.779   4.366
 7270SOL    HW222710   0.156   1.822   4.308
 7271SOL     OW22711   1.286   4.934   4.242
 7271SOL    HW122712   1.219   4.862   4.258
 7271SOL    HW222713   1.363   4.897   4.191
 7272SOL     OW22714   6.086   6.501   1.900
 7272SOL    HW122715   6.035   6.579   1.864
 7272SOL    HW222716   6.169   6.487   1.846
 7273SOL     OW22717   5.998   2.713   5.943
 7273SOL    HW122718   6.005   2.720   6.043
 7273SOL    HW222719   6.031   2.798   5.902
 7274SOL     OW22720   1.043   4.525   6.695
 7274SOL    HW122721   1.024   4.615   6.655
 7274SOL    HW222722   0.969   4.462   6.672
 7275SOL     OW22723   6.710   6.792   2.800
 7275SOL    HW122724   6.775   6.859   2.833
 7275SOL    HW222725   6.628   6.838   2.766
 7276SOL     OW22726   5.524   0.199   3.414
 7276SOL    HW122727   5.559   0.271   3.474
 7276SOL    HW222728   5.427   0.185   3.431
 7277SOL     OW22729   4.303   1.002   5.610
 7277SOL    HW122730   4.229   1.058   5.646
 7277SOL    HW222731   4.386   1.019   5.663
 7278SOL     OW22732   2.996   3.985   1.946
 7278SOL    HW122733   2.981   4.073   1.901
 7278SOL    HW222734   3.024   4.001   2.041
 7279SOL     OW22735   3.947   6.208   0.212
 7279SOL    HW122736   3.856   6.227   0.176
 7279SOL    HW222737   3.940   6.150   0.293
 7280SOL     OW22738   4.925   0.229   4.712
 7280SOL    HW122739   4.907   0.238   4.614
 7280SOL    HW222740   4.852   0.275   4.763
 7281SOL     OW22741   3.794   1.958   6.577
 7281SOL    HW122742   3.729   1.882   6.578
 7281SOL    HW222743   3.867   1.941   6.643
 7282SOL     OW22744   5.609   5.098   2.544
 7282SOL    HW122745   5.521   5.059   2.574
 7282SOL    HW222746   5.683   5.057   2.598
 7283SOL     OW22747   2.587   1.227   2.648
 7283SOL    HW122748   2.598   1.129   2.631
 7283SOL    HW222749   2.549   1.270   2.566
 7284SOL     OW22750   0.014   4.199   5.671
 7284SOL    HW122751   0.084   4.128   5.677
 7284SOL    HW222752   6.985   4.191   5.583
 7285SOL     OW22753   4.946   4.996   2.491
 7285SOL    HW122754   5.020   5.062   2.481
 7285SOL    HW222755   4.859   5.044   2.501
 7286SOL     OW22756   2.207   2.198   1.101
 7286SOL    HW122757   2.112   2.173   1.123
 7286SOL    HW222758   2.243   2.134   1.034
 7287SOL     OW22759   0.077   1.251   6.905
 7287SOL    HW122760   0.097   1.346   6.927
 7287SOL    HW222761   0.096   1.194   6.985
 7288SOL     OW22762   3.762   0.968   6.293
 7288SOL    HW122763   3.706   1.047   6.266
 7288SOL    HW222764   3.815   0.937   6.214
 7289SOL     OW22765   5.826   1.547   3.163
 7289SOL    HW122766   5.888   1.624   3.147
 7289SOL    HW222767   5.842   1.477   3.094
 7290SOL     OW22768   2.794   5.590   5.583
 7290SOL    HW122769   2.850   5.613   5.662
 7290SOL    HW222770   2.792   5.667   5.520
 7291SOL     OW22771   2.213   6.997   1.648
 7291SOL    HW122772   2.304   0.020   1.640
 7291SOL    HW222773   2.178   6.974   1.557
 7292SOL     OW22774   3.103   6.997   3.545
 7292SOL    HW122775   3.108   6.920   3.481
 7292SOL    HW222776   3.074   6.964   3.635
 7293SOL     OW22777   1.942   1.350   5.056
 7293SOL    HW122778   1.853   1.396   5.051
 7293SOL    HW222779   1.952   1.308   5.146
 7294SOL     OW22780   2.554   5.042   0.407
 7294SOL    HW122781   2.609   4.965   0.376
 7294SOL    HW222782   2.582   5.069   0.499
 7295SOL     OW22783   0.607   1.864   0.786
 7295SOL    HW122784   0.642   1.780   0.745
 7295SOL    HW222785   0.679   1.907   0.840
 7296SOL     OW22786   3.063   4.641   1.136
 7296SOL    HW122787   3.023   4.573   1.198
 7296SOL    HW222788   2.996   4.712   1.117
 7297SOL     OW22789   3.861   5.875   0.690
 7297SOL    HW122790   3.781   5.928   0.659
 7297SOL    HW222791   3.918   5.933   0.748
 7298SOL     OW22792   5.741   4.448   5.202
 7298SOL    HW122793   5.829   4.473   5.161
 7298SOL    HW222794   5.755   4.375   5.268
 7299SOL     OW22795   0.529   2.462   6.912
 7299SOL    HW122796   0.583   2.433   6.833
 7299SOL    HW222797   0.479   2.546   6.890
 7300SOL     OW22798   5.235   5.278   1.455
 7300SOL    HW122799   5.301   5.342   1.416
 7300SOL    HW222800   5.142   5.304   1.427
 7301SOL     OW22801   6.907   0.829   5.172
 7301SOL    HW122802   6.954   0.906   5.217
 7301SOL    HW222803   6.840   0.790   5.235
 7302SOL     OW22804   0.427   1.583   0.215
 7302SOL    HW122805   0.362   1.534   0.273
 7302SOL    HW222806   0.487   1.518   0.169
 7303SOL     OW22807   4.943   0.492   6.513
 7303SOL    HW122808   4.951   0.560   6.586
 7303SOL    HW222809   4.951   0.400   6.551
 7304SOL     OW22810   3.946   4.043   6.605
 7304SOL    HW122811   4.039   4.024   6.575
 7304SOL    HW222812   3.900   4.100   6.536
 7305SOL     OW22813   5.073   1.687   0.271
 7305SOL    HW122814   5.116   1.710   0.183
 7305SOL    HW222815   4.976   1.668   0.256
 7306SOL     OW22816   4.923   3.532   1.512
 7306SOL    HW122817   4.855   3.521   1.586
 7306SOL    HW222818   4.877   3.568   1.431
 7307SOL     OW22819   2.872   6.405   1.553
 7307SOL    HW122820   2.905   6.488   1.596
 7307SOL    HW222821   2.858   6.421   1.455
 7308SOL     OW22822   6.751   3.798   5.569
 7308SOL    HW122823   6.829   3.808   5.632
 7308SOL    HW222824   6.725   3.702   5.564
 7309SOL     OW22825   4.879   5.733   0.379
 7309SOL    HW122826   4.897   5.654   0.438
 7309SOL    HW222827   4.963   5.760   0.333
 7310SOL     OW22828   1.730   4.473   1.230
 7310SOL    HW122829   1.739   4.381   1.269
 7310SOL    HW222830   1.813   4.496   1.180
 7311SOL     OW22831   3.138   1.866   2.335
 7311SOL    HW122832   3.045   1.882   2.367
 7311SOL    HW222833   3.139   1.867   2.235
 7312SOL     OW22834   0.113   2.714   5.514
 7312SOL    HW122835   0.130   2.811   5.495
 7312SOL    HW222836   0.076   2.704   5.606
 7313SOL     OW22837   4.648   2.585   6.177
 7313SOL    HW122838   4.645   2.514   6.248
 7313SOL    HW222839   4.559   2.589   6.131
 7314SOL     OW22840   6.527   3.900   4.866
 7314SOL    HW122841   6.534   3.986   4.918
 7314SOL    HW222842   6.458   3.842   4.908
 7315SOL     OW22843   6.306   0.444   3.347
 7315SOL    HW122844   6.232   0.443   3.280
 7315SOL    HW222845   6.329   0.538   3.371
 7316SOL     OW22846   3.268   3.150   5.779
 7316SOL    HW122847   3.241   3.193   5.865
 7316SOL    HW222848   3.260   3.216   5.704
 7317SOL     OW22849   4.383   0.506   1.735
 7317SOL    HW122850   4.376   0.453   1.650
 7317SOL    HW222851   4.326   0.587   1.728
 7318SOL     OW22852   0.988   1.520   1.007
 7318SOL    HW122853   0.989   1.428   0.966
 7318SOL    HW222854   1.007   1.512   1.105
 7319SOL     OW22855   6.273   4.421   6.887
 7319SOL    HW122856   6.330   4.357   6.837
 7319SOL    HW222857   6.323   4.507   6.901
 7320SOL     OW22858   6.659   3.358   2.133
 7320SOL    HW122859   6.655   3.448   2.090
 7320SOL    HW222860   6.599   3.356   2.213
 7321SOL     OW22861   2.558   0.688   5.094
 7321SOL    HW122862   2.519   0.768   5.049
 7321SOL    HW222863   2.496   0.658   5.167
 7322SOL     OW22864   1.262   3.375   2.325
 7322SOL    HW122865   1.302   3.315   2.256
 7322SOL    HW222866   1.165   3.390   2.304
 7323SOL     OW22867   2.185   1.930   2.504
 7323SOL    HW122868   2.277   1.955   2.535
 7323SOL    HW222869   2.167   1.974   2.415
 7324SOL     OW22870   5.518   6.835   2.992
 7324SOL    HW122871   5.428   6.875   2.973
 7324SOL    HW222872   5.506   6.745   3.035
 7325SOL     OW22873   4.065   0.687   6.082
 7325SOL    HW122874   4.148   0.689   6.137
 7325SOL    HW222875   4.042   0.592   6.060
 7326SOL     OW22876   2.347   6.044   5.032
 7326SOL    HW122877   2.336   6.033   5.131
 7326SOL    HW222878   2.428   6.100   5.014
 7327SOL     OW22879   6.838   2.938   5.769
 7327SOL    HW122880   6.755   2.963   5.820
 7327SOL    HW222881   6.818   2.939   5.671
 7328SOL     OW22882   3.869   0.304   6.826
 7328SOL    HW122883   3.916   0.225   6.786
 7328SOL    HW222884   3.867   0.295   6.926
 7329SOL     OW22885   4.153   4.250   1.380
 7329SOL    HW122886   4.192   4.205   1.460
 7329SOL    HW222887   4.191   4.211   1.297
 7330SOL     OW22888   2.970   2.010   0.491
 7330SOL    HW122889   3.039   1.957   0.540
 7330SOL    HW222890   2.981   2.107   0.510
 7331SOL     OW22891   5.961   0.639   1.459
 7331SOL    HW122892   5.981   0.726   1.413
 7331SOL    HW222893   6.027   0.570   1.430
 7332SOL     OW22894   2.862   5.868   0.108
 7332SOL    HW122895   2.854   5.829   0.199
 7332SOL    HW222896   2.779   5.850   0.056
 7333SOL     OW22897   0.243   3.477   3.808
 7333SOL    HW122898   0.308   3.450   3.737
 7333SOL    HW222899   0.289   3.475   3.897
 7334SOL     OW22900   4.269   5.891   6.066
 7334SOL    HW122901   4.219   5.885   5.980
 7334SOL    HW222902   4.239   5.818   6.128
 7335SOL     OW22903   1.794   2.635   2.258
 7335SOL    HW122904   1.754   2.725   2.275
 7335SOL    HW222905   1.891   2.636   2.282
 7336SOL     OW22906   1.432   6.433   3.078
 7336SOL    HW122907   1.473   6.506   3.024
 7336SOL    HW222908   1.436   6.347   3.027
 7337SOL     OW22909   0.841   3.234   2.540
 7337SOL    HW122910   0.940   3.239   2.552
 7337SOL    HW222911   0.799   3.196   2.622
 7338SOL     OW22912   6.389   2.563   1.218
 7338SOL    HW122913   6.410   2.465   1.223
 7338SOL    HW222914   6.362   2.596   1.309
 7339SOL     OW22915   5.595   6.447   3.495
 7339SOL    HW122916   5.670   6.511   3.512
 7339SOL    HW222917   5.608   6.365   3.552
 7340SOL     OW22918   1.945   0.268   0.573
 7340SOL    HW122919   1.883   0.198   0.536
 7340SOL    HW222920   1.974   0.329   0.499
 7341SOL     OW22921   6.791   2.353   6.743
 7341SOL    HW122922   6.769   2.316   6.833
 7341SOL    HW222923   6.887   2.333   6.722
 7342SOL     OW22924   6.524   0.238   2.178
 7342SOL    HW122925   6.621   0.259   2.163
 7342SOL    HW222926   6.504   0.146   2.145
 7343SOL     OW22927   4.610   2.816   0.215
 7343SOL    HW122928   4.594   2.824   0.117
 7343SOL    HW222929   4.531   2.774   0.259
 7344SOL     OW22930   1.183   6.890   5.974
 7344SOL    HW122931   1.155   6.794   5.975
 7344SOL    HW222932   1.268   6.900   5.922
 7345SOL     OW22933   3.740   3.366   5.329
 7345SOL    HW122934   3.812   3.382   5.397
 7345SOL    HW222935   3.742   3.270   5.301
 7346SOL     OW22936   4.040   6.572   2.620
 7346SOL    HW122937   3.967   6.559   2.687
 7346SOL    HW222938   4.073   6.666   2.625
 7347SOL     OW22939   0.397   2.270   0.024
 7347SOL    HW122940   0.436   2.352   7.000
 7347SOL    HW222941   0.305   2.253   7.006
 7348SOL     OW22942   1.473   3.720   3.638
 7348SOL    HW122943   1.495   3.817   3.640
 7348SOL    HW222944   1.555   3.668   3.612
 7349SOL     OW22945   4.339   0.225   0.625
 7349SOL    HW122946   4.366   0.308   0.674
 7349SOL    HW222947   4.408   0.202   0.557
 7350SOL     OW22948   2.593   0.457   5.467
 7350SOL    HW122949   2.536   0.426   5.543
 7350SOL    HW222950   2.684   0.480   5.502
 7351SOL     OW22951   5.231   5.121   4.090
 7351SOL    HW122952   5.219   5.202   4.033
 7351SOL    HW222953   5.142   5.091   4.124
 7352SOL     OW22954   0.500   2.026   2.969
 7352SOL    HW122955   0.406   2.001   2.991
 7352SOL    HW222956   0.501   2.093   2.895
 7353SOL     OW22957   6.567   0.548   6.760
 7353SOL    HW122958   6.579   0.457   6.722
 7353SOL    HW222959   6.471   0.562   6.784
 7354SOL     OW22960   1.586   0.493   4.077
 7354SOL    HW122961   1.652   0.568   4.089
 7354SOL    HW222962   1.603   0.449   3.988
 7355SOL     OW22963   6.999   1.982   6.423
 7355SOL    HW122964   0.062   1.997   6.367
 7355SOL    HW222965   6.932   1.930   6.370
 7356SOL     OW22966   3.806   3.651   6.141
 7356SOL    HW122967   3.711   3.640   6.115
 7356SOL    HW222968   3.836   3.744   6.120
 7357SOL     OW22969   3.938   5.904   1.553
 7357SOL    HW122970   3.917   5.955   1.470
 7357SOL    HW222971   3.883   5.939   1.629
 7358SOL     OW22972   5.809   2.517   2.436
 7358SOL    HW122973   5.759   2.569   2.367
 7358SOL    HW222974   5.745   2.471   2.497
 7359SOL     OW22975   3.948   1.645   6.182
 7359SOL    HW122976   3.967   1.734   6.223
 7359SOL    HW222977   4.018   1.579   6.211
 7360SOL     OW22978   2.443   3.515   5.325
 7360SOL    HW122979   2.443   3.416   5.322
 7360SOL    HW222980   2.534   3.549   5.301
 7361SOL     OW22981   5.416   0.587   2.398
 7361SOL    HW122982   5.387   0.599   2.303
 7361SOL    HW222983   5.336   0.563   2.454
 7362SOL     OW22984   4.019   4.931   5.729
 7362SOL    HW122985   4.087   4.989   5.684
 7362SOL    HW222986   4.034   4.931   5.828
 7363SOL     OW22987   4.301   1.354   1.544
 7363SOL    HW122988   4.377   1.392   1.597
 7363SOL    HW222989   4.283   1.261   1.574
 7364SOL     OW22990   4.290   0.136   1.606
 7364SOL    HW122991   4.359   0.208   1.613
 7364SOL    HW222992   4.306   0.068   1.678
 7365SOL     OW22993   6.496   5.573   2.644
 7365SOL    HW122994   6.482   5.554   2.546
 7365SOL    HW222995   6.459   5.497   2.698
 7366SOL     OW22996   2.421   0.286   4.433
 7366SOL    HW122997   2.334   0.272   4.385
 7366SOL    HW222998   2.469   0.199   4.440
 7367SOL     OW22999   4.562   1.925   0.475
 7367SOL    HW123000   4.497   1.965   0.411
 7367SOL    HW223001   4.514   1.863   0.537
 7368SOL     OW23002   3.559   3.398   2.354
 7368SOL    HW123003   3.553   3.309   2.399
 7368SOL    HW223004   3.472   3.418   2.309
 7369SOL     OW23005   4.238   2.360   1.082
 7369SOL    HW123006   4.202   2.448   1.051
 7369SOL    HW223007   4.190   2.331   1.164
 7370SOL     OW23008   2.537   1.974   4.812
 7370SOL    HW123009   2.571   2.019   4.895
 7370SOL    HW223010   2.519   2.043   4.742
 7371SOL     OW23011   3.291   6.862   3.833
 7371SOL    HW123012   3.343   6.846   3.918
 7371SOL    HW223013   3.354   6.895   3.763
 7372SOL     OW23014   3.750   6.585   4.741
 7372SOL    HW123015   3.701   6.532   4.811
 7372SOL    HW223016   3.698   6.668   4.721
 7373SOL     OW23017   4.659   1.988   4.717
 7373SOL    HW123018   4.682   1.922   4.789
 7373SOL    HW223019   4.631   2.074   4.759
 7374SOL     OW23020   1.472   1.551   5.249
 7374SOL    HW123021   1.476   1.573   5.347
 7374SOL    HW223022   1.378   1.560   5.216
 7375SOL     OW23023   2.015   3.200   2.247
 7375SOL    HW123024   2.060   3.122   2.206
 7375SOL    HW223025   2.058   3.285   2.215
 7376SOL     OW23026   1.150   3.766   0.790
 7376SOL    HW123027   1.122   3.833   0.721
 7376SOL    HW223028   1.170   3.813   0.876
 7377SOL     OW23029   3.384   4.971   0.009
 7377SOL    HW123030   3.405   5.066   7.003
 7377SOL    HW223031   3.457   4.934   0.066
 7378SOL     OW23032   1.758   6.697   4.084
 7378SOL    HW123033   1.779   6.707   3.987
 7378SOL    HW223034   1.757   6.787   4.127
 7379SOL     OW23035   3.758   0.259   1.159
 7379SOL    HW123036   3.760   0.347   1.110
 7379SOL    HW223037   3.792   0.272   1.252
 7380SOL     OW23038   6.506   4.420   3.447
 7380SOL    HW123039   6.519   4.474   3.530
 7380SOL    HW223040   6.558   4.335   3.454
 7381SOL     OW23041   4.398   1.969   1.045
 7381SOL    HW123042   4.369   1.888   1.095
 7381SOL    HW223043   4.325   2.037   1.045
 7382SOL     OW23044   6.533   1.999   5.687
 7382SOL    HW123045   6.596   2.049   5.747
 7382SOL    HW223046   6.580   1.919   5.650
 7383SOL     OW23047   1.578   6.369   1.609
 7383SOL    HW123048   1.512   6.424   1.660
 7383SOL    HW223049   1.585   6.404   1.515
 7384SOL     OW23050   0.345   6.575   1.184
 7384SOL    HW123051   0.424   6.527   1.146
 7384SOL    HW223052   0.376   6.648   1.245
 7385SOL     OW23053   3.323   4.881   2.415
 7385SOL    HW123054   3.276   4.793   2.417
 7385SOL    HW223055   3.352   4.906   2.507
 7386SOL     OW23056   0.026   3.520   7.012
 7386SOL    HW123057   0.113   3.470   7.005
 7386SOL    HW223058   7.010   3.539   6.920
 7387SOL     OW23059   5.976   4.459   5.789
 7387SOL    HW123060   5.954   4.383   5.729
 7387SOL    HW223061   5.980   4.544   5.737
 7388SOL     OW23062   1.293   6.173   2.456
 7388SOL    HW123063   1.286   6.097   2.391
 7388SOL    HW223064   1.205   6.220   2.462
 7389SOL     OW23065   0.261   3.322   0.350
 7389SOL    HW123066   0.168   3.338   0.316
 7389SOL    HW223067   0.256   3.293   0.446
 7390SOL     OW23068   2.693   1.883   2.980
 7390SOL    HW123069   2.767   1.937   2.939
 7390SOL    HW223070   2.719   1.787   2.982
 7391SOL     OW23071   4.151   3.571   2.355
 7391SOL    HW123072   4.093   3.505   2.404
 7391SOL    HW223073   4.245   3.563   2.388
 7392SOL     OW23074   4.135   6.071   6.516
 7392SOL    HW123075   4.111   6.043   6.609
 7392SOL    HW223076   4.158   6.169   6.516
 7393SOL     OW23077   6.479   4.864   3.792
 7393SOL    HW123078   6.478   4.947   3.848
 7393SOL    HW223079   6.422   4.794   3.835
 7394SOL     OW23080   2.290   2.559   6.279
 7394SOL    HW123081   2.215   2.513   6.327
 7394SOL    HW223082   2.287   2.657   6.300
 7395SOL     OW23083   2.146   3.401   1.123
 7395SOL    HW123084   2.049   3.385   1.143
 7395SOL    HW223085   2.172   3.491   1.160
 7396SOL     OW23086   2.690   5.402   1.627
 7396SOL    HW123087   2.710   5.314   1.583
 7396SOL    HW223088   2.727   5.402   1.720
 7397SOL     OW23089   4.943   4.344   4.625
 7397SOL    HW123090   4.899   4.422   4.581
 7397SOL    HW223091   4.919   4.260   4.575
 7398SOL     OW23092   1.616   4.544   3.142
 7398SOL    HW123093   1.654   4.533   3.050
 7398SOL    HW223094   1.615   4.456   3.189
 7399SOL     OW23095   6.094   3.091   4.784
 7399SOL    HW123096   6.020   3.033   4.751
 7399SOL    HW223097   6.058   3.157   4.850
 7400SOL     OW23098   5.563   2.165   5.339
 7400SOL    HW123099   5.655   2.127   5.340
 7400SOL    HW223100   5.509   2.123   5.266
 7401SOL     OW23101   1.439   3.265   2.969
 7401SOL    HW123102   1.407   3.182   2.925
 7401SOL    HW223103   1.383   3.342   2.939
 7402SOL     OW23104   2.736   5.743   4.871
 7402SOL    HW123105   2.746   5.648   4.902
 7402SOL    HW223106   2.819   5.794   4.894
 7403SOL     OW23107   2.084   3.246   3.272
 7403SOL    HW123108   2.121   3.307   3.202
 7403SOL    HW223109   2.145   3.168   3.284
 7404SOL     OW23110   3.054   3.868   1.574
 7404SOL    HW123111   3.019   3.830   1.659
 7404SOL    HW223112   3.093   3.958   1.591
 7405SOL     OW23113   2.987   5.640   5.313
 7405SOL    HW123114   2.928   5.561   5.298
 7405SOL    HW223115   2.931   5.721   5.328
 7406SOL     OW23116   0.383   1.421   5.407
 7406SOL    HW123117   0.477   1.453   5.393
 7406SOL    HW223118   0.360   1.353   5.338
 7407SOL     OW23119   0.645   6.008   6.586
 7407SOL    HW123120   0.714   6.061   6.635
 7407SOL    HW223121   0.625   5.925   6.638
 7408SOL     OW23122   3.196   3.873   5.037
 7408SOL    HW123123   3.174   3.968   5.014
 7408SOL    HW223124   3.254   3.835   4.965
 7409SOL     OW23125   5.635   4.096   0.163
 7409SOL    HW123126   5.634   4.166   0.235
 7409SOL    HW223127   5.720   4.103   0.111
 7410SOL     OW23128   0.356   0.394   1.188
 7410SOL    HW123129   0.415   0.325   1.147
 7410SOL    HW223130   0.328   0.460   1.118
 7411SOL     OW23131   1.089   2.003   5.838
 7411SOL    HW123132   1.079   1.981   5.740
 7411SOL    HW223133   1.032   2.081   5.861
 7412SOL     OW23134   3.557   0.080   0.132
 7412SOL    HW123135   3.548   0.164   0.186
 7412SOL    HW223136   3.502   0.088   0.049
 7413SOL     OW23137   4.224   5.200   3.466
 7413SOL    HW123138   4.201   5.147   3.384
 7413SOL    HW223139   4.321   5.187   3.487
 7414SOL     OW23140   2.441   1.779   4.181
 7414SOL    HW123141   2.403   1.801   4.271
 7414SOL    HW223142   2.523   1.833   4.166
 7415SOL     OW23143   3.429   0.211   6.503
 7415SOL    HW123144   3.380   0.125   6.495
 7415SOL    HW223145   3.507   0.200   6.565
 7416SOL     OW23146   0.881   1.695   2.320
 7416SOL    HW123147   0.829   1.672   2.402
 7416SOL    HW223148   0.966   1.740   2.346
 7417SOL     OW23149   1.193   2.673   3.365
 7417SOL    HW123150   1.201   2.605   3.292
 7417SOL    HW223151   1.215   2.763   3.329
 7418SOL     OW23152   1.873   4.519   6.326
 7418SOL    HW123153   1.881   4.540   6.423
 7418SOL    HW223154   1.844   4.424   6.314
 7419SOL     OW23155   6.525   3.907   3.432
 7419SOL    HW123156   6.459   3.838   3.402
 7419SOL    HW223157   6.615   3.884   3.396
 7420SOL     OW23158   0.005   6.644   2.254
 7420SOL    HW123159   0.003   6.612   2.159
 7420SOL    HW223160   6.936   6.624   2.298
 7421SOL     OW23161   4.535   3.298   1.661
 7421SOL    HW123162   4.541   3.199   1.653
 7421SOL    HW223163   4.443   3.324   1.690
 7422SOL     OW23164   5.802   2.727   2.017
 7422SOL    HW123165   5.755   2.815   2.014
 7422SOL    HW223166   5.756   2.667   2.084
 7423SOL     OW23167   5.861   1.721   5.563
 7423SOL    HW123168   5.810   1.693   5.645
 7423SOL    HW223169   5.844   1.655   5.490
 7424SOL     OW23170   0.177   0.922   5.443
 7424SOL    HW123171   0.133   0.979   5.373
 7424SOL    HW223172   0.276   0.926   5.431
 7425SOL     OW23173   5.514   6.986   0.533
 7425SOL    HW123174   5.511   0.044   0.598
 7425SOL    HW223175   5.588   6.924   0.558
 7426SOL     OW23176   3.657   2.584   6.383
 7426SOL    HW123177   3.594   2.661   6.379
 7426SOL    HW223178   3.651   2.541   6.474
 7427SOL     OW23179   3.392   1.354   4.076
 7427SOL    HW123180   3.390   1.340   3.977
 7427SOL    HW223181   3.422   1.270   4.121
 7428SOL     OW23182   4.045   6.550   5.883
 7428SOL    HW123183   3.979   6.586   5.816
 7428SOL    HW223184   4.004   6.552   5.974
 7429SOL     OW23185   1.053   6.966   2.336
 7429SOL    HW123186   1.006   0.035   2.330
 7429SOL    HW223187   1.110   6.964   2.418
 7430SOL     OW23188   0.060   4.805   3.212
 7430SOL    HW123189   7.015   4.882   3.220
 7430SOL    HW223190   0.044   4.741   3.288
 7431SOL     OW23191   1.998   2.367   4.568
 7431SOL    HW123192   1.996   2.269   4.549
 7431SOL    HW223193   2.072   2.409   4.516
 7432SOL     OW23194   1.888   0.418   3.471
 7432SOL    HW123195   1.923   0.484   3.404
 7432SOL    HW223196   1.834   0.348   3.424
 7433SOL     OW23197   3.399   6.746   6.539
 7433SOL    HW123198   3.481   6.693   6.558
 7433SOL    HW223199   3.326   6.718   6.602
 7434SOL     OW23200   4.580   6.148   5.951
 7434SOL    HW123201   4.502   6.211   5.959
 7434SOL    HW223202   4.581   6.087   6.031
 7435SOL     OW23203   4.692   6.602   2.033
 7435SOL    HW123204   4.653   6.665   2.100
 7435SOL    HW223205   4.771   6.555   2.072
 7436SOL     OW23206   5.194   3.652   6.636
 7436SOL    HW123207   5.252   3.647   6.554
 7436SOL    HW223208   5.231   3.722   6.698
 7437SOL     OW23209   3.206   5.635   1.338
 7437SOL    HW123210   3.179   5.652   1.243
 7437SOL    HW223211   3.132   5.586   1.385
 7438SOL     OW23212   2.471   0.940   0.518
 7438SOL    HW123213   2.374   0.961   0.524
 7438SOL    HW223214   2.519   0.984   0.595
 7439SOL     OW23215   1.813   5.142   6.293
 7439SOL    HW123216   1.864   5.090   6.361
 7439SOL    HW223217   1.719   5.111   6.291
 7440SOL     OW23218   4.787   3.063   4.134
 7440SOL    HW123219   4.814   3.110   4.217
 7440SOL    HW223220   4.756   3.130   4.066
 7441SOL     OW23221   5.635   6.075   2.197
 7441SOL    HW123222   5.551   6.122   2.172
 7441SOL    HW223223   5.710   6.108   2.139
 7442SOL     OW23224   5.453   0.502   5.772
 7442SOL    HW123225   5.542   0.514   5.816
 7442SOL    HW223226   5.464   0.446   5.689
 7443SOL     OW23227   0.426   6.165   2.135
 7443SOL    HW123228   0.340   6.125   2.102
 7443SOL    HW223229   0.484   6.189   2.057
 7444SOL     OW23230   0.694   0.413   5.791
 7444SOL    HW123231   0.661   0.451   5.704
 7444SOL    HW223232   0.730   0.321   5.776
 7445SOL     OW23233   4.097   6.387   2.199
 7445SOL    HW123234   4.059   6.452   2.264
 7445SOL    HW223235   4.136   6.436   2.121
 7446SOL     OW23236   4.861   3.387   0.274
 7446SOL    HW123237   4.927   3.356   0.342
 7446SOL    HW223238   4.900   3.375   0.182
 7447SOL     OW23239   1.044   4.140   0.334
 7447SOL    HW123240   0.968   4.075   0.322
 7447SOL    HW223241   1.007   4.228   0.366
 7448SOL     OW23242   4.778   5.936   6.196
 7448SOL    HW123243   4.791   5.839   6.179
 7448SOL    HW223244   4.790   5.986   6.110
 7449SOL     OW23245   0.714   4.469   0.213
 7449SOL    HW123246   0.633   4.518   0.244
 7449SOL    HW223247   0.696   4.425   0.124
 7450SOL     OW23248   5.263   1.955   5.737
 7450SOL    HW123249   5.296   1.991   5.649
 7450SOL    HW223250   5.180   1.902   5.721
 7451SOL     OW23251   5.668   5.370   2.517
 7451SOL    HW123252   5.664   5.371   2.417
 7451SOL    HW223253   5.628   5.285   2.551
 7452SOL     OW23254   5.278   6.374   5.122
 7452SOL    HW123255   5.250   6.326   5.039
 7452SOL    HW223256   5.275   6.311   5.199
 7453SOL     OW23257   4.671   5.555   6.492
 7453SOL    HW123258   4.754   5.594   6.532
 7453SOL    HW223259   4.627   5.623   6.434
 7454SOL     OW23260   3.324   1.824   0.575
 7454SOL    HW123261   3.323   1.855   0.480
 7454SOL    HW223262   3.296   1.728   0.579
 7455SOL     OW23263   6.369   2.768   2.909
 7455SOL    HW123264   6.421   2.721   2.837
 7455SOL    HW223265   6.271   2.752   2.895
 7456SOL     OW23266   2.347   2.356   5.237
 7456SOL    HW123267   2.252   2.325   5.240
 7456SOL    HW223268   2.404   2.286   5.193
 7457SOL     OW23269   2.515   6.990   3.398
 7457SOL    HW123270   2.569   6.911   3.370
 7457SOL    HW223271   2.475   6.973   3.489
 7458SOL     OW23272   0.912   6.481   4.929
 7458SOL    HW123273   0.922   6.573   4.890
 7458SOL    HW223274   0.861   6.423   4.866
 7459SOL     OW23275   6.555   0.872   2.793
 7459SOL    HW123276   6.633   0.898   2.849
 7459SOL    HW223277   6.587   0.832   2.707
 7460SOL     OW23278   1.308   6.791   0.592
 7460SOL    HW123279   1.277   6.863   0.529
 7460SOL    HW223280   1.320   6.705   0.542
 7461SOL     OW23281   0.650   5.574   5.817
 7461SOL    HW123282   0.712   5.653   5.810
 7461SOL    HW223283   0.704   5.490   5.815
 7462SOL     OW23284   1.066   5.404   1.295
 7462SOL    HW123285   1.152   5.438   1.256
 7462SOL    HW223286   1.055   5.308   1.272
 7463SOL     OW23287   3.964   4.466   0.064
 7463SOL    HW123288   3.999   4.549   0.021
 7463SOL    HW223289   4.011   4.386   0.027
 7464SOL     OW23290   0.160   5.020   4.556
 7464SOL    HW123291   0.236   5.011   4.491
 7464SOL    HW223292   0.195   5.041   4.647
 7465SOL     OW23293   2.342   5.035   0.223
 7465SOL    HW123294   2.410   5.059   0.293
 7465SOL    HW223295   2.389   5.012   0.138
 7466SOL     OW23296   1.017   0.303   5.033
 7466SOL    HW123297   0.961   0.230   4.994
 7466SOL    HW223298   1.102   0.310   4.981
 7467SOL     OW23299   0.134   3.487   5.930
 7467SOL    HW123300   0.131   3.415   5.999
 7467SOL    HW223301   0.154   3.447   5.840
 7468SOL     OW23302   5.550   2.638   5.484
 7468SOL    HW123303   5.596   2.549   5.481
 7468SOL    HW223304   5.527   2.660   5.578
 7469SOL     OW23305   6.964   2.472   0.287
 7469SOL    HW123306   6.890   2.530   0.254
 7469SOL    HW223307   0.015   2.529   0.331
 7470SOL     OW23308   5.947   3.951   3.938
 7470SOL    HW123309   6.019   3.987   3.998
 7470SOL    HW223310   5.938   3.852   3.953
 7471SOL     OW23311   5.410   5.721   6.507
 7471SOL    HW123312   5.486   5.786   6.504
 7471SOL    HW223313   5.340   5.749   6.441
 7472SOL     OW23314   6.486   6.802   4.842
 7472SOL    HW123315   6.475   6.744   4.761
 7472SOL    HW223316   6.493   6.744   4.924
 7473SOL     OW23317   4.010   0.132   3.383
 7473SOL    HW123318   3.955   0.158   3.463
 7473SOL    HW223319   4.068   0.054   3.407
 7474SOL     OW23320   5.609   2.601   6.249
 7474SOL    HW123321   5.569   2.531   6.190
 7474SOL    HW223322   5.640   2.560   6.334
 7475SOL     OW23323   4.550   2.079   1.771
 7475SOL    HW123324   4.515   2.047   1.859
 7475SOL    HW223325   4.647   2.104   1.781
 7476SOL     OW23326   2.044   1.313   2.911
 7476SOL    HW123327   2.056   1.220   2.876
 7476SOL    HW223328   2.120   1.335   2.973
 7477SOL     OW23329   0.532   3.704   4.938
 7477SOL    HW123330   0.587   3.777   4.977
 7477SOL    HW223331   0.491   3.735   4.853
 7478SOL     OW23332   6.818   2.049   5.044
 7478SOL    HW123333   6.855   2.142   5.041
 7478SOL    HW223334   6.777   2.027   4.956
 7479SOL     OW23335   5.589   3.748   6.677
 7479SOL    HW123336   5.624   3.655   6.684
 7479SOL    HW223337   5.648   3.802   6.617
 7480SOL     OW23338   3.518   5.224   2.122
 7480SOL    HW123339   3.519   5.133   2.080
 7480SOL    HW223340   3.527   5.215   2.221
 7481SOL     OW23341   6.380   4.356   6.415
 7481SOL    HW123342   6.467   4.307   6.421
 7481SOL    HW223343   6.396   4.454   6.423
 7482SOL     OW23344   3.923   2.044   2.452
 7482SOL    HW123345   3.858   2.080   2.385
 7482SOL    HW223346   4.002   2.105   2.458
 7483SOL     OW23347   4.470   2.452   5.434
 7483SOL    HW123348   4.461   2.393   5.354
 7483SOL    HW223349   4.428   2.540   5.416
 7484SOL     OW23350   2.522   6.466   4.894
 7484SOL    HW123351   2.584   6.511   4.958
 7484SOL    HW223352   2.429   6.501   4.907
 7485SOL     OW23353   2.950   6.980   3.997
 7485SOL    HW123354   2.881   6.917   4.035
 7485SOL    HW223355   3.002   0.003   4.071
 7486SOL     OW23356   0.814   6.026   6.917
 7486SOL    HW123357   0.901   5.995   6.956
 7486SOL    HW223358   0.759   5.948   6.890
 7487SOL     OW23359   4.588   0.262   3.289
 7487SOL    HW123360   4.565   0.328   3.217
 7487SOL    HW223361   4.510   0.201   3.303
 7488SOL     OW23362   0.776   5.809   4.016
 7488SOL    HW123363   0.868   5.846   4.030
 7488SOL    HW223364   0.761   5.797   3.918
 7489SOL     OW23365   6.024   4.354   6.804
 7489SOL    HW123366   5.978   4.432   6.761
 7489SOL    HW223367   6.110   4.384   6.846
 7490SOL     OW23368   1.011   2.078   2.612
 7490SOL    HW123369   0.930   2.092   2.670
 7490SOL    HW223370   1.009   2.144   2.536
 7491SOL     OW23371   4.424   3.028   0.427
 7491SOL    HW123372   4.381   2.949   0.383
 7491SOL    HW223373   4.522   3.011   0.437
 7492SOL     OW23374   1.293   0.747   3.943
 7492SOL    HW123375   1.220   0.775   4.006
 7492SOL    HW223376   1.255   0.684   3.875
 7493SOL     OW23377   6.323   4.045   5.701
 7493SOL    HW123378   6.416   4.010   5.710
 7493SOL    HW223379   6.310   4.083   5.609
 7494SOL     OW23380   6.468   1.199   3.112
 7494SOL    HW123381   6.477   1.103   3.139
 7494SOL    HW223382   6.403   1.244   3.173
 7495SOL     OW23383   2.185   2.956   4.866
 7495SOL    HW123384   2.250   3.000   4.927
 7495SOL    HW223385   2.110   2.917   4.919
 7496SOL     OW23386   6.324   3.742   3.316
 7496SOL    HW123387   6.293   3.672   3.251
 7496SOL    HW223388   6.295   3.832   3.285
 7497SOL     OW23389   0.639   6.449   0.382
 7497SOL    HW123390   0.658   6.356   0.413
 7497SOL    HW223391   0.586   6.446   0.298
 7498SOL     OW23392   3.157   0.498   3.061
 7498SOL    HW123393   3.147   0.538   3.152
 7498SOL    HW223394   3.242   0.446   3.056
 7499SOL     OW23395   3.819   2.181   4.102
 7499SOL    HW123396   3.722   2.192   4.121
 7499SOL    HW223397   3.869   2.168   4.188
 7500SOL     OW23398   4.360   0.146   3.343
 7500SOL    HW123399   4.301   0.099   3.276
 7500SOL    HW223400   4.346   0.106   3.433
 7501SOL     OW23401   5.969   2.555   4.518
 7501SOL    HW123402   5.924   2.602   4.442
 7501SOL    HW223403   6.066   2.575   4.517
 7502SOL     OW23404   3.238   0.116   4.648
 7502SOL    HW123405   3.199   0.026   4.667
 7502SOL    HW223406   3.167   0.175   4.608
 7503SOL     OW23407   2.214   6.093   1.083
 7503SOL    HW123408   2.235   6.010   1.134
 7503SOL    HW223409   2.117   6.115   1.093
 7504SOL     OW23410   6.981   6.522   2.977
 7504SOL    HW123411   0.025   6.558   3.046
 7504SOL    HW223412   0.014   6.474   2.906
 7505SOL     OW23413   6.973   0.588   5.044
 7505SOL    HW123414   6.876   0.567   5.035
 7505SOL    HW223415   6.984   0.673   5.095
 7506SOL     OW23416   3.675   1.666   3.425
 7506SOL    HW123417   3.624   1.663   3.511
 7506SOL    HW223418   3.613   1.652   3.349
 7507SOL     OW23419   6.139   3.364   4.289
 7507SOL    HW123420   6.116   3.307   4.368
 7507SOL    HW223421   6.090   3.451   4.295
 7508SOL     OW23422   1.742   6.204   0.240
 7508SOL    HW123423   1.701   6.179   0.328
 7508SOL    HW223424   1.704   6.291   0.209
 7509SOL     OW23425   4.952   4.133   0.339
 7509SOL    HW123426   4.987   4.182   0.419
 7509SOL    HW223427   4.899   4.196   0.282
 7510SOL     OW23428   3.996   3.934   3.841
 7510SOL    HW123429   4.010   3.927   3.940
 7510SOL    HW223430   3.951   3.852   3.808
 7511SOL     OW23431   3.124   5.652   2.739
 7511SOL    HW123432   3.185   5.598   2.797
 7511SOL    HW223433   3.110   5.742   2.779
 7512SOL     OW23434   3.284   6.972   6.727
 7512SOL    HW123435   3.294   6.883   6.682
 7512SOL    HW223436   3.333   6.970   6.814
 7513SOL     OW23437   1.896   2.229   3.688
 7513SOL    HW123438   1.888   2.213   3.589
 7513SOL    HW223439   1.987   2.201   3.719
 7514SOL     OW23440   2.508   4.736   3.310
 7514SOL    HW123441   2.465   4.718   3.399
 7514SOL    HW223442   2.607   4.727   3.319
 7515SOL     OW23443   6.917   4.089   5.162
 7515SOL    HW123444   6.894   3.992   5.170
 7515SOL    HW223445   6.944   4.124   5.252
 7516SOL     OW23446   0.967   5.152   5.231
 7516SOL    HW123447   1.060   5.123   5.213
 7516SOL    HW223448   0.938   5.120   5.321
 7517SOL     OW23449   0.804   1.823   0.015
 7517SOL    HW123450   0.856   1.850   0.096
 7517SOL    HW223451   0.719   1.876   0.011
 7518SOL     OW23452   4.769   2.798   4.166
 7518SOL    HW123453   4.766   2.776   4.264
 7518SOL    HW223454   4.777   2.897   4.155
 7519SOL     OW23455   4.144   6.843   5.034
 7519SOL    HW123456   4.227   6.889   5.068
 7519SOL    HW223457   4.137   6.857   4.935
 7520SOL     OW23458   1.706   1.771   2.263
 7520SOL    HW123459   1.738   1.704   2.196
 7520SOL    HW223460   1.630   1.733   2.315
 7521SOL     OW23461   5.184   1.078   4.628
 7521SOL    HW123462   5.166   0.993   4.579
 7521SOL    HW223463   5.220   1.146   4.565
 7522SOL     OW23464   1.656   6.030   3.031
 7522SOL    HW123465   1.686   6.121   3.059
 7522SOL    HW223466   1.731   5.965   3.041
 7523SOL     OW23467   5.719   1.384   6.303
 7523SOL    HW123468   5.689   1.288   6.308
 7523SOL    HW223469   5.781   1.404   6.378
 7524SOL     OW23470   6.973   2.525   4.611
 7524SOL    HW123471   7.004   2.499   4.703
 7524SOL    HW223472   0.031   2.515   4.547
 7525SOL     OW23473   4.812   6.559   6.218
 7525SOL    HW123474   4.834   6.469   6.254
 7525SOL    HW223475   4.732   6.553   6.158
 7526SOL     OW23476   2.065   3.695   1.954
 7526SOL    HW123477   1.980   3.667   1.909
 7526SOL    HW223478   2.123   3.614   1.968
 7527SOL     OW23479   3.957   6.038   3.654
 7527SOL    HW123480   3.952   6.136   3.636
 7527SOL    HW223481   3.933   5.987   3.572
 7528SOL     OW23482   6.294   2.668   6.658
 7528SOL    HW123483   6.289   2.762   6.691
 7528SOL    HW223484   6.326   2.668   6.563
 7529SOL     OW23485   5.898   2.031   3.933
 7529SOL    HW123486   5.913   2.070   4.024
 7529SOL    HW223487   5.969   2.064   3.871
 7530SOL     OW23488   6.621   1.579   2.096
 7530SOL    HW123489   6.670   1.638   2.160
 7530SOL    HW223490   6.686   1.521   2.047
 7531SOL     OW23491   4.219   2.335   3.773
 7531SOL    HW123492   4.245   2.279   3.851
 7531SOL    HW223493   4.175   2.278   3.704
 7532SOL     OW23494   4.449   6.035   0.029
 7532SOL    HW123495   4.442   5.944   0.069
 7532SOL    HW223496   4.392   6.099   0.081
 7533SOL     OW23497   4.625   3.052   1.660
 7533SOL    HW123498   4.640   3.013   1.751
 7533SOL    HW223499   4.613   2.977   1.594
 7534SOL     OW23500   4.754   0.181   4.031
 7534SOL    HW123501   4.819   0.249   4.064
 7534SOL    HW223502   4.796   0.090   4.034
 7535SOL     OW23503   1.126   6.149   4.494
 7535SOL    HW123504   1.110   6.118   4.587
 7535SOL    HW223505   1.089   6.082   4.429
 7536SOL     OW23506   4.617   6.116   4.381
 7536SOL    HW123507   4.538   6.164   4.342
 7536SOL    HW223508   4.595   6.089   4.475
 7537SOL     OW23509   2.516   5.730   2.151
 7537SOL    HW123510   2.562   5.729   2.062
 7537SOL    HW223511   2.507   5.636   2.184
 7538SOL     OW23512   0.838   3.378   1.643
 7538SOL    HW123513   0.835   3.284   1.609
 7538SOL    HW223514   0.816   3.379   1.741
 7539SOL     OW23515   0.355   5.514   3.823
 7539SOL    HW123516   0.434   5.506   3.762
 7539SOL    HW223517   0.348   5.607   3.858
 7540SOL     OW23518   5.584   5.785   4.099
 7540SOL    HW123519   5.563   5.860   4.161
 7540SOL    HW223520   5.541   5.802   4.010
 7541SOL     OW23521   1.004   3.677   6.474
 7541SOL    HW123522   0.997   3.724   6.561
 7541SOL    HW223523   1.067   3.599   6.483
 7542SOL     OW23524   6.316   6.145   6.258
 7542SOL    HW123525   6.313   6.062   6.202
 7542SOL    HW223526   6.381   6.132   6.333
 7543SOL     OW23527   2.687   0.289   5.281
 7543SOL    HW123528   2.773   0.263   5.325
 7543SOL    HW223529   2.636   0.350   5.341
 7544SOL     OW23530   6.845   3.174   3.976
 7544SOL    HW123531   6.944   3.167   3.986
 7544SOL    HW223532   6.822   3.261   3.931
 7545SOL     OW23533   0.847   5.388   6.883
 7545SOL    HW123534   0.791   5.470   6.871
 7545SOL    HW223535   0.805   5.311   6.836
 7546SOL     OW23536   3.202   2.920   1.909
 7546SOL    HW123537   3.159   2.845   1.859
 7546SOL    HW223538   3.183   2.909   2.007
 7547SOL     OW23539   4.370   0.411   1.474
 7547SOL    HW123540   4.448   0.375   1.424
 7547SOL    HW223541   4.288   0.407   1.416
 7548SOL     OW23542   4.719   2.174   6.221
 7548SOL    HW123543   4.619   2.173   6.230
 7548SOL    HW223544   4.747   2.255   6.169
 7549SOL     OW23545   4.340   2.598   5.722
 7549SOL    HW123546   4.309   2.692   5.706
 7549SOL    HW223547   4.285   2.534   5.669
 7550SOL     OW23548   1.744   3.836   3.517
 7550SOL    HW123549   1.813   3.905   3.536
 7550SOL    HW223550   1.770   3.749   3.559
 7551SOL     OW23551   5.378   1.840   5.295
 7551SOL    HW123552   5.316   1.872   5.367
 7551SOL    HW223553   5.327   1.829   5.210
 7552SOL     OW23554   2.061   6.268   4.322
 7552SOL    HW123555   2.096   6.348   4.274
 7552SOL    HW223556   1.969   6.246   4.289
 7553SOL     OW23557   5.874   6.335   6.318
 7553SOL    HW123558   5.867   6.301   6.411
 7553SOL    HW223559   5.900   6.260   6.257
 7554SOL     OW23560   5.414   1.315   0.236
 7554SOL    HW123561   5.406   1.220   0.266
 7554SOL    HW223562   5.368   1.374   0.302
 7555SOL     OW23563   2.954   6.473   6.667
 7555SOL    HW123564   2.985   6.464   6.572
 7555SOL    HW223565   2.863   6.513   6.669
 7556SOL     OW23566   1.077   0.590   0.793
 7556SOL    HW123567   1.051   0.585   0.696
 7556SOL    HW223568   1.078   0.498   0.832
 7557SOL     OW23569   5.453   0.400   6.859
 7557SOL    HW123570   5.433   0.341   6.938
 7557SOL    HW223571   5.515   0.352   6.797
 7558SOL     OW23572   1.508   2.737   4.017
 7558SOL    HW123573   1.501   2.674   3.939
 7558SOL    HW223574   1.505   2.685   4.102
 7559SOL     OW23575   3.820   2.044   4.793
 7559SOL    HW123576   3.865   2.050   4.882
 7559SOL    HW223577   3.743   1.981   4.799
 7560SOL     OW23578   6.949   0.426   6.321
 7560SOL    HW123579   0.021   0.463   6.342
 7560SOL    HW223580   6.948   0.391   6.227
 7561SOL     OW23581   5.015   1.839   5.684
 7561SOL    HW123582   4.923   1.859   5.650
 7561SOL    HW223583   5.018   1.857   5.782
 7562SOL     OW23584   0.903   5.503   4.734
 7562SOL    HW123585   0.975   5.572   4.721
 7562SOL    HW223586   0.925   5.447   4.813
 7563SOL     OW23587   3.779   6.279   2.079
 7563SOL    HW123588   3.681   6.268   2.093
 7563SOL    HW223589   3.803   6.376   2.083
 7564SOL     OW23590   4.524   1.036   4.501
 7564SOL    HW123591   4.501   1.041   4.404
 7564SOL    HW223592   4.468   1.103   4.551
 7565SOL     OW23593   5.572   3.701   6.027
 7565SOL    HW123594   5.589   3.625   5.965
 7565SOL    HW223595   5.473   3.715   6.036
 7566SOL     OW23596   4.767   4.768   1.524
 7566SOL    HW123597   4.826   4.727   1.593
 7566SOL    HW223598   4.674   4.775   1.560
 7567SOL     OW23599   0.365   0.503   4.510
 7567SOL    HW123600   0.407   0.592   4.497
 7567SOL    HW223601   0.384   0.446   4.430
 7568SOL     OW23602   6.146   5.424   1.348
 7568SOL    HW123603   6.116   5.329   1.342
 7568SOL    HW223604   6.124   5.471   1.262
 7569SOL     OW23605   4.022   3.792   6.358
 7569SOL    HW123606   3.930   3.790   6.396
 7569SOL    HW223607   4.089   3.773   6.430
 7570SOL     OW23608   6.787   3.099   3.424
 7570SOL    HW123609   6.697   3.056   3.418
 7570SOL    HW223610   6.856   3.030   3.443
 7571SOL     OW23611   5.586   3.856   2.680
 7571SOL    HW123612   5.541   3.945   2.671
 7571SOL    HW223613   5.629   3.832   2.593
 7572SOL     OW23614   5.277   6.731   2.769
 7572SOL    HW123615   5.366   6.766   2.740
 7572SOL    HW223616   5.208   6.756   2.700
 7573SOL     OW23617   5.784   6.532   5.704
 7573SOL    HW123618   5.737   6.608   5.749
 7573SOL    HW223619   5.847   6.489   5.768
 7574SOL     OW23620   6.431   0.764   4.228
 7574SOL    HW123621   6.494   0.761   4.150
 7574SOL    HW223622   6.477   0.805   4.306
 7575SOL     OW23623   6.664   6.518   0.966
 7575SOL    HW123624   6.751   6.478   0.994
 7575SOL    HW223625   6.669   6.618   0.974
 7576SOL     OW23626   5.693   2.675   0.780
 7576SOL    HW123627   5.657   2.767   0.766
 7576SOL    HW223628   5.691   2.652   0.878
 7577SOL     OW23629   0.524   6.999   0.052
 7577SOL    HW123630   0.484   0.020   0.134
 7577SOL    HW223631   0.570   0.052   7.017
 7578SOL     OW23632   0.147   5.885   3.197
 7578SOL    HW123633   0.196   5.826   3.260
 7578SOL    HW223634   0.053   5.897   3.228
 7579SOL     OW23635   6.529   1.737   1.008
 7579SOL    HW123636   6.597   1.808   0.990
 7579SOL    HW223637   6.511   1.686   0.924
 7580SOL     OW23638   2.014   4.424   3.567
 7580SOL    HW123639   2.022   4.488   3.491
 7580SOL    HW223640   2.051   4.335   3.540
 7581SOL     OW23641   0.382   1.036   1.413
 7581SOL    HW123642   0.390   0.938   1.429
 7581SOL    HW223643   0.471   1.080   1.425
 7582SOL     OW23644   3.633   1.402   4.394
 7582SOL    HW123645   3.720   1.422   4.439
 7582SOL    HW223646   3.598   1.486   4.352
 7583SOL     OW23647   4.887   3.457   3.639
 7583SOL    HW123648   4.895   3.525   3.566
 7583SOL    HW223649   4.976   3.448   3.685
 7584SOL     OW23650   0.892   1.447   3.065
 7584SOL    HW123651   0.916   1.432   2.969
 7584SOL    HW223652   0.853   1.539   3.076
 7585SOL     OW23653   0.974   2.632   6.648
 7585SOL    HW123654   1.025   2.572   6.710
 7585SOL    HW223655   0.930   2.704   6.700
 7586SOL     OW23656   1.247   1.005   2.441
 7586SOL    HW123657   1.330   1.009   2.384
 7586SOL    HW223658   1.244   0.917   2.489
 7587SOL     OW23659   3.580   0.786   0.626
 7587SOL    HW123660   3.592   0.880   0.595
 7587SOL    HW223661   3.483   0.761   0.622
 7588SOL     OW23662   1.495   2.519   4.550
 7588SOL    HW123663   1.481   2.487   4.644
 7588SOL    HW223664   1.588   2.496   4.521
 7589SOL     OW23665   0.378   1.226   2.735
 7589SOL    HW123666   0.470   1.196   2.757
 7589SOL    HW223667   0.322   1.225   2.818
 7590SOL     OW23668   0.031   1.658   0.453
 7590SOL    HW123669   6.977   1.718   0.489
 7590SOL    HW223670   7.007   1.583   0.402
 7591SOL     OW23671   4.398   3.394   6.476
 7591SOL    HW123672   4.432   3.356   6.390
 7591SOL    HW223673   4.450   3.476   6.499
 7592SOL     OW23674   6.292   5.969   4.917
 7592SOL    HW123675   6.195   5.981   4.899
 7592SOL    HW223676   6.341   6.053   4.894
 7593SOL     OW23677   0.536   1.435   5.902
 7593SOL    HW123678   0.634   1.418   5.905
 7593SOL    HW223679   0.498   1.397   5.818
 7594SOL     OW23680   0.381   4.218   1.411
 7594SOL    HW123681   0.447   4.143   1.411
 7594SOL    HW223682   0.299   4.191   1.463
 7595SOL     OW23683   6.175   2.890   6.435
 7595SOL    HW123684   6.149   2.969   6.380
 7595SOL    HW223685   6.196   2.919   6.528
 7596SOL     OW23686   3.130   0.821   5.177
 7596SOL    HW123687   3.203   0.881   5.212
 7596SOL    HW223688   3.071   0.873   5.116
 7597SOL     OW23689   1.861   4.999   2.243
 7597SOL    HW123690   1.852   4.908   2.202
 7597SOL    HW223691   1.770   5.031   2.273
 7598SOL     OW23692   6.103   0.994   3.000
 7598SOL    HW123693   6.013   0.954   2.982
 7598SOL    HW223694   6.167   0.922   3.026
 7599SOL     OW23695   4.216   3.611   0.645
 7599SOL    HW123696   4.280   3.677   0.606
 7599SOL    HW223697   4.257   3.520   0.645
 7600SOL     OW23698   1.387   1.735   3.764
 7600SOL    HW123699   1.484   1.761   3.755
 7600SOL    HW223700   1.380   1.642   3.798
 7601SOL     OW23701   4.059   5.501   1.919
 7601SOL    HW123702   4.019   5.442   1.849
 7601SOL    HW223703   4.159   5.493   1.915
 7602SOL     OW23704   0.174   1.945   0.710
 7602SOL    HW123705   0.209   1.930   0.618
 7602SOL    HW223706   0.121   1.865   0.739
 7603SOL     OW23707   2.536   0.274   6.085
 7603SOL    HW123708   2.462   0.257   6.150
 7603SOL    HW223709   2.592   0.350   6.117
 7604SOL     OW23710   1.443   2.125   4.756
 7604SOL    HW123711   1.363   2.170   4.797
 7604SOL    HW223712   1.445   2.144   4.658
 7605SOL     OW23713   2.793   0.414   6.811
 7605SOL    HW123714   2.754   0.418   6.903
 7605SOL    HW223715   2.888   0.445   6.813
 7606SOL     OW23716   6.169   1.131   4.261
 7606SOL    HW123717   6.120   1.211   4.225
 7606SOL    HW223718   6.192   1.070   4.185
 7607SOL     OW23719   3.174   6.633   6.149
 7607SOL    HW123720   3.254   6.606   6.202
 7607SOL    HW223721   3.162   6.569   6.073
 7608SOL     OW23722   5.760   2.485   5.971
 7608SOL    HW123723   5.828   2.413   5.980
 7608SOL    HW223724   5.801   2.566   5.929
 7609SOL     OW23725   0.419   2.479   4.366
 7609SOL    HW123726   0.436   2.502   4.270
 7609SOL    HW223727   0.324   2.499   4.388
 7610SOL     OW23728   3.439   4.858   6.407
 7610SOL    HW123729   3.412   4.776   6.358
 7610SOL    HW223730   3.533   4.848   6.441
 7611SOL     OW23731   4.852   2.999   0.938
 7611SOL    HW123732   4.904   3.073   0.981
 7611SOL    HW223733   4.754   3.018   0.948
 7612SOL     OW23734   3.017   1.824   3.432
 7612SOL    HW123735   3.063   1.825   3.343
 7612SOL    HW223736   2.935   1.767   3.426
 7613SOL     OW23737   1.111   1.802   2.422
 7613SOL    HW123738   1.162   1.720   2.397
 7613SOL    HW223739   1.172   1.881   2.420
 7614SOL     OW23740   5.025   3.275   0.482
 7614SOL    HW123741   5.006   3.291   0.579
 7614SOL    HW223742   5.075   3.189   0.471
 7615SOL     OW23743   5.284   3.010   4.907
 7615SOL    HW123744   5.337   2.940   4.954
 7615SOL    HW223745   5.230   3.061   4.974
 7616SOL     OW23746   5.979   6.645   3.662
 7616SOL    HW123747   5.986   6.722   3.599
 7616SOL    HW223748   6.032   6.663   3.745
 7617SOL     OW23749   4.866   5.220   3.070
 7617SOL    HW123750   4.914   5.285   3.010
 7617SOL    HW223751   4.930   5.185   3.138
 7618SOL     OW23752   2.736   2.486   0.466
 7618SOL    HW123753   2.671   2.550   0.425
 7618SOL    HW223754   2.819   2.535   0.492
 7619SOL     OW23755   0.883   2.225   4.002
 7619SOL    HW123756   0.954   2.294   3.988
 7619SOL    HW223757   0.843   2.236   4.093
 7620SOL     OW23758   3.798   4.197   1.347
 7620SOL    HW123759   3.833   4.200   1.441
 7620SOL    HW223760   3.704   4.163   1.347
 7621SOL     OW23761   0.557   5.767   1.064
 7621SOL    HW123762   0.465   5.806   1.064
 7621SOL    HW223763   0.573   5.719   0.978
 7622SOL     OW23764   3.983   4.984   0.745
 7622SOL    HW123765   3.910   5.006   0.681
 7622SOL    HW223766   4.056   4.933   0.698
 7623SOL     OW23767   4.719   5.009   1.404
 7623SOL    HW123768   4.774   5.088   1.432
 7623SOL    HW223769   4.765   4.925   1.434
 7624SOL     OW23770   0.229   2.539   1.965
 7624SOL    HW123771   0.311   2.557   1.911
 7624SOL    HW223772   0.222   2.441   1.984
 7625SOL     OW23773   5.204   2.155   0.241
 7625SOL    HW123774   5.235   2.250   0.238
 7625SOL    HW223775   5.260   2.104   0.306
 7626SOL     OW23776   5.454   0.228   5.069
 7626SOL    HW123777   5.406   0.217   4.982
 7626SOL    HW223778   5.532   0.290   5.056
 7627SOL     OW23779   2.674   1.910   0.118
 7627SOL    HW123780   2.768   1.877   0.113
 7627SOL    HW223781   2.612   1.833   0.135
 7628SOL     OW23782   3.250   2.110   0.463
 7628SOL    HW123783   3.239   2.091   0.560
 7628SOL    HW223784   3.347   2.117   0.441
 7629SOL     OW23785   5.982   3.115   4.012
 7629SOL    HW123786   5.921   3.051   3.965
 7629SOL    HW223787   6.012   3.186   3.948
 7630SOL     OW23788   1.644   0.500   5.131
 7630SOL    HW123789   1.577   0.435   5.165
 7630SOL    HW223790   1.652   0.492   5.031
 7631SOL     OW23791   1.761   0.198   5.265
 7631SOL    HW123792   1.846   0.231   5.224
 7631SOL    HW223793   1.684   0.253   5.232
 7632SOL     OW23794   4.451   5.775   0.842
 7632SOL    HW123795   4.545   5.801   0.819
 7632SOL    HW223796   4.401   5.756   0.758
 7633SOL     OW23797   5.985   0.749   1.069
 7633SOL    HW123798   5.895   0.738   1.111
 7633SOL    HW223799   5.995   0.842   1.035
 7634SOL     OW23800   1.092   2.100   0.959
 7634SOL    HW123801   1.141   2.179   0.921
 7634SOL    HW223802   1.073   2.116   1.056
 7635SOL     OW23803   3.094   5.243   5.461
 7635SOL    HW123804   2.995   5.249   5.477
 7635SOL    HW223805   3.111   5.234   5.363
 7636SOL     OW23806   0.808   4.281   5.020
 7636SOL    HW123807   0.822   4.242   5.112
 7636SOL    HW223808   0.775   4.210   4.959
 7637SOL     OW23809   0.338   6.412   4.685
 7637SOL    HW123810   0.387   6.460   4.612
 7637SOL    HW223811   0.362   6.315   4.684
 7638SOL     OW23812   0.994   5.430   1.679
 7638SOL    HW123813   1.031   5.458   1.768
 7638SOL    HW223814   1.066   5.434   1.611
 7639SOL     OW23815   1.086   1.168   0.305
 7639SOL    HW123816   0.993   1.173   0.344
 7639SOL    HW223817   1.142   1.241   0.343
 7640SOL     OW23818   3.129   0.978   6.702
 7640SOL    HW123819   3.034   0.950   6.716
 7640SOL    HW223820   3.146   1.063   6.752
 7641SOL     OW23821   6.704   4.028   2.821
 7641SOL    HW123822   6.747   4.019   2.911
 7641SOL    HW223823   6.728   3.948   2.765
 7642SOL     OW23824   5.587   1.587   3.402
 7642SOL    HW123825   5.557   1.611   3.310
 7642SOL    HW223826   5.685   1.604   3.412
 7643SOL     OW23827   4.859   2.929   2.985
 7643SOL    HW123828   4.842   3.000   3.053
 7643SOL    HW223829   4.802   2.849   3.006
 7644SOL     OW23830   4.890   3.170   1.631
 7644SOL    HW123831   4.898   3.184   1.730
 7644SOL    HW223832   4.843   3.084   1.613
 7645SOL     OW23833   3.343   3.536   6.371
 7645SOL    HW123834   3.393   3.588   6.440
 7645SOL    HW223835   3.250   3.572   6.362
 7646SOL     OW23836   1.118   2.429   2.645
 7646SOL    HW123837   1.058   2.395   2.573
 7646SOL    HW223838   1.066   2.440   2.729
 7647SOL     OW23839   0.153   3.373   5.130
 7647SOL    HW123840   0.231   3.434   5.121
 7647SOL    HW223841   0.107   3.390   5.217
 7648SOL     OW23842   2.328   2.244   2.912
 7648SOL    HW123843   2.422   2.218   2.889
 7648SOL    HW223844   2.295   2.311   2.846
 7649SOL     OW23845   6.604   0.457   4.631
 7649SOL    HW123846   6.523   0.402   4.612
 7649SOL    HW223847   6.592   0.504   4.719
 7650SOL     OW23848   4.193   0.683   1.638
 7650SOL    HW123849   4.199   0.749   1.563
 7650SOL    HW223850   4.097   0.655   1.651
 7651SOL     OW23851   2.449   5.054   5.041
 7651SOL    HW123852   2.505   4.977   5.071
 7651SOL    HW223853   2.405   5.032   4.954
 7652SOL     OW23854   5.461   1.417   4.622
 7652SOL    HW123855   5.456   1.317   4.629
 7652SOL    HW223856   5.540   1.450   4.674
 7653SOL     OW23857   0.565   1.984   6.963
 7653SOL    HW123858   0.556   2.065   0.004
 7653SOL    HW223859   0.569   2.014   6.867
 7654SOL     OW23860   6.187   3.181   5.327
 7654SOL    HW123861   6.209   3.267   5.280
 7654SOL    HW223862   6.265   3.151   5.381
 7655SOL     OW23863   2.753   0.737   3.694
 7655SOL    HW123864   2.655   0.715   3.699
 7655SOL    HW223865   2.765   0.824   3.647
 7656SOL     OW23866   6.679   3.698   6.881
 7656SOL    HW123867   6.642   3.739   6.798
 7656SOL    HW223868   6.766   3.652   6.860
 7657SOL     OW23869   1.524   3.679   4.537
 7657SOL    HW123870   1.604   3.622   4.519
 7657SOL    HW223871   1.553   3.769   4.567
 7658SOL     OW23872   2.150   0.532   0.676
 7658SOL    HW123873   2.128   0.451   0.623
 7658SOL    HW223874   2.218   0.587   0.627
 7659SOL     OW23875   4.416   3.966   5.335
 7659SOL    HW123876   4.390   4.057   5.368
 7659SOL    HW223877   4.500   3.973   5.282
 7660SOL     OW23878   6.599   4.892   4.260
 7660SOL    HW123879   6.526   4.875   4.326
 7660SOL    HW223880   6.586   4.982   4.218
 7661SOL     OW23881   4.729   2.420   5.499
 7661SOL    HW123882   4.638   2.445   5.464
 7661SOL    HW223883   4.799   2.472   5.450
 7662SOL     OW23884   1.270   1.992   2.164
 7662SOL    HW123885   1.280   1.894   2.147
 7662SOL    HW223886   1.185   2.025   2.124
 7663SOL     OW23887   6.104   4.901   5.653
 7663SOL    HW123888   6.039   4.901   5.577
 7663SOL    HW223889   6.106   4.991   5.696
 7664SOL     OW23890   3.751   1.504   3.037
 7664SOL    HW123891   3.689   1.496   2.958
 7664SOL    HW223892   3.819   1.575   3.018
 7665SOL     OW23893   4.428   1.732   4.419
 7665SOL    HW123894   4.396   1.791   4.493
 7665SOL    HW223895   4.527   1.722   4.425
 7666SOL     OW23896   6.211   5.709   3.528
 7666SOL    HW123897   6.204   5.741   3.434
 7666SOL    HW223898   6.146   5.635   3.543
 7667SOL     OW23899   4.828   5.878   2.384
 7667SOL    HW123900   4.921   5.842   2.391
 7667SOL    HW223901   4.799   5.915   2.472
 7668SOL     OW23902   2.198   5.390   1.245
 7668SOL    HW123903   2.228   5.365   1.153
 7668SOL    HW223904   2.240   5.477   1.271
 7669SOL     OW23905   2.757   6.478   6.050
 7669SOL    HW123906   2.765   6.493   5.952
 7669SOL    HW223907   2.669   6.513   6.082
 7670SOL     OW23908   0.193   6.497   0.001
 7670SOL    HW123909   0.271   6.536   6.970
 7670SOL    HW223910   0.152   6.568   0.059
 7671SOL     OW23911   5.145   0.941   1.538
 7671SOL    HW123912   5.052   0.959   1.567
 7671SOL    HW223913   5.156   0.969   1.442
 7672SOL     OW23914   5.110   4.588   2.801
 7672SOL    HW123915   5.169   4.527   2.748
 7672SOL    HW223916   5.131   4.578   2.898
 7673SOL     OW23917   0.812   5.144   3.802
 7673SOL    HW123918   0.806   5.230   3.852
 7673SOL    HW223919   0.844   5.072   3.862
 7674SOL     OW23920   3.805   0.089   4.590
 7674SOL    HW123921   3.750   0.035   4.527
 7674SOL    HW223922   3.772   0.076   4.683
 7675SOL     OW23923   3.505   6.813   2.612
 7675SOL    HW123924   3.538   6.823   2.706
 7675SOL    HW223925   3.505   6.717   2.586
 7676SOL     OW23926   3.039   3.009   5.784
 7676SOL    HW123927   3.132   3.047   5.780
 7676SOL    HW223928   3.042   2.913   5.758
 7677SOL     OW23929   5.950   4.469   1.541
 7677SOL    HW123930   5.902   4.408   1.479
 7677SOL    HW223931   5.936   4.564   1.512
 7678SOL     OW23932   1.508   1.495   5.849
 7678SOL    HW123933   1.599   1.532   5.869
 7678SOL    HW223934   1.478   1.527   5.759
 7679SOL     OW23935   1.657   5.388   4.845
 7679SOL    HW123936   1.627   5.292   4.842
 7679SOL    HW223937   1.683   5.418   4.753
 7680SOL     OW23938   1.736   0.634   5.505
 7680SOL    HW123939   1.816   0.593   5.462
 7680SOL    HW223940   1.709   0.715   5.453
 7681SOL     OW23941   2.765   3.369   6.295
 7681SOL    HW123942   2.683   3.426   6.291
 7681SOL    HW223943   2.762   3.314   6.379
 7682SOL     OW23944   2.716   2.138   3.494
 7682SOL    HW123945   2.722   2.130   3.395
 7682SOL    HW223946   2.620   2.148   3.521
 7683SOL     OW23947   0.002   1.220   4.665
 7683SOL    HW123948   0.007   1.208   4.764
 7683SOL    HW223949   7.002   1.132   4.622
 7684SOL     OW23950   4.162   2.333   1.672
 7684SOL    HW123951   4.067   2.300   1.675
 7684SOL    HW223952   4.165   2.420   1.622
 7685SOL     OW23953   2.927   0.778   0.439
 7685SOL    HW123954   2.989   0.831   0.497
 7685SOL    HW223955   2.854   0.740   0.494
 7686SOL     OW23956   5.427   0.539   4.286
 7686SOL    HW123957   5.476   0.612   4.238
 7686SOL    HW223958   5.456   0.451   4.248
 7687SOL     OW23959   6.060   5.375   4.689
 7687SOL    HW123960   5.999   5.410   4.618
 7687SOL    HW223961   6.063   5.275   4.683
 7688SOL     OW23962   1.108   5.023   6.267
 7688SOL    HW123963   1.104   5.049   6.364
 7688SOL    HW223964   1.200   4.993   6.244
 7689SOL     OW23965   4.711   0.190   1.915
 7689SOL    HW123966   4.764   0.226   1.992
 7689SOL    HW223967   4.720   0.252   1.837
 7690SOL     OW23968   6.344   4.776   0.839
 7690SOL    HW123969   6.298   4.752   0.754
 7690SOL    HW223970   6.401   4.857   0.824
 7691SOL     OW23971   4.470   4.494   3.450
 7691SOL    HW123972   4.463   4.528   3.544
 7691SOL    HW223973   4.503   4.400   3.451
 7692SOL     OW23974   1.148   6.410   2.163
 7692SOL    HW123975   1.131   6.312   2.162
 7692SOL    HW223976   1.068   6.458   2.125
 7693SOL     OW23977   2.693   0.818   1.220
 7693SOL    HW123978   2.598   0.847   1.224
 7693SOL    HW223979   2.728   0.807   1.314
 7694SOL     OW23980   6.280   2.480   4.409
 7694SOL    HW123981   6.333   2.443   4.485
 7694SOL    HW223982   6.338   2.538   4.353
 7695SOL     OW23983   6.345   0.528   2.858
 7695SOL    HW123984   6.253   0.502   2.830
 7695SOL    HW223985   6.402   0.543   2.778
 7696SOL     OW23986   0.461   2.714   6.833
 7696SOL    HW123987   0.540   2.748   6.884
 7696SOL    HW223988   0.385   2.777   6.844
 7697SOL     OW23989   4.089   0.213   2.833
 7697SOL    HW123990   4.019   0.177   2.771
 7697SOL    HW223991   4.179   0.182   2.802
 7698SOL     OW23992   6.381   1.855   6.732
 7698SOL    HW123993   6.423   1.773   6.693
 7698SOL    HW223994   6.452   1.923   6.750
 7699SOL     OW23995   3.579   5.497   5.961
 7699SOL    HW123996   3.536   5.522   5.874
 7699SOL    HW223997   3.510   5.489   6.032
 7700SOL     OW23998   4.700   5.530   2.912
 7700SOL    HW123999   4.673   5.549   2.818
 7700SOL    HW224000   4.775   5.464   2.912
 7701SOL     OW24001   0.030   2.614   5.936
 7701SOL    HW124002   0.016   2.543   5.867
 7701SOL    HW224003   0.062   2.572   6.021
 7702SOL     OW24004   4.271   0.001   4.439
 7702SOL    HW124005   4.288   0.051   4.354
 7702SOL    HW224006   4.223   0.060   4.504
 7703SOL     OW24007   6.728   6.731   4.449
 7703SOL    HW124008   6.802   6.790   4.416
 7703SOL    HW224009   6.767   6.656   4.503
 7704SOL     OW24010   6.039   1.335   4.105
 7704SOL    HW124011   6.123   1.388   4.096
 7704SOL    HW224012   5.993   1.362   4.190
 7705SOL     OW24013   2.046   4.710   0.377
 7705SOL    HW124014   2.119   4.642   0.377
 7705SOL    HW224015   1.964   4.671   0.336
 7706SOL     OW24016   3.540   2.912   2.344
 7706SOL    HW124017   3.584   2.844   2.402
 7706SOL    HW224018   3.576   2.904   2.250
 7707SOL     OW24019   6.897   5.859   6.776
 7707SOL    HW124020   6.798   5.869   6.785
 7707SOL    HW224021   6.918   5.773   6.729
 7708SOL     OW24022   2.274   6.619   4.831
 7708SOL    HW124023   2.252   6.552   4.761
 7708SOL    HW224024   2.202   6.618   4.902
 7709SOL     OW24025   0.148   4.644   1.153
 7709SOL    HW124026   0.180   4.724   1.204
 7709SOL    HW224027   0.058   4.617   1.187
 7710SOL     OW24028   1.622   3.480   0.668
 7710SOL    HW124029   1.526   3.470   0.696
 7710SOL    HW224030   1.625   3.521   0.576
 7711SOL     OW24031   6.106   4.444   5.244
 7711SOL    HW124032   6.075   4.350   5.257
 7711SOL    HW224033   6.206   4.446   5.241
 7712SOL     OW24034   6.532   4.914   6.085
 7712SOL    HW124035   6.483   4.869   6.010
 7712SOL    HW224036   6.473   4.982   6.127
 7713SOL     OW24037   1.901   4.892   0.513
 7713SOL    HW124038   1.984   4.838   0.498
 7713SOL    HW224039   1.826   4.831   0.537
 7714SOL     OW24040   6.722   0.550   4.336
 7714SOL    HW124041   6.719   0.499   4.422
 7714SOL    HW224042   6.686   0.492   4.262
 7715SOL     OW24043   2.122   2.745   5.955
 7715SOL    HW124044   2.075   2.799   5.885
 7715SOL    HW224045   2.123   2.796   6.041
 7716SOL     OW24046   0.925   5.546   6.166
 7716SOL    HW124047   0.951   5.461   6.212
 7716SOL    HW224048   0.826   5.559   6.174
 7717SOL     OW24049   1.382   1.934   6.688
 7717SOL    HW124050   1.386   1.845   6.643
 7717SOL    HW224051   1.316   1.930   6.763
 7718SOL     OW24052   1.273   4.347   2.626
 7718SOL    HW124053   1.332   4.324   2.703
 7718SOL    HW224054   1.178   4.326   2.648
 7719SOL     OW24055   2.117   3.743   4.456
 7719SOL    HW124056   2.067   3.822   4.422
 7719SOL    HW224057   2.084   3.719   4.547
 7720SOL     OW24058   6.360   1.425   6.273
 7720SOL    HW124059   6.415   1.468   6.201
 7720SOL    HW224060   6.404   1.436   6.361
 7721SOL     OW24061   0.926   0.531   2.662
 7721SOL    HW124062   1.003   0.501   2.606
 7721SOL    HW224063   0.959   0.556   2.753
 7722SOL     OW24064   2.241   6.073   3.943
 7722SOL    HW124065   2.170   6.130   3.902
 7722SOL    HW224066   2.228   6.070   4.042
 7723SOL     OW24067   4.787   3.708   0.273
 7723SOL    HW124068   4.880   3.688   0.242
 7723SOL    HW224069   4.777   3.682   0.369
 7724SOL     OW24070   2.871   4.179   1.556
 7724SOL    HW124071   2.887   4.163   1.459
 7724SOL    HW224072   2.806   4.112   1.591
 7725SOL     OW24073   5.751   3.028   3.062
 7725SOL    HW124074   5.708   2.995   2.978
 7725SOL    HW224075   5.846   3.052   3.043
 7726SOL     OW24076   0.202   3.632   6.416
 7726SOL    HW124077   0.207   3.660   6.320
 7726SOL    HW224078   0.254   3.697   6.472
 7727SOL     OW24079   4.640   2.592   2.200
 7727SOL    HW124080   4.638   2.651   2.120
 7727SOL    HW224081   4.689   2.639   2.274
 7728SOL     OW24082   2.166   3.090   5.117
 7728SOL    HW124083   2.102   3.028   5.072
 7728SOL    HW224084   2.258   3.052   5.113
 7729SOL     OW24085   5.639   2.275   3.571
 7729SOL    HW124086   5.698   2.350   3.601
 7729SOL    HW224087   5.658   2.194   3.627
 7730SOL     OW24088   6.363   4.664   5.014
 7730SOL    HW124089   6.295   4.690   5.083
 7730SOL    HW224090   6.442   4.624   5.059
 7731SOL     OW24091   5.741   6.893   0.675
 7731SOL    HW124092   5.833   6.897   0.636
 7731SOL    HW224093   5.738   6.823   0.746
 7732SOL     OW24094   4.627   0.531   6.163
 7732SOL    HW124095   4.560   0.459   6.148
 7732SOL    HW224096   4.717   0.500   6.132
 7733SOL     OW24097   6.402   6.015   1.982
 7733SOL    HW124098   6.424   6.051   2.073
 7733SOL    HW224099   6.416   6.088   1.914
 7734SOL     OW24100   2.991   4.331   5.291
 7734SOL    HW124101   3.080   4.288   5.273
 7734SOL    HW224102   2.981   4.412   5.233
 7735SOL     OW24103   6.681   6.254   0.291
 7735SOL    HW124104   6.682   6.164   0.248
 7735SOL    HW224105   6.758   6.308   0.257
 7736SOL     OW24106   3.317   2.860   0.505
 7736SOL    HW124107   3.229   2.907   0.496
 7736SOL    HW224108   3.301   2.762   0.511
 7737SOL     OW24109   4.181   4.701   1.501
 7737SOL    HW124110   4.187   4.621   1.562
 7737SOL    HW224111   4.085   4.721   1.484
 7738SOL     OW24112   2.718   6.569   6.741
 7738SOL    HW124113   2.728   6.659   6.697
 7738SOL    HW224114   2.625   6.536   6.729
 7739SOL     OW24115   1.232   2.400   1.367
 7739SOL    HW124116   1.319   2.354   1.350
 7739SOL    HW224117   1.204   2.449   1.284
 7740SOL     OW24118   0.942   1.439   4.065
 7740SOL    HW124119   0.872   1.494   4.019
 7740SOL    HW224120   0.962   1.479   4.154
 7741SOL     OW24121   1.608   4.674   6.288
 7741SOL    HW124122   1.670   4.607   6.327
 7741SOL    HW224123   1.659   4.737   6.229
 7742SOL     OW24124   3.499   1.596   3.972
 7742SOL    HW124125   3.557   1.640   4.041
 7742SOL    HW224126   3.457   1.514   4.011
 7743SOL     OW24127   5.328   1.209   6.353
 7743SOL    HW124128   5.294   1.266   6.278
 7743SOL    HW224129   5.317   1.257   6.440
 7744SOL     OW24130   0.892   5.849   4.540
 7744SOL    HW124131   0.793   5.855   4.553
 7744SOL    HW224132   0.933   5.799   4.617
 7745SOL     OW24133   1.574   6.477   0.313
 7745SOL    HW124134   1.660   6.508   0.273
 7745SOL    HW224135   1.504   6.473   0.242
 7746SOL     OW24136   1.186   6.406   1.162
 7746SOL    HW124137   1.110   6.445   1.111
 7746SOL    HW224138   1.235   6.478   1.211
 7747SOL     OW24139   0.393   6.141   0.597
 7747SOL    HW124140   0.404   6.195   0.681
 7747SOL    HW224141   0.401   6.044   0.619
 7748SOL     OW24142   4.252   2.848   5.627
 7748SOL    HW124143   4.310   2.851   5.545
 7748SOL    HW224144   4.157   2.868   5.600
 7749SOL     OW24145   3.703   3.437   4.106
 7749SOL    HW124146   3.779   3.394   4.058
 7749SOL    HW224147   3.636   3.471   4.040
 7750SOL     OW24148   5.925   4.726   5.755
 7750SOL    HW124149   5.947   4.695   5.847
 7750SOL    HW224150   5.998   4.784   5.720
 7751SOL     OW24151   0.042   1.401   5.195
 7751SOL    HW124152   0.032   1.452   5.109
 7751SOL    HW224153   6.984   1.423   5.255
 7752SOL     OW24154   6.097   5.740   5.255
 7752SOL    HW124155   6.143   5.711   5.171
 7752SOL    HW224156   6.161   5.735   5.332
 7753SOL     OW24157   2.281   0.754   4.317
 7753SOL    HW124158   2.247   0.675   4.267
 7753SOL    HW224159   2.220   0.832   4.303
 7754SOL     OW24160   5.854   0.348   0.959
 7754SOL    HW124161   5.799   0.314   0.883
 7754SOL    HW224162   5.884   0.442   0.940
 7755SOL     OW24163   0.289   6.023   5.129
 7755SOL    HW124164   0.196   6.055   5.146
 7755SOL    HW224165   0.354   6.093   5.159
 7756SOL     OW24166   2.935   4.883   2.321
 7756SOL    HW124167   2.907   4.840   2.235
 7756SOL    HW224168   2.982   4.969   2.301
 7757SOL     OW24169   4.581   6.159   5.495
 7757SOL    HW124170   4.496   6.205   5.521
 7757SOL    HW224171   4.605   6.184   5.401
 7758SOL     OW24172   2.563   2.293   5.957
 7758SOL    HW124173   2.601   2.327   6.043
 7758SOL    HW224174   2.620   2.322   5.880
 7759SOL     OW24175   2.203   0.231   4.270
 7759SOL    HW124176   2.186   0.329   4.260
 7759SOL    HW224177   2.218   0.190   4.180
 7760SOL     OW24178   5.484   3.236   2.044
 7760SOL    HW124179   5.532   3.268   2.126
 7760SOL    HW224180   5.503   3.297   1.968
 7761SOL     OW24181   3.043   6.852   6.536
 7761SOL    HW124182   3.073   6.766   6.576
 7761SOL    HW224183   2.998   6.835   6.449
 7762SOL     OW24184   4.157   1.496   0.462
 7762SOL    HW124185   4.223   1.522   0.392
 7762SOL    HW224186   4.179   1.542   0.548
 7763SOL     OW24187   1.786   1.708   1.035
 7763SOL    HW124188   1.804   1.684   0.940
 7763SOL    HW224189   1.844   1.785   1.062
 7764SOL     OW24190   3.839   2.953   2.231
 7764SOL    HW124191   3.857   3.050   2.213
 7764SOL    HW224192   3.872   2.898   2.153
 7765SOL     OW24193   6.280   3.452   2.920
 7765SOL    HW124194   6.369   3.410   2.934
 7765SOL    HW224195   6.216   3.383   2.885
 7766SOL     OW24196   6.396   1.510   0.285
 7766SOL    HW124197   6.359   1.456   0.360
 7766SOL    HW224198   6.365   1.605   0.294
 7767SOL     OW24199   3.769   6.336   3.914
 7767SOL    HW124200   3.789   6.292   4.002
 7767SOL    HW224201   3.716   6.273   3.857
 7768SOL     OW24202   3.571   4.899   2.217
 7768SOL    HW124203   3.606   4.863   2.130
 7768SOL    HW224204   3.475   4.873   2.228
 7769SOL     OW24205   4.853   1.818   0.640
 7769SOL    HW124206   4.865   1.851   0.546
 7769SOL    HW224207   4.806   1.730   0.639
 7770SOL     OW24208   3.137   4.798   1.855
 7770SOL    HW124209   3.173   4.830   1.942
 7770SOL    HW224210   3.041   4.827   1.846
 7771SOL     OW24211   2.867   2.065   5.191
 7771SOL    HW124212   2.772   2.057   5.218
 7771SOL    HW224213   2.872   2.100   5.097
 7772SOL     OW24214   4.487   0.768   3.906
 7772SOL    HW124215   4.455   0.846   3.852
 7772SOL    HW224216   4.514   0.800   3.997
 7773SOL     OW24217   4.190   3.717   5.867
 7773SOL    HW124218   4.178   3.664   5.783
 7773SOL    HW224219   4.258   3.672   5.925
 7774SOL     OW24220   5.489   1.524   6.265
 7774SOL    HW124221   5.568   1.475   6.301
 7774SOL    HW224222   5.494   1.527   6.165
 7775SOL     OW24223   3.747   0.039   2.735
 7775SOL    HW124224   3.673   6.998   2.767
 7775SOL    HW224225   3.739   0.129   2.777
 7776SOL     OW24226   3.921   3.236   6.296
 7776SOL    HW124227   3.830   3.233   6.254
 7776SOL    HW224228   3.944   3.331   6.318
 7777SOL     OW24229   2.299   1.252   6.711
 7777SOL    HW124230   2.265   1.194   6.638
 7777SOL    HW224231   2.259   1.344   6.703
 7778SOL     OW24232   5.649   0.311   6.696
 7778SOL    HW124233   5.692   0.358   6.620
 7778SOL    HW224234   5.658   0.212   6.684
 7779SOL     OW24235   3.559   2.000   1.059
 7779SOL    HW124236   3.606   2.013   1.146
 7779SOL    HW224237   3.589   2.070   0.994
 7780SOL     OW24238   1.127   6.305   4.231
 7780SOL    HW124239   1.195   6.299   4.157
 7780SOL    HW224240   1.157   6.249   4.308
 7781SOL     OW24241   1.481   3.462   5.793
 7781SOL    HW124242   1.570   3.446   5.751
 7781SOL    HW224243   1.441   3.375   5.820
 7782SOL     OW24244   2.747   3.888   6.483
 7782SOL    HW124245   2.840   3.924   6.491
 7782SOL    HW224246   2.701   3.930   6.405
 7783SOL     OW24247   2.456   6.526   6.700
 7783SOL    HW124248   2.396   6.531   6.779
 7783SOL    HW224249   2.401   6.533   6.616
 7784SOL     OW24250   0.839   2.487   6.947
 7784SOL    HW124251   0.898   2.535   6.881
 7784SOL    HW224252   0.744   2.496   6.920
 7785SOL     OW24253   2.159   6.476   4.185
 7785SOL    HW124254   2.128   6.466   4.090
 7785SOL    HW224255   2.193   6.568   4.200
 7786SOL     OW24256   3.038   4.767   5.215
 7786SOL    HW124257   3.055   4.770   5.314
 7786SOL    HW224258   3.002   4.677   5.191
 7787SOL     OW24259   2.310   2.704   5.004
 7787SOL    HW124260   2.329   2.801   5.018
 7787SOL    HW224261   2.380   2.664   4.944
 7788SOL     OW24262   1.117   1.730   1.678
 7788SOL    HW124263   1.063   1.802   1.722
 7788SOL    HW224264   1.074   1.703   1.592
 7789SOL     OW24265   2.438   0.319   1.154
 7789SOL    HW124266   2.417   0.364   1.067
 7789SOL    HW224267   2.406   0.376   1.230
 7790SOL     OW24268   6.589   4.094   3.192
 7790SOL    HW124269   6.609   4.110   3.289
 7790SOL    HW224270   6.593   3.996   3.173
 7791SOL     OW24271   2.622   5.487   4.627
 7791SOL    HW124272   2.558   5.564   4.621
 7791SOL    HW224273   2.573   5.405   4.657
 7792SOL     OW24274   2.362   6.234   6.321
 7792SOL    HW124275   2.390   6.213   6.228
 7792SOL    HW224276   2.424   6.189   6.385
 7793SOL     OW24277   1.303   1.012   5.952
 7793SOL    HW124278   1.287   1.096   5.899
 7793SOL    HW224279   1.361   0.950   5.899
 7794SOL     OW24280   5.251   5.607   4.274
 7794SOL    HW124281   5.250   5.690   4.218
 7794SOL    HW224282   5.197   5.536   4.229
 7795SOL     OW24283   2.156   4.025   5.624
 7795SOL    HW124284   2.233   3.997   5.567
 7795SOL    HW224285   2.079   4.052   5.565
 7796SOL     OW24286   3.751   4.099   3.503
 7796SOL    HW124287   3.735   4.099   3.602
 7796SOL    HW224288   3.767   4.192   3.472
 7797SOL     OW24289   0.052   6.274   3.185
 7797SOL    HW124290   0.006   6.250   3.100
 7797SOL    HW224291   0.150   6.282   3.168
 7798SOL     OW24292   3.510   5.491   6.980
 7798SOL    HW124293   3.514   5.417   6.913
 7798SOL    HW224294   3.432   5.549   6.961
 7799SOL     OW24295   0.008   5.741   1.115
 7799SOL    HW124296   0.049   5.827   1.147
 7799SOL    HW224297   6.927   5.753   1.106
 7800SOL     OW24298   0.194   4.836   1.945
 7800SOL    HW124299   0.143   4.886   1.875
 7800SOL    HW224300   0.265   4.895   1.983
 7801SOL     OW24301   2.232   1.413   0.471
 7801SOL    HW124302   2.299   1.482   0.497
 7801SOL    HW224303   2.278   1.324   0.461
 7802SOL     OW24304   5.875   2.584   1.791
 7802SOL    HW124305   5.839   2.492   1.805
 7802SOL    HW224306   5.866   2.636   1.876
 7803SOL     OW24307   4.189   3.878   5.573
 7803SOL    HW124308   4.183   3.852   5.477
 7803SOL    HW224309   4.179   3.796   5.630
 7804SOL     OW24310   5.261   1.438   4.791
 7804SOL    HW124311   5.332   1.421   4.722
 7804SOL    HW224312   5.270   1.373   4.865
 7805SOL     OW24313   5.465   2.457   2.204
 7805SOL    HW124314   5.499   2.471   2.111
 7805SOL    HW224315   5.367   2.441   2.202
 7806SOL     OW24316   5.610   2.971   6.054
 7806SOL    HW124317   5.691   2.955   6.110
 7806SOL    HW224318   5.529   2.936   6.101
 7807SOL     OW24319   0.220   4.528   6.530
 7807SOL    HW124320   0.217   4.428   6.537
 7807SOL    HW224321   0.170   4.568   6.606
 7808SOL     OW24322   0.311   1.594   4.886
 7808SOL    HW124323   0.344   1.688   4.897
 7808SOL    HW224324   0.371   1.531   4.935
 7809SOL     OW24325   2.178   5.323   4.318
 7809SOL    HW124326   2.153   5.383   4.241
 7809SOL    HW224327   2.220   5.378   4.390
 7810SOL     OW24328   2.839   0.732   5.701
 7810SOL    HW124329   2.891   0.794   5.760
 7810SOL    HW224330   2.753   0.708   5.746
 7811SOL     OW24331   5.136   4.897   3.469
 7811SOL    HW124332   5.222   4.845   3.474
 7811SOL    HW224333   5.156   4.992   3.447
 7812SOL     OW24334   1.598   1.678   4.426
 7812SOL    HW124335   1.510   1.638   4.401
 7812SOL    HW224336   1.582   1.758   4.485
 7813SOL     OW24337   5.883   2.736   6.949
 7813SOL    HW124338   5.907   2.642   6.925
 7813SOL    HW224339   5.966   2.789   6.963
 7814SOL     OW24340   6.984   3.168   3.643
 7814SOL    HW124341   6.892   3.151   3.608
 7814SOL    HW224342   6.985   3.155   3.742
 7815SOL     OW24343   5.736   1.647   6.693
 7815SOL    HW124344   5.661   1.627   6.756
 7815SOL    HW224345   5.700   1.695   6.613
 7816SOL     OW24346   0.519   3.728   5.627
 7816SOL    HW124347   0.561   3.720   5.717
 7816SOL    HW224348   0.567   3.669   5.562
 7817SOL     OW24349   5.522   4.488   4.633
 7817SOL    HW124350   5.522   4.552   4.556
 7817SOL    HW224351   5.606   4.501   4.686
 7818SOL     OW24352   6.466   6.652   1.343
 7818SOL    HW124353   6.392   6.689   1.287
 7818SOL    HW224354   6.428   6.585   1.407
 7819SOL     OW24355   6.921   2.708   1.418
 7819SOL    HW124356   6.873   2.742   1.499
 7819SOL    HW224357   6.897   2.612   1.402
 7820SOL     OW24358   1.985   1.779   5.881
 7820SOL    HW124359   2.067   1.779   5.938
 7820SOL    HW224360   2.007   1.814   5.791
 7821SOL     OW24361   3.769   5.738   0.909
 7821SOL    HW124362   3.834   5.681   0.960
 7821SOL    HW224363   3.814   5.776   0.828
 7822SOL     OW24364   0.917   5.953   5.138
 7822SOL    HW124365   0.928   5.866   5.090
 7822SOL    HW224366   1.001   5.974   5.187
 7823SOL     OW24367   2.245   4.318   4.981
 7823SOL    HW124368   2.244   4.231   5.032
 7823SOL    HW224369   2.247   4.394   5.046
 7824SOL     OW24370   0.196   2.749   4.955
 7824SOL    HW124371   0.122   2.801   4.997
 7824SOL    HW224372   0.172   2.652   4.955
 7825SOL     OW24373   2.083   2.448   6.388
 7825SOL    HW124374   2.057   2.524   6.447
 7825SOL    HW224375   2.000   2.403   6.353
 7826SOL     OW24376   6.768   2.424   0.047
 7826SOL    HW124377   6.841   2.396   0.109
 7826SOL    HW224378   6.781   2.519   0.021
 7827SOL     OW24379   0.029   6.350   2.773
 7827SOL    HW124380   0.052   6.275   2.710
 7827SOL    HW224381   6.997   6.313   2.851
 7828SOL     OW24382   6.891   3.576   6.782
 7828SOL    HW124383   6.831   3.519   6.725
 7828SOL    HW224384   6.914   3.660   6.732
 7829SOL     OW24385   3.275   2.880   1.567
 7829SOL    HW124386   3.333   2.803   1.594
 7829SOL    HW224387   3.181   2.848   1.553
 7830SOL     OW24388   3.049   5.546   4.853
 7830SOL    HW124389   3.109   5.467   4.841
 7830SOL    HW224390   2.954   5.517   4.848
 7831SOL     OW24391   1.795   1.569   1.275
 7831SOL    HW124392   1.828   1.626   1.199
 7831SOL    HW224393   1.792   1.623   1.359
 7832SOL     OW24394   6.069   0.663   5.189
 7832SOL    HW124395   6.045   0.567   5.204
 7832SOL    HW224396   5.986   0.719   5.195
 7833SOL     OW24397   1.626   0.248   4.192
 7833SOL    HW124398   1.614   0.344   4.169
 7833SOL    HW224399   1.597   0.233   4.287
 7834SOL     OW24400   6.437   2.571   4.164
 7834SOL    HW124401   6.436   2.485   4.115
 7834SOL    HW224402   6.505   2.633   4.124
 7835SOL     OW24403   4.196   1.870   5.379
 7835SOL    HW124404   4.099   1.883   5.358
 7835SOL    HW224405   4.207   1.793   5.441
 7836SOL     OW24406   3.680   4.244   5.104
 7836SOL    HW124407   3.760   4.185   5.089
 7836SOL    HW224408   3.602   4.208   5.053
 7837SOL     OW24409   6.156   6.417   0.111
 7837SOL    HW124410   6.110   6.328   0.112
 7837SOL    HW224411   6.186   6.440   0.204
 7838SOL     OW24412   5.378   5.488   1.390
 7838SOL    HW124413   5.389   5.579   1.350
 7838SOL    HW224414   5.467   5.450   1.412
 7839SOL     OW24415   6.296   4.592   4.584
 7839SOL    HW124416   6.252   4.555   4.502
 7839SOL    HW224417   6.362   4.525   4.619
 7840SOL     OW24418   1.965   4.538   3.312
 7840SOL    HW124419   1.961   4.632   3.278
 7840SOL    HW224420   2.050   4.495   3.281
 7841SOL     OW24421   4.863   1.958   6.163
 7841SOL    HW124422   4.793   2.026   6.185
 7841SOL    HW224423   4.948   2.004   6.138
 7842SOL     OW24424   1.852   1.065   2.653
 7842SOL    HW124425   1.799   1.084   2.736
 7842SOL    HW224426   1.929   1.005   2.676
 7843SOL     OW24427   0.357   6.616   4.156
 7843SOL    HW124428   0.379   6.528   4.115
 7843SOL    HW224429   0.389   6.689   4.095
 7844SOL     OW24430   3.306   0.906   2.569
 7844SOL    HW124431   3.348   0.821   2.538
 7844SOL    HW224432   3.336   0.926   2.662
 7845SOL     OW24433   6.000   1.361   1.860
 7845SOL    HW124434   5.967   1.445   1.816
 7845SOL    HW224435   5.923   1.305   1.888
 7846SOL     OW24436   1.003   2.532   0.180
 7846SOL    HW124437   0.986   2.486   0.093
 7846SOL    HW224438   1.092   2.505   0.216
 7847SOL     OW24439   5.846   2.355   4.212
 7847SOL    HW124440   5.932   2.322   4.251
 7847SOL    HW224441   5.783   2.378   4.286
 7848SOL     OW24442   2.794   4.724   0.802
 7848SOL    HW124443   2.845   4.755   0.882
 7848SOL    HW224444   2.719   4.787   0.783
 7849SOL     OW24445   5.316   3.609   5.646
 7849SOL    HW124446   5.346   3.695   5.685
 7849SOL    HW224447   5.317   3.615   5.546
 7850SOL     OW24448   6.779   1.443   3.778
 7850SOL    HW124449   6.869   1.461   3.817
 7850SOL    HW224450   6.709   1.462   3.846
 7851SOL     OW24451   1.092   4.015   1.362
 7851SOL    HW124452   1.012   3.955   1.357
 7851SOL    HW224453   1.089   4.080   1.286
 7852SOL     OW24454   2.330   1.885   0.444
 7852SOL    HW124455   2.383   1.954   0.395
 7852SOL    HW224456   2.362   1.880   0.539
 7853SOL     OW24457   3.849   3.129   1.335
 7853SOL    HW124458   3.768   3.140   1.278
 7853SOL    HW224459   3.834   3.170   1.425
 7854SOL     OW24460   4.395   1.787   5.983
 7854SOL    HW124461   4.416   1.809   5.888
 7854SOL    HW224462   4.369   1.691   5.990
 7855SOL     OW24463   5.302   0.054   4.393
 7855SOL    HW124464   5.376   0.020   4.335
 7855SOL    HW224465   5.253   0.127   4.346
 7856SOL     OW24466   2.211   5.198   4.653
 7856SOL    HW124467   2.252   5.286   4.629
 7856SOL    HW224468   2.172   5.156   4.571
 7857SOL     OW24469   5.370   3.851   0.006
 7857SOL    HW124470   5.465   3.856   0.038
 7857SOL    HW224471   5.317   3.925   0.048
 7858SOL     OW24472   0.418   5.196   5.810
 7858SOL    HW124473   0.424   5.289   5.847
 7858SOL    HW224474   0.358   5.141   5.868
 7859SOL     OW24475   5.170   2.747   6.295
 7859SOL    HW124476   5.166   2.787   6.386
 7859SOL    HW224477   5.263   2.753   6.259
 7860SOL     OW24478   2.910   0.942   5.008
 7860SOL    HW124479   2.855   0.906   4.932
 7860SOL    HW224480   2.868   1.025   5.043
 7861SOL     OW24481   2.707   5.861   1.203
 7861SOL    HW124482   2.607   5.855   1.212
 7861SOL    HW224483   2.750   5.827   1.287
 7862SOL     OW24484   3.138   5.945   1.373
 7862SOL    HW124485   3.194   5.889   1.434
 7862SOL    HW224486   3.047   5.903   1.364
 7863SOL     OW24487   6.820   4.646   3.500
 7863SOL    HW124488   6.905   4.624   3.452
 7863SOL    HW224489   6.762   4.701   3.440
 7864SOL     OW24490   2.578   5.984   5.653
 7864SOL    HW124491   2.565   5.885   5.648
 7864SOL    HW224492   2.638   6.013   5.578
 7865SOL     OW24493   6.574   6.322   4.183
 7865SOL    HW124494   6.578   6.319   4.083
 7865SOL    HW224495   6.647   6.380   4.217
 7866SOL     OW24496   1.781   0.684   6.146
 7866SOL    HW124497   1.712   0.674   6.218
 7866SOL    HW224498   1.854   0.617   6.160
 7867SOL     OW24499   5.498   0.407   3.909
 7867SOL    HW124500   5.535   0.499   3.896
 7867SOL    HW224501   5.571   0.340   3.898
 7868SOL     OW24502   4.024   6.276   0.852
 7868SOL    HW124503   4.094   6.326   0.902
 7868SOL    HW224504   4.010   6.318   0.763
 7869SOL     OW24505   5.657   3.912   5.432
 7869SOL    HW124506   5.666   3.817   5.403
 7869SOL    HW224507   5.739   3.940   5.482
 7870SOL     OW24508   4.495   6.144   4.926
 7870SOL    HW124509   4.511   6.242   4.941
 7870SOL    HW224510   4.424   6.113   4.988
 7871SOL     OW24511   5.320   1.409   2.228
 7871SOL    HW124512   5.267   1.422   2.144
 7871SOL    HW224513   5.323   1.494   2.280
 7872SOL     OW24514   1.701   5.305   2.570
 7872SOL    HW124515   1.602   5.304   2.575
 7872SOL    HW224516   1.740   5.258   2.649
 7873SOL     OW24517   6.936   1.181   0.619
 7873SOL    HW124518   6.845   1.222   0.613
 7873SOL    HW224519   6.959   1.166   0.716
 7874SOL     OW24520   5.713   2.516   1.380
 7874SOL    HW124521   5.651   2.534   1.456
 7874SOL    HW224522   5.699   2.423   1.346
 7875SOL     OW24523   4.222   3.982   6.594
 7875SOL    HW124524   4.202   3.884   6.599
 7875SOL    HW224525   4.316   3.995   6.562
 7876SOL     OW24526   0.514   0.228   2.868
 7876SOL    HW124527   0.535   0.134   2.842
 7876SOL    HW224528   0.556   0.291   2.803
 7877SOL     OW24529   6.604   1.573   3.209
 7877SOL    HW124530   6.526   1.583   3.272
 7877SOL    HW224531   6.592   1.635   3.132
 7878SOL     OW24532   4.739   4.653   3.778
 7878SOL    HW124533   4.675   4.724   3.807
 7878SOL    HW224534   4.746   4.654   3.678
 7879SOL     OW24535   2.741   4.981   3.684
 7879SOL    HW124536   2.780   4.891   3.664
 7879SOL    HW224537   2.718   5.027   3.598
 7880SOL     OW24538   2.065   3.540   1.476
 7880SOL    HW124539   2.065   3.533   1.576
 7880SOL    HW224540   2.154   3.512   1.441
 7881SOL     OW24541   5.120   3.738   4.320
 7881SOL    HW124542   5.059   3.750   4.399
 7881SOL    HW224543   5.124   3.641   4.295
 7882SOL     OW24544   2.339   3.172   1.313
 7882SOL    HW124545   2.379   3.184   1.222
 7882SOL    HW224546   2.260   3.232   1.322
 7883SOL     OW24547   0.679   1.209   5.072
 7883SOL    HW124548   0.758   1.258   5.108
 7883SOL    HW224549   0.706   1.153   4.994
 7884SOL     OW24550   0.872   2.918   4.840
 7884SOL    HW124551   0.774   2.930   4.853
 7884SOL    HW224552   0.901   2.967   4.758
 7885SOL     OW24553   5.937   5.379   0.528
 7885SOL    HW124554   6.004   5.449   0.503
 7885SOL    HW224555   5.967   5.290   0.495
 7886SOL     OW24556   4.645   5.594   6.915
 7886SOL    HW124557   4.600   5.659   6.853
 7886SOL    HW224558   4.736   5.572   6.880
 7887SOL     OW24559   4.844   2.070   6.941
 7887SOL    HW124560   4.879   2.028   0.006
 7887SOL    HW224561   4.748   2.098   6.955
 7888SOL     OW24562   4.513   0.528   4.767
 7888SOL    HW124563   4.506   0.565   4.860
 7888SOL    HW224564   4.503   0.602   4.701
 7889SOL     OW24565   0.197   5.754   2.387
 7889SOL    HW124566   0.114   5.710   2.354
 7889SOL    HW224567   0.245   5.796   2.310
 7890SOL     OW24568   1.843   4.178   2.391
 7890SOL    HW124569   1.940   4.202   2.379
 7890SOL    HW224570   1.806   4.145   2.305
 7891SOL     OW24571   2.603   4.668   2.050
 7891SOL    HW124572   2.610   4.767   2.052
 7891SOL    HW224573   2.679   4.630   1.997
 7892SOL     OW24574   1.883   2.335   5.481
 7892SOL    HW124575   1.960   2.326   5.544
 7892SOL    HW224576   1.910   2.305   5.389
 7893SOL     OW24577   5.719   6.355   0.740
 7893SOL    HW124578   5.642   6.412   0.714
 7893SOL    HW224579   5.722   6.346   0.839
 7894SOL     OW24580   2.508   6.274   2.066
 7894SOL    HW124581   2.500   6.233   1.975
 7894SOL    HW224582   2.600   6.260   2.101
 7895SOL     OW24583   5.942   1.219   4.591
 7895SOL    HW124584   5.877   1.208   4.665
 7895SOL    HW224585   5.915   1.162   4.513
 7896SOL     OW24586   5.313   4.154   5.209
 7896SOL    HW124587   5.331   4.225   5.142
 7896SOL    HW224588   5.214   4.143   5.221
 7897SOL     OW24589   2.573   3.773   6.768
 7897SOL    HW124590   2.541   3.685   6.734
 7897SOL    HW224591   2.502   3.816   6.823
 7898SOL     OW24592   4.123   2.302   4.120
 7898SOL    HW124593   4.058   2.356   4.067
 7898SOL    HW224594   4.148   2.220   4.069
 7899SOL     OW24595   5.559   2.557   2.752
 7899SOL    HW124596   5.540   2.473   2.701
 7899SOL    HW224597   5.499   2.562   2.832
 7900SOL     OW24598   1.832   5.833   1.246
 7900SOL    HW124599   1.812   5.864   1.339
 7900SOL    HW224600   1.747   5.806   1.201
 7901SOL     OW24601   6.808   6.595   6.565
 7901SOL    HW124602   6.904   6.607   6.590
 7901SOL    HW224603   6.797   6.508   6.517
 7902SOL     OW24604   4.527   4.343   0.697
 7902SOL    HW124605   4.527   4.350   0.597
 7902SOL    HW224606   4.528   4.247   0.724
 7903SOL     OW24607   6.678   1.734   0.289
 7903SOL    HW124608   6.707   1.778   0.374
 7903SOL    HW224609   6.716   1.642   0.284
 7904SOL     OW24610   0.035   1.274   2.472
 7904SOL    HW124611   0.099   1.351   2.483
 7904SOL    HW224612   6.965   1.299   2.511
 7905SOL     OW24613   4.273   0.802   1.155
 7905SOL    HW124614   4.179   0.823   1.127
 7905SOL    HW224615   4.336   0.831   1.083
 7906SOL     OW24616   5.646   5.771   7.000
 7906SOL    HW124617   5.563   5.715   7.004
 7906SOL    HW224618   5.715   5.726   6.944
 7907SOL     OW24619   0.058   2.836   3.710
 7907SOL    HW124620   0.140   2.888   3.733
 7907SOL    HW224621   7.005   2.856   3.778
 7908SOL     OW24622   6.620   1.596   3.956
 7908SOL    HW124623   6.667   1.674   3.914
 7908SOL    HW224624   6.606   1.614   4.053
 7909SOL     OW24625   4.758   4.249   4.932
 7909SOL    HW124626   4.778   4.301   5.015
 7909SOL    HW224627   4.748   4.312   4.855
 7910SOL     OW24628   4.640   3.354   5.640
 7910SOL    HW124629   4.557   3.403   5.615
 7910SOL    HW224630   4.682   3.398   5.719
 7911SOL     OW24631   6.738   4.644   0.642
 7911SOL    HW124632   6.819   4.629   0.586
 7911SOL    HW224633   6.678   4.564   0.637
 7912SOL     OW24634   5.888   4.492   6.335
 7912SOL    HW124635   5.875   4.591   6.329
 7912SOL    HW224636   5.985   4.471   6.326
 7913SOL     OW24637   6.899   5.225   6.879
 7913SOL    HW124638   6.879   5.323   6.881
 7913SOL    HW224639   6.988   5.209   6.923
 7914SOL     OW24640   6.228   3.738   1.234
 7914SOL    HW124641   6.322   3.771   1.221
 7914SOL    HW224642   6.202   3.681   1.156
 7915SOL     OW24643   4.112   1.667   3.584
 7915SOL    HW124644   4.029   1.622   3.550
 7915SOL    HW224645   4.093   1.763   3.602
 7916SOL     OW24646   5.654   3.005   5.604
 7916SOL    HW124647   5.647   2.966   5.512
 7916SOL    HW224648   5.604   3.091   5.607
 7917SOL     OW24649   3.928   3.636   4.768
 7917SOL    HW124650   3.962   3.709   4.827
 7917SOL    HW224651   3.951   3.656   4.673
 7918SOL     OW24652   6.315   1.168   2.844
 7918SOL    HW124653   6.330   1.077   2.805
 7918SOL    HW224654   6.324   1.164   2.943
 7919SOL     OW24655   5.377   5.102   2.156
 7919SOL    HW124656   5.443   5.032   2.129
 7919SOL    HW224657   5.298   5.059   2.199
 7920SOL     OW24658   0.331   5.089   1.696
 7920SOL    HW124659   0.337   5.099   1.596
 7920SOL    HW224660   0.421   5.105   1.736
 7921SOL     OW24661   2.383   6.861   1.824
 7921SOL    HW124662   2.348   6.926   1.756
 7921SOL    HW224663   2.441   6.793   1.778
 7922SOL     OW24664   0.910   5.439   6.437
 7922SOL    HW124665   0.984   5.503   6.417
 7922SOL    HW224666   0.836   5.487   6.484
 7923SOL     OW24667   0.994   1.525   3.351
 7923SOL    HW124668   0.983   1.437   3.303
 7923SOL    HW224669   0.968   1.600   3.290
 7924SOL     OW24670   2.994   0.348   3.815
 7924SOL    HW124671   2.933   0.351   3.894
 7924SOL    HW224672   2.988   0.434   3.765
 7925SOL     OW24673   6.258   1.144   6.296
 7925SOL    HW124674   6.189   1.154   6.368
 7925SOL    HW224675   6.303   1.232   6.280
 7926SOL     OW24676   3.072   0.438   2.271
 7926SOL    HW124677   3.077   0.447   2.371
 7926SOL    HW224678   2.986   0.395   2.245
 7927SOL     OW24679   3.952   4.906   5.117
 7927SOL    HW124680   3.979   4.931   5.210
 7927SOL    HW224681   4.028   4.859   5.072
 7928SOL     OW24682   2.091   5.056   2.402
 7928SOL    HW124683   2.012   5.031   2.348
 7928SOL    HW224684   2.112   4.983   2.467
 7929SOL     OW24685   4.085   3.699   4.566
 7929SOL    HW124686   4.096   3.620   4.505
 7929SOL    HW224687   4.093   3.783   4.512
 7930SOL     OW24688   4.166   5.446   3.776
 7930SOL    HW124689   4.144   5.353   3.747
 7930SOL    HW224690   4.161   5.507   3.697
 7931SOL     OW24691   2.289   2.201   0.719
 7931SOL    HW124692   2.305   2.126   0.783
 7931SOL    HW224693   2.191   2.222   0.716
 7932SOL     OW24694   2.103   6.895   0.046
 7932SOL    HW124695   2.009   6.918   0.069
 7932SOL    HW224696   2.130   6.811   0.093
 7933SOL     OW24697   1.412   0.212   6.887
 7933SOL    HW124698   1.330   0.260   6.855
 7933SOL    HW224699   1.387   0.146   6.958
 7934SOL     OW24700   3.488   3.842   0.471
 7934SOL    HW124701   3.438   3.928   0.483
 7934SOL    HW224702   3.522   3.836   0.377
 7935SOL     OW24703   4.884   6.377   1.129
 7935SOL    HW124704   4.835   6.321   1.196
 7935SOL    HW224705   4.973   6.403   1.167
 7936SOL     OW24706   4.122   6.331   3.119
 7936SOL    HW124707   4.040   6.291   3.079
 7936SOL    HW224708   4.164   6.393   3.053
 7937SOL     OW24709   6.107   6.314   5.762
 7937SOL    HW124710   6.039   6.333   5.833
 7937SOL    HW224711   6.198   6.337   5.795
 7938SOL     OW24712   4.376   5.412   4.916
 7938SOL    HW124713   4.411   5.467   4.991
 7938SOL    HW224714   4.299   5.459   4.873
 7939SOL     OW24715   0.739   0.990   5.267
 7939SOL    HW124716   0.700   1.001   5.359
 7939SOL    HW224717   0.724   1.073   5.214
 7940SOL     OW24718   2.289   5.630   1.379
 7940SOL    HW124719   2.364   5.652   1.442
 7940SOL    HW224720   2.235   5.712   1.362
 7941SOL     OW24721   0.462   0.782   0.605
 7941SOL    HW124722   0.446   0.880   0.589
 7941SOL    HW224723   0.512   0.770   0.691
 7942SOL     OW24724   0.197   0.027   1.856
 7942SOL    HW124725   0.233   0.026   1.950
 7942SOL    HW224726   0.273   0.013   1.792
 7943SOL     OW24727   5.524   2.042   0.776
 7943SOL    HW124728   5.487   2.103   0.707
 7943SOL    HW224729   5.508   1.947   0.749
 7944SOL     OW24730   0.314   3.965   1.065
 7944SOL    HW124731   0.225   3.953   1.108
 7944SOL    HW224732   0.376   4.013   1.127
 7945SOL     OW24733   5.460   6.561   2.973
 7945SOL    HW124734   5.371   6.518   2.982
 7945SOL    HW224735   5.529   6.508   3.023
 7946SOL     OW24736   1.950   2.501   5.818
 7946SOL    HW124737   2.041   2.537   5.796
 7946SOL    HW224738   1.930   2.518   5.915
 7947SOL     OW24739   4.232   2.751   6.679
 7947SOL    HW124740   4.236   2.792   6.770
 7947SOL    HW224741   4.213   2.822   6.611
 7948SOL     OW24742   6.680   6.801   0.331
 7948SOL    HW124743   6.673   6.706   0.363
 7948SOL    HW224744   6.621   6.859   0.388
 7949SOL     OW24745   5.061   5.140   3.800
 7949SOL    HW124746   4.965   5.169   3.801
 7949SOL    HW224747   5.118   5.216   3.831
 7950SOL     OW24748   4.321   4.894   4.279
 7950SOL    HW124749   4.328   4.847   4.191
 7950SOL    HW224750   4.271   4.980   4.267
 7951SOL     OW24751   3.570   3.229   0.678
 7951SOL    HW124752   3.539   3.159   0.614
 7951SOL    HW224753   3.491   3.268   0.725
 7952SOL     OW24754   6.289   3.236   0.566
 7952SOL    HW124755   6.362   3.298   0.540
 7952SOL    HW224756   6.201   3.272   0.535
 7953SOL     OW24757   2.382   2.786   3.487
 7953SOL    HW124758   2.321   2.826   3.419
 7953SOL    HW224759   2.425   2.704   3.450
 7954SOL     OW24760   4.280   5.217   4.752
 7954SOL    HW124761   4.260   5.311   4.723
 7954SOL    HW224762   4.259   5.207   4.849
 7955SOL     OW24763   0.263   6.541   6.426
 7955SOL    HW124764   0.353   6.526   6.384
 7955SOL    HW224765   0.213   6.610   6.373
 7956SOL     OW24766   6.810   6.117   3.780
 7956SOL    HW124767   6.777   6.092   3.871
 7956SOL    HW224768   6.801   6.038   3.719
 7957SOL     OW24769   1.412   1.599   0.832
 7957SOL    HW124770   1.467   1.659   0.774
 7957SOL    HW224771   1.455   1.591   0.922
 7958SOL     OW24772   3.062   5.319   3.726
 7958SOL    HW124773   3.016   5.248   3.779
 7958SOL    HW224774   3.151   5.339   3.767
 7959SOL     OW24775   6.408   4.833   0.460
 7959SOL    HW124776   6.485   4.848   0.522
 7959SOL    HW224777   6.439   4.783   0.380
 7960SOL     OW24778   2.642   1.331   1.467
 7960SOL    HW124779   2.621   1.425   1.494
 7960SOL    HW224780   2.732   1.329   1.424
 7961SOL     OW24781   1.618   5.984   5.804
 7961SOL    HW124782   1.561   5.957   5.726
 7961SOL    HW224783   1.608   6.082   5.821
 7962SOL     OW24784   2.052   0.815   2.145
 7962SOL    HW124785   2.030   0.877   2.070
 7962SOL    HW224786   2.146   0.783   2.136
 7963SOL     OW24787   0.884   0.757   5.592
 7963SOL    HW124788   0.939   0.678   5.621
 7963SOL    HW224789   0.855   0.809   5.672
 7964SOL     OW24790   5.616   5.493   3.135
 7964SOL    HW124791   5.575   5.552   3.066
 7964SOL    HW224792   5.545   5.464   3.200
 7965SOL     OW24793   5.000   2.601   0.159
 7965SOL    HW124794   4.961   2.534   0.096
 7965SOL    HW224795   5.002   2.690   0.115
 7966SOL     OW24796   0.014   5.262   4.026
 7966SOL    HW124797   0.028   5.173   3.982
 7966SOL    HW224798   0.103   5.302   4.048
 7967SOL     OW24799   3.481   6.546   2.530
 7967SOL    HW124800   3.432   6.505   2.607
 7967SOL    HW224801   3.455   6.498   2.446
 7968SOL     OW24802   2.236   2.508   3.775
 7968SOL    HW124803   2.309   2.564   3.734
 7968SOL    HW224804   2.159   2.567   3.799
 7969SOL     OW24805   3.892   1.335   3.230
 7969SOL    HW124806   3.867   1.404   3.162
 7969SOL    HW224807   3.890   1.376   3.321
 7970SOL     OW24808   0.149   4.100   3.234
 7970SOL    HW124809   0.142   4.142   3.325
 7970SOL    HW224810   0.242   4.112   3.199
 7971SOL     OW24811   3.737   7.009   1.209
 7971SOL    HW124812   3.740   0.088   1.187
 7971SOL    HW224813   3.819   6.984   1.262
 7972SOL     OW24814   0.000   4.604   1.564
 7972SOL    HW124815   6.937   4.579   1.617
 7972SOL    HW224816   0.082   4.565   1.608
 7973SOL     OW24817   4.862   3.177   3.827
 7973SOL    HW124818   4.860   3.251   3.760
 7973SOL    HW224819   4.842   3.090   3.782
 7974SOL     OW24820   4.674   0.443   4.386
 7974SOL    HW124821   4.603   0.421   4.453
 7974SOL    HW224822   4.634   0.441   4.294
 7975SOL     OW24823   3.132   0.993   4.845
 7975SOL    HW124824   3.061   1.002   4.915
 7975SOL    HW224825   3.104   0.925   4.778
 7976SOL     OW24826   1.152   6.224   4.965
 7976SOL    HW124827   1.103   6.164   4.901
 7976SOL    HW224828   1.101   6.229   5.051
 7977SOL     OW24829   4.730   6.132   2.006
 7977SOL    HW124830   4.735   6.129   1.906
 7977SOL    HW224831   4.812   6.092   2.044
 7978SOL     OW24832   4.710   3.498   5.849
 7978SOL    HW124833   4.714   3.580   5.906
 7978SOL    HW224834   4.803   3.471   5.823
 7979SOL     OW24835   2.726   0.252   4.517
 7979SOL    HW124836   2.684   0.261   4.607
 7979SOL    HW224837   2.677   0.183   4.464
 7980SOL     OW24838   3.773   5.980   6.991
 7980SOL    HW124839   3.688   6.015   0.011
 7980SOL    HW224840   3.754   5.897   6.938
 7981SOL     OW24841   1.404   5.397   2.192
 7981SOL    HW124842   1.502   5.381   2.191
 7981SOL    HW224843   1.376   5.429   2.283
 7982SOL     OW24844   6.614   2.394   0.497
 7982SOL    HW124845   6.621   2.295   0.485
 7982SOL    HW224846   6.643   2.419   0.589
 7983SOL     OW24847   5.166   1.880   2.243
 7983SOL    HW124848   5.242   1.927   2.288
 7983SOL    HW224849   5.079   1.922   2.271
 7984SOL     OW24850   0.224   2.784   2.234
 7984SOL    HW124851   0.182   2.763   2.322
 7984SOL    HW224852   0.230   2.884   2.223
 7985SOL     OW24853   0.811   0.672   2.341
 7985SOL    HW124854   0.882   0.627   2.287
 7985SOL    HW224855   0.724   0.623   2.329
 7986SOL     OW24856   3.911   1.199   6.441
 7986SOL    HW124857   3.834   1.187   6.378
 7986SOL    HW224858   3.993   1.223   6.389
 7987SOL     OW24859   0.385   2.739   5.156
 7987SOL    HW124860   0.417   2.644   5.152
 7987SOL    HW224861   0.333   2.760   5.073
 7988SOL     OW24862   2.807   1.874   4.370
 7988SOL    HW124863   2.715   1.886   4.408
 7988SOL    HW224864   2.841   1.783   4.394
 7989SOL     OW24865   3.217   2.343   5.704
 7989SOL    HW124866   3.303   2.301   5.676
 7989SOL    HW224867   3.174   2.386   5.625
 7990SOL     OW24868   1.126   2.782   4.314
 7990SOL    HW124869   1.182   2.845   4.259
 7990SOL    HW224870   1.049   2.749   4.259
 7991SOL     OW24871   0.405   2.712   5.797
 7991SOL    HW124872   0.397   2.772   5.717
 7991SOL    HW224873   0.422   2.767   5.879
 7992SOL     OW24874   1.864   6.676   0.755
 7992SOL    HW124875   1.901   6.764   0.725
 7992SOL    HW224876   1.815   6.688   0.841
 7993SOL     OW24877   2.258   5.708   6.996
 7993SOL    HW124878   2.272   5.680   6.901
 7993SOL    HW224879   2.177   5.663   0.014
 7994SOL     OW24880   4.782   1.124   3.380
 7994SOL    HW124881   4.699   1.070   3.392
 7994SOL    HW224882   4.854   1.087   3.440
 7995SOL     OW24883   3.415   5.348   3.877
 7995SOL    HW124884   3.508   5.381   3.895
 7995SOL    HW224885   3.352   5.395   3.939
 7996SOL     OW24886   3.710   0.030   4.838
 7996SOL    HW124887   3.797   0.006   4.881
 7996SOL    HW224888   3.660   6.965   4.816
 7997SOL     OW24889   6.149   2.506   1.108
 7997SOL    HW124890   6.071   2.539   1.162
 7997SOL    HW224891   6.234   2.538   1.149
 7998SOL     OW24892   5.627   4.326   0.348
 7998SOL    HW124893   5.644   4.417   0.310
 7998SOL    HW224894   5.529   4.314   0.362
 7999SOL     OW24895   1.497   0.047   5.584
 7999SOL    HW124896   1.596   0.058   5.572
 7999SOL    HW224897   1.457   0.013   5.499
 8000SOL     OW24898   6.307   6.976   5.584
 8000SOL    HW124899   6.245   6.905   5.619
 8000SOL    HW224900   6.401   6.942   5.585
 8001SOL     OW24901   1.663   6.710   1.407
 8001SOL    HW124902   1.641   6.616   1.382
 8001SOL    HW224903   1.737   6.744   1.349
 8002SOL     OW24904   6.180   3.422   5.216
 8002SOL    HW124905   6.083   3.397   5.227
 8002SOL    HW224906   6.186   3.514   5.177
 8003SOL     OW24907   3.642   4.886   3.151
 8003SOL    HW124908   3.704   4.826   3.201
 8003SOL    HW224909   3.558   4.899   3.204
 8004SOL     OW24910   2.601   4.559   3.118
 8004SOL    HW124911   2.683   4.592   3.071
 8004SOL    HW224912   2.562   4.633   3.172
 8005SOL     OW24913   3.603   0.429   1.663
 8005SOL    HW124914   3.577   0.379   1.745
 8005SOL    HW224915   3.654   0.512   1.689
 8006SOL     OW24916   2.883   5.834   0.396
 8006SOL    HW124917   2.894   5.912   0.458
 8006SOL    HW224918   2.810   5.774   0.430
 8007SOL     OW24919   0.502   0.394   4.301
 8007SOL    HW124920   0.538   0.301   4.308
 8007SOL    HW224921   0.492   0.418   4.204
 8008SOL     OW24922   6.288   6.460   6.904
 8008SOL    HW124923   6.238   6.458   6.990
 8008SOL    HW224924   6.258   6.385   6.846
 8009SOL     OW24925   6.814   0.543   3.233
 8009SOL    HW124926   6.785   0.529   3.138
 8009SOL    HW224927   6.894   0.486   3.251
 8010SOL     OW24928   2.125   2.212   0.436
 8010SOL    HW124929   2.096   2.241   0.527
 8010SOL    HW224930   2.211   2.160   0.444
 8011SOL     OW24931   3.104   2.370   1.434
 8011SOL    HW124932   3.051   2.451   1.407
 8011SOL    HW224933   3.045   2.290   1.435
 8012SOL     OW24934   2.060   6.729   1.528
 8012SOL    HW124935   2.032   6.633   1.528
 8012SOL    HW224936   2.155   6.736   1.560
 8013SOL     OW24937   5.864   5.180   4.384
 8013SOL    HW124938   5.861   5.279   4.399
 8013SOL    HW224939   5.931   5.159   4.314
 8014SOL     OW24940   1.967   6.499   6.624
 8014SOL    HW124941   2.010   6.425   6.573
 8014SOL    HW224942   1.899   6.545   6.567
 8015SOL     OW24943   2.751   2.636   0.703
 8015SOL    HW124944   2.717   2.576   0.631
 8015SOL    HW224945   2.813   2.586   0.764
 8016SOL     OW24946   4.243   6.946   0.490
 8016SOL    HW124947   4.209   0.019   0.514
 8016SOL    HW224948   4.166   6.884   0.477
 8017SOL     OW24949   6.937   4.093   4.614
 8017SOL    HW124950   6.894   4.163   4.558
 8017SOL    HW224951   6.911   4.106   4.710
 8018SOL     OW24952   4.402   1.903   5.729
 8018SOL    HW124953   4.467   1.931   5.659
 8018SOL    HW224954   4.328   1.970   5.736
 8019SOL     OW24955   1.536   5.847   0.427
 8019SOL    HW124956   1.495   5.916   0.487
 8019SOL    HW224957   1.635   5.847   0.439
 8020SOL     OW24958   5.270   5.547   6.678
 8020SOL    HW124959   5.347   5.499   6.719
 8020SOL    HW224960   5.303   5.622   6.621
 8021SOL     OW24961   1.120   1.428   1.219
 8021SOL    HW124962   1.102   1.342   1.172
 8021SOL    HW224963   1.198   1.417   1.281
 8022SOL     OW24964   4.522   6.782   2.853
 8022SOL    HW124965   4.471   6.856   2.897
 8022SOL    HW224966   4.570   6.729   2.924
 8023SOL     OW24967   6.097   6.014   2.062
 8023SOL    HW124968   6.106   6.113   2.075
 8023SOL    HW224969   6.172   5.981   2.004
 8024SOL     OW24970   4.778   5.711   6.028
 8024SOL    HW124971   4.752   5.625   5.984
 8024SOL    HW224972   4.709   5.780   6.009
 8025SOL     OW24973   3.446   6.178   6.117
 8025SOL    HW124974   3.462   6.097   6.059
 8025SOL    HW224975   3.432   6.149   6.211
 8026SOL     OW24976   1.564   3.384   6.503
 8026SOL    HW124977   1.572   3.463   6.443
 8026SOL    HW224978   1.571   3.300   6.450
 8027SOL     OW24979   4.680   2.027   5.147
 8027SOL    HW124980   4.649   2.001   5.239
 8027SOL    HW224981   4.780   2.029   5.145
 8028SOL     OW24982   4.876   5.175   6.397
 8028SOL    HW124983   4.961   5.169   6.345
 8028SOL    HW224984   4.807   5.222   6.342
 8029SOL     OW24985   4.073   4.675   0.558
 8029SOL    HW124986   4.167   4.687   0.589
 8029SOL    HW224987   4.045   4.580   0.572
 8030SOL     OW24988   5.739   4.065   5.860
 8030SOL    HW124989   5.655   4.087   5.909
 8030SOL    HW224990   5.778   4.148   5.822
 8031SOL     OW24991   3.948   5.391   1.383
 8031SOL    HW124992   3.896   5.363   1.302
 8031SOL    HW224993   3.934   5.489   1.399
 8032SOL     OW24994   5.636   4.167   4.958
 8032SOL    HW124995   5.685   4.159   4.871
 8032SOL    HW224996   5.539   4.186   4.940
 8033SOL     OW24997   5.662   2.579   7.009
 8033SOL    HW124998   5.650   2.490   6.966
 8033SOL    HW224999   5.731   2.632   6.959
 8034SOL     OW25000   5.066   7.008   4.642
 8034SOL    HW125001   5.016   0.072   4.669
 8034SOL    HW225002   5.151   0.016   4.595
 8035SOL     OW25003   5.268   6.351   0.063
 8035SOL    HW125004   5.341   6.399   0.015
 8035SOL    HW225005   5.222   6.288   0.001
 8036SOL     OW25006   2.347   3.906   1.780
 8036SOL    HW125007   2.440   3.921   1.815
 8036SOL    HW225008   2.282   3.962   1.832
 8037SOL     OW25009   1.606   2.589   0.768
 8037SOL    HW125010   1.597   2.514   0.834
 8037SOL    HW225011   1.519   2.601   0.720
 8038SOL     OW25012   0.006   2.043   3.457
 8038SOL    HW125013   6.975   1.971   3.507
 8038SOL    HW225014   0.039   2.005   3.371
 8039SOL     OW25015   2.200   0.236   3.259
 8039SOL    HW125016   2.113   0.256   3.215
 8039SOL    HW225017   2.184   0.208   3.354
 8040SOL     OW25018   0.628   5.482   1.198
 8040SOL    HW125019   0.590   5.574   1.210
 8040SOL    HW225020   0.566   5.428   1.142
 8041SOL     OW25021   3.985   1.488   1.053
 8041SOL    HW125022   3.935   1.573   1.071
 8041SOL    HW225023   4.082   1.501   1.074
 8042SOL     OW25024   3.313   2.881   2.549
 8042SOL    HW125025   3.286   2.926   2.464
 8042SOL    HW225026   3.249   2.907   2.622
 8043SOL     OW25027   2.656   0.279   1.547
 8043SOL    HW125028   2.736   0.320   1.503
 8043SOL    HW225029   2.641   0.323   1.635
 8044SOL     OW25030   2.951   3.186   1.600
 8044SOL    HW125031   2.948   3.283   1.578
 8044SOL    HW225032   3.043   3.163   1.633
 8045SOL     OW25033   6.094   2.450   3.133
 8045SOL    HW125034   6.096   2.537   3.182
 8045SOL    HW225035   5.999   2.428   3.108
 8046SOL     OW25036   5.846   4.288   5.615
 8046SOL    HW125037   5.853   4.380   5.577
 8046SOL    HW225038   5.881   4.222   5.550
 8047SOL     OW25039   3.952   5.992   4.788
 8047SOL    HW125040   3.992   5.935   4.860
 8047SOL    HW225041   3.853   5.997   4.800
 8048SOL     OW25042   6.606   0.557   5.282
 8048SOL    HW125043   6.624   0.498   5.203
 8048SOL    HW225044   6.587   0.650   5.251
 8049SOL     OW25045   1.357   6.591   1.310
 8049SOL    HW125046   1.328   6.553   1.398
 8049SOL    HW225047   1.376   6.689   1.321
 8050SOL     OW25048   1.845   3.510   0.826
 8050SOL    HW125049   1.773   3.498   0.758
 8050SOL    HW225050   1.804   3.531   0.915
 8051SOL     OW25051   4.648   1.004   2.990
 8051SOL    HW125052   4.589   0.932   3.025
 8051SOL    HW225053   4.640   1.085   3.048
 8052SOL     OW25054   2.737   1.389   3.018
 8052SOL    HW125055   2.818   1.425   3.064
 8052SOL    HW225056   2.751   1.391   2.919
 8053SOL     OW25057   3.729   4.097   2.729
 8053SOL    HW125058   3.758   4.111   2.635
 8053SOL    HW225059   3.798   4.043   2.778
 8054SOL     OW25060   5.129   6.839   4.248
 8054SOL    HW125061   5.154   6.861   4.342
 8054SOL    HW225062   5.052   6.776   4.247
 8055SOL     OW25063   1.452   0.141   5.998
 8055SOL    HW125064   1.486   0.093   6.079
 8055SOL    HW225065   1.427   0.074   5.928
 8056SOL     OW25066   4.604   1.818   3.139
 8056SOL    HW125067   4.506   1.809   3.120
 8056SOL    HW225068   4.621   1.908   3.180
 8057SOL     OW25069   3.006   7.015   3.172
 8057SOL    HW125070   2.981   0.083   3.215
 8057SOL    HW225071   2.983   7.018   3.075
 8058SOL     OW25072   2.985   0.520   2.526
 8058SOL    HW125073   2.907   0.566   2.483
 8058SOL    HW225074   2.996   0.554   2.619
 8059SOL     OW25075   3.243   2.129   4.810
 8059SOL    HW125076   3.299   2.055   4.846
 8059SOL    HW225077   3.188   2.169   4.884
 8060SOL     OW25078   6.675   1.085   4.989
 8060SOL    HW125079   6.584   1.050   4.969
 8060SOL    HW225080   6.744   1.020   4.957
 8061SOL     OW25081   6.603   5.780   2.778
 8061SOL    HW125082   6.550   5.705   2.738
 8061SOL    HW225083   6.700   5.767   2.757
 8062SOL     OW25084   1.581   3.968   3.932
 8062SOL    HW125085   1.565   4.049   3.989
 8062SOL    HW225086   1.613   3.997   3.842
 8063SOL     OW25087   3.210   3.408   6.718
 8063SOL    HW125088   3.172   3.498   6.737
 8063SOL    HW225089   3.153   3.362   6.649
 8064SOL     OW25090   0.739   3.817   0.546
 8064SOL    HW125091   0.670   3.838   0.477
 8064SOL    HW225092   0.714   3.734   0.594
 8065SOL     OW25093   4.483   0.095   3.948
 8065SOL    HW125094   4.471   7.017   3.923
 8065SOL    HW225095   4.578   0.111   3.972
 8066SOL     OW25096   1.740   0.947   1.261
 8066SOL    HW125097   1.709   0.889   1.337
 8066SOL    HW225098   1.661   0.996   1.223
 8067SOL     OW25099   4.626   2.793   1.489
 8067SOL    HW125100   4.539   2.814   1.444
 8067SOL    HW225101   4.642   2.694   1.486
 8068SOL     OW25102   0.911   4.408   4.806
 8068SOL    HW125103   0.886   4.359   4.889
 8068SOL    HW225104   0.921   4.505   4.826
 8069SOL     OW25105   1.594   6.200   1.165
 8069SOL    HW125106   1.659   6.174   1.237
 8069SOL    HW225107   1.501   6.183   1.198
 8070SOL     OW25108   3.974   6.225   1.424
 8070SOL    HW125109   4.008   6.170   1.348
 8070SOL    HW225110   3.880   6.197   1.445
 8071SOL     OW25111   3.542   6.541   5.716
 8071SOL    HW125112   3.493   6.531   5.803
 8071SOL    HW225113   3.531   6.635   5.683
 8072SOL     OW25114   4.665   1.204   0.513
 8072SOL    HW125115   4.657   1.129   0.447
 8072SOL    HW225116   4.607   1.280   0.484
 8073SOL     OW25117   4.360   6.306   6.007
 8073SOL    HW125118   4.299   6.259   6.071
 8073SOL    HW225119   4.308   6.339   5.929
 8074SOL     OW25120   3.676   3.420   0.233
 8074SOL    HW125121   3.752   3.459   0.181
 8074SOL    HW225122   3.672   3.322   0.218
 8075SOL     OW25123   0.008   1.155   2.771
 8075SOL    HW125124   6.962   1.199   2.709
 8075SOL    HW225125   7.016   1.056   2.765
 8076SOL     OW25126   5.676   2.363   5.488
 8076SOL    HW125127   5.637   2.289   5.434
 8076SOL    HW225128   5.686   2.334   5.583
 8077SOL     OW25129   0.694   0.030   1.184
 8077SOL    HW125130   0.664   0.111   1.134
 8077SOL    HW225131   0.733   0.057   1.272
 8078SOL     OW25132   6.533   2.674   0.986
 8078SOL    HW125133   6.462   2.744   0.976
 8078SOL    HW225134   6.502   2.604   1.050
 8079SOL     OW25135   6.518   2.165   2.756
 8079SOL    HW125136   6.522   2.102   2.833
 8079SOL    HW225137   6.473   2.250   2.784
 8080SOL     OW25138   2.941   4.020   0.605
 8080SOL    HW125139   2.929   3.983   0.697
 8080SOL    HW225140   2.883   4.100   0.593
 8081SOL     OW25141   6.157   1.070   4.736
 8081SOL    HW125142   6.080   1.115   4.692
 8081SOL    HW225143   6.131   0.976   4.760
 8082SOL     OW25144   6.925   2.474   3.779
 8082SOL    HW125145   0.005   2.467   3.797
 8082SOL    HW225146   6.900   2.411   3.705
 8083SOL     OW25147   4.560   2.613   3.255
 8083SOL    HW125148   4.536   2.561   3.337
 8083SOL    HW225149   4.517   2.572   3.175
 8084SOL     OW25150   0.047   6.332   1.369
 8084SOL    HW125151   6.991   6.399   1.380
 8084SOL    HW225152   0.123   6.355   1.430
 8085SOL     OW25153   5.572   0.510   0.944
 8085SOL    HW125154   5.578   0.517   0.844
 8085SOL    HW225155   5.480   0.534   0.974
 8086SOL     OW25156   3.931   0.539   5.120
 8086SOL    HW125157   3.935   0.636   5.093
 8086SOL    HW225158   3.852   0.525   5.180
 8087SOL     OW25159   2.635   2.224   1.245
 8087SOL    HW125160   2.537   2.236   1.258
 8087SOL    HW225161   2.676   2.311   1.220
 8088SOL     OW25162   5.571   1.108   2.075
 8088SOL    HW125163   5.652   1.108   2.016
 8088SOL    HW225164   5.599   1.101   2.170
 8089SOL     OW25165   5.443   3.066   0.504
 8089SOL    HW125166   5.484   2.979   0.477
 8089SOL    HW225167   5.426   3.065   0.603
 8090SOL     OW25168   5.044   1.867   5.942
 8090SOL    HW125169   5.077   1.930   6.013
 8090SOL    HW225170   4.976   1.806   5.981
 8091SOL     OW25171   2.975   4.459   6.643
 8091SOL    HW125172   3.045   4.511   6.691
 8091SOL    HW225173   3.016   4.376   6.605
 8092SOL     OW25174   1.642   1.232   5.224
 8092SOL    HW125175   1.610   1.314   5.178
 8092SOL    HW225176   1.621   1.152   5.168
 8093SOL     OW25177   6.039   5.606   1.158
 8093SOL    HW125178   6.007   5.528   1.105
 8093SOL    HW225179   6.019   5.690   1.108
 8094SOL     OW25180   1.427   3.755   6.567
 8094SOL    HW125181   1.471   3.710   6.491
 8094SOL    HW225182   1.490   3.820   6.609
 8095SOL     OW25183   5.695   3.449   4.678
 8095SOL    HW125184   5.640   3.378   4.721
 8095SOL    HW225185   5.792   3.422   4.680
 8096SOL     OW25186   3.239   6.135   1.554
 8096SOL    HW125187   3.227   6.232   1.531
 8096SOL    HW225188   3.199   6.079   1.482
 8097SOL     OW25189   5.019   1.307   3.356
 8097SOL    HW125190   4.933   1.263   3.331
 8097SOL    HW225191   5.095   1.258   3.312
 8098SOL     OW25192   2.875   6.044   4.412
 8098SOL    HW125193   2.878   6.110   4.487
 8098SOL    HW225194   2.853   5.954   4.448
 8099SOL     OW25195   5.153   6.494   4.557
 8099SOL    HW125196   5.147   6.411   4.613
 8099SOL    HW225197   5.184   6.570   4.614
 8100SOL     OW25198   6.651   6.537   0.420
 8100SOL    HW125199   6.604   6.519   0.506
 8100SOL    HW225200   6.646   6.456   0.362
 8101SOL     OW25201   1.648   6.015   3.401
 8101SOL    HW125202   1.676   6.110   3.384
 8101SOL    HW225203   1.714   5.953   3.361
 8102SOL     OW25204   6.765   5.615   5.637
 8102SOL    HW125205   6.783   5.706   5.675
 8102SOL    HW225206   6.777   5.617   5.538
 8103SOL     OW25207   3.717   1.622   2.495
 8103SOL    HW125208   3.649   1.654   2.562
 8103SOL    HW225209   3.677   1.549   2.440
 8104SOL     OW25210   2.349   6.933   5.862
 8104SOL    HW125211   2.283   6.976   5.800
 8104SOL    HW225212   2.348   6.834   5.847
 8105SOL     OW25213   2.384   2.048   3.589
 8105SOL    HW125214   2.425   2.063   3.678
 8105SOL    HW225215   2.405   1.955   3.558
 8106SOL     OW25216   0.900   4.180   3.749
 8106SOL    HW125217   0.999   4.189   3.746
 8106SOL    HW225218   0.876   4.083   3.763
 8107SOL     OW25219   1.985   6.133   5.598
 8107SOL    HW125220   1.976   6.038   5.631
 8107SOL    HW225221   2.010   6.132   5.502
 8108SOL     OW25222   0.694   3.697   4.130
 8108SOL    HW125223   0.749   3.733   4.054
 8108SOL    HW225224   0.623   3.637   4.094
 8109SOL     OW25225   1.598   4.431   4.854
 8109SOL    HW125226   1.532   4.434   4.780
 8109SOL    HW225227   1.660   4.508   4.847
 8110SOL     OW25228   2.273   6.303   0.718
 8110SOL    HW125229   2.175   6.284   0.718
 8110SOL    HW225230   2.310   6.288   0.810
 8111SOL     OW25231   2.803   5.446   4.851
 8111SOL    HW125232   2.737   5.445   4.776
 8111SOL    HW225233   2.848   5.357   4.857
 8112SOL     OW25234   2.390   0.548   5.297
 8112SOL    HW125235   2.332   0.623   5.331
 8112SOL    HW225236   2.459   0.525   5.366
 8113SOL     OW25237   3.661   2.511   6.637
 8113SOL    HW125238   3.676   2.608   6.656
 8113SOL    HW225239   3.699   2.456   6.712
 8114SOL     OW25240   2.248   2.884   2.327
 8114SOL    HW125241   2.226   2.958   2.390
 8114SOL    HW225242   2.224   2.911   2.233
 8115SOL     OW25243   3.138   1.083   1.190
 8115SOL    HW125244   3.194   1.016   1.239
 8115SOL    HW225245   3.049   1.043   1.169
 8116SOL     OW25246   6.121   6.919   4.925
 8116SOL    HW125247   6.213   6.903   4.890
 8116SOL    HW225248   6.122   6.919   5.025
 8117SOL     OW25249   1.598   1.783   4.838
 8117SOL    HW125250   1.675   1.816   4.784
 8117SOL    HW225251   1.563   1.857   4.896
 8118SOL     OW25252   0.973   3.931   5.260
 8118SOL    HW125253   0.968   3.861   5.189
 8118SOL    HW225254   1.069   3.944   5.287
 8119SOL     OW25255   0.748   5.734   2.808
 8119SOL    HW125256   0.709   5.821   2.838
 8119SOL    HW225257   0.801   5.748   2.724
 8120SOL     OW25258   4.254   4.351   0.840
 8120SOL    HW125259   4.228   4.255   0.846
 8120SOL    HW225260   4.354   4.358   0.831
 8121SOL     OW25261   6.649   0.774   2.552
 8121SOL    HW125262   6.674   0.840   2.482
 8121SOL    HW225263   6.719   0.703   2.558
 8122SOL     OW25264   6.435   6.207   1.784
 8122SOL    HW125265   6.432   6.299   1.824
 8122SOL    HW225266   6.490   6.209   1.701
 8123SOL     OW25267   1.441   6.354   6.317
 8123SOL    HW125268   1.348   6.386   6.336
 8123SOL    HW225269   1.446   6.255   6.332
 8124SOL     OW25270   0.991   5.811   1.841
 8124SOL    HW125271   0.982   5.820   1.742
 8124SOL    HW225272   1.082   5.776   1.863
 8125SOL     OW25273   5.974   4.617   2.973
 8125SOL    HW125274   6.036   4.581   2.904
 8125SOL    HW225275   5.996   4.713   2.992
 8126SOL     OW25276   5.941   4.210   2.503
 8126SOL    HW125277   5.907   4.177   2.591
 8126SOL    HW225278   5.875   4.273   2.462
 8127SOL     OW25279   2.001   4.984   0.257
 8127SOL    HW125280   1.937   5.046   0.212
 8127SOL    HW225281   1.952   4.928   0.324
 8128SOL     OW25282   3.414   2.699   5.698
 8128SOL    HW125283   3.325   2.684   5.656
 8128SOL    HW225284   3.469   2.759   5.639
 8129SOL     OW25285   5.709   0.551   5.896
 8129SOL    HW125286   5.732   0.648   5.905
 8129SOL    HW225287   5.691   0.512   5.987
 8130SOL     OW25288   1.656   5.647   6.802
 8130SOL    HW125289   1.672   5.721   6.868
 8130SOL    HW225290   1.614   5.685   6.719
 8131SOL     OW25291   2.775   0.621   0.735
 8131SOL    HW125292   2.759   0.600   0.831
 8131SOL    HW225293   2.847   0.562   0.699
 8132SOL     OW25294   5.953   5.647   3.886
 8132SOL    HW125295   5.913   5.687   3.969
 8132SOL    HW225296   6.046   5.617   3.906
 8133SOL     OW25297   2.447   5.328   2.550
 8133SOL    HW125298   2.416   5.397   2.616
 8133SOL    HW225299   2.377   5.315   2.480
 8134SOL     OW25300   2.295   2.333   3.957
 8134SOL    HW125301   2.280   2.405   3.889
 8134SOL    HW225302   2.300   2.245   3.911
 8135SOL     OW25303   4.179   5.323   2.151
 8135SOL    HW125304   4.107   5.286   2.092
 8135SOL    HW225305   4.136   5.369   2.229
 8136SOL     OW25306   3.948   5.527   2.672
 8136SOL    HW125307   3.965   5.430   2.656
 8136SOL    HW225308   4.035   5.575   2.685
 8137SOL     OW25309   2.251   4.164   4.759
 8137SOL    HW125310   2.239   4.235   4.829
 8137SOL    HW225311   2.277   4.078   4.802
 8138SOL     OW25312   5.173   1.284   2.571
 8138SOL    HW125313   5.105   1.228   2.523
 8138SOL    HW225314   5.136   1.376   2.585
 8139SOL     OW25315   1.894   2.168   3.115
 8139SOL    HW125316   1.881   2.267   3.111
 8139SOL    HW225317   1.969   2.142   3.055
 8140SOL     OW25318   4.824   0.859   0.565
 8140SOL    HW125319   4.846   0.762   0.552
 8140SOL    HW225320   4.864   0.891   0.650
 8141SOL     OW25321   4.943   1.599   5.948
 8141SOL    HW125322   4.893   1.572   5.866
 8141SOL    HW225323   4.903   1.553   6.027
 8142SOL     OW25324   2.020   5.895   6.900
 8142SOL    HW125325   2.094   5.901   6.968
 8142SOL    HW225326   1.973   5.807   6.911
 8143SOL     OW25327   5.740   4.611   0.454
 8143SOL    HW125328   5.776   4.581   0.542
 8143SOL    HW225329   5.648   4.646   0.465
 8144SOL     OW25330   0.210   4.880   5.803
 8144SOL    HW125331   0.300   4.838   5.799
 8144SOL    HW225332   0.199   4.928   5.889
 8145SOL     OW25333   5.463   5.564   6.955
 8145SOL    HW125334   5.372   5.535   6.986
 8145SOL    HW225335   5.500   5.495   6.893
 8146SOL     OW25336   5.900   0.170   4.312
 8146SOL    HW125337   5.826   0.105   4.331
 8146SOL    HW225338   5.862   0.251   4.268
 8147SOL     OW25339   1.148   0.665   5.475
 8147SOL    HW125340   1.088   0.604   5.527
 8147SOL    HW225341   1.092   0.732   5.426
 8148SOL     OW25342   3.783   4.676   0.490
 8148SOL    HW125343   3.862   4.686   0.550
 8148SOL    HW225344   3.783   4.585   0.449
 8149SOL     OW25345   1.257   6.142   4.034
 8149SOL    HW125346   1.273   6.079   4.110
 8149SOL    HW225347   1.345   6.173   3.997
 8150SOL     OW25348   0.952   3.165   0.894
 8150SOL    HW125349   0.929   3.263   0.893
 8150SOL    HW225350   0.873   3.113   0.926
 8151SOL     OW25351   6.065   4.085   3.734
 8151SOL    HW125352   6.032   4.019   3.802
 8151SOL    HW225353   6.164   4.091   3.739
 8152SOL     OW25354   4.633   2.082   3.258
 8152SOL    HW125355   4.657   2.179   3.267
 8152SOL    HW225356   4.695   2.028   3.315
 8153SOL     OW25357   6.969   2.173   3.900
 8153SOL    HW125358   6.983   2.270   3.880
 8153SOL    HW225359   6.883   2.143   3.859
 8154SOL     OW25360   1.807   1.367   3.233
 8154SOL    HW125361   1.752   1.384   3.314
 8154SOL    HW225362   1.852   1.451   3.203
 8155SOL     OW25363   1.215   5.190   1.684
 8155SOL    HW125364   1.232   5.229   1.775
 8155SOL    HW225365   1.213   5.264   1.617
 8156SOL     OW25366   5.889   5.003   1.735
 8156SOL    HW125367   5.832   4.992   1.654
 8156SOL    HW225368   5.837   5.050   1.806
 8157SOL     OW25369   6.763   3.051   6.210
 8157SOL    HW125370   6.754   3.145   6.177
 8157SOL    HW225371   6.788   3.051   6.306
 8158SOL     OW25372   5.643   4.679   6.432
 8158SOL    HW125373   5.572   4.703   6.366
 8158SOL    HW225374   5.727   4.727   6.409
 8159SOL     OW25375   3.189   6.070   5.775
 8159SOL    HW125376   3.141   5.989   5.742
 8159SOL    HW225377   3.202   6.135   5.700
 8160SOL     OW25378   5.235   1.136   3.326
 8160SOL    HW125379   5.309   1.201   3.341
 8160SOL    HW225380   5.271   1.051   3.287
 8161SOL     OW25381   5.503   3.223   0.926
 8161SOL    HW125382   5.571   3.252   0.860
 8161SOL    HW225383   5.546   3.166   0.996
 8162SOL     OW25384   0.326   4.868   6.623
 8162SOL    HW125385   0.401   4.865   6.688
 8162SOL    HW225386   0.255   4.803   6.650
 8163SOL     OW25387   4.690   4.690   5.052
 8163SOL    HW125388   4.770   4.697   4.992
 8163SOL    HW225389   4.717   4.717   5.145
 8164SOL     OW25390   6.101   1.174   0.015
 8164SOL    HW125391   6.132   1.084   7.002
 8164SOL    HW225392   6.180   1.236   0.020
 8165SOL     OW25393   0.438   2.051   6.303
 8165SOL    HW125394   0.373   2.037   6.378
 8165SOL    HW225395   0.411   1.994   6.225
 8166SOL     OW25396   1.729   2.133   4.742
 8166SOL    HW125397   1.740   2.175   4.832
 8166SOL    HW225398   1.632   2.120   4.723
 8167SOL     OW25399   6.960   2.871   4.078
 8167SOL    HW125400   6.900   2.867   3.999
 8167SOL    HW225401   6.910   2.910   4.156
 8168SOL     OW25402   2.531   0.378   1.757
 8168SOL    HW125403   2.498   0.472   1.750
 8168SOL    HW225404   2.454   0.315   1.754
 8169SOL     OW25405   5.250   2.038   1.187
 8169SOL    HW125406   5.225   2.111   1.251
 8169SOL    HW225407   5.317   2.074   1.122
 8170SOL     OW25408   5.976   4.924   2.374
 8170SOL    HW125409   6.008   4.932   2.279
 8170SOL    HW225410   5.957   5.015   2.410
 8171SOL     OW25411   1.999   1.340   0.604
 8171SOL    HW125412   1.964   1.257   0.561
 8171SOL    HW225413   2.089   1.362   0.566
 8172SOL     OW25414   1.027   3.002   1.960
 8172SOL    HW125415   0.996   3.041   2.046
 8172SOL    HW225416   1.111   2.951   1.975
 8173SOL     OW25417   5.571   1.424   2.097
 8173SOL    HW125418   5.491   1.432   2.155
 8173SOL    HW225419   5.566   1.340   2.043
 8174SOL     OW25420   2.313   5.488   2.773
 8174SOL    HW125421   2.264   5.561   2.724
 8174SOL    HW225422   2.248   5.432   2.823
 8175SOL     OW25423   0.344   2.209   4.512
 8175SOL    HW125424   0.415   2.278   4.495
 8175SOL    HW225425   0.270   2.221   4.447
 8176SOL     OW25426   2.022   4.301   0.839
 8176SOL    HW125427   2.121   4.296   0.828
 8176SOL    HW225428   1.996   4.392   0.870
 8177SOL     OW25429   3.557   1.547   2.781
 8177SOL    HW125430   3.495   1.563   2.704
 8177SOL    HW225431   3.614   1.467   2.761
 8178SOL     OW25432   1.950   6.459   1.249
 8178SOL    HW125433   1.880   6.525   1.223
 8178SOL    HW225434   2.040   6.494   1.223
 8179SOL     OW25435   5.376   0.921   3.247
 8179SOL    HW125436   5.367   0.877   3.337
 8179SOL    HW225437   5.471   0.914   3.216
 8180SOL     OW25438   4.750   5.704   0.113
 8180SOL    HW125439   4.766   5.615   0.072
 8180SOL    HW225440   4.798   5.710   0.201
 8181SOL     OW25441   0.848   1.184   1.167
 8181SOL    HW125442   0.927   1.134   1.133
 8181SOL    HW225443   0.854   1.192   1.267
 8182SOL     OW25444   2.930   3.374   4.520
 8182SOL    HW125445   2.934   3.283   4.562
 8182SOL    HW225446   2.940   3.366   4.421
 8183SOL     OW25447   6.935   0.123   5.181
 8183SOL    HW125448   0.012   0.096   5.169
 8183SOL    HW225449   6.926   0.181   5.261
 8184SOL     OW25450   0.824   6.179   6.708
 8184SOL    HW125451   0.810   6.141   6.799
 8184SOL    HW225452   0.789   6.273   6.705
 8185SOL     OW25453   0.898   0.049   0.177
 8185SOL    HW125454   0.956   0.129   0.190
 8185SOL    HW225455   0.924   0.002   0.093
 8186SOL     OW25456   1.375   5.457   6.743
 8186SOL    HW125457   1.409   5.459   6.649
 8186SOL    HW225458   1.276   5.448   6.743
 8187SOL     OW25459   1.183   0.969   5.647
 8187SOL    HW125460   1.271   0.923   5.661
 8187SOL    HW225461   1.114   0.928   5.706
 8188SOL     OW25462   3.081   1.875   4.096
 8188SOL    HW125463   3.176   1.858   4.123
 8188SOL    HW225464   3.067   1.974   4.087
 8189SOL     OW25465   4.710   4.814   4.065
 8189SOL    HW125466   4.681   4.781   4.155
 8189SOL    HW225467   4.641   4.878   4.030
 8190SOL     OW25468   5.703   3.619   3.265
 8190SOL    HW125469   5.799   3.646   3.259
 8190SOL    HW225470   5.692   3.526   3.230
 8191SOL     OW25471   4.277   5.129   1.434
 8191SOL    HW125472   4.325   5.101   1.517
 8191SOL    HW225473   4.324   5.092   1.354
 8192SOL     OW25474   1.890   4.957   3.779
 8192SOL    HW125475   1.897   4.946   3.680
 8192SOL    HW225476   1.969   4.913   3.823
 8193SOL     OW25477   7.014   4.426   5.017
 8193SOL    HW125478   6.962   4.477   5.085
 8193SOL    HW225479   0.061   4.487   4.972
 8194SOL     OW25480   4.754   6.709   1.749
 8194SOL    HW125481   4.779   6.637   1.684
 8194SOL    HW225482   4.757   6.673   1.842
 8195SOL     OW25483   5.522   6.684   3.247
 8195SOL    HW125484   5.581   6.685   3.166
 8195SOL    HW225485   5.579   6.676   3.329
 8196SOL     OW25486   4.703   0.178   6.891
 8196SOL    HW125487   4.668   0.170   6.984
 8196SOL    HW225488   4.761   0.260   6.884
 8197SOL     OW25489   5.421   2.010   1.695
 8197SOL    HW125490   5.381   2.052   1.614
 8197SOL    HW225491   5.494   1.947   1.668
 8198SOL     OW25492   2.206   0.438   2.537
 8198SOL    HW125493   2.124   0.491   2.514
 8198SOL    HW225494   2.220   0.368   2.467
 8199SOL     OW25495   5.405   2.675   5.745
 8199SOL    HW125496   5.338   2.677   5.820
 8199SOL    HW225497   5.495   2.701   5.780
 8200SOL     OW25498   4.596   3.397   1.232
 8200SOL    HW125499   4.643   3.361   1.151
 8200SOL    HW225500   4.633   3.353   1.314
 8201SOL     OW25501   0.114   6.751   5.354
 8201SOL    HW125502   0.157   6.726   5.441
 8201SOL    HW225503   0.126   6.849   5.338
 8202SOL     OW25504   0.351   6.619   2.566
 8202SOL    HW125505   0.265   6.667   2.551
 8202SOL    HW225506   0.362   6.548   2.496
 8203SOL     OW25507   1.901   2.842   1.157
 8203SOL    HW125508   1.913   2.751   1.197
 8203SOL    HW225509   1.816   2.844   1.104
 8204SOL     OW25510   4.379   3.583   1.257
 8204SOL    HW125511   4.450   3.519   1.228
 8204SOL    HW225512   4.398   3.674   1.220
 8205SOL     OW25513   1.368   3.577   0.772
 8205SOL    HW125514   1.284   3.632   0.773
 8205SOL    HW225515   1.372   3.521   0.855
 8206SOL     OW25516   4.211   1.269   6.991
 8206SOL    HW125517   4.141   1.206   6.958
 8206SOL    HW225518   4.231   1.337   6.921
 8207SOL     OW25519   3.883   3.064   4.185
 8207SOL    HW125520   3.888   3.017   4.273
 8207SOL    HW225521   3.848   3.002   4.115
 8208SOL     OW25522   1.248   1.367   0.418
 8208SOL    HW125523   1.282   1.441   0.360
 8208SOL    HW225524   1.322   1.334   0.476
 8209SOL     OW25525   6.783   1.158   5.220
 8209SOL    HW125526   6.730   1.115   5.293
 8209SOL    HW225527   6.740   1.139   5.131
 8210SOL     OW25528   1.807   2.780   0.421
 8210SOL    HW125529   1.827   2.833   0.504
 8210SOL    HW225530   1.893   2.744   0.383
 8211SOL     OW25531   3.078   3.937   1.155
 8211SOL    HW125532   3.060   3.848   1.197
 8211SOL    HW225533   3.098   3.925   1.058
 8212SOL     OW25534   2.059   2.151   2.868
 8212SOL    HW125535   2.146   2.173   2.912
 8212SOL    HW225536   2.074   2.132   2.772
 8213SOL     OW25537   0.339   5.090   1.435
 8213SOL    HW125538   0.437   5.079   1.418
 8213SOL    HW225539   0.291   5.007   1.408
 8214SOL     OW25540   5.792   4.527   3.554
 8214SOL    HW125541   5.857   4.455   3.579
 8214SOL    HW225542   5.843   4.608   3.525
 8215SOL     OW25543   3.819   4.882   4.614
 8215SOL    HW125544   3.744   4.836   4.659
 8215SOL    HW225545   3.906   4.848   4.650
 8216SOL     OW25546   5.368   4.687   4.066
 8216SOL    HW125547   5.315   4.663   4.147
 8216SOL    HW225548   5.371   4.786   4.056
 8217SOL     OW25549   1.705   6.100   0.698
 8217SOL    HW125550   1.668   6.043   0.772
 8217SOL    HW225551   1.704   6.196   0.727
 8218SOL     OW25552   0.478   1.796   0.371
 8218SOL    HW125553   0.468   1.719   0.308
 8218SOL    HW225554   0.489   1.762   0.464
 8219SOL     OW25555   5.761   2.182   6.641
 8219SOL    HW125556   5.670   2.161   6.679
 8219SOL    HW225557   5.780   2.118   6.567
 8220SOL     OW25558   3.448   3.658   2.449
 8220SOL    HW125559   3.499   3.572   2.438
 8220SOL    HW225560   3.490   3.713   2.521
 8221SOL     OW25561   5.029   5.876   3.860
 8221SOL    HW125562   5.003   5.967   3.892
 8221SOL    HW225563   5.053   5.818   3.939
 8222SOL     OW25564   5.916   1.885   2.186
 8222SOL    HW125565   5.861   1.802   2.190
 8222SOL    HW225566   5.893   1.936   2.103
 8223SOL     OW25567   0.727   4.416   6.097
 8223SOL    HW125568   0.794   4.461   6.156
 8223SOL    HW225569   0.772   4.342   6.046
 8224SOL     OW25570   0.858   2.855   2.871
 8224SOL    HW125571   0.831   2.759   2.868
 8224SOL    HW225572   0.815   2.905   2.795
 8225SOL     OW25573   4.747   1.061   6.141
 8225SOL    HW125574   4.672   1.073   6.206
 8225SOL    HW225575   4.805   1.143   6.142
 8226SOL     OW25576   5.176   1.090   1.302
 8226SOL    HW125577   5.261   1.140   1.318
 8226SOL    HW225578   5.098   1.151   1.312
 8227SOL     OW25579   6.657   3.293   3.671
 8227SOL    HW125580   6.571   3.341   3.689
 8227SOL    HW225581   6.715   3.350   3.614
 8228SOL     OW25582   0.611   2.012   4.993
 8228SOL    HW125583   0.565   1.925   5.008
 8228SOL    HW225584   0.655   2.011   4.904
 8229SOL     OW25585   2.993   5.860   6.902
 8229SOL    HW125586   2.966   5.768   6.873
 8229SOL    HW225587   2.951   5.882   6.990
 8230SOL     OW25588   4.653   0.247   5.054
 8230SOL    HW125589   4.604   0.240   5.141
 8230SOL    HW225590   4.637   0.164   5.000
 8231SOL     OW25591   5.203   5.718   1.950
 8231SOL    HW125592   5.297   5.753   1.940
 8231SOL    HW225593   5.157   5.721   1.861
 8232SOL     OW25594   3.982   1.289   0.509
 8232SOL    HW125595   3.929   1.279   0.425
 8232SOL    HW225596   4.046   1.365   0.499
 8233SOL     OW25597   0.415   5.447   5.933
 8233SOL    HW125598   0.345   5.505   5.891
 8233SOL    HW225599   0.505   5.488   5.918
 8234SOL     OW25600   2.547   2.474   0.055
 8234SOL    HW125601   2.598   2.428   0.128
 8234SOL    HW225602   2.611   2.518   7.011
 8235SOL     OW25603   3.702   3.139   0.897
 8235SOL    HW125604   3.639   3.123   0.972
 8235SOL    HW225605   3.653   3.183   0.821
 8236SOL     OW25606   6.901   3.248   0.177
 8236SOL    HW125607   6.805   3.250   0.206
 8236SOL    HW225608   6.958   3.287   0.250
 8237SOL     OW25609   4.412   5.710   5.402
 8237SOL    HW125610   4.440   5.664   5.318
 8237SOL    HW225611   4.407   5.808   5.386
 8238SOL     OW25612   1.914   3.670   0.281
 8238SOL    HW125613   1.915   3.620   0.368
 8238SOL    HW225614   1.826   3.716   0.269
 8239SOL     OW25615   6.213   2.175   5.358
 8239SOL    HW125616   6.302   2.136   5.381
 8239SOL    HW225617   6.150   2.161   5.434
 8240SOL     OW25618   3.097   4.015   2.481
 8240SOL    HW125619   3.072   3.998   2.577
 8240SOL    HW225620   3.030   3.971   2.421
 8241SOL     OW25621   3.407   0.026   0.846
 8241SOL    HW125622   3.458   6.981   0.787
 8241SOL    HW225623   3.432   0.009   0.941
 8242SOL     OW25624   0.760   4.519   5.796
 8242SOL    HW125625   0.836   4.545   5.854
 8242SOL    HW225626   0.674   4.532   5.846
 8243SOL     OW25627   0.236   3.119   5.917
 8243SOL    HW125628   0.188   3.067   5.847
 8243SOL    HW225629   0.177   3.192   5.952
 8244SOL     OW25630   0.509   0.023   3.832
 8244SOL    HW125631   0.601   0.061   3.828
 8244SOL    HW225632   0.467   0.026   3.741
 8245SOL     OW25633   4.636   1.738   1.426
 8245SOL    HW125634   4.711   1.737   1.493
 8245SOL    HW225635   4.635   1.826   1.379
 8246SOL     OW25636   6.365   4.231   6.009
 8246SOL    HW125637   6.416   4.204   6.090
 8246SOL    HW225638   6.327   4.149   5.965
 8247SOL     OW25639   0.967   0.565   1.353
 8247SOL    HW125640   0.894   0.597   1.414
 8247SOL    HW225641   1.046   0.537   1.407
 8248SOL     OW25642   5.745   4.864   3.771
 8248SOL    HW125643   5.743   4.925   3.692
 8248SOL    HW225644   5.835   4.821   3.778
 8249SOL     OW25645   2.125   4.654   4.336
 8249SOL    HW125646   2.124   4.561   4.301
 8249SOL    HW225647   2.055   4.708   4.290
 8250SOL     OW25648   3.698   3.846   2.979
 8250SOL    HW125649   3.654   3.866   3.067
 8250SOL    HW225650   3.734   3.930   2.939
 8251SOL     OW25651   4.963   2.101   5.202
 8251SOL    HW125652   5.042   2.049   5.169
 8251SOL    HW225653   4.980   2.199   5.187
 8252SOL     OW25654   2.994   3.327   5.767
 8252SOL    HW125655   2.926   3.308   5.837
 8252SOL    HW225656   3.046   3.244   5.747
 8253SOL     OW25657   3.509   2.935   5.269
 8253SOL    HW125658   3.464   2.882   5.197
 8253SOL    HW225659   3.440   2.986   5.321
 8254SOL     OW25660   4.216   4.764   4.508
 8254SOL    HW125661   4.273   4.751   4.589
 8254SOL    HW225662   4.275   4.782   4.428
 8255SOL     OW25663   4.011   6.055   4.184
 8255SOL    HW125664   3.977   5.963   4.167
 8255SOL    HW225665   4.047   6.061   4.277
 8256SOL     OW25666   5.536   1.064   3.519
 8256SOL    HW125667   5.594   1.060   3.438
 8256SOL    HW225668   5.469   1.138   3.509
 8257SOL     OW25669   5.941   5.121   3.010
 8257SOL    HW125670   5.876   5.097   3.082
 8257SOL    HW225671   5.959   5.220   3.012
 8258SOL     OW25672   4.682   0.976   0.378
 8258SOL    HW125673   4.726   0.990   0.290
 8258SOL    HW225674   4.745   0.928   0.439
 8259SOL     OW25675   3.779   1.297   3.697
 8259SOL    HW125676   3.721   1.296   3.778
 8259SOL    HW225677   3.852   1.229   3.706
 8260SOL     OW25678   2.430   6.592   2.125
 8260SOL    HW125679   2.375   6.509   2.136
 8260SOL    HW225680   2.472   6.592   2.034
 8261SOL     OW25681   5.784   1.337   0.650
 8261SOL    HW125682   5.768   1.425   0.695
 8261SOL    HW225683   5.853   1.349   0.579
 8262SOL     OW25684   0.932   2.566   1.663
 8262SOL    HW125685   1.011   2.622   1.688
 8262SOL    HW225686   0.961   2.471   1.652
 8263SOL     OW25687   0.092   1.076   1.436
 8263SOL    HW125688   0.190   1.091   1.421
 8263SOL    HW225689   0.064   1.125   1.518
 8264SOL     OW25690   1.072   6.150   2.237
 8264SOL    HW125691   1.161   6.121   2.201
 8264SOL    HW225692   1.014   6.070   2.252
 8265SOL     OW25693   1.999   0.248   1.872
 8265SOL    HW125694   2.015   0.227   1.775
 8265SOL    HW225695   1.966   0.166   1.918
 8266SOL     OW25696   2.067   6.528   2.847
 8266SOL    HW125697   2.056   6.616   2.893
 8266SOL    HW225698   1.977   6.495   2.817
 8267SOL     OW25699   1.598   3.337   1.113
 8267SOL    HW125700   1.615   3.238   1.113
 8267SOL    HW225701   1.519   3.358   1.056
 8268SOL     OW25702   2.272   6.465   6.037
 8268SOL    HW125703   2.222   6.483   6.122
 8268SOL    HW225704   2.213   6.481   5.959
 8269SOL     OW25705   5.717   1.817   0.942
 8269SOL    HW125706   5.704   1.852   0.849
 8269SOL    HW225707   5.810   1.837   0.973
 8270SOL     OW25708   3.163   6.627   4.047
 8270SOL    HW125709   3.066   6.623   4.024
 8270SOL    HW225710   3.210   6.688   3.983
 8271SOL     OW25711   6.881   1.509   3.238
 8271SOL    HW125712   6.906   1.424   3.286
 8271SOL    HW225713   6.790   1.538   3.268
 8272SOL     OW25714   4.713   0.728   2.128
 8272SOL    HW125715   4.665   0.775   2.202
 8272SOL    HW225716   4.700   0.777   2.042
 8273SOL     OW25717   2.215   6.629   0.948
 8273SOL    HW125718   2.307   6.658   0.921
 8273SOL    HW225719   2.221   6.575   1.032
 8274SOL     OW25720   4.400   4.984   3.013
 8274SOL    HW125721   4.321   5.044   3.026
 8274SOL    HW225722   4.370   4.888   3.020
 8275SOL     OW25723   4.428   2.174   5.891
 8275SOL    HW125724   4.427   2.260   5.942
 8275SOL    HW225725   4.461   2.191   5.798
 8276SOL     OW25726   0.503   2.260   4.173
 8276SOL    HW125727   0.540   2.268   4.266
 8276SOL    HW225728   0.466   2.348   4.145
 8277SOL     OW25729   6.914   0.935   6.425
 8277SOL    HW125730   6.883   0.840   6.429
 8277SOL    HW225731   6.872   0.986   6.500
 8278SOL     OW25732   2.159   2.275   6.861
 8278SOL    HW125733   2.200   2.296   6.772
 8278SOL    HW225734   2.225   2.295   6.934
 8279SOL     OW25735   0.705   6.274   4.816
 8279SOL    HW125736   0.752   6.186   4.814
 8279SOL    HW225737   0.669   6.294   4.725
 8280SOL     OW25738   2.948   2.644   6.781
 8280SOL    HW125739   2.874   2.623   6.845
 8280SOL    HW225740   2.910   2.685   6.698
 8281SOL     OW25741   1.133   5.717   1.368
 8281SOL    HW125742   1.218   5.681   1.331
 8281SOL    HW225743   1.062   5.646   1.362
 8282SOL     OW25744   5.772   2.858   6.247
 8282SOL    HW125745   5.853   2.809   6.279
 8282SOL    HW225746   5.691   2.802   6.265
 8283SOL     OW25747   1.322   4.676   5.926
 8283SOL    HW125748   1.310   4.655   6.023
 8283SOL    HW225749   1.360   4.596   5.879
 8284SOL     OW25750   0.308   4.512   2.173
 8284SOL    HW125751   0.246   4.515   2.094
 8284SOL    HW225752   0.377   4.584   2.164
 8285SOL     OW25753   4.026   3.196   5.033
 8285SOL    HW125754   4.048   3.152   5.120
 8285SOL    HW225755   4.093   3.168   4.964
 8286SOL     OW25756   6.021   2.538   5.754
 8286SOL    HW125757   6.111   2.498   5.741
 8286SOL    HW225758   6.022   2.598   5.834
 8287SOL     OW25759   1.176   5.610   4.485
 8287SOL    HW125760   1.123   5.535   4.446
 8287SOL    HW225761   1.256   5.627   4.428
 8288SOL     OW25762   2.585   2.476   3.176
 8288SOL    HW125763   2.656   2.422   3.130
 8288SOL    HW225764   2.569   2.561   3.125
 8289SOL     OW25765   0.547   0.079   0.448
 8289SOL    HW125766   0.521   0.023   0.369
 8289SOL    HW225767   0.516   0.036   0.532
 8290SOL     OW25768   6.894   1.510   0.701
 8290SOL    HW125769   6.898   1.454   0.619
 8290SOL    HW225770   6.798   1.520   0.730
 8291SOL     OW25771   4.779   6.948   6.721
 8291SOL    HW125772   4.776   0.019   6.766
 8291SOL    HW225773   4.763   6.876   6.789
 8292SOL     OW25774   2.978   6.556   0.385
 8292SOL    HW125775   2.926   6.618   0.326
 8292SOL    HW225776   2.952   6.573   0.481
 8293SOL     OW25777   4.038   0.011   6.424
 8293SOL    HW125778   4.059   0.073   6.348
 8293SOL    HW225779   4.091   0.039   6.504
 8294SOL     OW25780   6.159   3.502   6.142
 8294SOL    HW125781   6.112   3.517   6.055
 8294SOL    HW225782   6.093   3.502   6.216
 8295SOL     OW25783   5.378   5.130   1.863
 8295SOL    HW125784   5.398   5.189   1.941
 8295SOL    HW225785   5.314   5.177   1.802
 8296SOL     OW25786   1.615   6.514   6.186
 8296SOL    HW125787   1.561   6.597   6.175
 8296SOL    HW225788   1.560   6.445   6.234
 8297SOL     OW25789   6.379   2.643   3.439
 8297SOL    HW125790   6.435   2.560   3.436
 8297SOL    HW225791   6.362   2.675   3.346
 8298SOL     OW25792   5.216   1.343   1.773
 8298SOL    HW125793   5.289   1.285   1.807
 8298SOL    HW225794   5.243   1.383   1.685
 8299SOL     OW25795   0.227   2.892   1.779
 8299SOL    HW125796   0.239   2.810   1.724
 8299SOL    HW225797   0.310   2.948   1.774
 8300SOL     OW25798   0.382   4.658   5.461
 8300SOL    HW125799   0.438   4.595   5.407
 8300SOL    HW225800   0.302   4.609   5.496
 8301SOL     OW25801   4.565   1.979   1.305
 8301SOL    HW125802   4.552   2.061   1.360
 8301SOL    HW225803   4.476   1.943   1.277
 8302SOL     OW25804   5.923   6.350   6.798
 8302SOL    HW125805   5.966   6.437   6.776
 8302SOL    HW225806   5.861   6.324   6.724
 8303SOL     OW25807   7.010   0.233   4.733
 8303SOL    HW125808   0.013   0.322   4.694
 8303SOL    HW225809   6.994   0.167   4.659
 8304SOL     OW25810   0.960   3.455   6.196
 8304SOL    HW125811   1.057   3.432   6.196
 8304SOL    HW225812   0.949   3.555   6.198
 8305SOL     OW25813   3.703   5.440   3.832
 8305SOL    HW125814   3.706   5.421   3.930
 8305SOL    HW225815   3.756   5.371   3.783
 8306SOL     OW25816   0.683   2.691   4.973
 8306SOL    HW125817   0.638   2.637   5.044
 8306SOL    HW225818   0.629   2.774   4.955
 8307SOL     OW25819   3.765   5.256   1.194
 8307SOL    HW125820   3.824   5.246   1.114
 8307SOL    HW225821   3.796   5.195   1.266
 8308SOL     OW25822   4.464   6.604   1.413
 8308SOL    HW125823   4.553   6.570   1.441
 8308SOL    HW225824   4.417   6.644   1.493
 8309SOL     OW25825   5.470   5.554   2.895
 8309SOL    HW125826   5.524   5.638   2.883
 8309SOL    HW225827   5.510   5.481   2.841
 8310SOL     OW25828   0.878   4.353   0.410
 8310SOL    HW125829   0.850   4.381   0.502
 8310SOL    HW225830   0.807   4.379   0.344
 8311SOL     OW25831   0.432   0.656   6.457
 8311SOL    HW125832   0.459   0.575   6.405
 8311SOL    HW225833   0.492   0.732   6.434
 8312SOL     OW25834   5.045   6.266   1.642
 8312SOL    HW125835   4.972   6.212   1.684
 8312SOL    HW225836   5.073   6.224   1.556
 8313SOL     OW25837   3.929   1.727   2.957
 8313SOL    HW125838   3.969   1.737   3.049
 8313SOL    HW225839   3.994   1.761   2.889
 8314SOL     OW25840   5.070   6.705   0.785
 8314SOL    HW125841   5.157   6.727   0.741
 8314SOL    HW225842   4.997   6.702   0.717
 8315SOL     OW25843   4.348   3.392   0.981
 8315SOL    HW125844   4.305   3.462   1.038
 8315SOL    HW225845   4.284   3.316   0.966
 8316SOL     OW25846   0.503   3.599   1.388
 8316SOL    HW125847   0.505   3.588   1.487
 8316SOL    HW225848   0.424   3.550   1.351
 8317SOL     OW25849   2.094   3.404   2.456
 8317SOL    HW125850   2.008   3.366   2.489
 8317SOL    HW225851   2.079   3.449   2.368
 8318SOL     OW25852   4.406   2.065   5.082
 8318SOL    HW125853   4.363   1.997   5.023
 8318SOL    HW225854   4.504   2.045   5.090
 8319SOL     OW25855   3.328   1.531   5.895
 8319SOL    HW125856   3.309   1.607   5.957
 8319SOL    HW225857   3.328   1.564   5.800
 8320SOL     OW25858   3.512   4.713   1.282
 8320SOL    HW125859   3.588   4.677   1.336
 8320SOL    HW225860   3.474   4.794   1.328
 8321SOL     OW25861   0.630   1.341   6.653
 8321SOL    HW125862   0.719   1.363   6.694
 8321SOL    HW225863   0.638   1.347   6.553
 8322SOL     OW25864   0.076   6.902   0.057
 8322SOL    HW125865   0.071   6.830   0.126
 8322SOL    HW225866   0.037   6.986   0.094
 8323SOL     OW25867   0.410   0.235   2.582
 8323SOL    HW125868   0.352   0.293   2.524
 8323SOL    HW225869   0.464   0.293   2.643
 8324SOL     OW25870   6.625   0.527   2.114
 8324SOL    HW125871   6.613   0.610   2.169
 8324SOL    HW225872   6.536   0.488   2.093
 8325SOL     OW25873   4.077   3.458   4.418
 8325SOL    HW125874   4.045   3.511   4.339
 8325SOL    HW225875   4.152   3.398   4.390
 8326SOL     OW25876   4.412   3.503   5.582
 8326SOL    HW125877   4.444   3.573   5.517
 8326SOL    HW225878   4.319   3.526   5.612
 8327SOL     OW25879   4.827   2.199   5.625
 8327SOL    HW125880   4.871   2.224   5.711
 8327SOL    HW225881   4.800   2.282   5.576
 8328SOL     OW25882   2.661   3.702   6.098
 8328SOL    HW125883   2.587   3.767   6.082
 8328SOL    HW225884   2.746   3.739   6.061
 8329SOL     OW25885   0.107   2.976   5.375
 8329SOL    HW125886   0.099   3.062   5.426
 8329SOL    HW225887   0.127   2.995   5.279
 8330SOL     OW25888   2.028   6.475   0.807
 8330SOL    HW125889   2.101   6.512   0.864
 8330SOL    HW225890   1.956   6.543   0.796
 8331SOL     OW25891   3.069   6.788   0.933
 8331SOL    HW125892   3.162   6.800   0.898
 8331SOL    HW225893   3.015   6.869   0.912
 8332SOL     OW25894   4.796   5.203   2.353
 8332SOL    HW125895   4.847   5.139   2.296
 8332SOL    HW225896   4.708   5.222   2.310
 8333SOL     OW25897   0.049   5.755   0.151
 8333SOL    HW125898   0.074   5.666   0.189
 8333SOL    HW225899   0.097   5.827   0.201
 8334SOL     OW25900   5.618   1.283   3.968
 8334SOL    HW125901   5.643   1.292   3.872
 8334SOL    HW225902   5.588   1.371   4.004
 8335SOL     OW25903   6.296   5.343   5.878
 8335SOL    HW125904   6.211   5.384   5.910
 8335SOL    HW225905   6.363   5.343   5.953
 8336SOL     OW25906   6.759   0.990   2.960
 8336SOL    HW125907   6.793   0.908   3.006
 8336SOL    HW225908   6.716   1.051   3.027
 8337SOL     OW25909   0.654   6.608   3.859
 8337SOL    HW125910   0.729   6.567   3.808
 8337SOL    HW225911   0.567   6.576   3.822
 8338SOL     OW25912   1.827   4.866   1.735
 8338SOL    HW125913   1.905   4.874   1.798
 8338SOL    HW225914   1.745   4.841   1.786
 8339SOL     OW25915   6.945   0.879   2.685
 8339SOL    HW125916   6.885   0.847   2.759
 8339SOL    HW225917   6.891   0.931   2.619
 8340SOL     OW25918   4.759   3.706   0.993
 8340SOL    HW125919   4.717   3.643   0.928
 8340SOL    HW225920   4.857   3.713   0.975
 8341SOL     OW25921   1.738   6.647   0.499
 8341SOL    HW125922   1.695   6.559   0.480
 8341SOL    HW225923   1.745   6.660   0.598
 8342SOL     OW25924   3.823   6.774   0.915
 8342SOL    HW125925   3.919   6.782   0.888
 8342SOL    HW225926   3.818   6.759   1.014
 8343SOL     OW25927   1.791   5.188   6.002
 8343SOL    HW125928   1.812   5.179   6.099
 8343SOL    HW225929   1.696   5.220   5.991
 8344SOL     OW25930   4.638   6.582   5.726
 8344SOL    HW125931   4.572   6.637   5.776
 8344SOL    HW225932   4.691   6.527   5.791
 8345SOL     OW25933   5.631   1.793   3.696
 8345SOL    HW125934   5.544   1.797   3.647
 8345SOL    HW225935   5.614   1.803   3.794
 8346SOL     OW25936   2.334   4.674   0.192
 8346SOL    HW125937   2.350   4.610   0.267
 8346SOL    HW225938   2.403   4.660   0.121
 8347SOL     OW25939   2.652   6.840   5.209
 8347SOL    HW125940   2.631   6.846   5.307
 8347SOL    HW225941   2.590   6.899   5.158
 8348SOL     OW25942   1.511   0.332   1.657
 8348SOL    HW125943   1.426   0.378   1.680
 8348SOL    HW225944   1.561   0.309   1.741
 8349SOL     OW25945   5.662   3.620   0.961
 8349SOL    HW125946   5.578   3.567   0.961
 8349SOL    HW225947   5.727   3.581   1.026
 8350SOL     OW25948   5.778   0.896   5.046
 8350SOL    HW125949   5.691   0.909   5.094
 8350SOL    HW225950   5.761   0.861   4.955
 8351SOL     OW25951   3.589   5.546   4.318
 8351SOL    HW125952   3.610   5.521   4.413
 8351SOL    HW225953   3.615   5.471   4.257
 8352SOL     OW25954   6.475   0.009   2.033
 8352SOL    HW125955   6.456   7.014   1.935
 8352SOL    HW225956   6.530   6.950   2.066
 8353SOL     OW25957   6.097   3.975   2.377
 8353SOL    HW125958   6.127   4.023   2.295
 8353SOL    HW225959   6.084   4.041   2.451
 8354SOL     OW25960   3.038   1.428   6.744
 8354SOL    HW125961   3.119   1.408   6.688
 8354SOL    HW225962   2.996   1.512   6.713
 8355SOL     OW25963   2.895   0.934   0.015
 8355SOL    HW125964   2.861   1.005   6.970
 8355SOL    HW225965   2.818   0.879   0.046
 8356SOL     OW25966   0.658   6.768   0.342
 8356SOL    HW125967   0.734   6.831   0.360
 8356SOL    HW225968   0.693   6.688   0.293
 8357SOL     OW25969   3.926   5.384   5.230
 8357SOL    HW125970   3.973   5.431   5.305
 8357SOL    HW225971   3.971   5.405   5.143
 8358SOL     OW25972   2.132   2.602   5.591
 8358SOL    HW125973   2.229   2.625   5.585
 8358SOL    HW225974   2.120   2.504   5.578
 8359SOL     OW25975   4.206   6.118   4.781
 8359SOL    HW125976   4.240   6.026   4.803
 8359SOL    HW225977   4.106   6.118   4.783
 8360SOL     OW25978   3.866   0.456   2.778
 8360SOL    HW125979   3.926   0.389   2.734
 8360SOL    HW225980   3.882   0.546   2.739
 8361SOL     OW25981   1.587   1.146   2.447
 8361SOL    HW125982   1.676   1.186   2.471
 8361SOL    HW225983   1.514   1.211   2.471
 8362SOL     OW25984   3.109   2.338   0.798
 8362SOL    HW125985   3.165   2.279   0.856
 8362SOL    HW225986   3.057   2.401   0.855
 8363SOL     OW25987   0.927   2.673   0.776
 8363SOL    HW125988   0.844   2.645   0.728
 8363SOL    HW225989   0.969   2.594   0.820
 8364SOL     OW25990   6.807   3.288   2.698
 8364SOL    HW125991   6.761   3.212   2.744
 8364SOL    HW225992   6.872   3.250   2.631
 8365SOL     OW25993   2.373   3.706   0.719
 8365SOL    HW125994   2.310   3.755   0.779
 8365SOL    HW225995   2.380   3.610   0.748
 8366SOL     OW25996   4.628   5.984   2.219
 8366SOL    HW125997   4.677   6.036   2.149
 8366SOL    HW225998   4.693   5.929   2.271
 8367SOL     OW25999   4.905   6.245   3.813
 8367SOL    HW126000   4.836   6.264   3.882
 8367SOL    HW226001   4.861   6.212   3.729
 8368SOL     OW26002   2.630   5.739   6.315
 8368SOL    HW126003   2.678   5.823   6.294
 8368SOL    HW226004   2.601   5.695   6.229
 8369SOL     OW26005   1.757   0.866   0.097
 8369SOL    HW126006   1.753   0.963   0.072
 8369SOL    HW226007   1.774   0.811   0.015
 8370SOL     OW26008   2.899   2.119   5.629
 8370SOL    HW126009   2.921   2.168   5.714
 8370SOL    HW226010   2.905   2.021   5.645
 8371SOL     OW26011   1.492   3.275   0.195
 8371SOL    HW126012   1.496   3.374   0.209
 8371SOL    HW226013   1.397   3.245   0.192
 8372SOL     OW26014   0.554   6.990   2.764
 8372SOL    HW126015   0.487   6.943   2.823
 8372SOL    HW226016   0.535   6.969   2.669
 8373SOL     OW26017   0.594   6.396   5.515
 8373SOL    HW126018   0.577   6.422   5.610
 8373SOL    HW226019   0.580   6.475   5.456
 8374SOL     OW26020   0.403   0.987   0.001
 8374SOL    HW126021   0.324   1.048   7.010
 8374SOL    HW226022   0.483   1.041   0.028
 8375SOL     OW26023   3.329   5.910   5.970
 8375SOL    HW126024   3.284   5.963   5.898
 8375SOL    HW226025   3.426   5.898   5.947
 8376SOL     OW26026   2.560   0.558   4.526
 8376SOL    HW126027   2.528   0.649   4.503
 8376SOL    HW226028   2.497   0.490   4.489
 8377SOL     OW26029   5.750   5.649   1.236
 8377SOL    HW126030   5.783   5.740   1.263
 8377SOL    HW226031   5.795   5.579   1.292
 8378SOL     OW26032   5.146   3.965   3.518
 8378SOL    HW126033   5.055   3.928   3.533
 8378SOL    HW226034   5.139   4.055   3.474
 8379SOL     OW26035   6.573   3.596   1.987
 8379SOL    HW126036   6.582   3.684   1.941
 8379SOL    HW226037   6.597   3.522   1.924
 8380SOL     OW26038   6.195   1.255   2.403
 8380SOL    HW126039   6.227   1.170   2.444
 8380SOL    HW226040   6.096   1.251   2.390
 8381SOL     OW26041   0.457   5.073   4.712
 8381SOL    HW126042   0.526   5.091   4.782
 8381SOL    HW226043   0.366   5.075   4.753
 8382SOL     OW26044   1.269   1.580   2.372
 8382SOL    HW126045   1.357   1.626   2.381
 8382SOL    HW226046   1.264   1.535   2.283
 8383SOL     OW26047   2.673   1.992   6.736
 8383SOL    HW126048   2.642   2.070   6.789
 8383SOL    HW226049   2.619   1.985   6.651
 8384SOL     OW26050   6.948   6.491   0.969
 8384SOL    HW126051   7.012   6.423   1.004
 8384SOL    HW226052   6.974   6.581   1.004
 8385SOL     OW26053   5.601   2.391   1.964
 8385SOL    HW126054   5.588   2.464   1.898
 8385SOL    HW226055   5.606   2.303   1.916
 8386SOL     OW26056   0.963   4.322   2.476
 8386SOL    HW126057   0.874   4.290   2.445
 8386SOL    HW226058   1.035   4.272   2.427
 8387SOL     OW26059   1.399   1.050   0.960
 8387SOL    HW126060   1.394   1.147   0.937
 8387SOL    HW226061   1.449   1.039   1.046
 8388SOL     OW26062   2.937   5.968   1.619
 8388SOL    HW126063   2.956   6.065   1.635
 8388SOL    HW226064   3.007   5.913   1.665
 8389SOL     OW26065   5.523   3.521   2.179
 8389SOL    HW126066   5.541   3.605   2.128
 8389SOL    HW226067   5.425   3.501   2.178
 8390SOL     OW26068   3.799   2.349   6.293
 8390SOL    HW126069   3.740   2.429   6.304
 8390SOL    HW226070   3.765   2.276   6.353
 8391SOL     OW26071   6.076   0.047   0.696
 8391SOL    HW126072   6.087   6.969   0.672
 8391SOL    HW226073   6.085   0.103   0.613
 8392SOL     OW26074   6.625   3.753   4.490
 8392SOL    HW126075   6.604   3.737   4.394
 8392SOL    HW226076   6.598   3.845   4.516
 8393SOL     OW26077   4.916   0.307   2.058
 8393SOL    HW126078   4.945   0.339   1.967
 8393SOL    HW226079   4.991   0.321   2.123
 8394SOL     OW26080   6.078   3.706   2.450
 8394SOL    HW126081   6.084   3.709   2.549
 8394SOL    HW226082   6.082   3.800   2.414
 8395SOL     OW26083   2.293   0.308   5.338
 8395SOL    HW126084   2.282   0.329   5.435
 8395SOL    HW226085   2.344   0.382   5.293
 8396SOL     OW26086   4.210   5.006   4.031
 8396SOL    HW126087   4.264   5.076   4.077
 8396SOL    HW226088   4.114   5.014   4.059
 8397SOL     OW26089   6.510   1.467   4.244
 8397SOL    HW126090   6.410   1.462   4.247
 8397SOL    HW226091   6.547   1.437   4.332
 8398SOL     OW26092   4.847   1.733   6.326
 8398SOL    HW126093   4.785   1.757   6.401
 8398SOL    HW226094   4.867   1.814   6.271
 8399SOL     OW26095   6.807   6.127   6.642
 8399SOL    HW126096   6.903   6.103   6.628
 8399SOL    HW226097   6.787   6.214   6.596
 8400SOL     OW26098   1.497   2.162   4.104
 8400SOL    HW126099   1.418   2.159   4.166
 8400SOL    HW226100   1.512   2.071   4.066
 8401SOL     OW26101   2.220   0.175   5.104
 8401SOL    HW126102   2.250   0.227   5.184
 8401SOL    HW226103   2.240   0.228   5.021
 8402SOL     OW26104   4.651   0.959   5.927
 8402SOL    HW126105   4.690   1.003   6.007
 8402SOL    HW226106   4.648   0.860   5.941
 8403SOL     OW26107   6.330   4.656   3.896
 8403SOL    HW126108   6.378   4.646   3.983
 8403SOL    HW226109   6.238   4.619   3.903
 8404SOL     OW26110   2.380   2.098   6.062
 8404SOL    HW126111   2.456   2.115   6.001
 8404SOL    HW226112   2.363   2.179   6.118
 8405SOL     OW26113   3.818   1.605   5.732
 8405SOL    HW126114   3.884   1.532   5.712
 8405SOL    HW226115   3.853   1.692   5.698
 8406SOL     OW26116   5.069   0.869   6.760
 8406SOL    HW126117   5.069   0.780   6.714
 8406SOL    HW226118   5.162   0.891   6.789
 8407SOL     OW26119   4.081   6.399   3.377
 8407SOL    HW126120   4.100   6.388   3.280
 8407SOL    HW226121   4.004   6.341   3.403
 8408SOL     OW26122   5.226   6.819   1.003
 8408SOL    HW126123   5.287   6.846   0.928
 8408SOL    HW226124   5.176   6.737   0.977
 8409SOL     OW26125   4.331   2.314   1.903
 8409SOL    HW126126   4.387   2.231   1.911
 8409SOL    HW226127   4.266   2.302   1.828
 8410SOL     OW26128   6.945   1.956   1.620
 8410SOL    HW126129   6.903   2.018   1.686
 8410SOL    HW226130   0.006   2.000   1.579
 8411SOL     OW26131   0.272   6.110   1.452
 8411SOL    HW126132   0.224   6.197   1.443
 8411SOL    HW226133   0.323   6.109   1.537
 8412SOL     OW26134   3.368   3.014   0.908
 8412SOL    HW126135   3.392   2.925   0.869
 8412SOL    HW226136   3.431   3.035   0.984
 8413SOL     OW26137   4.063   5.277   6.054
 8413SOL    HW126138   4.159   5.269   6.081
 8413SOL    HW226139   4.004   5.256   6.132
 8414SOL     OW26140   1.514   0.929   2.713
 8414SOL    HW126141   1.579   0.895   2.644
 8414SOL    HW226142   1.562   0.947   2.798
 8415SOL     OW26143   3.120   0.082   4.182
 8415SOL    HW126144   3.064   0.164   4.192
 8415SOL    HW226145   3.205   0.093   4.234
 8416SOL     OW26146   6.082   1.626   4.847
 8416SOL    HW126147   6.052   1.535   4.875
 8416SOL    HW226148   6.068   1.690   4.922
 8417SOL     OW26149   1.373   3.270   5.229
 8417SOL    HW126150   1.393   3.357   5.184
 8417SOL    HW226151   1.364   3.198   5.160
 8418SOL     OW26152   0.870   5.525   2.234
 8418SOL    HW126153   0.824   5.608   2.266
 8418SOL    HW226154   0.960   5.518   2.278
 8419SOL     OW26155   5.471   1.133   2.858
 8419SOL    HW126156   5.383   1.161   2.896
 8419SOL    HW226157   5.545   1.168   2.916
 8420SOL     OW26158   3.817   6.808   2.322
 8420SOL    HW126159   3.725   6.845   2.327
 8420SOL    HW226160   3.882   6.881   2.302
 8421SOL     OW26161   3.808   6.342   6.025
 8421SOL    HW126162   3.842   6.416   6.083
 8421SOL    HW226163   3.876   6.269   6.020
 8422SOL     OW26164   4.761   2.821   2.576
 8422SOL    HW126165   4.676   2.767   2.567
 8422SOL    HW226166   4.790   2.851   2.485
 8423SOL     OW26167   5.436   4.303   5.420
 8423SOL    HW126168   5.387   4.235   5.365
 8423SOL    HW226169   5.374   4.380   5.439
 8424SOL     OW26170   1.950   0.458   3.739
 8424SOL    HW126171   2.022   0.526   3.724
 8424SOL    HW226172   1.912   0.430   3.651
 8425SOL     OW26173   3.378   3.768   3.760
 8425SOL    HW126174   3.432   3.830   3.817
 8425SOL    HW226175   3.323   3.709   3.819
 8426SOL     OW26176   3.821   3.324   2.367
 8426SOL    HW126177   3.742   3.376   2.335
 8426SOL    HW226178   3.797   3.277   2.452
 8427SOL     OW26179   3.032   3.239   3.356
 8427SOL    HW126180   2.986   3.288   3.282
 8427SOL    HW226181   3.131   3.251   3.347
 8428SOL     OW26182   0.252   0.371   0.706
 8428SOL    HW126183   0.308   0.338   0.629
 8428SOL    HW226184   0.247   0.471   0.703
 8429SOL     OW26185   2.051   5.565   6.293
 8429SOL    HW126186   2.089   5.481   6.254
 8429SOL    HW226187   1.979   5.600   6.233
 8430SOL     OW26188   4.422   5.889   4.094
 8430SOL    HW126189   4.402   5.834   4.175
 8430SOL    HW226190   4.449   5.828   4.019
 8431SOL     OW26191   2.610   2.931   6.480
 8431SOL    HW126192   2.647   2.953   6.390
 8431SOL    HW226193   2.554   3.008   6.513
 8432SOL     OW26194   6.599   5.136   5.930
 8432SOL    HW126195   6.693   5.147   5.962
 8432SOL    HW226196   6.594   5.062   5.864
 8433SOL     OW26197   4.799   2.284   1.433
 8433SOL    HW126198   4.718   2.231   1.460
 8433SOL    HW226199   4.820   2.266   1.337
 8434SOL     OW26200   1.750   5.525   4.581
 8434SOL    HW126201   1.823   5.589   4.608
 8434SOL    HW226202   1.750   5.514   4.482
 8435SOL     OW26203   5.199   0.957   2.662
 8435SOL    HW126204   5.141   1.015   2.720
 8435SOL    HW226205   5.282   1.007   2.638
 8436SOL     OW26206   2.579   6.421   3.644
 8436SOL    HW126207   2.603   6.481   3.720
 8436SOL    HW226208   2.569   6.327   3.678
 8437SOL     OW26209   2.152   3.085   2.510
 8437SOL    HW126210   2.120   3.147   2.438
 8437SOL    HW226211   2.192   3.138   2.585
 8438SOL     OW26212   1.805   3.776   2.984
 8438SOL    HW126213   1.811   3.742   3.078
 8438SOL    HW226214   1.741   3.853   2.982
 8439SOL     OW26215   6.089   4.871   3.621
 8439SOL    HW126216   6.127   4.854   3.531
 8439SOL    HW226217   6.061   4.784   3.663
 8440SOL     OW26218   2.055   1.883   3.223
 8440SOL    HW126219   2.071   1.976   3.189
 8440SOL    HW226220   2.035   1.886   3.321
 8441SOL     OW26221   5.583   5.882   5.311
 8441SOL    HW126222   5.607   5.921   5.400
 8441SOL    HW226223   5.652   5.815   5.283
 8442SOL     OW26224   3.818   0.771   5.398
 8442SOL    HW126225   3.789   0.852   5.346
 8442SOL    HW226226   3.813   0.791   5.496
 8443SOL     OW26227   2.091   4.783   3.126
 8443SOL    HW126228   1.999   4.817   3.142
 8443SOL    HW226229   2.096   4.743   3.034
 8444SOL     OW26230   4.413   6.661   2.632
 8444SOL    HW126231   4.450   6.707   2.713
 8444SOL    HW226232   4.367   6.577   2.660
 8445SOL     OW26233   2.862   6.898   6.868
 8445SOL    HW126234   2.852   6.986   6.913
 8445SOL    HW226235   2.921   6.838   6.923
 8446SOL     OW26236   0.161   6.453   5.112
 8446SOL    HW126237   0.139   6.538   5.160
 8446SOL    HW226238   0.255   6.426   5.133
 8447SOL     OW26239   4.457   1.657   2.723
 8447SOL    HW126240   4.403   1.581   2.759
 8447SOL    HW226241   4.546   1.658   2.768
 8448SOL     OW26242   5.000   6.789   3.483
 8448SOL    HW126243   4.988   6.888   3.476
 8448SOL    HW226244   5.074   6.769   3.547
 8449SOL     OW26245   1.880   2.976   3.100
 8449SOL    HW126246   1.793   2.970   3.050
 8449SOL    HW226247   1.869   2.932   3.189
 8450SOL     OW26248   6.938   0.730   0.001
 8450SOL    HW126249   6.868   0.767   0.062
 8450SOL    HW226250   6.929   0.631   7.013
 8451SOL     OW26251   3.880   1.378   1.320
 8451SOL    HW126252   3.950   1.439   1.356
 8451SOL    HW226253   3.886   1.376   1.220
 8452SOL     OW26254   5.156   1.826   4.774
 8452SOL    HW126255   5.205   1.876   4.703
 8452SOL    HW226256   5.214   1.753   4.809
 8453SOL     OW26257   0.981   5.781   6.596
 8453SOL    HW126258   0.892   5.738   6.616
 8453SOL    HW226259   1.021   5.737   6.516
 8454SOL     OW26260   1.018   4.161   6.895
 8454SOL    HW126261   0.965   4.186   6.977
 8454SOL    HW226262   1.085   4.091   6.919
 8455SOL     OW26263   0.732   0.359   2.414
 8455SOL    HW126264   0.806   0.297   2.435
 8455SOL    HW226265   0.701   0.404   2.498
 8456SOL     OW26266   5.113   0.829   3.063
 8456SOL    HW126267   5.023   0.836   3.020
 8456SOL    HW226268   5.160   0.748   3.030
 8457SOL     OW26269   6.063   6.656   4.300
 8457SOL    HW126270   6.056   6.622   4.206
 8457SOL    HW226271   5.979   6.706   4.323
 8458SOL     OW26272   0.331   0.053   0.231
 8458SOL    HW126273   0.284   0.140   0.221
 8458SOL    HW226274   0.264   6.997   0.226
 8459SOL     OW26275   1.303   5.662   3.272
 8459SOL    HW126276   1.257   5.677   3.360
 8459SOL    HW226277   1.354   5.744   3.246
 8460SOL     OW26278   3.882   4.068   5.122
 8460SOL    HW126279   3.894   3.969   5.117
 8460SOL    HW226280   3.963   4.109   5.165
 8461SOL     OW26281   0.139   3.435   4.839
 8461SOL    HW126282   0.130   3.414   4.937
 8461SOL    HW226283   0.051   3.465   4.803
 8462SOL     OW26284   2.741   1.808   1.574
 8462SOL    HW126285   2.744   1.865   1.656
 8462SOL    HW226286   2.692   1.856   1.502
 8463SOL     OW26287   6.127   0.514   2.138
 8463SOL    HW126288   6.164   0.560   2.218
 8463SOL    HW226289   6.037   0.475   2.161
 8464SOL     OW26290   6.004   3.183   5.032
 8464SOL    HW126291   6.046   3.109   5.085
 8464SOL    HW226292   6.001   3.266   5.088
 8465SOL     OW26293   1.572   1.779   0.700
 8465SOL    HW126294   1.593   1.815   0.609
 8465SOL    HW226295   1.622   1.832   0.768
 8466SOL     OW26296   0.937   5.867   3.269
 8466SOL    HW126297   0.854   5.895   3.317
 8466SOL    HW226298   0.951   5.768   3.281
 8467SOL     OW26299   2.505   5.411   0.872
 8467SOL    HW126300   2.480   5.397   0.776
 8467SOL    HW226301   2.604   5.426   0.879
 8468SOL     OW26302   3.946   2.061   7.014
 8468SOL    HW126303   3.974   2.055   6.918
 8468SOL    HW226304   3.968   1.975   0.042
 8469SOL     OW26305   3.230   2.741   6.496
 8469SOL    HW126306   3.187   2.831   6.493
 8469SOL    HW226307   3.160   2.670   6.498
 8470SOL     OW26308   2.360   3.019   0.875
 8470SOL    HW126309   2.397   3.104   0.913
 8470SOL    HW226310   2.435   2.959   0.848
 8471SOL     OW26311   3.178   0.398   4.105
 8471SOL    HW126312   3.085   0.361   4.102
 8471SOL    HW226313   3.174   0.495   4.127
 8472SOL     OW26314   0.674   6.842   4.542
 8472SOL    HW126315   0.686   6.816   4.446
 8472SOL    HW226316   0.580   6.824   4.570
 8473SOL     OW26317   6.489   5.379   6.887
 8473SOL    HW126318   6.490   5.296   6.942
 8473SOL    HW226319   6.422   5.444   6.924
 8474SOL     OW26320   3.539   3.155   1.642
 8474SOL    HW126321   3.484   3.237   1.624
 8474SOL    HW226322   3.505   3.110   1.725
 8475SOL     OW26323   6.057   1.864   2.866
 8475SOL    HW126324   6.090   1.958   2.861
 8475SOL    HW226325   5.982   1.851   2.800
 8476SOL     OW26326   5.124   1.036   1.982
 8476SOL    HW126327   5.168   1.064   2.067
 8476SOL    HW226328   5.057   1.105   1.954
 8477SOL     OW26329   2.653   6.733   1.152
 8477SOL    HW126330   2.561   6.772   1.142
 8477SOL    HW226331   2.647   6.645   1.199
 8478SOL     OW26332   1.756   0.718   5.804
 8478SOL    HW126333   1.676   0.697   5.860
 8478SOL    HW226334   1.734   0.706   5.707
 8479SOL     OW26335   6.071   1.202   0.611
 8479SOL    HW126336   6.135   1.141   0.565
 8479SOL    HW226337   6.016   1.250   0.542
 8480SOL     OW26338   3.334   0.465   1.184
 8480SOL    HW126339   3.312   0.402   1.258
 8480SOL    HW226340   3.353   0.413   1.100
 8481SOL     OW26341   3.411   1.680   4.818
 8481SOL    HW126342   3.443   1.585   4.828
 8481SOL    HW226343   3.402   1.702   4.721
 8482SOL     OW26344   1.162   0.239   2.036
 8482SOL    HW126345   1.173   0.253   2.135
 8482SOL    HW226346   1.204   0.152   2.010
 8483SOL     OW26347   3.651   5.700   1.668
 8483SOL    HW126348   3.722   5.691   1.738
 8483SOL    HW226349   3.569   5.741   1.709
 8484SOL     OW26350   0.833   5.049   4.453
 8484SOL    HW126351   0.864   5.134   4.495
 8484SOL    HW226352   0.817   4.980   4.524
 8485SOL     OW26353   2.332   3.959   0.155
 8485SOL    HW126354   2.398   3.885   0.160
 8485SOL    HW226355   2.370   4.034   0.099
 8486SOL     OW26356   6.023   0.930   2.328
 8486SOL    HW126357   5.942   0.884   2.292
 8486SOL    HW226358   6.012   0.945   2.426
 8487SOL     OW26359   5.489   0.384   1.549
 8487SOL    HW126360   5.420   0.452   1.574
 8487SOL    HW226361   5.573   0.431   1.521
 8488SOL     OW26362   5.254   4.689   4.325
 8488SOL    HW126363   5.237   4.591   4.339
 8488SOL    HW226364   5.204   4.741   4.394
 8489SOL     OW26365   5.262   4.422   1.243
 8489SOL    HW126366   5.214   4.387   1.324
 8489SOL    HW226367   5.214   4.502   1.207
 8490SOL     OW26368   4.110   5.491   3.233
 8490SOL    HW126369   4.190   5.546   3.207
 8490SOL    HW226370   4.040   5.499   3.162
 8491SOL     OW26371   2.575   0.384   2.081
 8491SOL    HW126372   2.491   0.386   2.027
 8491SOL    HW226373   2.653   0.407   2.023
 8492SOL     OW26374   6.132   2.449   5.281
 8492SOL    HW126375   6.058   2.442   5.348
 8492SOL    HW226376   6.171   2.359   5.265
 8493SOL     OW26377   4.341   1.604   0.275
 8493SOL    HW126378   4.419   1.651   0.235
 8493SOL    HW226379   4.258   1.626   0.223
 8494SOL     OW26380   2.582   5.832   7.018
 8494SOL    HW126381   2.550   5.905   6.957
 8494SOL    HW226382   2.522   5.827   0.079
 8495SOL     OW26383   6.625   2.504   0.771
 8495SOL    HW126384   6.719   2.484   0.798
 8495SOL    HW226385   6.577   2.546   0.848
 8496SOL     OW26386   0.392   2.474   3.049
 8496SOL    HW126387   0.416   2.413   3.124
 8496SOL    HW226388   0.307   2.443   3.006
 8497SOL     OW26389   5.980   5.091   3.792
 8497SOL    HW126390   6.066   5.114   3.836
 8497SOL    HW226391   5.998   5.027   3.716
 8498SOL     OW26392   0.574   0.485   0.957
 8498SOL    HW126393   0.566   0.570   0.904
 8498SOL    HW226394   0.649   0.494   1.022
 8499SOL     OW26395   3.124   4.782   6.512
 8499SOL    HW126396   3.059   4.797   6.586
 8499SOL    HW226397   3.204   4.840   6.526
 8500SOL     OW26398   2.116   6.869   6.146
 8500SOL    HW126399   2.152   6.831   6.061
 8500SOL    HW226400   2.188   6.872   6.215
 8501SOL     OW26401   2.159   3.538   6.426
 8501SOL    HW126402   2.136   3.582   6.339
 8501SOL    HW226403   2.088   3.470   6.448
 8502SOL     OW26404   0.149   6.371   1.644
 8502SOL    HW126405   0.072   6.422   1.683
 8502SOL    HW226406   0.157   6.282   1.689
 8503SOL     OW26407   2.623   5.200   3.451
 8503SOL    HW126408   2.554   5.190   3.380
 8503SOL    HW226409   2.585   5.249   3.529
 8504SOL     OW26410   1.771   5.725   3.444
 8504SOL    HW126411   1.807   5.636   3.472
 8504SOL    HW226412   1.672   5.728   3.460
 8505SOL     OW26413   5.410   4.205   3.799
 8505SOL    HW126414   5.338   4.141   3.824
 8505SOL    HW226415   5.393   4.293   3.843
 8506SOL     OW26416   1.065   6.353   0.325
 8506SOL    HW126417   1.033   6.415   0.253
 8506SOL    HW226418   1.083   6.405   0.408
 8507SOL     OW26419   2.194   1.238   6.097
 8507SOL    HW126420   2.257   1.202   6.029
 8507SOL    HW226421   2.224   1.330   6.125
 8508SOL     OW26422   0.310   2.447   5.514
 8508SOL    HW126423   0.311   2.461   5.613
 8508SOL    HW226424   0.349   2.527   5.469
 8509SOL     OW26425   5.893   1.411   4.331
 8509SOL    HW126426   5.942   1.345   4.387
 8509SOL    HW226427   5.797   1.415   4.359
 8510SOL     OW26428   5.341   5.783   3.169
 8510SOL    HW126429   5.368   5.718   3.098
 8510SOL    HW226430   5.267   5.841   3.134
 8511SOL     OW26431   6.625   4.502   1.128
 8511SOL    HW126432   6.596   4.512   1.224
 8511SOL    HW226433   6.618   4.591   1.083
 8512SOL     OW26434   4.338   2.505   0.231
 8512SOL    HW126435   4.323   2.470   0.139
 8512SOL    HW226436   4.301   2.441   0.298
 8513SOL     OW26437   5.781   3.760   0.765
 8513SOL    HW126438   5.712   3.825   0.735
 8513SOL    HW226439   5.742   3.699   0.834
 8514SOL     OW26440   2.677   1.597   4.710
 8514SOL    HW126441   2.749   1.666   4.704
 8514SOL    HW226442   2.662   1.556   4.620
 8515SOL     OW26443   0.575   1.371   0.078
 8515SOL    HW126444   0.494   1.407   0.032
 8515SOL    HW226445   0.655   1.422   0.049
 8516SOL     OW26446   5.938   3.034   2.593
 8516SOL    HW126447   6.030   3.008   2.622
 8516SOL    HW226448   5.901   3.101   2.657
 8517SOL     OW26449   2.052   2.823   5.429
 8517SOL    HW126450   2.132   2.884   5.431
 8517SOL    HW226451   2.071   2.741   5.483
 8518SOL     OW26452   4.818   4.901   6.289
 8518SOL    HW126453   4.914   4.889   6.264
 8518SOL    HW226454   4.798   4.847   6.370
 8519SOL     OW26455   1.657   4.425   0.679
 8519SOL    HW126456   1.716   4.375   0.615
 8519SOL    HW226457   1.568   4.380   0.686
 8520SOL     OW26458   4.009   3.791   5.068
 8520SOL    HW126459   3.989   3.839   4.983
 8520SOL    HW226460   3.960   3.704   5.070
 8521SOL     OW26461   1.048   6.307   5.373
 8521SOL    HW126462   1.033   6.318   5.275
 8521SOL    HW226463   0.969   6.259   5.413
 8522SOL     OW26464   1.297   6.842   0.218
 8522SOL    HW126465   1.373   6.795   0.262
 8522SOL    HW226466   1.235   6.878   0.289
 8523SOL     OW26467   2.794   6.811   6.326
 8523SOL    HW126468   2.722   6.751   6.360
 8523SOL    HW226469   2.824   6.779   6.236
 8524SOL     OW26470   0.959   5.315   4.927
 8524SOL    HW126471   0.897   5.286   4.999
 8524SOL    HW226472   1.053   5.311   4.961
 8525SOL     OW26473   6.560   4.755   1.036
 8525SOL    HW126474   6.523   4.773   1.127
 8525SOL    HW226475   6.485   4.737   0.972
 8526SOL     OW26476   2.409   6.260   0.487
 8526SOL    HW126477   2.365   6.291   0.571
 8526SOL    HW226478   2.341   6.215   0.429
 8527SOL     OW26479   3.445   0.507   6.742
 8527SOL    HW126480   3.407   0.594   6.774
 8527SOL    HW226481   3.434   0.501   6.643
 8528SOL     OW26482   4.866   2.188   1.207
 8528SOL    HW126483   4.789   2.137   1.170
 8528SOL    HW226484   4.944   2.181   1.144
 8529SOL     OW26485   1.193   6.296   6.795
 8529SOL    HW126486   1.263   6.328   6.732
 8529SOL    HW226487   1.193   6.196   6.796
 8530SOL     OW26488   2.988   3.175   3.910
 8530SOL    HW126489   2.938   3.249   3.955
 8530SOL    HW226490   2.963   3.172   3.813
 8531SOL     OW26491   6.725   6.061   3.296
 8531SOL    HW126492   6.786   5.994   3.254
 8531SOL    HW226493   6.646   6.076   3.236
 8532SOL     OW26494   3.875   6.542   4.050
 8532SOL    HW126495   3.814   6.480   4.001
 8532SOL    HW226496   3.830   6.631   4.061
 8533SOL     OW26497   1.065   6.055   6.610
 8533SOL    HW126498   1.038   5.967   6.648
 8533SOL    HW226499   0.990   6.121   6.624
 8534SOL     OW26500   4.484   2.099   4.223
 8534SOL    HW126501   4.514   2.066   4.312
 8534SOL    HW226502   4.439   2.188   4.234
 8535SOL     OW26503   5.523   0.789   3.622
 8535SOL    HW126504   5.551   0.882   3.598
 8535SOL    HW226505   5.435   0.769   3.581
 8536SOL     OW26506   0.389   1.518   4.612
 8536SOL    HW126507   0.442   1.566   4.542
 8536SOL    HW226508   0.425   1.542   4.703
 8537SOL     OW26509   6.188   1.424   3.503
 8537SOL    HW126510   6.207   1.431   3.600
 8537SOL    HW226511   6.104   1.473   3.482
 8538SOL     OW26512   1.341   1.586   0.233
 8538SOL    HW126513   1.416   1.608   0.170
 8538SOL    HW226514   1.341   1.650   0.310
 8539SOL     OW26515   6.318   2.728   3.173
 8539SOL    HW126516   6.349   2.734   3.079
 8539SOL    HW226517   6.221   2.752   3.178
 8540SOL     OW26518   4.432   0.233   6.477
 8540SOL    HW126519   4.383   0.318   6.454
 8540SOL    HW226520   4.528   0.243   6.453
 8541SOL     OW26521   2.640   1.962   4.141
 8541SOL    HW126522   2.728   1.928   4.174
 8541SOL    HW226523   2.635   2.060   4.156
 8542SOL     OW26524   3.906   4.184   6.337
 8542SOL    HW126525   3.962   4.256   6.297
 8542SOL    HW226526   3.824   4.171   6.281
 8543SOL     OW26527   2.059   2.483   0.094
 8543SOL    HW126528   2.082   2.579   0.080
 8543SOL    HW226529   2.024   2.444   0.008
 8544SOL     OW26530   5.461   2.390   4.239
 8544SOL    HW126531   5.536   2.326   4.228
 8544SOL    HW226532   5.486   2.478   4.199
 8545SOL     OW26533   5.071   6.409   5.577
 8545SOL    HW126534   5.127   6.348   5.633
 8545SOL    HW226535   4.979   6.370   5.567
 8546SOL     OW26536   5.370   1.667   3.874
 8546SOL    HW126537   5.381   1.617   3.788
 8546SOL    HW226538   5.443   1.734   3.884
 8547SOL     OW26539   1.442   5.187   4.794
 8547SOL    HW126540   1.414   5.091   4.800
 8547SOL    HW226541   1.471   5.207   4.700
 8548SOL     OW26542   5.405   1.666   5.613
 8548SOL    HW126543   5.373   1.745   5.560
 8548SOL    HW226544   5.341   1.647   5.688
 8549SOL     OW26545   6.561   4.069   3.944
 8549SOL    HW126546   6.589   4.029   4.031
 8549SOL    HW226547   6.477   4.024   3.912
 8550SOL     OW26548   1.747   5.286   6.523
 8550SOL    HW126549   1.777   5.233   6.444
 8550SOL    HW226550   1.825   5.335   6.562
 8551SOL     OW26551   3.435   4.340   6.650
 8551SOL    HW126552   3.472   4.284   6.576
 8551SOL    HW226553   3.510   4.385   6.699
 8552SOL     OW26554   3.286   5.606   3.201
 8552SOL    HW126555   3.229   5.610   3.118
 8552SOL    HW226556   3.255   5.675   3.266
 8553SOL     OW26557   5.148   6.796   0.327
 8553SOL    HW126558   5.051   6.783   0.311
 8553SOL    HW226559   5.189   6.847   0.252
 8554SOL     OW26560   0.532   4.433   0.006
 8554SOL    HW126561   0.469   4.398   0.075
 8554SOL    HW226562   0.549   4.362   6.956
 8555SOL     OW26563   0.978   1.298   3.665
 8555SOL    HW126564   0.920   1.325   3.742
 8555SOL    HW226565   1.019   1.379   3.624
 8556SOL     OW26566   6.860   0.728   3.587
 8556SOL    HW126567   6.845   0.666   3.664
 8556SOL    HW226568   6.857   0.823   3.620
 8557SOL     OW26569   0.145   6.642   1.414
 8557SOL    HW126570   0.232   6.693   1.421
 8557SOL    HW226571   0.119   6.609   1.505
 8558SOL     OW26572   2.279   5.246   2.358
 8558SOL    HW126573   2.210   5.311   2.392
 8558SOL    HW226574   2.242   5.153   2.361
 8559SOL     OW26575   0.780   0.733   1.544
 8559SOL    HW126576   0.704   0.767   1.599
 8559SOL    HW226577   0.854   0.703   1.604
 8560SOL     OW26578   0.268   1.522   0.494
 8560SOL    HW126579   0.339   1.583   0.530
 8560SOL    HW226580   0.180   1.569   0.496
 8561SOL     OW26581   4.622   6.215   2.805
 8561SOL    HW126582   4.641   6.185   2.898
 8561SOL    HW226583   4.705   6.255   2.766
 8562SOL     OW26584   3.786   6.278   4.643
 8562SOL    HW126585   3.852   6.313   4.710
 8562SOL    HW226586   3.808   6.314   4.553
 8563SOL     OW26587   2.528   2.918   6.873
 8563SOL    HW126588   2.520   2.981   6.950
 8563SOL    HW226589   2.473   2.836   6.891
 8564SOL     OW26590   0.776   6.934   3.618
 8564SOL    HW126591   0.833   6.983   3.552
 8564SOL    HW226592   0.726   6.861   3.570
 8565SOL     OW26593   3.762   0.002   0.437
 8565SOL    HW126594   3.775   0.100   0.419
 8565SOL    HW226595   3.665   6.998   0.428
 8566SOL     OW26596   1.217   2.464   3.200
 8566SOL    HW126597   1.203   2.379   3.251
 8566SOL    HW226598   1.174   2.457   3.110
 8567SOL     OW26599   5.694   1.549   0.890
 8567SOL    HW126600   5.745   1.516   0.970
 8567SOL    HW226601   5.694   1.649   0.890
 8568SOL     OW26602   4.971   2.017   0.162
 8568SOL    HW126603   4.897   1.997   0.226
 8568SOL    HW226604   5.043   2.068   0.210
 8569SOL     OW26605   4.812   0.997   4.566
 8569SOL    HW126606   4.715   0.995   4.541
 8569SOL    HW226607   4.857   1.070   4.516
 8570SOL     OW26608   0.813   4.043   6.423
 8570SOL    HW126609   0.763   3.957   6.414
 8570SOL    HW226610   0.765   4.115   6.372
 8571SOL     OW26611   6.719   4.343   4.550
 8571SOL    HW126612   6.705   4.308   4.643
 8571SOL    HW226613   6.646   4.408   4.528
 8572SOL     OW26614   2.001   4.809   5.505
 8572SOL    HW126615   2.028   4.838   5.413
 8572SOL    HW226616   1.929   4.870   5.539
 8573SOL     OW26617   4.514   6.211   6.427
 8573SOL    HW126618   4.527   6.309   6.435
 8573SOL    HW226619   4.603   6.165   6.437
 8574SOL     OW26620   0.670   3.975   6.008
 8574SOL    HW126621   0.713   4.064   6.022
 8574SOL    HW226622   0.617   3.950   6.089
 8575SOL     OW26623   2.619   2.902   0.744
 8575SOL    HW126624   2.672   2.818   0.751
 8575SOL    HW226625   2.675   2.973   0.702
 8576SOL     OW26626   1.092   0.039   1.640
 8576SOL    HW126627   1.036   6.994   1.587
 8576SOL    HW226628   1.174   7.010   1.673
 8577SOL     OW26629   6.279   5.527   2.944
 8577SOL    HW126630   6.330   5.612   2.958
 8577SOL    HW226631   6.183   5.549   2.926
 8578SOL     OW26632   4.671   0.279   3.732
 8578SOL    HW126633   4.633   0.370   3.748
 8578SOL    HW226634   4.747   0.264   3.795
 8579SOL     OW26635   1.414   4.695   3.385
 8579SOL    HW126636   1.421   4.770   3.452
 8579SOL    HW226637   1.433   4.608   3.430
 8580SOL     OW26638   1.507   6.110   1.760
 8580SOL    HW126639   1.407   6.105   1.767
 8580SOL    HW226640   1.533   6.194   1.714
 8581SOL     OW26641   3.178   1.585   1.360
 8581SOL    HW126642   3.212   1.532   1.438
 8581SOL    HW226643   3.220   1.548   1.276
 8582SOL     OW26644   4.499   4.734   2.089
 8582SOL    HW126645   4.465   4.654   2.039
 8582SOL    HW226646   4.520   4.807   2.023
 8583SOL     OW26647   6.273   6.928   5.933
 8583SOL    HW126648   6.199   6.969   5.880
 8583SOL    HW226649   6.356   6.981   5.921
 8584SOL     OW26650   6.955   4.620   0.489
 8584SOL    HW126651   0.033   4.606   0.513
 8584SOL    HW226652   6.924   4.546   0.430
 8585SOL     OW26653   0.109   0.463   0.474
 8585SOL    HW126654   0.187   0.517   0.445
 8585SOL    HW226655   0.129   0.420   0.562
 8586SOL     OW26656   3.673   6.267   3.153
 8586SOL    HW126657   3.632   6.181   3.121
 8586SOL    HW226658   3.770   6.253   3.172
 8587SOL     OW26659   6.913   1.732   2.665
 8587SOL    HW126660   6.815   1.750   2.674
 8587SOL    HW226661   6.952   1.794   2.597
 8588SOL     OW26662   3.944   2.317   0.661
 8588SOL    HW126663   3.966   2.383   0.589
 8588SOL    HW226664   4.009   2.241   0.656
 8589SOL     OW26665   3.407   0.944   4.858
 8589SOL    HW126666   3.308   0.950   4.851
 8589SOL    HW226667   3.447   0.947   4.766
 8590SOL     OW26668   6.218   4.833   4.316
 8590SOL    HW126669   6.297   4.799   4.366
 8590SOL    HW226670   6.249   4.894   4.243
 8591SOL     OW26671   1.226   3.318   6.132
 8591SOL    HW126672   1.263   3.289   6.044
 8591SOL    HW226673   1.295   3.371   6.182
 8592SOL     OW26674   6.949   4.267   1.186
 8592SOL    HW126675   0.026   4.289   1.164
 8592SOL    HW226676   6.946   4.221   1.275
 8593SOL     OW26677   1.816   6.426   2.008
 8593SOL    HW126678   1.757   6.486   2.063
 8593SOL    HW226679   1.881   6.481   1.956
 8594SOL     OW26680   3.260   3.644   4.002
 8594SOL    HW126681   3.163   3.651   3.979
 8594SOL    HW226682   3.273   3.576   4.073
 8595SOL     OW26683   1.607   2.206   2.534
 8595SOL    HW126684   1.663   2.206   2.616
 8595SOL    HW226685   1.593   2.113   2.502
 8596SOL     OW26686   5.467   4.847   1.639
 8596SOL    HW126687   5.392   4.795   1.681
 8596SOL    HW226688   5.432   4.934   1.605
 8597SOL     OW26689   2.823   1.267   0.792
 8597SOL    HW126690   2.777   1.353   0.771
 8597SOL    HW226691   2.863   1.229   0.708
 8598SOL     OW26692   6.422   3.629   0.959
 8598SOL    HW126693   6.433   3.728   0.964
 8598SOL    HW226694   6.326   3.605   0.977
 8599SOL     OW26695   0.882   2.725   3.255
 8599SOL    HW126696   0.961   2.740   3.196
 8599SOL    HW226697   0.839   2.638   3.232
 8600SOL     OW26698   6.563   4.983   6.589
 8600SOL    HW126699   6.568   4.890   6.552
 8600SOL    HW226700   6.467   5.013   6.590
 8601SOL     OW26701   0.001   0.378   3.882
 8601SOL    HW126702   0.017   0.461   3.935
 8601SOL    HW226703   6.930   0.340   3.907
 8602SOL     OW26704   2.868   5.657   2.282
 8602SOL    HW126705   2.928   5.634   2.359
 8602SOL    HW226706   2.800   5.585   2.271
 8603SOL     OW26707   3.814   2.969   0.148
 8603SOL    HW126708   3.867   2.943   0.067
 8603SOL    HW226709   3.754   3.045   0.125
 8604SOL     OW26710   5.489   3.052   3.809
 8604SOL    HW126711   5.462   3.030   3.715
 8604SOL    HW226712   5.408   3.079   3.861
 8605SOL     OW26713   2.591   5.923   3.825
 8605SOL    HW126714   2.652   5.966   3.891
 8605SOL    HW226715   2.645   5.869   3.760
 8606SOL     OW26716   3.028   4.907   6.087
 8606SOL    HW126717   2.971   4.943   6.012
 8606SOL    HW226718   3.026   4.807   6.084
 8607SOL     OW26719   4.102   5.902   2.085
 8607SOL    HW126720   4.070   5.916   1.991
 8607SOL    HW226721   4.202   5.905   2.087
 8608SOL     OW26722   3.924   5.042   2.826
 8608SOL    HW126723   3.968   4.966   2.778
 8608SOL    HW226724   3.892   5.010   2.915
 8609SOL     OW26725   3.370   0.240   5.149
 8609SOL    HW126726   3.330   0.281   5.231
 8609SOL    HW226727   3.307   0.250   5.072
 8610SOL     OW26728   1.138   6.255   3.160
 8610SOL    HW126729   1.047   6.282   3.193
 8610SOL    HW226730   1.149   6.286   3.066
 8611SOL     OW26731   1.940   2.095   4.519
 8611SOL    HW126732   1.947   2.016   4.458
 8611SOL    HW226733   1.861   2.084   4.579
 8612SOL     OW26734   3.540   2.743   6.913
 8612SOL    HW126735   3.486   2.711   6.835
 8612SOL    HW226736   3.490   2.725   6.998
 8613SOL     OW26737   2.043   1.337   1.107
 8613SOL    HW126738   2.139   1.318   1.128
 8613SOL    HW226739   1.993   1.356   1.191
 8614SOL     OW26740   0.985   3.637   3.059
 8614SOL    HW126741   0.976   3.617   2.962
 8614SOL    HW226742   1.060   3.702   3.073
 8615SOL     OW26743   3.854   2.217   5.765
 8615SOL    HW126744   3.876   2.307   5.803
 8615SOL    HW226745   3.790   2.171   5.826
 8616SOL     OW26746   1.297   4.729   0.337
 8616SOL    HW126747   1.283   4.635   0.367
 8616SOL    HW226748   1.244   4.791   0.395
 8617SOL     OW26749   6.247   2.415   0.685
 8617SOL    HW126750   6.329   2.358   0.684
 8617SOL    HW226751   6.194   2.397   0.768
 8618SOL     OW26752   4.383   0.488   2.665
 8618SOL    HW126753   4.288   0.482   2.697
 8618SOL    HW226754   4.435   0.546   2.727
 8619SOL     OW26755   4.170   5.037   6.962
 8619SOL    HW126756   4.194   5.124   7.005
 8619SOL    HW226757   4.074   5.016   6.981
 8620SOL     OW26758   5.465   6.759   2.324
 8620SOL    HW126759   5.396   6.688   2.308
 8620SOL    HW226760   5.442   6.840   2.270
 8621SOL     OW26761   5.903   1.161   3.899
 8621SOL    HW126762   5.828   1.219   3.868
 8621SOL    HW226763   5.948   1.205   3.977
 8622SOL     OW26764   4.998   5.313   0.300
 8622SOL    HW126765   5.078   5.373   0.300
 8622SOL    HW226766   4.916   5.368   0.288
 8623SOL     OW26767   0.949   4.077   2.874
 8623SOL    HW126768   1.034   4.074   2.928
 8623SOL    HW226769   0.871   4.071   2.936
 8624SOL     OW26770   0.888   4.154   3.257
 8624SOL    HW126771   0.961   4.108   3.206
 8624SOL    HW226772   0.844   4.088   3.318
 8625SOL     OW26773   4.484   0.715   4.540
 8625SOL    HW126774   4.503   0.813   4.535
 8625SOL    HW226775   4.390   0.697   4.511
 8626SOL     OW26776   3.427   3.154   4.107
 8626SOL    HW126777   3.336   3.165   4.068
 8626SOL    HW226778   3.444   3.226   4.173
 8627SOL     OW26779   1.126   0.828   1.254
 8627SOL    HW126780   1.120   0.855   1.158
 8627SOL    HW226781   1.175   0.741   1.261
 8628SOL     OW26782   6.521   1.169   6.892
 8628SOL    HW126783   6.432   1.130   6.871
 8628SOL    HW226784   6.556   1.218   6.812
 8629SOL     OW26785   0.882   4.837   4.031
 8629SOL    HW126786   0.894   4.772   4.106
 8629SOL    HW226787   0.811   4.803   3.968
 8630SOL     OW26788   5.713   4.094   4.014
 8630SOL    HW126789   5.719   4.166   3.946
 8630SOL    HW226790   5.785   4.027   3.998
 8631SOL     OW26791   3.773   5.689   4.936
 8631SOL    HW126792   3.747   5.603   4.981
 8631SOL    HW226793   3.856   5.725   4.979
 8632SOL     OW26794   3.344   0.526   3.815
 8632SOL    HW126795   3.255   0.499   3.852
 8632SOL    HW226796   3.338   0.533   3.715
 8633SOL     OW26797   5.359   1.249   3.686
 8633SOL    HW126798   5.269   1.270   3.648
 8633SOL    HW226799   5.349   1.190   3.766
 8634SOL     OW26800   6.735   4.294   1.907
 8634SOL    HW126801   6.639   4.272   1.891
 8634SOL    HW226802   6.742   4.377   1.962
 8635SOL     OW26803   6.164   4.029   5.903
 8635SOL    HW126804   6.097   3.963   5.869
 8635SOL    HW226805   6.237   4.040   5.835
 8636SOL     OW26806   6.314   5.881   0.648
 8636SOL    HW126807   6.278   5.968   0.679
 8636SOL    HW226808   6.362   5.836   0.723
 8637SOL     OW26809   1.677   0.836   0.611
 8637SOL    HW126810   1.595   0.891   0.627
 8637SOL    HW226811   1.712   0.853   0.519
 8638SOL     OW26812   2.544   4.425   6.985
 8638SOL    HW126813   2.567   4.370   6.905
 8638SOL    HW226814   2.493   4.369   0.032
 8639SOL     OW26815   5.230   3.501   1.704
 8639SOL    HW126816   5.136   3.534   1.701
 8639SOL    HW226817   5.230   3.401   1.709
 8640SOL     OW26818   4.931   4.092   0.927
 8640SOL    HW126819   4.961   4.173   0.876
 8640SOL    HW226820   4.911   4.118   1.021
 8641SOL     OW26821   0.234   4.493   3.548
 8641SOL    HW126822   0.267   4.468   3.639
 8641SOL    HW226823   0.291   4.449   3.478
 8642SOL     OW26824   4.676   0.881   1.911
 8642SOL    HW126825   4.752   0.829   1.871
 8642SOL    HW226826   4.617   0.915   1.838
 8643SOL     OW26827   4.376   0.508   6.448
 8643SOL    HW126828   4.461   0.539   6.491
 8643SOL    HW226829   4.335   0.583   6.396
 8644SOL     OW26830   5.338   2.689   4.744
 8644SOL    HW126831   5.405   2.631   4.698
 8644SOL    HW226832   5.367   2.706   4.838
 8645SOL     OW26833   6.491   3.862   1.194
 8645SOL    HW126834   6.519   3.889   1.287
 8645SOL    HW226835   6.572   3.847   1.138
 8646SOL     OW26836   5.008   1.129   0.133
 8646SOL    HW126837   4.919   1.087   0.112
 8646SOL    HW226838   5.004   1.227   0.113
 8647SOL     OW26839   3.703   4.933   6.933
 8647SOL    HW126840   3.670   4.905   0.005
 8647SOL    HW226841   3.691   4.858   6.868
 8648SOL     OW26842   5.665   0.422   4.674
 8648SOL    HW126843   5.738   0.439   4.609
 8648SOL    HW226844   5.687   0.341   4.729
 8649SOL     OW26845   6.014   4.179   5.422
 8649SOL    HW126846   5.980   4.180   5.327
 8649SOL    HW226847   5.980   4.097   5.468
 8650SOL     OW26848   2.099   4.900   3.946
 8650SOL    HW126849   2.139   4.968   4.007
 8650SOL    HW226850   2.153   4.893   3.862
 8651SOL     OW26851   3.783   1.927   0.429
 8651SOL    HW126852   3.833   1.951   0.345
 8651SOL    HW226853   3.735   1.840   0.415
 8652SOL     OW26854   2.124   3.894   3.254
 8652SOL    HW126855   2.183   3.975   3.260
 8652SOL    HW226856   2.152   3.839   3.175
 8653SOL     OW26857   0.424   2.493   6.360
 8653SOL    HW126858   0.381   2.570   6.313
 8653SOL    HW226859   0.353   2.438   6.403
 8654SOL     OW26860   0.338   6.700   3.331
 8654SOL    HW126861   0.239   6.690   3.340
 8654SOL    HW226862   0.382   6.610   3.336
 8655SOL     OW26863   6.021   6.567   4.052
 8655SOL    HW126864   5.981   6.634   3.989
 8655SOL    HW226865   5.947   6.525   4.106
 8656SOL     OW26866   6.072   1.007   1.024
 8656SOL    HW126867   6.172   0.999   1.025
 8656SOL    HW226868   6.045   1.094   1.065
 8657SOL     OW26869   5.114   5.212   6.258
 8657SOL    HW126870   5.175   5.153   6.204
 8657SOL    HW226871   5.156   5.231   6.346
 8658SOL     OW26872   5.294   4.889   0.013
 8658SOL    HW126873   5.333   4.860   0.100
 8658SOL    HW226874   5.219   4.953   0.030
 8659SOL     OW26875   4.464   0.732   2.834
 8659SOL    HW126876   4.539   0.784   2.794
 8659SOL    HW226877   4.462   0.748   2.933
 8660SOL     OW26878   6.259   3.952   0.265
 8660SOL    HW126879   6.319   3.969   0.187
 8660SOL    HW226880   6.315   3.926   0.344
 8661SOL     OW26881   6.482   4.159   1.983
 8661SOL    HW126882   6.446   4.085   1.926
 8661SOL    HW226883   6.559   4.125   2.037
 8662SOL     OW26884   6.101   6.449   1.135
 8662SOL    HW126885   6.119   6.526   1.074
 8662SOL    HW226886   6.039   6.479   1.208
 8663SOL     OW26887   2.239   5.493   0.818
 8663SOL    HW126888   2.329   5.458   0.847
 8663SOL    HW226889   2.170   5.466   0.885
 8664SOL     OW26890   4.199   5.670   0.008
 8664SOL    HW126891   4.123   5.735   0.006
 8664SOL    HW226892   4.187   5.608   0.085
 8665SOL     OW26893   4.486   5.549   5.175
 8665SOL    HW126894   4.569   5.568   5.227
 8665SOL    HW226895   4.460   5.453   5.186
 8666SOL     OW26896   4.851   1.961   5.439
 8666SOL    HW126897   4.885   2.015   5.362
 8666SOL    HW226898   4.856   2.016   5.523
 8667SOL     OW26899   5.212   1.968   2.953
 8667SOL    HW126900   5.253   1.882   2.982
 8667SOL    HW226901   5.281   2.040   2.956
 8668SOL     OW26902   5.304   2.613   4.389
 8668SOL    HW126903   5.382   2.671   4.412
 8668SOL    HW226904   5.312   2.525   4.435
 8669SOL     OW26905   4.184   1.267   6.296
 8669SOL    HW126906   4.216   1.197   6.361
 8669SOL    HW226907   4.145   1.221   6.216
 8670SOL     OW26908   3.853   5.802   4.554
 8670SOL    HW126909   3.897   5.877   4.506
 8670SOL    HW226910   3.783   5.838   4.615
 8671SOL     OW26911   5.732   6.874   3.770
 8671SOL    HW126912   5.725   6.923   3.683
 8671SOL    HW226913   5.669   6.796   3.770
 8672SOL     OW26914   2.626   5.225   4.366
 8672SOL    HW126915   2.685   5.305   4.373
 8672SOL    HW226916   2.637   5.169   4.448
 8673SOL     OW26917   0.144   2.118   0.306
 8673SOL    HW126918   0.149   2.030   0.354
 8673SOL    HW226919   0.071   2.173   0.346
 8674SOL     OW26920   0.102   6.809   2.821
 8674SOL    HW126921   0.069   6.730   2.770
 8674SOL    HW226922   0.027   6.846   2.877
 8675SOL     OW26923   2.610   1.874   3.876
 8675SOL    HW126924   2.634   1.905   3.968
 8675SOL    HW226925   2.682   1.900   3.812
 8676SOL     OW26926   3.532   0.395   2.364
 8676SOL    HW126927   3.513   0.492   2.355
 8676SOL    HW226928   3.631   0.380   2.370
 8677SOL     OW26929   2.762   5.033   6.191
 8677SOL    HW126930   2.731   5.127   6.204
 8677SOL    HW226931   2.803   4.999   6.275
 8678SOL     OW26932   1.551   0.083   6.681
 8678SOL    HW126933   1.500   0.127   6.755
 8678SOL    HW226934   1.500   0.091   6.596
 8679SOL     OW26935   5.985   1.785   5.068
 8679SOL    HW126936   5.919   1.846   5.112
 8679SOL    HW226937   6.064   1.773   5.129
 8680SOL     OW26938   2.152   3.273   0.603
 8680SOL    HW126939   2.119   3.266   0.508
 8680SOL    HW226940   2.109   3.202   0.658
 8681SOL     OW26941   4.436   4.815   0.469
 8681SOL    HW126942   4.423   4.782   0.375
 8681SOL    HW226943   4.438   4.736   0.531
 8682SOL     OW26944   2.671   6.590   2.988
 8682SOL    HW126945   2.687   6.600   2.890
 8682SOL    HW226946   2.637   6.497   3.007
 8683SOL     OW26947   1.132   2.907   1.063
 8683SOL    HW126948   1.064   2.857   1.009
 8683SOL    HW226949   1.116   2.892   1.160
 8684SOL     OW26950   5.876   3.010   5.356
 8684SOL    HW126951   5.935   2.964   5.290
 8684SOL    HW226952   5.781   2.985   5.338
 8685SOL     OW26953   0.750   1.985   6.352
 8685SOL    HW126954   0.691   2.029   6.419
 8685SOL    HW226955   0.846   1.997   6.379
 8686SOL     OW26956   6.961   1.923   2.450
 8686SOL    HW126957   0.039   1.900   2.468
 8686SOL    HW226958   6.956   2.002   2.389
 8687SOL     OW26959   3.535   6.876   2.305
 8687SOL    HW126960   3.455   6.930   2.330
 8687SOL    HW226961   3.507   6.788   2.267
 8688SOL     OW26962   2.742   6.765   0.910
 8688SOL    HW126963   2.702   6.758   1.001
 8688SOL    HW226964   2.815   6.834   0.911
 8689SOL     OW26965   3.976   5.814   0.042
 8689SOL    HW126966   4.043   5.876   0.083
 8689SOL    HW226967   3.898   5.867   0.009
 8690SOL     OW26968   1.355   2.314   3.498
 8690SOL    HW126969   1.276   2.342   3.551
 8690SOL    HW226970   1.376   2.218   3.517
 8691SOL     OW26971   5.000   3.225   6.473
 8691SOL    HW126972   4.905   3.196   6.490
 8691SOL    HW226973   5.060   3.181   6.540
 8692SOL     OW26974   3.309   2.099   3.615
 8692SOL    HW126975   3.242   2.129   3.547
 8692SOL    HW226976   3.263   2.078   3.701
 8693SOL     OW26977   5.732   2.401   0.611
 8693SOL    HW126978   5.819   2.366   0.579
 8693SOL    HW226979   5.737   2.419   0.709
 8694SOL     OW26980   5.213   6.951   6.403
 8694SOL    HW126981   5.117   6.959   6.426
 8694SOL    HW226982   5.223   6.903   6.315
 8695SOL     OW26983   5.063   2.873   5.597
 8695SOL    HW126984   4.987   2.831   5.648
 8695SOL    HW226985   5.149   2.856   5.645
 8696SOL     OW26986   3.238   5.306   0.635
 8696SOL    HW126987   3.205   5.353   0.554
 8696SOL    HW226988   3.329   5.340   0.660
 8697SOL     OW26989   6.596   3.165   1.354
 8697SOL    HW126990   6.604   3.072   1.318
 8697SOL    HW226991   6.503   3.198   1.340
 8698SOL     OW26992   5.367   5.680   4.750
 8698SOL    HW126993   5.297   5.661   4.681
 8698SOL    HW226994   5.443   5.616   4.738
 8699SOL     OW26995   1.079   2.261   5.619
 8699SOL    HW126996   1.100   2.196   5.545
 8699SOL    HW226997   1.152   2.329   5.623
 8700SOL     OW26998   1.921   0.790   4.540
 8700SOL    HW126999   1.938   0.696   4.510
 8700SOL    HW227000   2.008   0.836   4.558
 8701SOL     OW27001   0.958   1.144   5.749
 8701SOL    HW127002   0.946   1.242   5.733
 8701SOL    HW227003   0.892   1.094   5.692
 8702SOL     OW27004   5.341   4.745   0.271
 8702SOL    HW127005   5.341   4.651   0.236
 8702SOL    HW227006   5.434   4.781   0.269
 8703SOL     OW27007   3.076   5.575   1.102
 8703SOL    HW127008   2.982   5.605   1.091
 8703SOL    HW227009   3.120   5.569   1.012
 8704SOL     OW27010   6.417   4.689   2.673
 8704SOL    HW127011   6.417   4.637   2.758
 8704SOL    HW227012   6.359   4.770   2.683
 8705SOL     OW27013   5.284   0.886   6.502
 8705SOL    HW127014   5.343   0.805   6.505
 8705SOL    HW227015   5.307   0.942   6.423
 8706SOL     OW27016   4.574   2.376   6.868
 8706SOL    HW127017   4.598   2.350   6.775
 8706SOL    HW227018   4.475   2.394   6.873
 8707SOL     OW27019   4.581   2.827   6.958
 8707SOL    HW127020   4.507   2.803   6.895
 8707SOL    HW227021   4.623   2.913   6.929
 8708SOL     OW27022   3.323   0.722   1.996
 8708SOL    HW127023   3.268   0.638   1.990
 8708SOL    HW227024   3.301   0.770   2.081
 8709SOL     OW27025   0.367   4.315   0.195
 8709SOL    HW127026   0.327   4.243   0.252
 8709SOL    HW227027   0.305   4.394   0.192
 8710SOL     OW27028   1.239   3.442   2.870
 8710SOL    HW127029   1.227   3.505   2.947
 8710SOL    HW227030   1.270   3.494   2.790
 8711SOL     OW27031   0.170   0.544   2.708
 8711SOL    HW127032   0.127   0.626   2.747
 8711SOL    HW227033   0.269   0.558   2.703
 8712SOL     OW27034   3.531   1.626   4.272
 8712SOL    HW127035   3.431   1.631   4.266
 8712SOL    HW227036   3.571   1.701   4.221
 8713SOL     OW27037   6.825   4.487   3.718
 8713SOL    HW127038   6.852   4.523   3.628
 8713SOL    HW227039   6.725   4.487   3.725
 8714SOL     OW27040   1.458   0.918   6.170
 8714SOL    HW127041   1.552   0.928   6.135
 8714SOL    HW227042   1.393   0.943   6.099
 8715SOL     OW27043   5.664   1.006   1.027
 8715SOL    HW127044   5.659   1.021   0.929
 8715SOL    HW227045   5.702   0.915   1.045
 8716SOL     OW27046   0.492   1.567   1.598
 8716SOL    HW127047   0.521   1.540   1.690
 8716SOL    HW227048   0.549   1.520   1.531
 8717SOL     OW27049   4.159   3.676   2.060
 8717SOL    HW127050   4.127   3.613   2.130
 8717SOL    HW227051   4.227   3.739   2.099
 8718SOL     OW27052   6.777   2.635   4.808
 8718SOL    HW127053   6.800   2.682   4.893
 8718SOL    HW227054   6.761   2.702   4.736
 8719SOL     OW27055   1.468   0.527   5.581
 8719SOL    HW127056   1.555   0.529   5.533
 8719SOL    HW227057   1.418   0.612   5.564
 8720SOL     OW27058   6.482   5.348   4.894
 8720SOL    HW127059   6.575   5.381   4.881
 8720SOL    HW227060   6.427   5.371   4.814
 8721SOL     OW27061   6.145   2.164   4.604
 8721SOL    HW127062   6.166   2.153   4.701
 8721SOL    HW227063   6.227   2.146   4.549
 8722SOL     OW27064   3.536   1.504   0.487
 8722SOL    HW127065   3.536   1.412   0.448
 8722SOL    HW227066   3.570   1.501   0.581
 8723SOL     OW27067   6.313   5.446   0.798
 8723SOL    HW127068   6.249   5.501   0.744
 8723SOL    HW227069   6.336   5.495   0.883
 8724SOL     OW27070   5.610   0.114   5.674
 8724SOL    HW127071   5.650   0.163   5.751
 8724SOL    HW227072   5.584   0.180   5.603
 8725SOL     OW27073   2.081   0.405   0.314
 8725SOL    HW127074   2.102   0.496   0.279
 8725SOL    HW227075   2.129   0.336   0.259
 8726SOL     OW27076   5.829   0.053   1.341
 8726SOL    HW127077   5.879   6.989   1.368
 8726SOL    HW227078   5.747   0.028   1.291
 8727SOL     OW27079   6.714   6.482   1.653
 8727SOL    HW127080   6.622   6.522   1.653
 8727SOL    HW227081   6.707   6.382   1.643
 8728SOL     OW27082   3.198   6.885   5.441
 8728SOL    HW127083   3.166   6.790   5.441
 8728SOL    HW227084   3.292   6.888   5.473
 8729SOL     OW27085   4.375   5.607   3.191
 8729SOL    HW127086   4.402   5.613   3.287
 8729SOL    HW227087   4.415   5.526   3.149
 8730SOL     OW27088   6.880   5.727   2.723
 8730SOL    HW127089   6.871   5.655   2.655
 8730SOL    HW227090   6.921   5.808   2.680
 8731SOL     OW27091   1.508   2.339   3.262
 8731SOL    HW127092   1.420   2.335   3.216
 8731SOL    HW227093   1.494   2.329   3.361
 8732SOL     OW27094   5.244   4.173   1.846
 8732SOL    HW127095   5.239   4.232   1.927
 8732SOL    HW227096   5.338   4.139   1.836
 8733SOL     OW27097   0.638   6.421   2.590
 8733SOL    HW127098   0.591   6.488   2.648
 8733SOL    HW227099   0.591   6.416   2.501
 8734SOL     OW27100   0.498   4.909   1.162
 8734SOL    HW127101   0.530   4.965   1.238
 8734SOL    HW227102   0.401   4.925   1.146
 8735SOL     OW27103   0.451   2.030   0.241
 8735SOL    HW127104   0.360   2.060   0.212
 8735SOL    HW227105   0.444   1.942   0.288
 8736SOL     OW27106   1.143   6.185   0.117
 8736SOL    HW127107   1.105   6.236   0.194
 8736SOL    HW227108   1.233   6.221   0.095
 8737SOL     OW27109   3.491   6.137   5.734
 8737SOL    HW127110   3.525   6.089   5.815
 8737SOL    HW227111   3.405   6.183   5.756
 8738SOL     OW27112   1.495   4.144   4.150
 8738SOL    HW127113   1.396   4.134   4.155
 8738SOL    HW227114   1.537   4.101   4.230
 8739SOL     OW27115   6.750   3.940   5.949
 8739SOL    HW127116   6.797   4.029   5.952
 8739SOL    HW227117   6.818   3.867   5.951
 8740SOL     OW27118   3.220   0.723   6.100
 8740SOL    HW127119   3.316   0.747   6.088
 8740SOL    HW227120   3.211   0.624   6.112
 8741SOL     OW27121   1.493   2.504   2.115
 8741SOL    HW127122   1.459   2.420   2.074
 8741SOL    HW227123   1.581   2.488   2.158
 8742SOL     OW27124   4.752   6.624   1.274
 8742SOL    HW127125   4.707   6.562   1.210
 8742SOL    HW227126   4.731   6.596   1.368
 8743SOL     OW27127   2.271   5.544   1.977
 8743SOL    HW127128   2.212   5.519   1.900
 8743SOL    HW227129   2.365   5.556   1.945
 8744SOL     OW27130   4.508   2.721   6.627
 8744SOL    HW127131   4.411   2.742   6.641
 8744SOL    HW227132   4.518   2.623   6.610
 8745SOL     OW27133   6.098   2.166   5.122
 8745SOL    HW127134   6.003   2.150   5.150
 8745SOL    HW227135   6.157   2.164   5.202
 8746SOL     OW27136   4.913   4.369   5.786
 8746SOL    HW127137   4.980   4.299   5.760
 8746SOL    HW227138   4.961   4.455   5.805
 8747SOL     OW27139   0.727   2.650   3.583
 8747SOL    HW127140   0.628   2.638   3.572
 8747SOL    HW227141   0.752   2.743   3.559
 8748SOL     OW27142   1.220   0.371   6.810
 8748SOL    HW127143   1.219   0.448   6.746
 8748SOL    HW227144   1.141   0.312   6.792
 8749SOL     OW27145   3.346   1.064   3.939
 8749SOL    HW127146   3.376   0.973   3.967
 8749SOL    HW227147   3.394   1.090   3.855
 8750SOL     OW27148   2.052   2.255   5.199
 8750SOL    HW127149   2.026   2.281   5.106
 8750SOL    HW227150   1.991   2.183   5.232
 8751SOL     OW27151   0.143   6.946   2.151
 8751SOL    HW127152   0.207   0.004   2.143
 8751SOL    HW227153   0.178   6.880   2.217
 8752SOL     OW27154   2.541   3.721   6.484
 8752SOL    HW127155   2.623   3.777   6.501
 8752SOL    HW227156   2.466   3.781   6.454
 8753SOL     OW27157   5.280   1.662   5.002
 8753SOL    HW127158   5.319   1.570   4.989
 8753SOL    HW227159   5.342   1.716   5.059
 8754SOL     OW27160   0.538   2.023   5.925
 8754SOL    HW127161   0.458   2.059   5.975
 8754SOL    HW227162   0.619   2.031   5.982
 8755SOL     OW27163   2.207   0.710   0.341
 8755SOL    HW127164   2.247   0.630   0.385
 8755SOL    HW227165   2.124   0.737   0.392
 8756SOL     OW27166   2.124   3.164   3.684
 8756SOL    HW127167   2.038   3.150   3.635
 8756SOL    HW227168   2.182   3.084   3.673
 8757SOL     OW27169   4.541   6.425   4.974
 8757SOL    HW127170   4.529   6.465   4.884
 8757SOL    HW227171   4.616   6.470   5.022
 8758SOL     OW27172   5.193   6.692   2.041
 8758SOL    HW127173   5.224   6.640   2.121
 8758SOL    HW227174   5.109   6.741   2.065
 8759SOL     OW27175   5.026   0.711   5.951
 8759SOL    HW127176   5.017   0.778   6.024
 8759SOL    HW227177   5.002   0.754   5.863
 8760SOL     OW27178   1.778   1.498   4.613
 8760SOL    HW127179   1.814   1.591   4.619
 8760SOL    HW227180   1.828   1.448   4.543
 8761SOL     OW27181   5.227   0.881   0.059
 8761SOL    HW127182   5.149   0.933   0.094
 8761SOL    HW227183   5.242   0.903   6.981
 8762SOL     OW27184   1.075   3.407   1.423
 8762SOL    HW127185   1.138   3.372   1.492
 8762SOL    HW227186   1.047   3.332   1.363
 8763SOL     OW27187   6.387   6.112   5.478
 8763SOL    HW127188   6.484   6.089   5.475
 8763SOL    HW227189   6.346   6.099   5.388
 8764SOL     OW27190   4.947   1.549   3.946
 8764SOL    HW127191   4.938   1.573   4.042
 8764SOL    HW227192   4.878   1.481   3.922
 8765SOL     OW27193   5.506   6.839   4.806
 8765SOL    HW127194   5.459   6.912   4.757
 8765SOL    HW227195   5.566   6.879   4.876
 8766SOL     OW27196   3.159   4.887   3.581
 8766SOL    HW127197   3.194   4.926   3.667
 8766SOL    HW227198   3.212   4.805   3.558
 8767SOL     OW27199   4.389   1.362   3.097
 8767SOL    HW127200   4.373   1.264   3.086
 8767SOL    HW227201   4.308   1.405   3.138
 8768SOL     OW27202   1.500   2.799   0.487
 8768SOL    HW127203   1.450   2.857   0.552
 8768SOL    HW227204   1.472   2.704   0.500
 8769SOL     OW27205   0.794   0.175   5.692
 8769SOL    HW127206   0.777   0.089   5.740
 8769SOL    HW227207   0.842   0.156   5.606
 8770SOL     OW27208   5.069   4.378   1.690
 8770SOL    HW127209   5.012   4.317   1.744
 8770SOL    HW227210   5.162   4.377   1.726
 8771SOL     OW27211   1.753   1.434   6.730
 8771SOL    HW127212   1.822   1.387   6.786
 8771SOL    HW227213   1.663   1.398   6.753
 8772SOL     OW27214   6.313   1.090   6.743
 8772SOL    HW127215   6.337   1.139   6.659
 8772SOL    HW227216   6.297   0.994   6.721
 8773SOL     OW27217   3.691   1.990   3.230
 8773SOL    HW127218   3.612   1.971   3.288
 8773SOL    HW227219   3.677   1.949   3.140
 8774SOL     OW27220   1.155   1.683   0.853
 8774SOL    HW127221   1.085   1.616   0.877
 8774SOL    HW227222   1.241   1.636   0.834
 8775SOL     OW27223   5.903   6.804   3.273
 8775SOL    HW127224   5.880   6.897   3.247
 8775SOL    HW227225   5.997   6.784   3.246
 8776SOL     OW27226   3.421   3.361   4.916
 8776SOL    HW127227   3.414   3.390   5.011
 8776SOL    HW227228   3.438   3.262   4.912
 8777SOL     OW27229   6.585   4.926   1.637
 8777SOL    HW127230   6.663   4.890   1.586
 8777SOL    HW227231   6.509   4.861   1.632
 8778SOL     OW27232   0.091   1.972   3.205
 8778SOL    HW127233   0.152   1.964   3.127
 8778SOL    HW227234   0.046   1.885   3.222
 8779SOL     OW27235   1.846   4.302   1.621
 8779SOL    HW127236   1.875   4.232   1.554
 8779SOL    HW227237   1.755   4.336   1.596
 8780SOL     OW27238   1.058   5.824   4.074
 8780SOL    HW127239   1.131   5.755   4.070
 8780SOL    HW227240   1.075   5.895   4.006
 8781SOL     OW27241   0.228   1.753   2.998
 8781SOL    HW127242   0.170   1.676   3.026
 8781SOL    HW227243   0.279   1.729   2.916
 8782SOL     OW27244   4.366   1.500   2.281
 8782SOL    HW127245   4.337   1.534   2.371
 8782SOL    HW227246   4.290   1.450   2.239
 8783SOL     OW27247   5.842   3.862   4.232
 8783SOL    HW127248   5.761   3.907   4.269
 8783SOL    HW227249   5.923   3.918   4.251
 8784SOL     OW27250   5.665   5.298   5.748
 8784SOL    HW127251   5.640   5.391   5.723
 8784SOL    HW227252   5.587   5.253   5.791
 8785SOL     OW27253   5.541   4.203   6.490
 8785SOL    HW127254   5.621   4.236   6.439
 8785SOL    HW227255   5.542   4.103   6.492
 8786SOL     OW27256   1.406   6.385   6.660
 8786SOL    HW127257   1.487   6.330   6.640
 8786SOL    HW227258   1.434   6.474   6.694
 8787SOL     OW27259   2.089   3.228   1.955
 8787SOL    HW127260   2.131   3.318   1.970
 8787SOL    HW227261   2.066   3.218   1.858
 8788SOL     OW27262   6.683   1.991   5.278
 8788SOL    HW127263   6.685   1.892   5.292
 8788SOL    HW227264   6.747   2.016   5.205
 8789SOL     OW27265   6.765   0.350   6.099
 8789SOL    HW127266   6.740   0.253   6.090
 8789SOL    HW227267   6.682   0.405   6.097
 8790SOL     OW27268   0.235   1.917   6.780
 8790SOL    HW127269   0.256   1.880   6.871
 8790SOL    HW227270   0.230   1.842   6.714
 8791SOL     OW27271   4.848   6.881   5.195
 8791SOL    HW127272   4.750   6.861   5.198
 8791SOL    HW227273   4.869   6.958   5.255
 8792SOL     OW27274   4.193   0.026   3.135
 8792SOL    HW127275   4.128   0.034   3.060
 8792SOL    HW227276   4.212   6.948   3.153
 8793SOL     OW27277   2.527   6.165   3.705
 8793SOL    HW127278   2.541   6.070   3.731
 8793SOL    HW227279   2.486   6.214   3.782
 8794SOL     OW27280   2.171   6.842   2.778
 8794SOL    HW127281   2.214   6.927   2.809
 8794SOL    HW227282   2.135   6.792   2.857
 8795SOL     OW27283   1.524   6.519   5.511
 8795SOL    HW127284   1.578   6.452   5.563
 8795SOL    HW227285   1.444   6.546   5.565
 8796SOL     OW27286   4.534   1.946   5.350
 8796SOL    HW127287   4.516   1.852   5.322
 8796SOL    HW227288   4.449   1.997   5.353
 8797SOL     OW27289   0.761   6.877   6.190
 8797SOL    HW127290   0.822   6.807   6.152
 8797SOL    HW227291   0.671   6.837   6.209
 8798SOL     OW27292   5.718   3.461   5.011
 8798SOL    HW127293   5.618   3.460   5.005
 8798SOL    HW227294   5.753   3.370   4.993
 8799SOL     OW27295   2.818   4.688   3.035
 8799SOL    HW127296   2.899   4.746   3.025
 8799SOL    HW227297   2.796   4.646   2.947
 8800SOL     OW27298   4.600   4.637   5.947
 8800SOL    HW127299   4.522   4.699   5.933
 8800SOL    HW227300   4.575   4.545   5.916
 8801SOL     OW27301   2.172   1.273   4.306
 8801SOL    HW127302   2.218   1.243   4.389
 8801SOL    HW227303   2.076   1.292   4.326
 8802SOL     OW27304   1.557   6.298   2.480
 8802SOL    HW127305   1.591   6.254   2.563
 8802SOL    HW227306   1.460   6.279   2.469
 8803SOL     OW27307   2.455   6.073   6.933
 8803SOL    HW127308   2.438   6.051   6.837
 8803SOL    HW227309   2.512   6.155   6.939
 8804SOL     OW27310   4.225   0.181   0.886
 8804SOL    HW127311   4.283   0.191   0.805
 8804SOL    HW227312   4.134   0.217   0.867
 8805SOL     OW27313   1.013   0.076   3.152
 8805SOL    HW127314   1.003   0.168   3.191
 8805SOL    HW227315   1.083   0.077   3.081
 8806SOL     OW27316   1.509   5.566   0.529
 8806SOL    HW127317   1.606   5.542   0.534
 8806SOL    HW227318   1.499   5.655   0.485
 8807SOL     OW27319   6.753   6.210   6.013
 8807SOL    HW127320   6.731   6.274   6.086
 8807SOL    HW227321   6.813   6.138   6.048
 8808SOL     OW27322   5.831   0.969   0.393
 8808SOL    HW127323   5.887   0.920   0.325
 8808SOL    HW227324   5.778   0.903   0.446
 8809SOL     OW27325   5.349   3.768   1.645
 8809SOL    HW127326   5.318   3.819   1.725
 8809SOL    HW227327   5.322   3.672   1.654
 8810SOL     OW27328   4.789   1.781   3.812
 8810SOL    HW127329   4.712   1.818   3.865
 8810SOL    HW227330   4.838   1.713   3.867
 8811SOL     OW27331   2.510   1.577   3.466
 8811SOL    HW127332   2.536   1.556   3.372
 8811SOL    HW227333   2.463   1.499   3.506
 8812SOL     OW27334   1.034   1.056   0.753
 8812SOL    HW127335   0.942   1.089   0.774
 8812SOL    HW227336   1.081   1.122   0.695
 8813SOL     OW27337   0.931   6.254   1.887
 8813SOL    HW127338   0.911   6.208   1.973
 8813SOL    HW227339   0.873   6.216   1.815
 8814SOL     OW27340   6.702   0.773   6.870
 8814SOL    HW127341   6.794   0.737   6.887
 8814SOL    HW227342   6.646   0.702   6.828
 8815SOL     OW27343   0.295   5.788   2.083
 8815SOL    HW127344   0.357   5.797   2.005
 8815SOL    HW227345   0.274   5.692   2.098
 8816SOL     OW27346   1.215   5.897   1.041
 8816SOL    HW127347   1.288   5.888   1.109
 8816SOL    HW227348   1.242   5.849   0.957
 8817SOL     OW27349   1.559   5.896   5.225
 8817SOL    HW127350   1.485   5.905   5.293
 8817SOL    HW227351   1.528   5.838   5.150
 8818SOL     OW27352   6.933   4.302   4.089
 8818SOL    HW127353   6.969   4.376   4.032
 8818SOL    HW227354   6.883   4.340   4.166
 8819SOL     OW27355   4.624   6.554   4.156
 8819SOL    HW127356   4.566   6.478   4.185
 8819SOL    HW227357   4.710   6.518   4.121
 8820SOL     OW27358   1.906   3.052   3.994
 8820SOL    HW127359   1.825   3.093   4.036
 8820SOL    HW227360   1.891   2.954   3.980
 8821SOL     OW27361   2.584   0.639   6.588
 8821SOL    HW127362   2.498   0.686   6.569
 8821SOL    HW227363   2.614   0.660   6.681
 8822SOL     OW27364   0.751   1.896   3.353
 8822SOL    HW127365   0.748   1.915   3.451
 8822SOL    HW227366   0.701   1.811   3.334
 8823SOL     OW27367   1.987   6.961   0.714
 8823SOL    HW127368   1.977   0.020   0.652
 8823SOL    HW227369   2.051   6.984   0.788
 8824SOL     OW27370   3.379   3.772   0.776
 8824SOL    HW127371   3.398   3.692   0.719
 8824SOL    HW227372   3.321   3.835   0.725
 8825SOL     OW27373   1.445   1.000   2.242
 8825SOL    HW127374   1.508   1.057   2.293
 8825SOL    HW227375   1.492   0.960   2.163
 8826SOL     OW27376   5.782   0.731   6.780
 8826SOL    HW127377   5.848   0.741   6.706
 8826SOL    HW227378   5.721   0.811   6.782
 8827SOL     OW27379   2.459   1.520   2.807
 8827SOL    HW127380   2.384   1.502   2.871
 8827SOL    HW227381   2.520   1.588   2.846
 8828SOL     OW27382   2.944   6.219   3.348
 8828SOL    HW127383   2.999   6.287   3.300
 8828SOL    HW227384   2.987   6.129   3.339
 8829SOL     OW27385   0.363   2.977   6.510
 8829SOL    HW127386   0.428   3.030   6.457
 8829SOL    HW227387   0.372   3.001   6.607
 8830SOL     OW27388   0.670   1.059   0.327
 8830SOL    HW127389   0.661   1.072   0.228
 8830SOL    HW227390   0.714   0.971   0.345
 8831SOL     OW27391   5.991   0.710   2.784
 8831SOL    HW127392   6.000   0.631   2.724
 8831SOL    HW227393   6.045   0.695   2.867
 8832SOL     OW27394   0.130   0.312   2.079
 8832SOL    HW127395   0.179   0.378   2.137
 8832SOL    HW227396   0.089   0.360   2.001
 8833SOL     OW27397   2.850   5.440   4.474
 8833SOL    HW127398   2.833   5.509   4.404
 8833SOL    HW227399   2.775   5.441   4.541
 8834SOL     OW27400   6.181   2.807   4.676
 8834SOL    HW127401   6.244   2.863   4.623
 8834SOL    HW227402   6.156   2.856   4.760
 8835SOL     OW27403   6.564   6.881   5.619
 8835SOL    HW127404   6.550   6.783   5.636
 8835SOL    HW227405   6.638   6.893   5.553
 8836SOL     OW27406   4.307   1.171   0.371
 8836SOL    HW127407   4.328   1.237   0.442
 8836SOL    HW227408   4.221   1.197   0.326
 8837SOL     OW27409   0.637   0.662   1.848
 8837SOL    HW127410   0.674   0.587   1.793
 8837SOL    HW227411   0.606   0.735   1.787
 8838SOL     OW27412   2.860   5.173   3.303
 8838SOL    HW127413   2.899   5.087   3.335
 8838SOL    HW227414   2.777   5.193   3.355
 8839SOL     OW27415   6.372   6.369   3.262
 8839SOL    HW127416   6.459   6.383   3.308
 8839SOL    HW227417   6.298   6.405   3.320
 8840SOL     OW27418   5.315   2.701   2.406
 8840SOL    HW127419   5.410   2.689   2.433
 8840SOL    HW227420   5.256   2.693   2.486
 8841SOL     OW27421   1.091   1.937   5.292
 8841SOL    HW127422   1.127   2.010   5.349
 8841SOL    HW227423   0.991   1.945   5.287
 8842SOL     OW27424   2.557   2.605   1.658
 8842SOL    HW127425   2.507   2.525   1.689
 8842SOL    HW227426   2.550   2.678   1.727
 8843SOL     OW27427   1.214   2.894   5.425
 8843SOL    HW127428   1.284   2.928   5.362
 8843SOL    HW227429   1.138   2.857   5.372
 8844SOL     OW27430   6.264   1.055   5.868
 8844SOL    HW127431   6.231   0.975   5.817
 8844SOL    HW227432   6.327   1.107   5.811
 8845SOL     OW27433   4.638   3.928   0.196
 8845SOL    HW127434   4.683   3.847   0.233
 8845SOL    HW227435   4.669   3.944   0.102
 8846SOL     OW27436   1.837   4.696   4.422
 8846SOL    HW127437   1.897   4.766   4.383
 8846SOL    HW227438   1.742   4.718   4.399
 8847SOL     OW27439   2.583   6.941   2.770
 8847SOL    HW127440   2.601   6.876   2.696
 8847SOL    HW227441   2.600   6.897   2.858
 8848SOL     OW27442   1.880   0.571   2.051
 8848SOL    HW127443   1.875   0.657   2.102
 8848SOL    HW227444   1.976   0.546   2.039
 8849SOL     OW27445   2.113   6.205   2.211
 8849SOL    HW127446   2.034   6.231   2.267
 8849SOL    HW227447   2.139   6.111   2.232
 8850SOL     OW27448   3.149   2.336   6.605
 8850SOL    HW127449   3.246   2.361   6.610
 8850SOL    HW227450   3.102   2.395   6.539
 8851SOL     OW27451   1.470   4.666   2.339
 8851SOL    HW127452   1.567   4.650   2.357
 8851SOL    HW227453   1.453   4.764   2.330
 8852SOL     OW27454   1.496   1.232   6.223
 8852SOL    HW127455   1.419   1.296   6.218
 8852SOL    HW227456   1.464   1.145   6.259
 8853SOL     OW27457   3.299   0.887   1.316
 8853SOL    HW127458   3.317   0.845   1.405
 8853SOL    HW227459   3.383   0.929   1.282
 8854SOL     OW27460   1.516   2.963   4.612
 8854SOL    HW127461   1.427   2.942   4.652
 8854SOL    HW227462   1.572   3.011   4.679
 8855SOL     OW27463   5.694   5.009   1.531
 8855SOL    HW127464   5.693   4.920   1.484
 8855SOL    HW227465   5.608   5.022   1.580
 8856SOL     OW27466   0.224   5.166   6.632
 8856SOL    HW127467   0.295   5.097   6.645
 8856SOL    HW227468   0.207   5.180   6.535
 8857SOL     OW27469   6.448   1.437   5.254
 8857SOL    HW127470   6.406   1.516   5.298
 8857SOL    HW227471   6.378   1.368   5.236
 8858SOL     OW27472   6.132   4.942   4.918
 8858SOL    HW127473   6.216   4.963   4.868
 8858SOL    HW227474   6.104   4.848   4.899
 8859SOL     OW27475   0.374   1.086   3.681
 8859SOL    HW127476   0.417   1.000   3.654
 8859SOL    HW227477   0.275   1.079   3.671
 8860SOL     OW27478   6.490   2.561   1.730
 8860SOL    HW127479   6.440   2.475   1.733
 8860SOL    HW227480   6.485   2.606   1.820
 8861SOL     OW27481   4.402   1.828   1.542
 8861SOL    HW127482   4.437   1.825   1.635
 8861SOL    HW227483   4.475   1.803   1.478
 8862SOL     OW27484   4.623   5.024   5.210
 8862SOL    HW127485   4.698   5.028   5.144
 8862SOL    HW227486   4.658   4.993   5.298
 8863SOL     OW27487   1.868   4.343   3.771
 8863SOL    HW127488   1.920   4.270   3.815
 8863SOL    HW227489   1.907   4.361   3.680
 8864SOL     OW27490   5.942   2.064   5.992
 8864SOL    HW127491   5.955   2.009   6.075
 8864SOL    HW227492   5.887   2.012   5.926
 8865SOL     OW27493   2.174   1.689   6.519
 8865SOL    HW127494   2.075   1.679   6.512
 8865SOL    HW227495   2.197   1.782   6.548
 8866SOL     OW27496   5.846   6.353   1.847
 8866SOL    HW127497   5.847   6.329   1.945
 8866SOL    HW227498   5.931   6.400   1.823
 8867SOL     OW27499   6.445   3.652   2.764
 8867SOL    HW127500   6.509   3.633   2.838
 8867SOL    HW227501   6.401   3.741   2.780
 8868SOL     OW27502   6.991   3.742   2.953
 8868SOL    HW127503   0.014   3.652   2.965
 8868SOL    HW227504   6.909   3.734   2.896
 8869SOL     OW27505   3.259   6.150   3.581
 8869SOL    HW127506   3.320   6.079   3.615
 8869SOL    HW227507   3.286   6.176   3.488
 8870SOL     OW27508   1.672   6.933   2.008
 8870SOL    HW127509   1.717   6.915   1.921
 8870SOL    HW227510   1.739   6.965   2.075
 8871SOL     OW27511   0.721   0.872   3.015
 8871SOL    HW127512   0.654   0.861   2.942
 8871SOL    HW227513   0.743   0.783   3.055
 8872SOL     OW27514   0.314   4.258   5.108
 8872SOL    HW127515   0.341   4.266   5.012
 8872SOL    HW227516   0.351   4.335   5.160
 8873SOL     OW27517   1.441   0.666   2.106
 8873SOL    HW127518   1.411   0.649   2.200
 8873SOL    HW227519   1.528   0.619   2.090
 8874SOL     OW27520   2.229   5.505   0.274
 8874SOL    HW127521   2.314   5.491   0.223
 8874SOL    HW227522   2.191   5.417   0.301
 8875SOL     OW27523   0.002   3.384   3.360
 8875SOL    HW127524   0.049   3.296   3.361
 8875SOL    HW227525   6.984   3.403   3.451
 8876SOL     OW27526   3.600   0.690   6.533
 8876SOL    HW127527   3.654   0.691   6.449
 8876SOL    HW227528   3.660   0.668   6.611
 8877SOL     OW27529   1.765   3.650   1.045
 8877SOL    HW127530   1.773   3.587   1.122
 8877SOL    HW227531   1.821   3.731   1.061
 8878SOL     OW27532   3.786   4.899   0.959
 8878SOL    HW127533   3.826   4.967   0.898
 8878SOL    HW227534   3.744   4.826   0.904
 8879SOL     OW27535   6.429   4.554   2.907
 8879SOL    HW127536   6.444   4.611   2.987
 8879SOL    HW227537   6.478   4.468   2.917
 8880SOL     OW27538   4.742   6.701   3.582
 8880SOL    HW127539   4.774   6.790   3.549
 8880SOL    HW227540   4.684   6.715   3.663
 8881SOL     OW27541   3.956   4.986   4.147
 8881SOL    HW127542   3.915   5.070   4.180
 8881SOL    HW227543   3.978   4.926   4.224
 8882SOL     OW27544   4.104   0.531   1.045
 8882SOL    HW127545   4.204   0.542   1.044
 8882SOL    HW227546   4.061   0.620   1.026
 8883SOL     OW27547   0.435   5.971   4.885
 8883SOL    HW127548   0.522   5.922   4.887
 8883SOL    HW227549   0.393   5.969   4.976
 8884SOL     OW27550   5.345   3.931   4.888
 8884SOL    HW127551   5.414   3.861   4.901
 8884SOL    HW227552   5.347   3.963   4.794
 8885SOL     OW27553   5.828   5.709   0.602
 8885SOL    HW127554   5.750   5.745   0.654
 8885SOL    HW227555   5.798   5.689   0.509
 8886SOL     OW27556   3.228   6.051   0.094
 8886SOL    HW127557   3.223   6.061   0.194
 8886SOL    HW227558   3.158   6.108   0.051
 8887SOL     OW27559   4.948   1.879   1.338
 8887SOL    HW127560   4.949   1.975   1.365
 8887SOL    HW227561   5.016   1.829   1.391
 8888SOL     OW27562   2.328   1.808   3.444
 8888SOL    HW127563   2.399   1.746   3.475
 8888SOL    HW227564   2.350   1.842   3.353
 8889SOL     OW27565   0.181   6.611   5.852
 8889SOL    HW127566   0.200   6.692   5.908
 8889SOL    HW227567   0.264   6.556   5.844
 8890SOL     OW27568   0.285   0.003   6.681
 8890SOL    HW127569   0.333   6.973   6.754
 8890SOL    HW227570   0.296   6.972   6.595
 8891SOL     OW27571   5.986   4.681   6.933
 8891SOL    HW127572   6.022   4.712   0.002
 8891SOL    HW227573   6.060   4.682   6.865
 8892SOL     OW27574   3.174   5.219   3.487
 8892SOL    HW127575   3.141   5.132   3.524
 8892SOL    HW227576   3.133   5.295   3.538
 8893SOL     OW27577   1.468   4.894   5.114
 8893SOL    HW127578   1.473   4.822   5.184
 8893SOL    HW227579   1.560   4.918   5.084
 8894SOL     OW27580   4.388   2.040   0.314
 8894SOL    HW127581   4.304   2.014   0.363
 8894SOL    HW227582   4.369   2.045   0.216
 8895SOL     OW27583   0.757   3.981   0.874
 8895SOL    HW127584   0.729   4.050   0.807
 8895SOL    HW227585   0.701   3.898   0.861
 8896SOL     OW27586   0.090   2.220   4.371
 8896SOL    HW127587   0.056   2.176   4.288
 8896SOL    HW227588   0.025   2.206   4.445
 8897SOL     OW27589   2.209   3.976   3.624
 8897SOL    HW127590   2.137   3.956   3.690
 8897SOL    HW227591   2.245   3.891   3.587
 8898SOL     OW27592   4.863   3.827   3.069
 8898SOL    HW127593   4.874   3.747   3.127
 8898SOL    HW227594   4.823   3.800   2.982
 8899SOL     OW27595   6.805   3.627   6.218
 8899SOL    HW127596   6.823   3.528   6.215
 8899SOL    HW227597   6.885   3.677   6.186
 8900SOL     OW27598   5.478   2.640   4.150
 8900SOL    HW127599   5.564   2.692   4.147
 8900SOL    HW227600   5.442   2.641   4.244
 8901SOL     OW27601   0.999   2.465   3.924
 8901SOL    HW127602   1.074   2.528   3.907
 8901SOL    HW227603   0.928   2.511   3.978
 8902SOL     OW27604   1.212   4.540   6.906
 8902SOL    HW127605   1.204   4.473   6.980
 8902SOL    HW227606   1.144   4.521   6.836
 8903SOL     OW27607   1.275   0.655   4.652
 8903SOL    HW127608   1.189   0.669   4.604
 8903SOL    HW227609   1.327   0.741   4.654
 8904SOL     OW27610   0.610   1.122   2.730
 8904SOL    HW127611   0.607   1.029   2.693
 8904SOL    HW227612   0.679   1.127   2.803
 8905SOL     OW27613   1.680   3.476   2.078
 8905SOL    HW127614   1.635   3.396   2.118
 8905SOL    HW227615   1.660   3.480   1.980
 8906SOL     OW27616   0.118   0.152   0.835
 8906SOL    HW127617   0.151   0.234   0.788
 8906SOL    HW227618   0.072   0.178   0.919
 8907SOL     OW27619   3.775   2.862   5.051
 8907SOL    HW127620   3.777   2.904   4.960
 8907SOL    HW227621   3.680   2.843   5.076
 8908SOL     OW27622   1.567   6.136   0.455
 8908SOL    HW127623   1.590   6.115   0.550
 8908SOL    HW227624   1.468   6.145   0.446
 8909SOL     OW27625   2.814   1.141   6.847
 8909SOL    HW127626   2.913   1.154   6.842
 8909SOL    HW227627   2.780   1.176   6.934
 8910SOL     OW27628   1.729   2.205   4.259
 8910SOL    HW127629   1.798   2.252   4.203
 8910SOL    HW227630   1.639   2.218   4.219
 8911SOL     OW27631   4.565   1.889   4.036
 8911SOL    HW127632   4.521   1.973   4.066
 8911SOL    HW227633   4.510   1.810   4.064
 8912SOL     OW27634   3.516   3.950   4.751
 8912SOL    HW127635   3.465   4.030   4.783
 8912SOL    HW227636   3.597   3.980   4.702
 8913SOL     OW27637   4.792   5.933   6.686
 8913SOL    HW127638   4.812   5.915   6.782
 8913SOL    HW227639   4.778   6.031   6.673
 8914SOL     OW27640   5.095   6.610   5.769
 8914SOL    HW127641   5.166   6.680   5.759
 8914SOL    HW227642   5.113   6.535   5.706
 8915SOL     OW27643   0.602   1.406   3.367
 8915SOL    HW127644   0.643   1.353   3.442
 8915SOL    HW227645   0.547   1.346   3.310
 8916SOL     OW27646   5.270   1.860   6.588
 8916SOL    HW127647   5.281   1.785   6.523
 8916SOL    HW227648   5.346   1.860   6.652
 8917SOL     OW27649   5.911   1.592   0.140
 8917SOL    HW127650   5.966   1.663   0.097
 8917SOL    HW227651   5.869   1.535   0.069
 8918SOL     OW27652   1.214   4.726   1.573
 8918SOL    HW127653   1.121   4.710   1.606
 8918SOL    HW227654   1.267   4.641   1.581
 8919SOL     OW27655   5.926   4.141   6.630
 8919SOL    HW127656   5.991   4.216   6.633
 8919SOL    HW227657   5.895   4.127   6.535
 8920SOL     OW27658   0.106   1.073   0.087
 8920SOL    HW127659   0.128   0.985   0.129
 8920SOL    HW227660   0.009   1.093   0.101
 8921SOL     OW27661   1.099   2.557   1.077
 8921SOL    HW127662   1.197   2.574   1.073
 8921SOL    HW227663   1.070   2.508   0.995
 8922SOL     OW27664   3.454   0.515   4.068
 8922SOL    HW127665   3.445   0.432   4.123
 8922SOL    HW227666   3.410   0.501   3.980
 8923SOL     OW27667   1.795   2.129   5.173
 8923SOL    HW127668   1.832   2.040   5.144
 8923SOL    HW227669   1.750   2.119   5.261
 8924SOL     OW27670   5.106   5.154   4.652
 8924SOL    HW127671   5.010   5.128   4.665
 8924SOL    HW227672   5.146   5.099   4.579
 8925SOL     OW27673   0.979   0.701   3.398
 8925SOL    HW127674   1.019   0.621   3.354
 8925SOL    HW227675   1.046   0.775   3.402
 8926SOL     OW27676   6.743   3.272   5.419
 8926SOL    HW127677   6.796   3.231   5.493
 8926SOL    HW227678   6.784   3.249   5.331
 8927SOL     OW27679   6.893   2.054   6.046
 8927SOL    HW127680   6.986   2.055   6.083
 8927SOL    HW227681   6.831   2.095   6.112
 8928SOL     OW27682   1.979   6.910   5.320
 8928SOL    HW127683   2.043   6.930   5.394
 8928SOL    HW227684   2.029   6.899   5.234
 8929SOL     OW27685   0.141   2.490   5.020
 8929SOL    HW127686   0.125   2.530   5.110
 8929SOL    HW227687   0.069   2.424   4.999
 8930SOL     OW27688   1.448   4.437   3.663
 8930SOL    HW127689   1.410   4.489   3.740
 8930SOL    HW227690   1.380   4.433   3.589
 8931SOL     OW27691   3.777   3.252   1.562
 8931SOL    HW127692   3.752   3.349   1.567
 8931SOL    HW227693   3.695   3.196   1.575
 8932SOL     OW27694   6.849   2.312   2.948
 8932SOL    HW127695   6.842   2.253   2.867
 8932SOL    HW227696   6.788   2.277   3.019
 8933SOL     OW27697   3.603   1.895   6.330
 8933SOL    HW127698   3.543   1.898   6.250
 8933SOL    HW227699   3.698   1.896   6.300
 8934SOL     OW27700   3.037   5.714   4.255
 8934SOL    HW127701   3.074   5.775   4.185
 8934SOL    HW227702   3.111   5.663   4.298
 8935SOL     OW27703   6.832   5.085   1.174
 8935SOL    HW127704   6.831   4.989   1.202
 8935SOL    HW227705   6.927   5.114   1.158
 8936SOL     OW27706   2.080   3.033   0.753
 8936SOL    HW127707   2.170   3.019   0.794
 8936SOL    HW227708   2.063   2.962   0.686
 8937SOL     OW27709   0.062   6.143   5.271
 8937SOL    HW127710   7.000   6.106   5.317
 8937SOL    HW227711   0.036   6.225   5.220
 8938SOL     OW27712   6.148   5.125   1.547
 8938SOL    HW127713   6.130   5.029   1.569
 8938SOL    HW227714   6.242   5.134   1.514
 8939SOL     OW27715   5.029   2.139   4.797
 8939SOL    HW127716   4.980   2.099   4.719
 8939SOL    HW227717   5.042   2.237   4.782
 8940SOL     OW27718   6.283   0.642   3.701
 8940SOL    HW127719   6.363   0.668   3.754
 8940SOL    HW227720   6.294   0.673   3.606
 8941SOL     OW27721   5.524   2.030   6.201
 8941SOL    HW127722   5.531   2.041   6.102
 8941SOL    HW227723   5.427   2.023   6.227
 8942SOL     OW27724   0.718   2.363   5.306
 8942SOL    HW127725   0.789   2.332   5.369
 8942SOL    HW227726   0.629   2.327   5.336
 8943SOL     OW27727   4.949   3.210   1.090
 8943SOL    HW127728   4.866   3.215   1.146
 8943SOL    HW227729   4.976   3.302   1.064
 8944SOL     OW27730   4.637   5.830   0.431
 8944SOL    HW127731   4.732   5.827   0.401
 8944SOL    HW227732   4.584   5.760   0.384
 8945SOL     OW27733   2.261   0.668   4.798
 8945SOL    HW127734   2.209   0.598   4.749
 8945SOL    HW227735   2.220   0.682   4.888
 8946SOL     OW27736   3.650   1.937   5.269
 8946SOL    HW127737   3.562   1.892   5.285
 8946SOL    HW227738   3.645   1.990   5.184
 8947SOL     OW27739   3.591   3.528   5.730
 8947SOL    HW127740   3.557   3.488   5.645
 8947SOL    HW227741   3.676   3.578   5.712
 8948SOL     OW27742   5.583   4.750   3.165
 8948SOL    HW127743   5.594   4.755   3.265
 8948SOL    HW227744   5.515   4.818   3.136
 8949SOL     OW27745   1.780   6.604   0.085
 8949SOL    HW127746   1.793   6.564   7.012
 8949SOL    HW227747   1.720   6.684   0.079
 8950SOL     OW27748   5.041   3.050   5.382
 8950SOL    HW127749   4.946   3.071   5.360
 8950SOL    HW227750   5.044   2.982   5.455
 8951SOL     OW27751   1.895   3.036   5.520
 8951SOL    HW127752   1.942   2.949   5.531
 8951SOL    HW227753   1.906   3.069   5.426
 8952SOL     OW27754   1.301   1.401   3.322
 8952SOL    HW127755   1.296   1.418   3.420
 8952SOL    HW227756   1.249   1.471   3.273
 8953SOL     OW27757   1.761   3.315   0.293
 8953SOL    HW127758   1.791   3.376   0.219
 8953SOL    HW227759   1.669   3.282   0.273
 8954SOL     OW27760   0.940   5.910   6.128
 8954SOL    HW127761   0.999   5.919   6.048
 8954SOL    HW227762   0.901   5.999   6.150
 8955SOL     OW27763   0.029   4.579   3.379
 8955SOL    HW127764   0.093   4.555   3.452
 8955SOL    HW227765   0.048   4.524   3.298
 8956SOL     OW27766   0.814   1.116   6.435
 8956SOL    HW127767   0.756   1.197   6.424
 8956SOL    HW227768   0.881   1.113   6.360
 8957SOL     OW27769   2.718   4.704   1.697
 8957SOL    HW127770   2.752   4.655   1.778
 8957SOL    HW227771   2.792   4.755   1.655
 8958SOL     OW27772   1.283   0.166   4.161
 8958SOL    HW127773   1.282   0.207   4.070
 8958SOL    HW227774   1.271   0.067   4.154
 8959SOL     OW27775   1.093   4.830   0.475
 8959SOL    HW127776   1.139   4.887   0.543
 8959SOL    HW227777   1.014   4.878   0.438
 8960SOL     OW27778   4.066   5.498   2.348
 8960SOL    HW127779   4.046   5.589   2.312
 8960SOL    HW227780   3.983   5.443   2.347
 8961SOL     OW27781   1.254   1.733   4.009
 8961SOL    HW127782   1.293   1.722   3.918
 8961SOL    HW227783   1.212   1.823   4.017
 8962SOL     OW27784   5.936   0.599   3.390
 8962SOL    HW127785   5.856   0.652   3.418
 8962SOL    HW227786   5.915   0.502   3.393
 8963SOL     OW27787   5.171   0.281   4.355
 8963SOL    HW127788   5.088   0.263   4.408
 8963SOL    HW227789   5.207   0.371   4.378
 8964SOL     OW27790   4.967   4.659   1.977
 8964SOL    HW127791   4.981   4.755   2.001
 8964SOL    HW227792   4.943   4.607   2.059
 8965SOL     OW27793   1.307   4.988   1.227
 8965SOL    HW127794   1.275   5.035   1.309
 8965SOL    HW227795   1.346   4.899   1.252
 8966SOL     OW27796   1.864   2.547   6.074
 8966SOL    HW127797   1.880   2.478   6.144
 8966SOL    HW227798   1.893   2.636   6.108
 8967SOL     OW27799   3.817   0.133   0.884
 8967SOL    HW127800   3.804   0.084   0.970
 8967SOL    HW227801   3.854   0.070   0.815
 8968SOL     OW27802   5.355   6.053   1.927
 8968SOL    HW127803   5.302   6.047   1.843
 8968SOL    HW227804   5.440   6.000   1.918
 8969SOL     OW27805   5.867   0.896   3.745
 8969SOL    HW127806   5.924   0.969   3.783
 8969SOL    HW227807   5.774   0.903   3.782
 8970SOL     OW27808   3.581   2.465   1.367
 8970SOL    HW127809   3.563   2.550   1.416
 8970SOL    HW227810   3.618   2.486   1.276
 8971SOL     OW27811   3.545   5.651   2.328
 8971SOL    HW127812   3.622   5.604   2.370
 8971SOL    HW227813   3.476   5.671   2.398
 8972SOL     OW27814   5.582   6.241   5.964
 8972SOL    HW127815   5.524   6.160   5.959
 8972SOL    HW227816   5.579   6.278   6.057
 8973SOL     OW27817   1.441   4.626   0.694
 8973SOL    HW127818   1.481   4.708   0.653
 8973SOL    HW227819   1.514   4.567   0.728
 8974SOL     OW27820   1.092   4.026   6.351
 8974SOL    HW127821   0.994   4.023   6.370
 8974SOL    HW227822   1.139   4.077   6.423
 8975SOL     OW27823   2.530   0.290   0.683
 8975SOL    HW127824   2.598   0.234   0.636
 8975SOL    HW227825   2.441   0.279   0.638
 8976SOL     OW27826   1.595   5.201   4.527
 8976SOL    HW127827   1.623   5.219   4.433
 8976SOL    HW227828   1.674   5.169   4.580
 8977SOL     OW27829   5.748   1.223   5.941
 8977SOL    HW127830   5.741   1.236   5.843
 8977SOL    HW227831   5.822   1.159   5.962
 8978SOL     OW27832   5.409   5.926   0.637
 8978SOL    HW127833   5.374   6.019   0.634
 8978SOL    HW227834   5.445   5.900   0.547
 8979SOL     OW27835   1.982   3.715   4.683
 8979SOL    HW127836   1.981   3.660   4.767
 8979SOL    HW227837   1.889   3.724   4.648
 8980SOL     OW27838   3.307   3.533   5.154
 8980SOL    HW127839   3.400   3.566   5.139
 8980SOL    HW227840   3.249   3.610   5.184
 8981SOL     OW27841   3.698   1.616   5.260
 8981SOL    HW127842   3.606   1.627   5.222
 8981SOL    HW227843   3.723   1.519   5.257
 8982SOL     OW27844   2.448   3.345   0.333
 8982SOL    HW127845   2.386   3.272   0.304
 8982SOL    HW227846   2.543   3.315   0.323
 8983SOL     OW27847   3.669   5.744   6.903
 8983SOL    HW127848   3.570   5.741   6.913
 8983SOL    HW227849   3.698   5.676   6.835
 8984SOL     OW27850   2.364   5.943   3.264
 8984SOL    HW127851   2.366   5.855   3.216
 8984SOL    HW227852   2.450   5.955   3.314
 8985SOL     OW27853   3.341   2.398   0.481
 8985SOL    HW127854   3.295   2.316   0.514
 8985SOL    HW227855   3.337   2.401   0.381
 8986SOL     OW27856   3.355   4.914   3.003
 8986SOL    HW127857   3.295   4.895   2.926
 8986SOL    HW227858   3.449   4.891   2.978
 8987SOL     OW27859   5.183   5.930   2.575
 8987SOL    HW127860   5.266   5.966   2.534
 8987SOL    HW227861   5.206   5.880   2.659
 8988SOL     OW27862   0.709   5.776   3.726
 8988SOL    HW127863   0.665   5.690   3.702
 8988SOL    HW227864   0.650   5.852   3.699
 8989SOL     OW27865   4.938   2.897   6.195
 8989SOL    HW127866   5.011   2.839   6.231
 8989SOL    HW227867   4.968   2.992   6.198
 8990SOL     OW27868   1.075   4.925   3.857
 8990SOL    HW127869   1.006   4.909   3.927
 8990SOL    HW227870   1.145   4.987   3.892
 8991SOL     OW27871   1.481   2.635   4.274
 8991SOL    HW127872   1.521   2.560   4.327
 8991SOL    HW227873   1.486   2.719   4.327
 8992SOL     OW27874   5.434   1.653   0.222
 8992SOL    HW127875   5.407   1.716   0.294
 8992SOL    HW227876   5.533   1.660   0.207
 8993SOL     OW27877   4.096   3.131   6.860
 8993SOL    HW127878   4.134   3.179   6.781
 8993SOL    HW227879   4.034   3.193   6.909
 8994SOL     OW27880   1.841   4.609   4.699
 8994SOL    HW127881   1.919   4.557   4.733
 8994SOL    HW227882   1.864   4.649   4.610
 8995SOL     OW27883   6.727   1.705   1.798
 8995SOL    HW127884   6.787   1.709   1.718
 8995SOL    HW227885   6.762   1.636   1.862
 8996SOL     OW27886   5.277   4.182   6.428
 8996SOL    HW127887   5.375   4.196   6.439
 8996SOL    HW227888   5.237   4.156   6.516
 8997SOL     OW27889   4.694   0.801   5.566
 8997SOL    HW127890   4.686   0.898   5.540
 8997SOL    HW227891   4.785   0.768   5.540
 8998SOL     OW27892   6.355   3.853   4.177
 8998SOL    HW127893   6.324   3.796   4.101
 8998SOL    HW227894   6.455   3.863   4.173
 8999SOL     OW27895   4.450   6.699   5.916
 8999SOL    HW127896   4.379   6.665   5.855
 8999SOL    HW227897   4.462   6.635   5.992
 9000SOL     OW27898   1.415   3.800   1.407
 9000SOL    HW127899   1.417   3.899   1.416
 9000SOL    HW227900   1.324   3.771   1.376
 9001SOL     OW27901   0.109   4.755   2.225
 9001SOL    HW127902   0.149   4.738   2.136
 9001SOL    HW227903   0.165   4.821   2.275
 9002SOL     OW27904   1.095   4.876   5.374
 9002SOL    HW127905   1.147   4.933   5.310
 9002SOL    HW227906   1.004   4.857   5.336
 9003SOL     OW27907   5.445   3.147   1.293
 9003SOL    HW127908   5.451   3.048   1.306
 9003SOL    HW227909   5.350   3.172   1.273
 9004SOL     OW27910   4.352   4.998   0.895
 9004SOL    HW127911   4.275   5.007   0.959
 9004SOL    HW227912   4.328   5.044   0.809
 9005SOL     OW27913   5.708   1.094   6.197
 9005SOL    HW127914   5.635   1.128   6.138
 9005SOL    HW227915   5.792   1.085   6.144
 9006SOL     OW27916   3.038   6.521   0.872
 9006SOL    HW127917   3.025   6.614   0.908
 9006SOL    HW227918   2.967   6.500   0.806
 9007SOL     OW27919   2.240   1.302   2.283
 9007SOL    HW127920   2.238   1.354   2.368
 9007SOL    HW227921   2.213   1.207   2.301
 9008SOL     OW27922   0.373   5.106   3.006
 9008SOL    HW127923   0.332   5.177   3.064
 9008SOL    HW227924   0.466   5.134   2.980
 9009SOL     OW27925   3.449   5.028   1.334
 9009SOL    HW127926   3.473   5.118   1.371
 9009SOL    HW227927   3.517   5.002   1.266
 9010SOL     OW27928   2.011   6.873   4.515
 9010SOL    HW127929   1.936   6.916   4.465
 9010SOL    HW227930   2.007   6.774   4.501
 9011SOL     OW27931   3.991   1.106   1.819
 9011SOL    HW127932   3.919   1.125   1.752
 9011SOL    HW227933   3.955   1.046   1.891
 9012SOL     OW27934   2.230   5.702   0.445
 9012SOL    HW127935   2.228   5.626   0.380
 9012SOL    HW227936   2.292   5.680   0.521
 9013SOL     OW27937   0.889   0.220   4.547
 9013SOL    HW127938   0.936   0.135   4.522
 9013SOL    HW227939   0.900   0.287   4.474
 9014SOL     OW27940   5.980   2.954   1.809
 9014SOL    HW127941   6.028   3.009   1.741
 9014SOL    HW227942   5.959   3.010   1.889
 9015SOL     OW27943   5.024   2.500   1.200
 9015SOL    HW127944   5.067   2.477   1.113
 9015SOL    HW227945   4.925   2.510   1.187
 9016SOL     OW27946   5.537   5.135   6.471
 9016SOL    HW127947   5.630   5.173   6.468
 9016SOL    HW227948   5.526   5.069   6.396
 9017SOL     OW27949   3.768   1.370   5.285
 9017SOL    HW127950   3.700   1.330   5.347
 9017SOL    HW227951   3.848   1.311   5.280
 9018SOL     OW27952   3.757   3.534   6.604
 9018SOL    HW127953   3.661   3.517   6.629
 9018SOL    HW227954   3.817   3.501   6.676
 9019SOL     OW27955   1.009   4.337   2.739
 9019SOL    HW127956   0.951   4.265   2.777
 9019SOL    HW227957   0.991   4.346   2.640
 9020SOL     OW27958   6.656   4.603   1.398
 9020SOL    HW127959   6.734   4.607   1.461
 9020SOL    HW227960   6.618   4.695   1.388
 9021SOL     OW27961   0.179   0.189   4.026
 9021SOL    HW127962   0.118   0.265   4.003
 9021SOL    HW227963   0.191   0.185   4.125
 9022SOL     OW27964   3.514   2.187   0.068
 9022SOL    HW127965   3.449   2.236   0.011
 9022SOL    HW227966   3.549   2.108   0.017
 9023SOL     OW27967   4.397   3.242   1.347
 9023SOL    HW127968   4.451   3.281   1.273
 9023SOL    HW227969   4.349   3.315   1.395
 9024SOL     OW27970   0.914   4.536   5.534
 9024SOL    HW127971   0.942   4.591   5.455
 9024SOL    HW227972   0.829   4.572   5.572
 9025SOL     OW27973   0.400   5.321   1.089
 9025SOL    HW127974   0.367   5.258   1.018
 9025SOL    HW227975   0.346   5.309   1.172
 9026SOL     OW27976   3.610   1.422   0.745
 9026SOL    HW127977   3.570   1.470   0.823
 9026SOL    HW227978   3.707   1.441   0.740
 9027SOL     OW27979   1.175   3.926   3.838
 9027SOL    HW127980   1.095   3.883   3.878
 9027SOL    HW227981   1.254   3.865   3.848
 9028SOL     OW27982   3.742   3.095   5.287
 9028SOL    HW127983   3.674   3.022   5.276
 9028SOL    HW227984   3.817   3.081   5.222
 9029SOL     OW27985   4.224   0.776   4.830
 9029SOL    HW127986   4.180   0.701   4.781
 9029SOL    HW227987   4.304   0.742   4.879
 9030SOL     OW27988   2.081   2.758   3.911
 9030SOL    HW127989   2.154   2.793   3.970
 9030SOL    HW227990   2.004   2.727   3.967
 9031SOL     OW27991   4.115   0.543   4.691
 9031SOL    HW127992   4.079   0.498   4.773
 9031SOL    HW227993   4.114   0.479   4.614
 9032SOL     OW27994   4.552   4.239   1.115
 9032SOL    HW127995   4.489   4.207   1.185
 9032SOL    HW227996   4.571   4.337   1.130
 9033SOL     OW27997   0.696   4.772   2.375
 9033SOL    HW127998   0.739   4.701   2.432
 9033SOL    HW227999   0.729   4.764   2.281
 9034SOL     OW28000   3.635   6.171   5.024
 9034SOL    HW128001   3.594   6.138   5.109
 9034SOL    HW228002   3.613   6.109   4.949
 9035SOL     OW28003   1.917   6.234   6.990
 9035SOL    HW128004   1.869   6.221   0.058
 9035SOL    HW228005   1.999   6.289   7.005
 9036SOL     OW28006   1.565   3.899   5.574
 9036SOL    HW128007   1.633   3.878   5.504
 9036SOL    HW228008   1.526   3.989   5.556
 9037SOL     OW28009   1.259   2.688   4.517
 9037SOL    HW128010   1.335   2.628   4.493
 9037SOL    HW228011   1.214   2.721   4.434
 9038SOL     OW28012   4.790   3.033   6.523
 9038SOL    HW128013   4.706   3.070   6.562
 9038SOL    HW228014   4.775   2.937   6.497
 9039SOL     OW28015   3.382   4.482   6.927
 9039SOL    HW128016   3.435   4.500   6.845
 9039SOL    HW228017   3.414   4.397   6.969
 9040SOL     OW28018   2.534   2.094   1.988
 9040SOL    HW128019   2.629   2.078   2.015
 9040SOL    HW228020   2.533   2.147   1.903
 9041SOL     OW28021   0.747   2.369   1.263
 9041SOL    HW128022   0.722   2.349   1.168
 9041SOL    HW228023   0.824   2.312   1.290
 9042SOL     OW28024   3.890   6.029   5.151
 9042SOL    HW128025   3.797   6.016   5.188
 9042SOL    HW228026   3.893   6.114   5.098
 9043SOL     OW28027   2.190   1.515   6.747
 9043SOL    HW128028   2.189   1.565   6.660
 9043SOL    HW228029   2.258   1.556   6.808
 9044SOL     OW28030   0.727   0.747   6.983
 9044SOL    HW128031   0.684   0.826   6.940
 9044SOL    HW228032   0.703   0.664   6.932
 9045SOL     OW28033   4.088   0.530   3.561
 9045SOL    HW128034   4.041   0.532   3.473
 9045SOL    HW228035   4.044   0.596   3.623
 9046SOL     OW28036   4.072   3.362   2.565
 9046SOL    HW128037   4.055   3.360   2.663
 9046SOL    HW228038   3.994   3.323   2.517
 9047SOL     OW28039   1.248   3.946   5.313
 9047SOL    HW128040   1.286   4.029   5.354
 9047SOL    HW228041   1.264   3.947   5.214
 9048SOL     OW28042   6.143   2.266   6.432
 9048SOL    HW128043   6.204   2.310   6.366
 9048SOL    HW228044   6.151   2.312   6.521
 9049SOL     OW28045   3.332   6.339   5.905
 9049SOL    HW128046   3.343   6.255   5.959
 9049SOL    HW228047   3.411   6.398   5.920
 9050SOL     OW28048   0.638   4.351   1.779
 9050SOL    HW128049   0.722   4.319   1.736
 9050SOL    HW228050   0.580   4.273   1.801
 9051SOL     OW28051   2.800   0.836   1.469
 9051SOL    HW128052   2.852   0.777   1.532
 9051SOL    HW228053   2.841   0.928   1.469
 9052SOL     OW28054   1.670   3.139   3.759
 9052SOL    HW128055   1.753   3.125   3.705
 9052SOL    HW228056   1.668   3.233   3.793
 9053SOL     OW28057   2.390   1.105   1.000
 9053SOL    HW128058   2.482   1.104   0.960
 9053SOL    HW228059   2.325   1.140   0.933
 9054SOL     OW28060   2.347   5.543   4.028
 9054SOL    HW128061   2.404   5.482   3.973
 9054SOL    HW228062   2.385   5.635   4.025
 9055SOL     OW28063   6.624   4.497   4.831
 9055SOL    HW128064   6.686   4.573   4.809
 9055SOL    HW228065   6.560   4.526   4.902
 9056SOL     OW28066   6.283   2.321   2.633
 9056SOL    HW128067   6.190   2.351   2.610
 9056SOL    HW228068   6.284   2.221   2.644
 9057SOL     OW28069   4.965   1.769   4.612
 9057SOL    HW128070   4.889   1.722   4.656
 9057SOL    HW228071   5.037   1.786   4.680
 9058SOL     OW28072   1.491   0.560   6.559
 9058SOL    HW128073   1.512   0.469   6.523
 9058SOL    HW228074   1.558   0.585   6.628
 9059SOL     OW28075   1.536   2.769   2.110
 9059SOL    HW128076   1.591   2.814   2.181
 9059SOL    HW228077   1.522   2.673   2.134
 9060SOL     OW28078   5.239   3.114   4.635
 9060SOL    HW128079   5.269   3.044   4.699
 9060SOL    HW228080   5.186   3.071   4.561
 9061SOL     OW28081   4.544   5.528   2.428
 9061SOL    HW128082   4.461   5.581   2.414
 9061SOL    HW228083   4.562   5.472   2.347
 9062SOL     OW28084   1.244   5.454   1.556
 9062SOL    HW128085   1.269   5.471   1.461
 9062SOL    HW228086   1.326   5.449   1.612
 9063SOL     OW28087   2.881   1.526   3.795
 9063SOL    HW128088   2.896   1.430   3.821
 9063SOL    HW228089   2.786   1.550   3.813
 9064SOL     OW28090   6.818   3.527   0.137
 9064SOL    HW128091   6.895   3.534   0.073
 9064SOL    HW228092   6.747   3.470   0.097
 9065SOL     OW28093   3.203   0.623   0.401
 9065SOL    HW128094   3.179   0.527   0.415
 9065SOL    HW228095   3.120   0.677   0.386
 9066SOL     OW28096   5.559   6.983   7.013
 9066SOL    HW128097   5.631   6.917   0.017
 9066SOL    HW228098   5.530   0.012   0.078
 9067SOL     OW28099   1.804   6.560   3.219
 9067SOL    HW128100   1.851   6.478   3.189
 9067SOL    HW228101   1.867   6.618   3.271
 9068SOL     OW28102   1.366   6.222   5.663
 9068SOL    HW128103   1.395   6.200   5.570
 9068SOL    HW228104   1.271   6.254   5.662
 9069SOL     OW28105   1.677   2.546   6.322
 9069SOL    HW128106   1.601   2.519   6.380
 9069SOL    HW228107   1.647   2.615   6.256
 9070SOL     OW28108   1.777   3.911   4.539
 9070SOL    HW128109   1.818   3.963   4.614
 9070SOL    HW228110   1.844   3.903   4.465
 9071SOL     OW28111   6.251   6.518   0.351
 9071SOL    HW128112   6.177   6.481   0.408
 9071SOL    HW228113   6.322   6.448   0.340
 9072SOL     OW28114   6.746   3.432   0.536
 9072SOL    HW128115   6.699   3.509   0.494
 9072SOL    HW228116   6.678   3.369   0.574
 9073SOL     OW28117   2.260   0.944   1.911
 9073SOL    HW128118   2.197   1.021   1.901
 9073SOL    HW228119   2.342   0.974   1.960
 9074SOL     OW28120   1.463   6.863   2.638
 9074SOL    HW128121   1.510   6.922   2.572
 9074SOL    HW228122   1.476   6.767   2.613
 9075SOL     OW28123   6.662   0.962   1.850
 9075SOL    HW128124   6.611   0.880   1.826
 9075SOL    HW228125   6.740   0.971   1.788
 9076SOL     OW28126   0.007   1.285   5.611
 9076SOL    HW128127   6.977   1.326   5.534
 9076SOL    HW228128   7.014   1.186   5.610
 9077SOL     OW28129   5.111   6.733   2.533
 9077SOL    HW128130   5.080   6.638   2.532
 9077SOL    HW228131   5.043   6.791   2.488
 9078SOL     OW28132   3.732   3.238   4.889
 9078SOL    HW128133   3.829   3.259   4.906
 9078SOL    HW228134   3.678   3.267   4.967
 9079SOL     OW28135   3.617   6.576   4.276
 9079SOL    HW128136   3.601   6.665   4.319
 9079SOL    HW228137   3.551   6.562   4.202
 9080SOL     OW28138   5.436   2.635   0.136
 9080SOL    HW128139   5.428   2.730   0.164
 9080SOL    HW228140   5.529   2.616   0.104
 9081SOL     OW28141   5.529   6.407   2.329
 9081SOL    HW128142   5.552   6.476   2.261
 9081SOL    HW228143   5.488   6.328   2.283
 9082SOL     OW28144   2.440   0.713   3.799
 9082SOL    HW128145   2.423   0.630   3.852
 9082SOL    HW228146   2.459   0.789   3.860
 9083SOL     OW28147   4.892   4.449   5.117
 9083SOL    HW128148   4.934   4.533   5.151
 9083SOL    HW228149   4.883   4.383   5.192
 9084SOL     OW28150   3.198   3.670   3.008
 9084SOL    HW128151   3.126   3.739   3.007
 9084SOL    HW228152   3.210   3.633   2.916
 9085SOL     OW28153   2.249   1.843   1.580
 9085SOL    HW128154   2.235   1.934   1.540
 9085SOL    HW228155   2.258   1.776   1.507
 9086SOL     OW28156   0.592   4.106   1.090
 9086SOL    HW128157   0.647   4.064   1.018
 9086SOL    HW228158   0.549   4.190   1.055
 9087SOL     OW28159   4.903   3.730   2.180
 9087SOL    HW128160   4.860   3.648   2.143
 9087SOL    HW228161   4.991   3.745   2.135
 9088SOL     OW28162   6.861   0.666   6.468
 9088SOL    HW128163   6.871   0.581   6.416
 9088SOL    HW228164   6.883   0.648   6.564
 9089SOL     OW28165   4.536   6.962   5.963
 9089SOL    HW128166   4.527   6.992   6.058
 9089SOL    HW228167   4.491   6.873   5.952
 9090SOL     OW28168   5.405   0.273   4.789
 9090SOL    HW128169   5.335   0.325   4.740
 9090SOL    HW228170   5.496   0.302   4.760
 9091SOL     OW28171   3.181   3.570   0.022
 9091SOL    HW128172   3.209   3.507   0.094
 9091SOL    HW228173   3.198   3.664   0.051
 9092SOL     OW28174   6.985   2.012   0.091
 9092SOL    HW128175   6.993   2.048   0.184
 9092SOL    HW228176   6.925   1.932   0.091
 9093SOL     OW28177   1.409   6.916   5.354
 9093SOL    HW128178   1.493   6.919   5.299
 9093SOL    HW228179   1.330   6.930   5.294
 9094SOL     OW28180   0.473   3.320   1.886
 9094SOL    HW128181   0.542   3.392   1.881
 9094SOL    HW228182   0.429   3.322   1.976
 9095SOL     OW28183   5.301   5.930   5.347
 9095SOL    HW128184   5.243   5.881   5.282
 9095SOL    HW228185   5.392   5.888   5.349
 9096SOL     OW28186   6.473   5.215   2.782
 9096SOL    HW128187   6.436   5.244   2.871
 9096SOL    HW228188   6.403   5.228   2.712
 9097SOL     OW28189   0.662   3.358   5.793
 9097SOL    HW128190   0.622   3.267   5.784
 9097SOL    HW228191   0.649   3.391   5.886
 9098SOL     OW28192   1.950   3.151   4.522
 9098SOL    HW128193   2.035   3.173   4.569
 9098SOL    HW228194   1.969   3.129   4.426
 9099SOL     OW28195   2.275   3.325   6.736
 9099SOL    HW128196   2.304   3.419   6.717
 9099SOL    HW228197   2.246   3.282   6.650
 9100SOL     OW28198   0.977   4.743   2.748
 9100SOL    HW128199   0.987   4.818   2.683
 9100SOL    HW228200   0.938   4.664   2.702
 9101SOL     OW28201   2.049   1.368   1.676
 9101SOL    HW128202   1.956   1.370   1.711
 9101SOL    HW228203   2.053   1.412   1.587
 9102SOL     OW28204   4.052   5.850   2.599
 9102SOL    HW128205   4.119   5.923   2.598
 9102SOL    HW228206   4.046   5.808   2.508
 9103SOL     OW28207   6.510   1.770   0.628
 9103SOL    HW128208   6.472   1.690   0.674
 9103SOL    HW228209   6.459   1.788   0.544
 9104SOL     OW28210   6.696   0.804   0.127
 9104SOL    HW128211   6.678   0.798   0.029
 9104SOL    HW228212   6.645   0.733   0.175
 9105SOL     OW28213   1.844   0.062   6.389
 9105SOL    HW128214   1.825   0.110   6.475
 9105SOL    HW228215   1.839   0.127   6.314
 9106SOL     OW28216   1.142   5.100   6.572
 9106SOL    HW128217   1.237   5.130   6.568
 9106SOL    HW228218   1.105   5.121   6.663
 9107SOL     OW28219   2.404   1.198   0.365
 9107SOL    HW128220   2.415   1.196   0.266
 9107SOL    HW228221   2.487   1.166   0.409
 9108SOL     OW28222   5.355   5.448   6.024
 9108SOL    HW128223   5.400   5.372   6.071
 9108SOL    HW228224   5.355   5.529   6.083
 9109SOL     OW28225   5.198   2.896   2.674
 9109SOL    HW128226   5.138   2.965   2.633
 9109SOL    HW228227   5.288   2.899   2.630
 9110SOL     OW28228   1.480   5.536   4.552
 9110SOL    HW128229   1.467   5.457   4.492
 9110SOL    HW228230   1.577   5.544   4.576
 9111SOL     OW28231   4.403   2.936   5.390
 9111SOL    HW128232   4.501   2.944   5.409
 9111SOL    HW228233   4.365   3.027   5.373
 9112SOL     OW28234   1.944   5.273   2.120
 9112SOL    HW128235   1.931   5.190   2.065
 9112SOL    HW228236   1.979   5.249   2.210
 9113SOL     OW28237   4.751   1.929   3.445
 9113SOL    HW128238   4.738   1.830   3.446
 9113SOL    HW228239   4.823   1.954   3.510
 9114SOL     OW28240   1.588   6.003   4.459
 9114SOL    HW128241   1.510   5.949   4.489
 9114SOL    HW228242   1.621   6.059   4.535
 9115SOL     OW28243   5.663   4.393   4.103
 9115SOL    HW128244   5.656   4.486   4.140
 9115SOL    HW228245   5.672   4.398   4.003
 9116SOL     OW28246   0.831   6.670   3.465
 9116SOL    HW128247   0.880   6.599   3.414
 9116SOL    HW228248   0.895   6.741   3.494
 9117SOL     OW28249   3.931   0.782   7.012
 9117SOL    HW128250   3.998   0.723   6.967
 9117SOL    HW228251   3.867   0.726   0.046
 9118SOL     OW28252   5.944   3.744   1.016
 9118SOL    HW128253   5.915   3.751   0.921
 9118SOL    HW228254   5.976   3.833   1.048
 9119SOL     OW28255   3.643   0.321   0.709
 9119SOL    HW128256   3.647   0.417   0.736
 9119SOL    HW228257   3.664   0.263   0.787
 9120SOL     OW28258   5.617   2.879   5.375
 9120SOL    HW128259   5.533   2.934   5.369
 9120SOL    HW228260   5.595   2.788   5.411
 9121SOL     OW28261   3.191   0.377   5.327
 9121SOL    HW128262   3.164   0.436   5.251
 9121SOL    HW228263   3.111   0.328   5.361
 9122SOL     OW28264   2.345   4.298   2.296
 9122SOL    HW128265   2.383   4.389   2.311
 9122SOL    HW228266   2.409   4.228   2.329
 9123SOL     OW28267   0.791   1.239   3.942
 9123SOL    HW128268   0.723   1.299   3.899
 9123SOL    HW228269   0.853   1.293   3.998
 9124SOL     OW28270   2.863   5.755   1.431
 9124SOL    HW128271   2.876   5.833   1.493
 9124SOL    HW228272   2.894   5.671   1.476
 9125SOL     OW28273   4.867   6.708   0.586
 9125SOL    HW128274   4.797   6.708   0.658
 9125SOL    HW228275   4.892   6.802   0.564
 9126SOL     OW28276   3.856   4.471   0.324
 9126SOL    HW128277   3.854   4.376   0.354
 9126SOL    HW228278   3.910   4.478   0.240
 9127SOL     OW28279   6.958   4.134   5.969
 9127SOL    HW128280   0.019   4.073   5.969
 9127SOL    HW228281   6.951   4.182   5.882
 9128SOL     OW28282   5.711   3.447   5.544
 9128SOL    HW128283   5.702   3.536   5.499
 9128SOL    HW228284   5.696   3.374   5.478
 9129SOL     OW28285   1.620   1.846   0.439
 9129SOL    HW128286   1.612   1.896   0.352
 9129SOL    HW228287   1.709   1.800   0.443
 9130SOL     OW28288   2.635   3.870   5.264
 9130SOL    HW128289   2.550   3.921   5.250
 9130SOL    HW228290   2.712   3.933   5.262
 9131SOL     OW28291   5.812   2.658   1.070
 9131SOL    HW128292   5.851   2.612   1.150
 9131SOL    HW228293   5.719   2.689   1.092
 9132SOL     OW28294   0.373   4.444   3.793
 9132SOL    HW128295   0.410   4.535   3.812
 9132SOL    HW228296   0.446   4.377   3.797
 9133SOL     OW28297   4.916   0.922   0.828
 9133SOL    HW128298   4.894   0.847   0.891
 9133SOL    HW228299   5.000   0.967   0.858
 9134SOL     OW28300   4.401   5.299   0.851
 9134SOL    HW128301   4.435   5.260   0.937
 9134SOL    HW228302   4.314   5.346   0.869
 9135SOL     OW28303   0.389   6.838   2.902
 9135SOL    HW128304   0.290   6.834   2.891
 9135SOL    HW228305   0.412   6.844   2.999
 9136SOL     OW28306   6.250   4.737   6.736
 9136SOL    HW128307   6.297   4.774   6.656
 9136SOL    HW228308   6.316   4.724   6.810
 9137SOL     OW28309   5.387   6.167   6.374
 9137SOL    HW128310   5.414   6.144   6.467
 9137SOL    HW228311   5.468   6.187   6.319
 9138SOL     OW28312   3.205   3.126   1.157
 9138SOL    HW128313   3.262   3.096   1.080
 9138SOL    HW228314   3.245   3.096   1.243
 9139SOL     OW28315   6.895   0.300   1.037
 9139SOL    HW128316   6.818   0.243   1.066
 9139SOL    HW228317   6.863   0.393   1.022
 9140SOL     OW28318   0.982   4.621   3.010
 9140SOL    HW128319   1.075   4.621   3.045
 9140SOL    HW228320   0.983   4.647   2.913
 9141SOL     OW28321   6.582   5.943   5.369
 9141SOL    HW128322   6.522   5.964   5.292
 9141SOL    HW228323   6.578   5.845   5.390
 9142SOL     OW28324   1.156   4.131   3.508
 9142SOL    HW128325   1.205   4.217   3.493
 9142SOL    HW228326   1.182   4.065   3.437
 9143SOL     OW28327   6.163   3.443   2.524
 9143SOL    HW128328   6.176   3.505   2.447
 9143SOL    HW228329   6.142   3.495   2.606
 9144SOL     OW28330   2.602   4.485   5.448
 9144SOL    HW128331   2.607   4.388   5.424
 9144SOL    HW228332   2.653   4.538   5.380
 9145SOL     OW28333   1.216   6.393   5.918
 9145SOL    HW128334   1.184   6.329   5.988
 9145SOL    HW228335   1.183   6.363   5.829
 9146SOL     OW28336   6.509   3.051   3.141
 9146SOL    HW128337   6.420   3.031   3.100
 9146SOL    HW228338   6.532   3.147   3.125
 9147SOL     OW28339   4.350   0.168   4.252
 9147SOL    HW128340   4.392   0.142   4.165
 9147SOL    HW228341   4.275   0.232   4.235
 9148SOL     OW28342   6.094   6.443   1.583
 9148SOL    HW128343   6.049   6.491   1.508
 9148SOL    HW228344   6.098   6.345   1.563
 9149SOL     OW28345   0.290   3.767   1.739
 9149SOL    HW128346   0.317   3.835   1.670
 9149SOL    HW228347   0.356   3.767   1.814
 9150SOL     OW28348   2.781   2.441   1.141
 9150SOL    HW128349   2.703   2.503   1.131
 9150SOL    HW228350   2.834   2.468   1.221
 9151SOL     OW28351   1.737   3.552   3.451
 9151SOL    HW128352   1.765   3.464   3.413
 9151SOL    HW228353   1.677   3.600   3.387
 9152SOL     OW28354   2.323   4.921   3.265
 9152SOL    HW128355   2.390   4.848   3.258
 9152SOL    HW228356   2.244   4.899   3.207
 9153SOL     OW28357   6.423   3.559   0.315
 9153SOL    HW128358   6.403   3.463   0.295
 9153SOL    HW228359   6.383   3.584   0.403
 9154SOL     OW28360   5.859   4.541   2.644
 9154SOL    HW128361   5.934   4.558   2.708
 9154SOL    HW228362   5.772   4.544   2.693
 9155SOL     OW28363   1.160   6.479   2.437
 9155SOL    HW128364   1.152   6.441   2.345
 9155SOL    HW228365   1.094   6.434   2.498
 9156SOL     OW28366   6.864   4.103   0.219
 9156SOL    HW128367   6.782   4.045   0.215
 9156SOL    HW228368   6.841   4.191   0.261
 9157SOL     OW28369   2.082   5.345   6.131
 9157SOL    HW128370   2.092   5.289   6.213
 9157SOL    HW228371   2.157   5.325   6.068
 9158SOL     OW28372   6.533   3.259   4.774
 9158SOL    HW128373   6.589   3.342   4.772
 9158SOL    HW228374   6.438   3.283   4.756
 9159SOL     OW28375   3.691   1.287   3.971
 9159SOL    HW128376   3.597   1.316   3.992
 9159SOL    HW228377   3.739   1.264   4.055
 9160SOL     OW28378   6.852   4.458   0.966
 9160SOL    HW128379   6.886   4.364   0.960
 9160SOL    HW228380   6.785   4.464   1.040
 9161SOL     OW28381   6.572   4.325   1.470
 9161SOL    HW128382   6.659   4.322   1.520
 9161SOL    HW228383   6.543   4.420   1.460
 9162SOL     OW28384   4.208   1.988   1.954
 9162SOL    HW128385   4.303   2.006   1.979
 9162SOL    HW228386   4.150   1.989   2.036
 9163SOL     OW28387   1.824   2.510   3.359
 9163SOL    HW128388   1.905   2.515   3.418
 9163SOL    HW228389   1.852   2.493   3.265
 9164SOL     OW28390   2.720   0.469   0.032
 9164SOL    HW128391   2.803   0.519   0.055
 9164SOL    HW228392   2.645   0.499   0.091
 9165SOL     OW28393   5.201   1.396   6.214
 9165SOL    HW128394   5.170   1.463   6.282
 9165SOL    HW228395   5.237   1.444   6.134
 9166SOL     OW28396   5.474   5.794   1.924
 9166SOL    HW128397   5.519   5.767   1.838
 9166SOL    HW228398   5.541   5.795   1.998
 9167SOL     OW28399   1.584   1.509   4.814
 9167SOL    HW128400   1.650   1.494   4.741
 9167SOL    HW228401   1.580   1.606   4.837
 9168SOL     OW28402   6.700   6.040   4.019
 9168SOL    HW128403   6.727   5.948   4.048
 9168SOL    HW228404   6.602   6.042   3.999
 9169SOL     OW28405   6.396   5.603   1.003
 9169SOL    HW128406   6.450   5.645   0.930
 9169SOL    HW228407   6.397   5.662   1.083
 9170SOL     OW28408   1.742   1.309   6.149
 9170SOL    HW128409   1.650   1.293   6.185
 9170SOL    HW228410   1.738   1.314   6.049
 9171SOL     OW28411   3.379   4.689   0.401
 9171SOL    HW128412   3.338   4.775   0.371
 9171SOL    HW228413   3.416   4.640   0.322
 9172SOL     OW28414   4.504   1.112   4.220
 9172SOL    HW128415   4.601   1.111   4.196
 9172SOL    HW228416   4.451   1.143   4.141
 9173SOL     OW28417   5.626   2.896   4.803
 9173SOL    HW128418   5.534   2.934   4.818
 9173SOL    HW228419   5.619   2.797   4.790
 9174SOL     OW28420   0.499   4.645   0.289
 9174SOL    HW128421   0.524   4.738   0.263
 9174SOL    HW228422   0.409   4.622   0.252
 9175SOL     OW28423   2.098   6.856   6.579
 9175SOL    HW128424   2.144   6.802   6.509
 9175SOL    HW228425   2.136   6.832   6.669
 9176SOL     OW28426   1.683   1.471   2.472
 9176SOL    HW128427   1.648   1.448   2.381
 9176SOL    HW228428   1.772   1.516   2.463
 9177SOL     OW28429   0.576   4.281   3.821
 9177SOL    HW128430   0.596   4.299   3.917
 9177SOL    HW228431   0.554   4.184   3.808
 9178SOL     OW28432   2.070   5.914   0.491
 9178SOL    HW128433   2.105   5.960   0.572
 9178SOL    HW228434   2.134   5.843   0.462
 9179SOL     OW28435   3.498   5.485   4.834
 9179SOL    HW128436   3.528   5.413   4.897
 9179SOL    HW228437   3.441   5.551   4.883
 9180SOL     OW28438   6.843   0.873   4.897
 9180SOL    HW128439   6.869   0.830   4.983
 9180SOL    HW228440   6.895   0.832   4.822
 9181SOL     OW28441   3.173   2.008   3.843
 9181SOL    HW128442   3.197   2.060   3.925
 9181SOL    HW228443   3.222   1.922   3.842
 9182SOL     OW28444   1.148   1.173   2.918
 9182SOL    HW128445   1.110   1.085   2.947
 9182SOL    HW228446   1.217   1.158   2.847
 9183SOL     OW28447   0.423   2.374   6.072
 9183SOL    HW128448   0.442   2.385   6.170
 9183SOL    HW228449   0.500   2.410   6.019
 9184SOL     OW28450   3.300   3.204   0.381
 9184SOL    HW128451   3.392   3.181   0.415
 9184SOL    HW228452   3.235   3.136   0.416
 9185SOL     OW28453   1.128   0.825   6.884
 9185SOL    HW128454   1.119   0.882   6.803
 9185SOL    HW228455   1.225   0.817   6.908
 9186SOL     OW28456   5.830   0.815   6.279
 9186SOL    HW128457   5.747   0.761   6.271
 9186SOL    HW228458   5.806   0.909   6.306
 9187SOL     OW28459   5.163   2.085   0.614
 9187SOL    HW128460   5.225   2.157   0.645
 9187SOL    HW228461   5.211   2.026   0.549
 9188SOL     OW28462   1.428   0.045   2.079
 9188SOL    HW128463   1.514   7.014   2.095
 9188SOL    HW228464   1.354   6.997   2.069
 9189SOL     OW28465   3.978   1.210   4.691
 9189SOL    HW128466   3.886   1.197   4.727
 9189SOL    HW228467   4.039   1.142   4.732
 9190SOL     OW28468   6.334   2.585   5.656
 9190SOL    HW128469   6.420   2.603   5.705
 9190SOL    HW228470   6.306   2.490   5.672
 9191SOL     OW28471   5.456   6.384   0.502
 9191SOL    HW128472   5.381   6.416   0.444
 9191SOL    HW228473   5.495   6.300   0.464
 9192SOL     OW28474   5.633   4.821   4.624
 9192SOL    HW128475   5.647   4.920   4.624
 9192SOL    HW228476   5.634   4.787   4.718
 9193SOL     OW28477   3.795   3.239   3.857
 9193SOL    HW128478   3.850   3.161   3.826
 9193SOL    HW228479   3.698   3.217   3.847
 9194SOL     OW28480   3.123   5.964   2.444
 9194SOL    HW128481   3.043   5.935   2.392
 9194SOL    HW228482   3.182   5.886   2.461
 9195SOL     OW28483   6.667   3.617   2.937
 9195SOL    HW128484   6.751   3.562   2.948
 9195SOL    HW228485   6.621   3.625   3.025
 9196SOL     OW28486   4.455   0.134   3.645
 9196SOL    HW128487   4.539   0.182   3.672
 9196SOL    HW228488   4.376   0.182   3.682
 9197SOL     OW28489   3.410   3.245   6.395
 9197SOL    HW128490   3.413   3.210   6.302
 9197SOL    HW228491   3.371   3.337   6.395
 9198SOL     OW28492   5.386   2.781   5.011
 9198SOL    HW128493   5.469   2.764   5.064
 9198SOL    HW228494   5.319   2.708   5.028
 9199SOL     OW28495   1.183   3.478   6.444
 9199SOL    HW128496   1.236   3.532   6.379
 9199SOL    HW228497   1.236   3.397   6.470
 9200SOL     OW28498   6.046   0.176   0.165
 9200SOL    HW128499   6.100   0.115   0.108
 9200SOL    HW228500   5.951   0.175   0.135
 9201SOL     OW28501   1.684   4.132   3.298
 9201SOL    HW128502   1.740   4.064   3.347
 9201SOL    HW228503   1.744   4.200   3.256
 9202SOL     OW28504   3.352   5.283   4.326
 9202SOL    HW128505   3.330   5.330   4.240
 9202SOL    HW228506   3.393   5.348   4.390
 9203SOL     OW28507   4.991   0.878   6.168
 9203SOL    HW128508   5.020   0.847   6.258
 9203SOL    HW228509   4.904   0.927   6.176
 9204SOL     OW28510   4.754   4.447   1.987
 9204SOL    HW128511   4.736   4.528   2.044
 9204SOL    HW228512   4.692   4.373   2.014
 9205SOL     OW28513   4.874   3.305   2.815
 9205SOL    HW128514   4.901   3.214   2.784
 9205SOL    HW228515   4.784   3.328   2.778
 9206SOL     OW28516   0.606   6.774   3.489
 9206SOL    HW128517   0.524   6.716   3.489
 9206SOL    HW228518   0.686   6.719   3.465
 9207SOL     OW28519   4.298   6.779   6.941
 9207SOL    HW128520   4.215   6.758   6.994
 9207SOL    HW228521   4.303   6.877   6.925
 9208SOL     OW28522   4.851   4.752   2.432
 9208SOL    HW128523   4.840   4.726   2.529
 9208SOL    HW228524   4.876   4.848   2.426
 9209SOL     OW28525   3.655   1.034   2.749
 9209SOL    HW128526   3.682   1.087   2.669
 9209SOL    HW228527   3.560   1.004   2.739
 9210SOL     OW28528   1.193   0.159   1.242
 9210SOL    HW128529   1.282   0.173   1.198
 9210SOL    HW228530   1.158   0.069   1.219
 9211SOL     OW28531   4.961   1.257   6.483
 9211SOL    HW128532   4.937   1.277   6.388
 9211SOL    HW228533   5.057   1.281   6.499
 9212SOL     OW28534   5.918   3.754   4.703
 9212SOL    HW128535   5.897   3.816   4.778
 9212SOL    HW228536   5.834   3.731   4.654
 9213SOL     OW28537   6.230   6.961   2.618
 9213SOL    HW128538   6.245   0.042   2.624
 9213SOL    HW228539   6.153   6.935   2.676
 9214SOL     OW28540   1.701   2.545   5.589
 9214SOL    HW128541   1.763   2.467   5.580
 9214SOL    HW228542   1.673   2.553   5.684
 9215SOL     OW28543   0.738   3.273   3.071
 9215SOL    HW128544   0.723   3.175   3.056
 9215SOL    HW228545   0.663   3.324   3.028
 9216SOL     OW28546   2.701   5.920   4.643
 9216SOL    HW128547   2.725   5.875   4.557
 9216SOL    HW228548   2.724   5.860   4.719
 9217SOL     OW28549   4.530   1.147   6.306
 9217SOL    HW128550   4.520   1.231   6.359
 9217SOL    HW228551   4.513   1.068   6.365
 9218SOL     OW28552   6.157   5.459   6.960
 9218SOL    HW128553   6.160   5.558   6.950
 9218SOL    HW228554   6.103   5.435   0.023
 9219SOL     OW28555   3.643   3.045   5.550
 9219SOL    HW128556   3.660   3.096   5.466
 9219SOL    HW228557   3.625   2.949   5.528
 9220SOL     OW28558   0.847   6.482   3.674
 9220SOL    HW128559   0.816   6.544   3.601
 9220SOL    HW228560   0.941   6.504   3.699
 9221SOL     OW28561   2.625   1.027   0.875
 9221SOL    HW128562   2.657   1.088   0.802
 9221SOL    HW228563   2.696   0.961   0.897
 9222SOL     OW28564   1.314   3.254   3.761
 9222SOL    HW128565   1.326   3.317   3.837
 9222SOL    HW228566   1.396   3.254   3.704
 9223SOL     OW28567   0.692   3.462   4.945
 9223SOL    HW128568   0.632   3.387   4.916
 9223SOL    HW228569   0.638   3.532   4.991
 9224SOL     OW28570   2.187   4.545   3.780
 9224SOL    HW128571   2.273   4.496   3.797
 9224SOL    HW228572   2.135   4.497   3.709
 9225SOL     OW28573   5.138   6.175   6.893
 9225SOL    HW128574   5.162   6.137   6.804
 9225SOL    HW228575   5.048   6.218   6.887
 9226SOL     OW28576   1.136   0.782   0.963
 9226SOL    HW128577   1.089   0.720   0.900
 9226SOL    HW228578   1.224   0.742   0.989
 9227SOL     OW28579   2.274   4.798   0.710
 9227SOL    HW128580   2.229   4.709   0.699
 9227SOL    HW228581   2.206   4.869   0.725
 9228SOL     OW28582   3.544   3.121   5.791
 9228SOL    HW128583   3.585   3.081   5.709
 9228SOL    HW228584   3.446   3.135   5.777
 9229SOL     OW28585   0.341   4.840   0.016
 9229SOL    HW128586   0.409   4.896   0.063
 9229SOL    HW228587   0.387   4.774   6.975
 9230SOL     OW28588   4.429   1.687   4.983
 9230SOL    HW128589   4.354   1.753   4.991
 9230SOL    HW228590   4.511   1.734   4.952
 9231SOL     OW28591   6.817   5.624   3.600
 9231SOL    HW128592   6.764   5.707   3.617
 9231SOL    HW228593   6.849   5.623   3.505
 9232SOL     OW28594   1.316   5.221   1.952
 9232SOL    HW128595   1.384   5.147   1.956
 9232SOL    HW228596   1.325   5.278   2.033
 9233SOL     OW28597   0.517   6.452   0.124
 9233SOL    HW128598   0.511   6.367   0.070
 9233SOL    HW228599   0.559   6.524   0.069
 9234SOL     OW28600   2.301   4.284   0.759
 9234SOL    HW128601   2.281   4.211   0.694
 9234SOL    HW228602   2.388   4.327   0.734
 9235SOL     OW28603   2.118   2.113   3.780
 9235SOL    HW128604   2.080   2.057   3.854
 9235SOL    HW228605   2.213   2.137   3.803
 9236SOL     OW28606   2.574   3.396   6.697
 9236SOL    HW128607   2.488   3.435   6.666
 9236SOL    HW228608   2.565   3.366   6.792
 9237SOL     OW28609   5.701   4.563   3.040
 9237SOL    HW128610   5.800   4.578   3.038
 9237SOL    HW228611   5.656   4.643   3.077
 9238SOL     OW28612   1.863   2.732   5.218
 9238SOL    HW128613   1.773   2.765   5.247
 9238SOL    HW228614   1.925   2.731   5.296
 9239SOL     OW28615   1.314   4.858   6.671
 9239SOL    HW128616   1.292   4.823   6.762
 9239SOL    HW228617   1.335   4.956   6.677
 9240SOL     OW28618   4.268   2.263   2.899
 9240SOL    HW128619   4.345   2.237   2.958
 9240SOL    HW228620   4.183   2.230   2.940
 9241SOL     OW28621   5.979   6.569   1.350
 9241SOL    HW128622   5.889   6.533   1.376
 9241SOL    HW228623   5.976   6.669   1.353
 9242SOL     OW28624   1.329   2.536   0.668
 9242SOL    HW128625   1.240   2.559   0.626
 9242SOL    HW228626   1.389   2.498   0.598
 9243SOL     OW28627   0.967   0.786   0.092
 9243SOL    HW128628   1.042   0.793   0.026
 9243SOL    HW228629   0.889   0.741   0.048
 9244SOL     OW28630   3.585   6.657   5.390
 9244SOL    HW128631   3.526   6.602   5.331
 9244SOL    HW228632   3.674   6.668   5.346
 9245SOL     OW28633   1.288   4.370   3.438
 9245SOL    HW128634   1.351   4.361   3.360
 9245SOL    HW228635   1.194   4.379   3.404
 9246SOL     OW28636   6.595   0.183   5.596
 9246SOL    HW128637   6.603   0.159   5.499
 9246SOL    HW228638   6.501   0.212   5.615
 9247SOL     OW28639   4.048   6.843   2.920
 9247SOL    HW128640   3.992   6.919   2.952
 9247SOL    HW228641   4.001   6.757   2.937
 9248SOL     OW28642   2.405   1.356   6.339
 9248SOL    HW128643   2.311   1.371   6.367
 9248SOL    HW228644   2.421   1.399   6.250
 9249SOL     OW28645   3.440   5.539   1.001
 9249SOL    HW128646   3.477   5.600   1.072
 9249SOL    HW228647   3.367   5.586   0.952
 9250SOL     OW28648   0.758   2.870   4.191
 9250SOL    HW128649   0.707   2.822   4.262
 9250SOL    HW228650   0.824   2.932   4.234
 9251SOL     OW28651   3.071   2.905   1.041
 9251SOL    HW128652   3.063   3.002   1.062
 9251SOL    HW228653   3.164   2.874   1.060
 9252SOL     OW28654   4.731   1.826   5.689
 9252SOL    HW128655   4.667   1.889   5.645
 9252SOL    HW228656   4.721   1.832   5.788
 9253SOL     OW28657   1.082   5.522   5.501
 9253SOL    HW128658   1.083   5.423   5.513
 9253SOL    HW228659   1.054   5.544   5.408
 9254SOL     OW28660   0.157   5.010   2.789
 9254SOL    HW128661   0.151   5.096   2.839
 9254SOL    HW228662   0.248   4.970   2.801
 9255SOL     OW28663   6.612   4.296   0.692
 9255SOL    HW128664   6.657   4.329   0.775
 9255SOL    HW228665   6.520   4.334   0.686
 9256SOL     OW28666   1.889   6.189   1.921
 9256SOL    HW128667   1.979   6.164   1.957
 9256SOL    HW228668   1.859   6.276   1.960
 9257SOL     OW28669   6.428   6.103   3.976
 9257SOL    HW128670   6.401   6.157   3.896
 9257SOL    HW228671   6.375   6.132   4.055
 9258SOL     OW28672   3.507   5.379   1.234
 9258SOL    HW128673   3.474   5.419   1.148
 9258SOL    HW228674   3.598   5.342   1.221
 9259SOL     OW28675   1.947   1.288   6.834
 9259SOL    HW128676   1.977   1.283   6.929
 9259SOL    HW228677   1.927   1.196   6.800
 9260SOL     OW28678   6.183   3.923   4.803
 9260SOL    HW128679   6.234   3.862   4.863
 9260SOL    HW228680   6.085   3.901   4.809
 9261SOL     OW28681   3.711   2.537   1.704
 9261SOL    HW128682   3.734   2.618   1.758
 9261SOL    HW228683   3.703   2.458   1.765
 9262SOL     OW28684   6.097   6.020   4.566
 9262SOL    HW128685   6.122   5.935   4.520
 9262SOL    HW228686   6.179   6.068   4.596
 9263SOL     OW28687   1.948   4.117   3.933
 9263SOL    HW128688   1.965   4.047   3.864
 9263SOL    HW228689   1.879   4.083   3.998
 9264SOL     OW28690   4.298   3.859   0.088
 9264SOL    HW128691   4.207   3.892   0.063
 9264SOL    HW228692   4.366   3.930   0.066
 9265SOL     OW28693   5.868   2.021   0.070
 9265SOL    HW128694   5.905   2.046   6.999
 9265SOL    HW228695   5.939   1.977   0.124
 9266SOL     OW28696   0.995   4.618   1.253
 9266SOL    HW128697   1.056   4.643   1.178
 9266SOL    HW228698   0.950   4.700   1.288
 9267SOL     OW28699   6.439   0.917   4.938
 9267SOL    HW128700   6.360   0.862   4.965
 9267SOL    HW228701   6.445   0.920   4.838
 9268SOL     OW28702   0.700   0.040   1.898
 9268SOL    HW128703   0.659   0.116   1.948
 9268SOL    HW228704   0.759   0.075   1.826
 9269SOL     OW28705   4.099   0.899   0.440
 9269SOL    HW128706   4.196   0.879   0.451
 9269SOL    HW228707   4.074   0.975   0.501
 9270SOL     OW28708   1.823   0.236   6.182
 9270SOL    HW128709   1.729   0.268   6.171
 9270SOL    HW228710   1.882   0.312   6.208
 9271SOL     OW28711   1.721   6.748   4.819
 9271SOL    HW128712   1.735   6.650   4.801
 9271SOL    HW228713   1.647   6.782   4.761
 9272SOL     OW28714   6.510   0.016   5.856
 9272SOL    HW128715   6.528   0.115   5.855
 9272SOL    HW228716   6.542   6.994   5.771
 9273SOL     OW28717   4.734   5.337   4.513
 9273SOL    HW128718   4.638   5.364   4.523
 9273SOL    HW228719   4.768   5.368   4.425
 9274SOL     OW28720   0.736   2.474   0.398
 9274SOL    HW128721   0.654   2.493   0.452
 9274SOL    HW228722   0.714   2.479   0.300
 9275SOL     OW28723   0.168   0.443   0.058
 9275SOL    HW128724   0.197   0.537   0.075
 9275SOL    HW228725   0.069   0.439   0.050
 9276SOL     OW28726   2.415   5.493   0.044
 9276SOL    HW128727   2.372   5.571   7.016
 9276SOL    HW228728   2.488   5.456   7.005
 9277SOL     OW28729   4.997   6.091   2.068
 9277SOL    HW128730   5.045   6.165   2.021
 9277SOL    HW228731   5.036   6.003   2.040
 9278SOL     OW28732   1.022   0.622   5.065
 9278SOL    HW128733   0.978   0.694   5.119
 9278SOL    HW228734   0.977   0.615   4.976
 9279SOL     OW28735   4.561   5.976   1.784
 9279SOL    HW128736   4.607   5.888   1.772
 9279SOL    HW228737   4.513   5.976   1.872
 9280SOL     OW28738   1.526   6.977   2.934
 9280SOL    HW128739   1.623   6.963   2.952
 9280SOL    HW228740   1.505   6.947   2.841
 9281SOL     OW28741   2.321   5.116   6.809
 9281SOL    HW128742   2.369   5.159   6.732
 9281SOL    HW228743   2.293   5.186   6.874
 9282SOL     OW28744   2.695   6.640   5.026
 9282SOL    HW128745   2.697   6.714   5.094
 9282SOL    HW228746   2.647   6.671   4.945
 9283SOL     OW28747   4.327   6.013   0.375
 9283SOL    HW128748   4.365   5.926   0.344
 9283SOL    HW228749   4.266   5.997   0.453
 9284SOL     OW28750   3.209   3.667   4.772
 9284SOL    HW128751   3.298   3.637   4.806
 9284SOL    HW228752   3.170   3.594   4.715
 9285SOL     OW28753   0.434   4.729   2.436
 9285SOL    HW128754   0.409   4.746   2.532
 9285SOL    HW228755   0.532   4.715   2.429
 9286SOL     OW28756   4.692   6.247   1.292
 9286SOL    HW128757   4.644   6.320   1.243
 9286SOL    HW228758   4.655   6.240   1.385
 9287SOL     OW28759   3.446   4.302   6.357
 9287SOL    HW128760   3.465   4.399   6.374
 9287SOL    HW228761   3.352   4.292   6.324
 9288SOL     OW28762   3.851   2.071   2.712
 9288SOL    HW128763   3.880   2.047   2.619
 9288SOL    HW228764   3.753   2.090   2.712
 9289SOL     OW28765   4.948   6.345   0.290
 9289SOL    HW128766   4.894   6.406   0.232
 9289SOL    HW228767   4.948   6.254   0.251
 9290SOL     OW28768   4.699   0.989   3.846
 9290SOL    HW128769   4.760   0.937   3.786
 9290SOL    HW228770   4.690   1.083   3.813
 9291SOL     OW28771   0.839   4.828   6.382
 9291SOL    HW128772   0.908   4.824   6.454
 9291SOL    HW228773   0.789   4.914   6.389
 9292SOL     OW28774   1.592   1.386   6.452
 9292SOL    HW128775   1.585   1.292   6.486
 9292SOL    HW228776   1.681   1.424   6.477
 9293SOL     OW28777   5.145   2.630   5.041
 9293SOL    HW128778   5.095   2.690   4.977
 9293SOL    HW228779   5.087   2.611   5.120
 9294SOL     OW28780   4.456   1.229   0.131
 9294SOL    HW128781   4.416   1.206   0.220
 9294SOL    HW228782   4.384   1.227   0.061
 9295SOL     OW28783   0.273   1.257   5.170
 9295SOL    HW128784   0.190   1.308   5.191
 9295SOL    HW228785   0.325   1.305   5.099
 9296SOL     OW28786   1.302   4.958   0.201
 9296SOL    HW128787   1.300   4.865   0.240
 9296SOL    HW228788   1.312   5.025   0.275
 9297SOL     OW28789   5.896   5.725   2.387
 9297SOL    HW128790   5.898   5.668   2.305
 9297SOL    HW228791   5.931   5.816   2.365
 9298SOL     OW28792   1.600   5.577   6.144
 9298SOL    HW128793   1.638   5.593   6.235
 9298SOL    HW228794   1.565   5.663   6.107
 9299SOL     OW28795   1.848   2.602   4.973
 9299SOL    HW128796   1.864   2.625   5.070
 9299SOL    HW228797   1.815   2.684   4.925
 9300SOL     OW28798   1.436   5.264   5.472
 9300SOL    HW128799   1.529   5.268   5.510
 9300SOL    HW228800   1.373   5.232   5.543
 9301SOL     OW28801   0.162   4.037   4.918
 9301SOL    HW128802   0.134   3.946   4.951
 9301SOL    HW228803   0.141   4.105   4.988
 9302SOL     OW28804   2.186   3.603   5.215
 9302SOL    HW128805   2.172   3.660   5.134
 9302SOL    HW228806   2.284   3.595   5.234
 9303SOL     OW28807   2.162   4.543   0.693
 9303SOL    HW128808   2.239   4.498   0.738
 9303SOL    HW228809   2.101   4.474   0.654
 9304SOL     OW28810   4.002   5.335   0.260
 9304SOL    HW128811   3.993   5.259   0.324
 9304SOL    HW228812   3.912   5.363   0.228
 9305SOL     OW28813   2.249   1.895   1.144
 9305SOL    HW128814   2.337   1.937   1.122
 9305SOL    HW228815   2.264   1.805   1.186
 9306SOL     OW28816   6.345   5.396   4.680
 9306SOL    HW128817   6.247   5.390   4.701
 9306SOL    HW228818   6.356   5.436   4.589
 9307SOL     OW28819   2.544   3.015   1.686
 9307SOL    HW128820   2.525   2.925   1.726
 9307SOL    HW228821   2.529   3.012   1.588
 9308SOL     OW28822   2.101   3.938   2.075
 9308SOL    HW128823   2.109   3.920   2.174
 9308SOL    HW228824   2.087   3.852   2.027
 9309SOL     OW28825   4.821   5.494   6.255
 9309SOL    HW128826   4.801   5.478   6.352
 9309SOL    HW228827   4.782   5.582   6.227
 9310SOL     OW28828   5.553   5.881   0.373
 9310SOL    HW128829   5.597   5.795   0.347
 9310SOL    HW228830   5.622   5.954   0.377
 9311SOL     OW28831   4.548   3.717   1.495
 9311SOL    HW128832   4.511   3.653   1.429
 9311SOL    HW228833   4.555   3.808   1.453
 9312SOL     OW28834   0.537   2.865   2.069
 9312SOL    HW128835   0.460   2.847   2.009
 9312SOL    HW228836   0.534   2.803   2.147
 9313SOL     OW28837   0.335   0.113   2.091
 9313SOL    HW128838   0.260   0.177   2.076
 9313SOL    HW228839   0.418   0.148   2.047
 9314SOL     OW28840   4.993   3.651   0.606
 9314SOL    HW128841   4.924   3.605   0.550
 9314SOL    HW228842   5.001   3.746   0.578
 9315SOL     OW28843   5.423   0.474   6.088
 9315SOL    HW128844   5.412   0.518   5.999
 9315SOL    HW228845   5.335   0.437   6.118
 9316SOL     OW28846   4.465   0.612   5.524
 9316SOL    HW128847   4.520   0.690   5.552
 9316SOL    HW228848   4.371   0.642   5.506
 9317SOL     OW28849   3.744   6.577   3.126
 9317SOL    HW128850   3.778   6.583   3.220
 9317SOL    HW228851   3.821   6.576   3.062
 9318SOL     OW28852   4.700   6.462   1.495
 9318SOL    HW128853   4.682   6.389   1.561
 9318SOL    HW228854   4.798   6.482   1.494
 9319SOL     OW28855   2.464   3.612   0.068
 9319SOL    HW128856   2.516   3.679   0.120
 9319SOL    HW228857   2.415   3.658   7.012
 9320SOL     OW28858   6.833   6.493   6.919
 9320SOL    HW128859   6.817   6.471   7.015
 9320SOL    HW228860   6.931   6.493   6.901
 9321SOL     OW28861   1.005   3.497   4.805
 9321SOL    HW128862   0.943   3.435   4.854
 9321SOL    HW228863   1.010   3.470   4.709
 9322SOL     OW28864   5.988   3.472   6.364
 9322SOL    HW128865   5.925   3.397   6.347
 9322SOL    HW228866   5.965   3.516   6.451
 9323SOL     OW28867   1.461   2.014   4.998
 9323SOL    HW128868   1.489   2.060   4.914
 9323SOL    HW228869   1.464   2.079   5.074
 9324SOL     OW28870   0.707   4.524   1.551
 9324SOL    HW128871   0.674   4.480   1.635
 9324SOL    HW228872   0.643   4.507   1.477
 9325SOL     OW28873   1.171   4.719   3.259
 9325SOL    HW128874   1.254   4.713   3.315
 9325SOL    HW228875   1.099   4.664   3.301
 9326SOL     OW28876   4.535   4.763   1.658
 9326SOL    HW128877   4.564   4.701   1.730
 9326SOL    HW228878   4.437   4.784   1.668
 9327SOL     OW28879   4.052   0.479   3.944
 9327SOL    HW128880   4.109   0.558   3.967
 9327SOL    HW228881   3.957   0.509   3.932
 9328SOL     OW28882   2.561   0.032   4.184
 9328SOL    HW128883   2.621   6.975   4.156
 9328SOL    HW228884   2.556   0.099   4.110
 9329SOL     OW28885   0.025   4.992   6.685
 9329SOL    HW128886   0.100   5.053   6.661
 9329SOL    HW228887   6.978   4.989   6.609
 9330SOL     OW28888   6.830   5.343   6.559
 9330SOL    HW128889   6.892   5.314   6.486
 9330SOL    HW228890   6.832   5.276   6.633
 9331SOL     OW28891   1.688   3.138   4.772
 9331SOL    HW128892   1.701   3.209   4.703
 9331SOL    HW228893   1.723   3.170   4.860
 9332SOL     OW28894   4.831   5.634   1.178
 9332SOL    HW128895   4.821   5.728   1.143
 9332SOL    HW228896   4.926   5.618   1.202
 9333SOL     OW28897   3.942   4.301   1.143
 9333SOL    HW128898   3.881   4.260   1.211
 9333SOL    HW228899   4.027   4.248   1.138
 9334SOL     OW28900   6.203   6.060   5.726
 9334SOL    HW128901   6.251   6.071   5.639
 9334SOL    HW228902   6.173   6.149   5.759
 9335SOL     OW28903   1.184   3.125   1.272
 9335SOL    HW128904   1.181   3.199   1.204
 9335SOL    HW228905   1.269   3.074   1.262
 9336SOL     OW28906   5.898   6.740   4.817
 9336SOL    HW128907   5.954   6.691   4.751
 9336SOL    HW228908   5.953   6.762   4.898
 9337SOL     OW28909   2.693   0.070   6.488
 9337SOL    HW128910   2.730   0.063   6.395
 9337SOL    HW228911   2.683   0.166   6.513
 9338SOL     OW28912   5.667   6.594   0.240
 9338SOL    HW128913   5.709   6.677   0.203
 9338SOL    HW228914   5.570   6.610   0.258
 9339SOL     OW28915   6.300   4.151   5.467
 9339SOL    HW128916   6.209   4.192   5.475
 9339SOL    HW228917   6.350   4.194   5.392
 9340SOL     OW28918   4.076   5.937   1.824
 9340SOL    HW128919   3.988   5.958   1.783
 9340SOL    HW228920   4.149   5.962   1.761
 9341SOL     OW28921   4.921   4.215   6.878
 9341SOL    HW128922   4.826   4.211   6.848
 9341SOL    HW228923   4.960   4.304   6.856
 9342SOL     OW28924   3.084   0.362   4.486
 9342SOL    HW128925   3.173   0.404   4.466
 9342SOL    HW228926   3.036   0.418   4.554
 9343SOL     OW28927   4.521   4.485   1.768
 9343SOL    HW128928   4.617   4.508   1.752
 9343SOL    HW228929   4.513   4.386   1.781
 9344SOL     OW28930   6.058   6.058   5.347
 9344SOL    HW128931   6.069   6.148   5.389
 9344SOL    HW228932   6.014   6.068   5.258
 9345SOL     OW28933   0.074   6.480   0.712
 9345SOL    HW128934   0.170   6.496   0.735
 9345SOL    HW228935   0.015   6.533   0.773
 9346SOL     OW28936   5.940   5.874   1.026
 9346SOL    HW128937   5.929   5.951   1.088
 9346SOL    HW228938   5.882   5.886   0.946
 9347SOL     OW28939   3.470   5.446   0.743
 9347SOL    HW128940   3.453   5.472   0.838
 9347SOL    HW228941   3.544   5.502   0.706
 9348SOL     OW28942   2.650   5.984   1.679
 9348SOL    HW128943   2.741   6.025   1.683
 9348SOL    HW228944   2.593   6.036   1.616
 9349SOL     OW28945   6.211   5.768   1.861
 9349SOL    HW128946   6.150   5.769   1.782
 9349SOL    HW228947   6.299   5.728   1.835
 9350SOL     OW28948   0.083   0.404   5.592
 9350SOL    HW128949   0.174   0.374   5.618
 9350SOL    HW228950   0.089   0.492   5.545
 9351SOL     OW28951   3.017   1.701   6.587
 9351SOL    HW128952   3.005   1.732   6.492
 9351SOL    HW228953   3.111   1.671   6.600
 9352SOL     OW28954   3.458   2.400   6.259
 9352SOL    HW128955   3.525   2.416   6.187
 9352SOL    HW228956   3.430   2.487   6.299
 9353SOL     OW28957   0.891   3.358   1.121
 9353SOL    HW128958   0.856   3.383   1.030
 9353SOL    HW228959   0.855   3.421   1.189
 9354SOL     OW28960   5.128   2.256   1.325
 9354SOL    HW128961   5.037   2.249   1.366
 9354SOL    HW228962   5.140   2.347   1.286
 9355SOL     OW28963   6.870   6.959   2.945
 9355SOL    HW128964   6.879   6.900   3.025
 9355SOL    HW228965   6.911   0.029   2.964
 9356SOL     OW28966   4.402   4.790   2.346
 9356SOL    HW128967   4.461   4.734   2.404
 9356SOL    HW228968   4.436   4.788   2.252
 9357SOL     OW28969   3.343   2.367   1.269
 9357SOL    HW128970   3.436   2.388   1.299
 9357SOL    HW228971   3.284   2.355   1.349
 9358SOL     OW28972   5.988   4.556   2.225
 9358SOL    HW128973   5.952   4.621   2.159
 9358SOL    HW228974   6.085   4.574   2.241
 9359SOL     OW28975   6.595   3.969   5.694
 9359SOL    HW128976   6.636   3.953   5.784
 9359SOL    HW228977   6.633   3.903   5.628
 9360SOL     OW28978   2.444   1.120   0.091
 9360SOL    HW128979   2.538   1.152   0.087
 9360SOL    HW228980   2.443   1.021   0.107
 9361SOL     OW28981   2.854   6.667   2.404
 9361SOL    HW128982   2.923   6.693   2.336
 9361SOL    HW228983   2.790   6.603   2.362
 9362SOL     OW28984   2.327   1.458   2.506
 9362SOL    HW128985   2.306   1.458   2.604
 9362SOL    HW228986   2.391   1.533   2.486
 9363SOL     OW28987   3.320   6.074   2.273
 9363SOL    HW128988   3.243   6.040   2.327
 9363SOL    HW228989   3.400   6.016   2.290
 9364SOL     OW28990   4.440   4.086   0.094
 9364SOL    HW128991   4.480   4.176   0.080
 9364SOL    HW228992   4.507   4.026   0.137
 9365SOL     OW28993   2.893   1.816   4.670
 9365SOL    HW128994   2.873   1.848   4.578
 9365SOL    HW228995   2.985   1.844   4.696
 9366SOL     OW28996   2.720   1.832   0.903
 9366SOL    HW128997   2.788   1.812   0.974
 9366SOL    HW228998   2.755   1.801   0.815
 9367SOL     OW28999   6.838   5.907   2.929
 9367SOL    HW129000   6.743   5.927   2.954
 9367SOL    HW229001   6.840   5.834   2.861
 9368SOL     OW29002   2.946   1.850   1.945
 9368SOL    HW129003   3.017   1.824   1.879
 9368SOL    HW229004   2.969   1.937   1.987
 9369SOL     OW29005   6.951   2.310   4.992
 9369SOL    HW129006   6.997   2.273   4.912
 9369SOL    HW229007   6.869   2.359   4.964
 9370SOL     OW29008   6.296   0.834   2.823
 9370SOL    HW129009   6.391   0.863   2.821
 9370SOL    HW229010   6.285   0.760   2.890
 9371SOL     OW29011   0.173   6.291   0.210
 9371SOL    HW129012   0.167   6.360   0.138
 9371SOL    HW229013   0.201   6.335   0.295
 9372SOL     OW29014   6.212   6.438   3.919
 9372SOL    HW129015   6.153   6.483   3.987
 9372SOL    HW229016   6.286   6.500   3.894
 9373SOL     OW29017   3.881   1.489   3.442
 9373SOL    HW129018   3.817   1.565   3.434
 9373SOL    HW229019   3.851   1.427   3.514
 9374SOL     OW29020   4.983   3.332   0.008
 9374SOL    HW129021   5.066   3.280   0.026
 9374SOL    HW229022   5.005   3.430   0.004
 9375SOL     OW29023   0.449   1.262   3.175
 9375SOL    HW129024   0.496   1.308   3.100
 9375SOL    HW229025   0.497   1.177   3.197
 9376SOL     OW29026   2.708   3.763   0.826
 9376SOL    HW129027   2.669   3.674   0.801
 9376SOL    HW229028   2.640   3.835   0.810
 9377SOL     OW29029   6.013   5.821   3.681
 9377SOL    HW129030   6.105   5.796   3.651
 9377SOL    HW229031   5.976   5.750   3.740
 9378SOL     OW29032   2.263   6.782   0.344
 9378SOL    HW129033   2.349   6.765   0.296
 9378SOL    HW229034   2.207   6.699   0.343
 9379SOL     OW29035   5.220   5.354   3.914
 9379SOL    HW129036   5.287   5.356   3.841
 9379SOL    HW229037   5.258   5.398   3.996
 9380SOL     OW29038   6.010   6.860   5.348
 9380SOL    HW129039   5.985   6.773   5.390
 9380SOL    HW229040   5.927   6.911   5.325
 9381SOL     OW29041   2.495   1.950   5.694
 9381SOL    HW129042   2.520   2.019   5.626
 9381SOL    HW229043   2.543   1.968   5.780
 9382SOL     OW29044   4.251   1.908   2.478
 9382SOL    HW129045   4.187   1.983   2.465
 9382SOL    HW229046   4.274   1.899   2.575
 9383SOL     OW29047   4.148   6.503   4.056
 9383SOL    HW129048   4.048   6.508   4.060
 9383SOL    HW229049   4.188   6.560   4.128
 9384SOL     OW29050   4.921   6.296   2.287
 9384SOL    HW129051   4.902   6.213   2.235
 9384SOL    HW229052   4.837   6.328   2.331
 9385SOL     OW29053   3.841   0.825   3.493
 9385SOL    HW129054   3.894   0.831   3.577
 9385SOL    HW229055   3.852   0.910   3.440
 9386SOL     OW29056   2.608   6.476   5.677
 9386SOL    HW129057   2.617   6.398   5.739
 9386SOL    HW229058   2.689   6.481   5.619
 9387SOL     OW29059   3.181   6.446   1.118
 9387SOL    HW129060   3.154   6.353   1.143
 9387SOL    HW229061   3.129   6.474   1.037
 9388SOL     OW29062   0.524   0.870   2.840
 9388SOL    HW129063   0.517   0.876   2.740
 9388SOL    HW229064   0.438   0.899   2.881
 9389SOL     OW29065   2.762   1.083   5.770
 9389SOL    HW129066   2.727   1.096   5.863
 9389SOL    HW229067   2.846   1.028   5.773
 9390SOL     OW29068   3.057   5.367   2.121
 9390SOL    HW129069   3.142   5.418   2.112
 9390SOL    HW229070   3.076   5.269   2.113
 9391SOL     OW29071   0.460   1.085   5.500
 9391SOL    HW129072   0.466   1.064   5.598
 9391SOL    HW229073   0.477   1.003   5.447
 9392SOL     OW29074   1.666   6.487   4.635
 9392SOL    HW129075   1.571   6.502   4.610
 9392SOL    HW229076   1.671   6.418   4.707
 9393SOL     OW29077   3.527   2.395   5.348
 9393SOL    HW129078   3.463   2.471   5.348
 9393SOL    HW229079   3.479   2.310   5.323
 9394SOL     OW29080   6.519   2.979   2.815
 9394SOL    HW129081   6.503   2.898   2.872
 9394SOL    HW229082   6.569   2.953   2.733
 9395SOL     OW29083   2.730   3.525   1.106
 9395SOL    HW129084   2.701   3.434   1.075
 9395SOL    HW229085   2.759   3.579   1.028
 9396SOL     OW29086   6.247   6.889   6.217
 9396SOL    HW129087   6.266   6.976   6.262
 9396SOL    HW229088   6.252   6.901   6.118
 9397SOL     OW29089   2.356   7.013   0.454
 9397SOL    HW129090   2.438   6.993   0.507
 9397SOL    HW229091   2.313   6.927   0.425
 9398SOL     OW29092   2.673   1.581   6.579
 9398SOL    HW129093   2.767   1.597   6.548
 9398SOL    HW229094   2.651   1.484   6.568
 9399SOL     OW29095   7.011   1.016   5.992
 9399SOL    HW129096   0.078   0.972   5.964
 9399SOL    HW229097   0.001   1.048   6.087
 9400SOL     OW29098   5.559   3.469   2.462
 9400SOL    HW129099   5.551   3.487   2.364
 9400SOL    HW229100   5.620   3.537   2.503
 9401SOL     OW29101   2.834   6.215   3.584
 9401SOL    HW129102   2.832   6.117   3.602
 9401SOL    HW229103   2.862   6.230   3.489
 9402SOL     OW29104   2.413   5.047   6.361
 9402SOL    HW129105   2.490   5.105   6.386
 9402SOL    HW229106   2.441   4.951   6.362
 9403SOL     OW29107   5.084   1.351   3.626
 9403SOL    HW129108   5.109   1.448   3.626
 9403SOL    HW229109   5.030   1.331   3.545
 9404SOL     OW29110   1.402   5.129   6.670
 9404SOL    HW129111   1.432   5.213   6.624
 9404SOL    HW229112   1.457   5.114   6.752
 9405SOL     OW29113   6.319   0.060   0.971
 9405SOL    HW129114   6.361   0.137   0.923
 9405SOL    HW229115   6.219   0.070   0.969
 9406SOL     OW29116   0.201   1.598   5.331
 9406SOL    HW129117   0.148   1.531   5.279
 9406SOL    HW229118   0.281   1.554   5.371
 9407SOL     OW29119   3.156   6.187   2.897
 9407SOL    HW129120   3.179   6.203   2.801
 9407SOL    HW229121   3.106   6.265   2.932
 9408SOL     OW29122   3.973   1.869   6.763
 9408SOL    HW129123   3.943   1.783   6.804
 9408SOL    HW229124   4.062   1.895   6.801
 9409SOL     OW29125   6.031   3.348   3.875
 9409SOL    HW129126   5.977   3.428   3.901
 9409SOL    HW229127   6.025   3.333   3.776
 9410SOL     OW29128   4.246   6.235   2.431
 9410SOL    HW129129   4.325   6.225   2.370
 9410SOL    HW229130   4.162   6.227   2.378
 9411SOL     OW29131   4.223   5.524   0.336
 9411SOL    HW129132   4.218   5.496   0.432
 9411SOL    HW229133   4.153   5.476   0.284
 9412SOL     OW29134   0.181   2.584   1.278
 9412SOL    HW129135   0.112   2.647   1.314
 9412SOL    HW229136   0.269   2.631   1.272
 9413SOL     OW29137   4.280   5.979   5.383
 9413SOL    HW129138   4.262   6.076   5.364
 9413SOL    HW229139   4.226   5.951   5.463
 9414SOL     OW29140   3.214   1.497   2.974
 9414SOL    HW129141   3.215   1.549   2.888
 9414SOL    HW229142   3.292   1.436   2.977
 9415SOL     OW29143   2.201   6.227   2.529
 9415SOL    HW129144   2.207   6.296   2.457
 9415SOL    HW229145   2.106   6.209   2.552
 9416SOL     OW29146   1.409   2.238   2.101
 9416SOL    HW129147   1.349   2.163   2.130
 9416SOL    HW229148   1.414   2.240   2.001
 9417SOL     OW29149   2.402   5.479   5.450
 9417SOL    HW129150   2.336   5.410   5.481
 9417SOL    HW229151   2.368   5.522   5.366
 9418SOL     OW29152   2.264   4.953   1.562
 9418SOL    HW129153   2.311   5.012   1.497
 9418SOL    HW229154   2.327   4.880   1.592
 9419SOL     OW29155   3.168   6.639   5.170
 9419SOL    HW129156   3.080   6.638   5.123
 9419SOL    HW229157   3.200   6.733   5.179
 9420SOL     OW29158   6.496   1.340   4.874
 9420SOL    HW129159   6.518   1.311   4.781
 9420SOL    HW229160   6.580   1.357   4.924
 9421SOL     OW29161   1.251   4.068   5.684
 9421SOL    HW129162   1.229   4.149   5.738
 9421SOL    HW229163   1.274   4.095   5.591
 9422SOL     OW29164   5.363   0.453   2.120
 9422SOL    HW129165   5.367   0.440   2.021
 9422SOL    HW229166   5.274   0.425   2.154
 9423SOL     OW29167   3.879   0.799   3.936
 9423SOL    HW129168   3.795   0.746   3.947
 9423SOL    HW229169   3.929   0.802   4.022
 9424SOL     OW29170   4.105   0.161   4.854
 9424SOL    HW129171   4.054   0.084   4.893
 9424SOL    HW229172   4.088   0.243   4.909
 9425SOL     OW29173   0.875   4.169   5.265
 9425SOL    HW129174   0.963   4.217   5.268
 9425SOL    HW229175   0.891   4.071   5.265
 9426SOL     OW29176   3.264   0.371   6.904
 9426SOL    HW129177   3.207   0.311   6.848
 9426SOL    HW229178   3.329   0.419   6.846
 9427SOL     OW29179   2.954   5.223   4.878
 9427SOL    HW129180   3.049   5.246   4.856
 9427SOL    HW229181   2.937   5.128   4.853
 9428SOL     OW29182   5.654   0.580   2.970
 9428SOL    HW129183   5.641   0.535   2.881
 9428SOL    HW229184   5.574   0.636   2.991
 9429SOL     OW29185   1.020   4.296   1.962
 9429SOL    HW129186   0.968   4.352   2.027
 9429SOL    HW229187   0.966   4.280   1.880
 9430SOL     OW29188   6.745   6.038   1.688
 9430SOL    HW129189   6.843   6.017   1.688
 9430SOL    HW229190   6.693   5.955   1.704
 9431SOL     OW29191   6.944   3.938   0.598
 9431SOL    HW129192   7.004   3.921   0.676
 9431SOL    HW229193   6.971   4.024   0.554
 9432SOL     OW29194   6.111   0.423   3.158
 9432SOL    HW129195   6.019   0.391   3.135
 9432SOL    HW229196   6.138   0.495   3.094
 9433SOL     OW29197   3.519   4.915   5.266
 9433SOL    HW129198   3.434   4.946   5.224
 9433SOL    HW229199   3.595   4.928   5.203
 9434SOL     OW29200   5.911   4.241   3.178
 9434SOL    HW129201   5.811   4.239   3.172
 9434SOL    HW229202   5.941   4.182   3.253
 9435SOL     OW29203   1.610   1.454   3.888
 9435SOL    HW129204   1.672   1.500   3.951
 9435SOL    HW229205   1.646   1.364   3.866
 9436SOL     OW29206   2.198   3.825   0.551
 9436SOL    HW129207   2.285   3.809   0.597
 9436SOL    HW229208   2.138   3.746   0.564
 9437SOL     OW29209   1.677   5.089   3.408
 9437SOL    HW129210   1.588   5.092   3.454
 9437SOL    HW229211   1.749   5.114   3.473
 9438SOL     OW29212   0.558   6.888   2.423
 9438SOL    HW129213   0.545   6.824   2.347
 9438SOL    HW229214   0.472   6.935   2.442
 9439SOL     OW29215   0.302   3.260   2.124
 9439SOL    HW129216   0.253   3.180   2.156
 9439SOL    HW229217   0.312   3.326   2.200
 9440SOL     OW29218   4.804   6.548   5.444
 9440SOL    HW129219   4.747   6.628   5.427
 9440SOL    HW229220   4.799   6.524   5.541
 9441SOL     OW29221   2.020   4.913   4.958
 9441SOL    HW129222   2.066   4.853   4.893
 9441SOL    HW229223   2.000   5.001   4.915
 9442SOL     OW29224   6.914   2.748   0.134
 9442SOL    HW129225   6.895   2.846   0.122
 9442SOL    HW229226   6.935   2.707   0.046
 9443SOL     OW29227   1.977   4.567   0.894
 9443SOL    HW129228   2.040   4.590   0.820
 9443SOL    HW229229   1.897   4.627   0.890
 9444SOL     OW29230   0.554   3.141   0.440
 9444SOL    HW129231   0.503   3.216   0.398
 9444SOL    HW229232   0.491   3.079   0.487
 9445SOL     OW29233   5.824   3.880   2.435
 9445SOL    HW129234   5.918   3.896   2.405
 9445SOL    HW229235   5.763   3.941   2.384
 9446SOL     OW29236   6.089   6.306   2.119
 9446SOL    HW129237   6.089   6.378   2.050
 9446SOL    HW229238   6.168   6.317   2.180
 9447SOL     OW29239   5.148   3.739   2.412
 9447SOL    HW129240   5.056   3.699   2.406
 9447SOL    HW229241   5.164   3.772   2.505
 9448SOL     OW29242   6.073   6.572   6.766
 9448SOL    HW129243   6.114   6.580   6.675
 9448SOL    HW229244   6.145   6.566   6.835
 9449SOL     OW29245   5.916   5.523   5.701
 9449SOL    HW129246   5.958   5.439   5.666
 9449SOL    HW229247   5.888   5.580   5.624
 9450SOL     OW29248   2.411   5.254   4.206
 9450SOL    HW129249   2.476   5.250   4.282
 9450SOL    HW229250   2.320   5.272   4.242
 9451SOL     OW29251   4.448   5.450   6.601
 9451SOL    HW129252   4.446   5.434   6.700
 9451SOL    HW229253   4.542   5.464   6.571
 9452SOL     OW29254   2.170   3.778   0.868
 9452SOL    HW129255   2.200   3.830   0.948
 9452SOL    HW229256   2.136   3.689   0.897
 9453SOL     OW29257   2.046   5.137   2.939
 9453SOL    HW129258   2.114   5.133   2.867
 9453SOL    HW229259   1.999   5.049   2.946
 9454SOL     OW29260   1.295   3.850   6.278
 9454SOL    HW129261   1.210   3.902   6.267
 9454SOL    HW229262   1.360   3.905   6.331
 9455SOL     OW29263   3.328   1.266   2.732
 9455SOL    HW129264   3.284   1.302   2.650
 9455SOL    HW229265   3.261   1.259   2.806
 9456SOL     OW29266   1.216   3.863   1.028
 9456SOL    HW129267   1.133   3.842   1.078
 9456SOL    HW229268   1.296   3.835   1.082
 9457SOL     OW29269   1.948   3.307   6.919
 9457SOL    HW129270   1.919   3.371   6.989
 9457SOL    HW229271   1.912   3.216   6.940
 9458SOL     OW29272   6.674   4.960   5.735
 9458SOL    HW129273   6.753   4.950   5.675
 9458SOL    HW229274   6.624   4.874   5.739
 9459SOL     OW29275   6.029   5.388   1.707
 9459SOL    HW129276   6.098   5.442   1.661
 9459SOL    HW229277   6.044   5.291   1.688
 9460SOL     OW29278   0.933   1.877   4.948
 9460SOL    HW129279   0.909   1.964   4.905
 9460SOL    HW229280   1.032   1.875   4.967
 9461SOL     OW29281   0.747   1.163   3.370
 9461SOL    HW129282   0.699   1.094   3.315
 9461SOL    HW229283   0.792   1.118   3.448
 9462SOL     OW29284   1.231   2.939   2.674
 9462SOL    HW129285   1.146   2.983   2.646
 9462SOL    HW229286   1.211   2.852   2.719
 9463SOL     OW29287   6.577   1.077   0.167
 9463SOL    HW129288   6.647   1.012   0.135
 9463SOL    HW229289   6.578   1.158   0.108
 9464SOL     OW29290   5.998   6.837   6.279
 9464SOL    HW129291   5.967   6.796   6.193
 9464SOL    HW229292   6.095   6.860   6.271
 9465SOL     OW29293   6.676   0.711   3.391
 9465SOL    HW129294   6.741   0.749   3.457
 9465SOL    HW229295   6.725   0.655   3.324
 9466SOL     OW29296   2.558   3.047   5.916
 9466SOL    HW129297   2.615   2.989   5.857
 9466SOL    HW229298   2.587   3.142   5.907
 9467SOL     OW29299   1.921   2.559   2.030
 9467SOL    HW129300   1.986   2.486   2.051
 9467SOL    HW229301   1.859   2.571   2.107
 9468SOL     OW29302   6.618   2.920   5.966
 9468SOL    HW129303   6.662   2.918   6.055
 9468SOL    HW229304   6.562   3.002   5.958
 9469SOL     OW29305   6.306   5.820   2.404
 9469SOL    HW129306   6.279   5.770   2.487
 9469SOL    HW229307   6.264   5.777   2.325
 9470SOL     OW29308   4.960   3.646   0.006
 9470SOL    HW129309   5.006   3.654   0.094
 9470SOL    HW229310   4.987   3.722   6.965
 9471SOL     OW29311   6.632   2.379   5.709
 9471SOL    HW129312   6.600   2.467   5.744
 9471SOL    HW229313   6.617   2.375   5.610
 9472SOL     OW29314   6.004   4.400   4.661
 9472SOL    HW129315   6.054   4.314   4.673
 9472SOL    HW229316   6.010   4.428   4.565
 9473SOL     OW29317   3.073   6.258   6.127
 9473SOL    HW129318   2.985   6.272   6.172
 9473SOL    HW229319   3.076   6.309   6.042
 9474SOL     OW29320   5.079   4.897   2.070
 9474SOL    HW129321   5.146   4.903   1.996
 9474SOL    HW229322   5.113   4.835   2.141
 9475SOL     OW29323   3.314   3.598   1.231
 9475SOL    HW129324   3.296   3.685   1.276
 9475SOL    HW229325   3.382   3.546   1.283
 9476SOL     OW29326   4.147   3.405   5.450
 9476SOL    HW129327   4.178   3.310   5.458
 9476SOL    HW229328   4.195   3.449   5.375
 9477SOL     OW29329   1.242   2.336   0.851
 9477SOL    HW129330   1.238   2.417   0.793
 9477SOL    HW229331   1.271   2.363   0.943
 9478SOL     OW29332   5.510   4.449   5.032
 9478SOL    HW129333   5.485   4.359   4.996
 9478SOL    HW229334   5.596   4.443   5.081
 9479SOL     OW29335   6.041   5.387   6.726
 9479SOL    HW129336   6.090   5.416   6.809
 9479SOL    HW229337   6.007   5.294   6.738
 9480SOL     OW29338   4.991   4.476   6.626
 9480SOL    HW129339   5.005   4.454   6.723
 9480SOL    HW229340   5.056   4.423   6.571
 9481SOL     OW29341   0.277   4.194   1.960
 9481SOL    HW129342   0.247   4.173   1.866
 9481SOL    HW229343   0.216   4.263   1.999
 9482SOL     OW29344   4.819   0.756   2.573
 9482SOL    HW129345   4.791   0.749   2.477
 9482SOL    HW229346   4.757   0.818   2.621
 9483SOL     OW29347   1.949   1.922   1.175
 9483SOL    HW129348   1.922   2.015   1.148
 9483SOL    HW229349   2.048   1.911   1.162
 9484SOL     OW29350   6.096   1.099   3.692
 9484SOL    HW129351   6.039   1.158   3.749
 9484SOL    HW229352   6.053   1.088   3.602
 9485SOL     OW29353   0.959   1.200   2.103
 9485SOL    HW129354   1.022   1.195   2.180
 9485SOL    HW229355   0.868   1.171   2.132
 9486SOL     OW29356   2.622   5.770   0.672
 9486SOL    HW129357   2.532   5.731   0.693
 9486SOL    HW229358   2.612   5.865   0.644
 9487SOL     OW29359   3.198   3.989   3.327
 9487SOL    HW129360   3.164   4.009   3.419
 9487SOL    HW229361   3.128   3.940   3.276
 9488SOL     OW29362   1.919   6.080   1.138
 9488SOL    HW129363   1.904   6.132   1.222
 9488SOL    HW229364   1.889   5.986   1.151
 9489SOL     OW29365   4.210   4.482   1.260
 9489SOL    HW129366   4.135   4.468   1.196
 9489SOL    HW229367   4.196   4.424   1.341
 9490SOL     OW29368   5.174   1.189   0.600
 9490SOL    HW129369   5.270   1.216   0.596
 9490SOL    HW229370   5.162   1.117   0.668
 9491SOL     OW29371   6.066   5.445   3.508
 9491SOL    HW129372   5.966   5.448   3.506
 9491SOL    HW229373   6.101   5.410   3.421
 9492SOL     OW29374   3.270   3.866   1.952
 9492SOL    HW129375   3.172   3.883   1.948
 9492SOL    HW229376   3.319   3.953   1.940
 9493SOL     OW29377   4.552   5.929   3.025
 9493SOL    HW129378   4.540   5.936   2.926
 9493SOL    HW229379   4.600   5.844   3.047
 9494SOL     OW29380   5.536   3.367   0.072
 9494SOL    HW129381   5.458   3.407   0.024
 9494SOL    HW229382   5.615   3.429   0.066
 9495SOL     OW29383   6.349   2.160   4.420
 9495SOL    HW129384   6.424   2.218   4.451
 9495SOL    HW229385   6.330   2.179   4.324
 9496SOL     OW29386   5.437   4.114   6.878
 9496SOL    HW129387   5.494   4.131   6.798
 9496SOL    HW229388   5.494   4.084   6.954
 9497SOL     OW29389   5.180   4.765   0.670
 9497SOL    HW129390   5.270   4.775   0.712
 9497SOL    HW229391   5.110   4.769   0.741
 9498SOL     OW29392   3.449   7.017   5.260
 9498SOL    HW129393   3.446   0.078   5.200
 9498SOL    HW229394   3.384   6.948   5.227
 9499SOL     OW29395   2.871   3.648   5.093
 9499SOL    HW129396   2.895   3.583   5.021
 9499SOL    HW229397   2.791   3.616   5.143
 9500SOL     OW29398   4.534   6.194   1.531
 9500SOL    HW129399   4.493   6.111   1.568
 9500SOL    HW229400   4.462   6.259   1.507
 9501SOL     OW29401   3.827   1.864   4.362
 9501SOL    HW129402   3.742   1.906   4.330
 9501SOL    HW229403   3.817   1.837   4.458
 9502SOL     OW29404   6.223   2.535   4.757
 9502SOL    HW129405   6.199   2.528   4.854
 9502SOL    HW229406   6.205   2.628   4.725
 9503SOL     OW29407   0.359   0.254   1.604
 9503SOL    HW129408   0.271   0.279   1.564
 9503SOL    HW229409   0.366   0.155   1.610
 9504SOL     OW29410   0.238   2.603   0.805
 9504SOL    HW129411   0.260   2.505   0.805
 9504SOL    HW229412   0.159   2.620   0.864
 9505SOL     OW29413   6.230   3.638   3.088
 9505SOL    HW129414   6.196   3.717   3.037
 9505SOL    HW229415   6.246   3.562   3.025
 9506SOL     OW29416   0.069   3.175   6.866
 9506SOL    HW129417   0.021   3.116   6.932
 9506SOL    HW229418   0.018   3.178   6.781
 9507SOL     OW29419   1.340   1.486   3.854
 9507SOL    HW129420   1.434   1.460   3.875
 9507SOL    HW229421   1.277   1.421   3.898
 9508SOL     OW29422   5.360   2.004   0.408
 9508SOL    HW129423   5.445   1.997   0.357
 9508SOL    HW229424   5.319   1.913   0.418
 9509SOL     OW29425   1.654   6.570   5.281
 9509SOL    HW129426   1.618   6.543   5.192
 9509SOL    HW229427   1.595   6.535   5.353
 9510SOL     OW29428   0.064   4.178   2.348
 9510SOL    HW129429   0.018   4.093   2.375
 9510SOL    HW229430   0.052   4.246   2.420
 9511SOL     OW29431   0.197   2.576   0.448
 9511SOL    HW129432   0.160   2.656   0.402
 9511SOL    HW229433   0.200   2.499   0.384
 9512SOL     OW29434   0.398   2.311   3.719
 9512SOL    HW129435   0.488   2.306   3.677
 9512SOL    HW229436   0.327   2.298   3.650
 9513SOL     OW29437   1.967   3.847   3.831
 9513SOL    HW129438   1.949   3.773   3.767
 9513SOL    HW229439   1.986   3.809   3.922
 9514SOL     OW29440   2.371   3.555   6.609
 9514SOL    HW129441   2.442   3.608   6.563
 9514SOL    HW229442   2.287   3.557   6.554
 9515SOL     OW29443   1.348   6.117   6.430
 9515SOL    HW129444   1.286   6.048   6.465
 9515SOL    HW229445   1.427   6.125   6.491
 9516SOL     OW29446   4.886   3.520   3.925
 9516SOL    HW129447   4.817   3.507   3.853
 9516SOL    HW229448   4.919   3.614   3.923
 9517SOL     OW29449   0.831   5.038   1.136
 9517SOL    HW129450   0.909   5.041   1.075
 9517SOL    HW229451   0.783   5.126   1.135
 9518SOL     OW29452   0.739   2.669   5.759
 9518SOL    HW129453   0.816   2.619   5.720
 9518SOL    HW229454   0.654   2.641   5.714
 9519SOL     OW29455   3.360   3.169   2.748
 9519SOL    HW129456   3.353   3.177   2.649
 9519SOL    HW229457   3.456   3.177   2.776
 9520SOL     OW29458   0.030   1.083   5.262
 9520SOL    HW129459   6.959   1.121   5.237
 9520SOL    HW229460   0.098   1.156   5.264
 9521SOL     OW29461   3.651   6.207   1.524
 9521SOL    HW129462   3.598   6.159   1.594
 9521SOL    HW229463   3.634   6.305   1.531
 9522SOL     OW29464   4.197   5.491   1.516
 9522SOL    HW129465   4.267   5.538   1.463
 9522SOL    HW229466   4.115   5.548   1.520
 9523SOL     OW29467   2.579   5.066   4.614
 9523SOL    HW129468   2.652   5.003   4.640
 9523SOL    HW229469   2.490   5.021   4.627
 9524SOL     OW29470   1.649   3.941   0.892
 9524SOL    HW129471   1.719   3.924   0.822
 9524SOL    HW229472   1.581   4.005   0.856
 9525SOL     OW29473   1.712   2.099   5.417
 9525SOL    HW129474   1.747   2.152   5.494
 9525SOL    HW229475   1.623   2.060   5.441
 9526SOL     OW29476   5.110   5.304   6.722
 9526SOL    HW129477   5.146   5.397   6.713
 9526SOL    HW229478   5.144   5.262   6.806
 9527SOL     OW29479   3.032   6.832   3.764
 9527SOL    HW129480   3.132   6.829   3.766
 9527SOL    HW229481   2.999   6.894   3.835
 9528SOL     OW29482   6.343   1.039   0.942
 9528SOL    HW129483   6.409   1.074   0.876
 9528SOL    HW229484   6.378   1.053   1.035
 9529SOL     OW29485   6.170   2.397   1.923
 9529SOL    HW129486   6.157   2.462   1.997
 9529SOL    HW229487   6.125   2.311   1.945
 9530SOL     OW29488   1.025   5.395   4.369
 9530SOL    HW129489   1.082   5.344   4.305
 9530SOL    HW229490   0.980   5.332   4.432
 9531SOL     OW29491   4.449   4.592   3.700
 9531SOL    HW129492   4.484   4.519   3.759
 9531SOL    HW229493   4.470   4.681   3.740
 9532SOL     OW29494   6.353   4.993   1.949
 9532SOL    HW129495   6.390   4.929   1.882
 9532SOL    HW229496   6.347   4.949   2.039
 9533SOL     OW29497   1.436   5.648   4.094
 9533SOL    HW129498   1.405   5.726   4.040
 9533SOL    HW229499   1.420   5.668   4.191
 9534SOL     OW29500   6.163   5.084   4.425
 9534SOL    HW129501   6.148   5.091   4.523
 9534SOL    HW229502   6.165   4.988   4.398
 9535SOL     OW29503   1.913   1.469   6.348
 9535SOL    HW129504   1.852   1.421   6.285
 9535SOL    HW229505   1.944   1.406   6.419
 9536SOL     OW29506   3.633   3.381   5.092
 9536SOL    HW129507   3.619   3.474   5.060
 9536SOL    HW229508   3.664   3.383   5.187
 9537SOL     OW29509   1.954   1.768   3.965
 9537SOL    HW129510   1.946   1.787   3.867
 9537SOL    HW229511   1.908   1.839   4.017
 9538SOL     OW29512   3.386   0.578   5.184
 9538SOL    HW129513   3.378   0.484   5.149
 9538SOL    HW229514   3.414   0.639   5.110
 9539SOL     OW29515   3.416   2.893   3.601
 9539SOL    HW129516   3.457   2.825   3.662
 9539SOL    HW229517   3.391   2.974   3.654
 9540SOL     OW29518   4.503   5.181   3.936
 9540SOL    HW129519   4.475   5.276   3.923
 9540SOL    HW229520   4.516   5.138   3.846
 9541SOL     OW29521   1.280   0.446   4.829
 9541SOL    HW129522   1.260   0.492   4.916
 9541SOL    HW229523   1.274   0.511   4.754
 9542SOL     OW29524   5.893   4.748   4.027
 9542SOL    HW129525   5.802   4.715   4.054
 9542SOL    HW229526   5.900   4.845   4.048
 9543SOL     OW29527   3.184   0.094   5.934
 9543SOL    HW129528   3.235   0.132   6.012
 9543SOL    HW229529   3.169   7.015   5.948
 9544SOL     OW29530   4.940   3.810   3.608
 9544SOL    HW129531   4.915   3.727   3.557
 9544SOL    HW229532   4.980   3.784   3.696
 9545SOL     OW29533   0.674   4.789   1.521
 9545SOL    HW129534   0.710   4.830   1.605
 9545SOL    HW229535   0.692   4.691   1.522
 9546SOL     OW29536   3.286   1.268   5.930
 9546SOL    HW129537   3.301   1.207   5.853
 9546SOL    HW229538   3.302   1.363   5.902
 9547SOL     OW29539   3.564   5.844   4.824
 9547SOL    HW129540   3.639   5.795   4.866
 9547SOL    HW229541   3.595   5.886   4.738
 9548SOL     OW29542   0.690   5.262   5.151
 9548SOL    HW129543   0.774   5.242   5.201
 9548SOL    HW229544   0.615   5.210   5.191
 9549SOL     OW29545   4.057   1.495   2.561
 9549SOL    HW129546   4.115   1.576   2.550
 9549SOL    HW229547   4.032   1.485   2.658
 9550SOL     OW29548   5.889   2.776   1.571
 9550SOL    HW129549   5.940   2.852   1.611
 9550SOL    HW229550   5.885   2.701   1.638
 9551SOL     OW29551   6.186   2.467   6.205
 9551SOL    HW129552   6.116   2.533   6.229
 9551SOL    HW229553   6.155   2.412   6.127
 9552SOL     OW29554   2.562   1.025   6.723
 9552SOL    HW129555   2.640   1.085   6.742
 9552SOL    HW229556   2.477   1.077   6.725
 9553SOL     OW29557   5.353   2.295   0.664
 9553SOL    HW129558   5.394   2.321   0.577
 9553SOL    HW229559   5.290   2.366   0.694
 9554SOL     OW29560   2.634   6.444   4.133
 9554SOL    HW129561   2.585   6.389   4.066
 9554SOL    HW229562   2.651   6.389   4.215
 9555SOL     OW29563   6.511   1.545   3.692
 9555SOL    HW129564   6.520   1.573   3.787
 9555SOL    HW229565   6.577   1.472   3.672
 9556SOL     OW29566   1.327   4.471   1.157
 9556SOL    HW129567   1.407   4.481   1.097
 9556SOL    HW229568   1.269   4.552   1.149
 9557SOL     OW29569   4.977   6.859   1.704
 9557SOL    HW129570   4.963   6.888   1.609
 9557SOL    HW229571   4.891   6.826   1.742
 9558SOL     OW29572   6.160   6.252   6.043
 9558SOL    HW129573   6.206   6.182   6.098
 9558SOL    HW229574   6.119   6.320   6.104
 9559SOL     OW29575   1.641   3.527   6.917
 9559SOL    HW129576   1.570   3.561   6.857
 9559SOL    HW229577   1.651   3.428   6.904
 9560SOL     OW29578   3.810   0.601   2.101
 9560SOL    HW129579   3.891   0.638   2.148
 9560SOL    HW229580   3.727   0.636   2.144
 9561SOL     OW29581   0.519   6.852   1.135
 9561SOL    HW129582   0.589   6.923   1.138
 9561SOL    HW229583   0.463   6.856   1.218
 9562SOL     OW29584   3.021   6.035   4.688
 9562SOL    HW129585   3.078   5.980   4.749
 9562SOL    HW229586   3.076   6.111   4.652
 9563SOL     OW29587   0.406   6.696   0.251
 9563SOL    HW129588   0.487   6.720   0.304
 9563SOL    HW229589   0.424   6.612   0.199
 9564SOL     OW29590   0.849   1.139   1.478
 9564SOL    HW129591   0.901   1.056   1.457
 9564SOL    HW229592   0.912   1.213   1.502
 9565SOL     OW29593   2.827   1.327   4.595
 9565SOL    HW129594   2.868   1.287   4.513
 9565SOL    HW229595   2.876   1.411   4.618
 9566SOL     OW29596   2.927   6.073   0.548
 9566SOL    HW129597   2.909   6.142   0.478
 9566SOL    HW229598   2.862   6.082   0.622
 9567SOL     OW29599   6.774   4.179   0.531
 9567SOL    HW129600   6.749   4.086   0.502
 9567SOL    HW229601   6.705   4.212   0.596
 9568SOL     OW29602   3.916   1.455   0.714
 9568SOL    HW129603   4.010   1.487   0.722
 9568SOL    HW229604   3.913   1.374   0.655
 9569SOL     OW29605   6.526   0.781   2.195
 9569SOL    HW129606   6.563   0.873   2.182
 9569SOL    HW229607   6.429   0.787   2.217
 9570SOL     OW29608   0.474   2.756   0.826
 9570SOL    HW129609   0.386   2.710   0.819
 9570SOL    HW229610   0.460   2.849   0.859
 9571SOL     OW29611   2.464   2.814   6.053
 9571SOL    HW129612   2.506   2.889   6.002
 9571SOL    HW229613   2.367   2.834   6.067
 9572SOL     OW29614   2.236   4.135   3.231
 9572SOL    HW129615   2.184   4.120   3.147
 9572SOL    HW229616   2.303   4.208   3.216
 9573SOL     OW29617   6.713   0.889   5.655
 9573SOL    HW129618   6.743   0.933   5.740
 9573SOL    HW229619   6.633   0.832   5.673
 9574SOL     OW29620   4.081   3.052   1.741
 9574SOL    HW129621   4.058   3.149   1.752
 9574SOL    HW229622   4.157   3.044   1.676
 9575SOL     OW29623   6.095   0.434   2.776
 9575SOL    HW129624   6.052   0.438   2.686
 9575SOL    HW229625   6.058   0.356   2.827
 9576SOL     OW29626   1.777   1.427   0.240
 9576SOL    HW129627   1.827   1.513   0.229
 9576SOL    HW229628   1.701   1.423   0.175
 9577SOL     OW29629   6.789   5.642   0.296
 9577SOL    HW129630   6.854   5.705   0.338
 9577SOL    HW229631   6.757   5.679   0.209
 9578SOL     OW29632   1.122   2.741   2.806
 9578SOL    HW129633   1.102   2.759   2.902
 9578SOL    HW229634   1.037   2.743   2.754
 9579SOL     OW29635   5.758   0.268   2.569
 9579SOL    HW129636   5.802   0.357   2.562
 9579SOL    HW229637   5.659   0.280   2.564
 9580SOL     OW29638   5.068   4.165   1.191
 9580SOL    HW129639   4.984   4.212   1.165
 9580SOL    HW229640   5.111   4.213   1.268
 9581SOL     OW29641   0.407   0.682   6.711
 9581SOL    HW129642   0.405   0.674   6.611
 9581SOL    HW229643   0.322   0.723   6.743
 9582SOL     OW29644   3.690   6.046   4.698
 9582SOL    HW129645   3.597   6.074   4.722
 9582SOL    HW229646   3.737   6.122   4.653
 9583SOL     OW29647   3.228   4.307   1.453
 9583SOL    HW129648   3.215   4.405   1.438
 9583SOL    HW229649   3.324   4.283   1.440
 9584SOL     OW29650   1.642   4.678   5.599
 9584SOL    HW129651   1.594   4.591   5.613
 9584SOL    HW229652   1.700   4.697   5.679
 9585SOL     OW29653   5.244   6.661   1.781
 9585SOL    HW129654   5.209   6.616   1.864
 9585SOL    HW229655   5.280   6.592   1.718
 9586SOL     OW29656   4.752   5.303   1.919
 9586SOL    HW129657   4.794   5.391   1.898
 9586SOL    HW229658   4.667   5.294   1.867
 9587SOL     OW29659   1.817   6.255   2.278
 9587SOL    HW129660   1.745   6.210   2.330
 9587SOL    HW229661   1.781   6.285   2.190
 9588SOL     OW29662   6.062   6.219   0.862
 9588SOL    HW129663   6.122   6.173   0.927
 9588SOL    HW229664   6.022   6.300   0.906
 9589SOL     OW29665   1.946   3.704   6.688
 9589SOL    HW129666   2.002   3.645   6.747
 9589SOL    HW229667   1.923   3.787   6.738
 9590SOL     OW29668   5.905   1.970   1.664
 9590SOL    HW129669   5.805   1.978   1.665
 9590SOL    HW229670   5.938   1.952   1.757
 9591SOL     OW29671   3.515   6.490   6.015
 9591SOL    HW129672   3.495   6.470   6.111
 9591SOL    HW229673   3.502   6.588   5.999
 9592SOL     OW29674   3.183   4.612   6.771
 9592SOL    HW129675   3.245   4.539   6.801
 9592SOL    HW229676   3.215   4.699   6.807
 9593SOL     OW29677   1.538   1.578   5.556
 9593SOL    HW129678   1.602   1.501   5.564
 9593SOL    HW229679   1.586   1.663   5.576
 9594SOL     OW29680   2.947   6.326   4.417
 9594SOL    HW129681   2.851   6.321   4.391
 9594SOL    HW229682   3.004   6.329   4.335
 9595SOL     OW29683   0.587   3.472   3.327
 9595SOL    HW129684   0.659   3.542   3.333
 9595SOL    HW229685   0.621   3.395   3.273
 9596SOL     OW29686   0.822   5.567   0.366
 9596SOL    HW129687   0.762   5.647   0.359
 9596SOL    HW229688   0.774   5.494   0.414
 9597SOL     OW29689   0.525   4.448   1.311
 9597SOL    HW129690   0.480   4.368   1.350
 9597SOL    HW229691   0.473   4.481   1.233
 9598SOL     OW29692   2.195   4.050   2.822
 9598SOL    HW129693   2.174   3.966   2.873
 9598SOL    HW229694   2.171   4.037   2.726
 9599SOL     OW29695   3.349   6.679   4.298
 9599SOL    HW129696   3.262   6.676   4.346
 9599SOL    HW229697   3.344   6.621   4.217
 9600SOL     OW29698   2.747   0.276   0.837
 9600SOL    HW129699   2.746   0.178   0.856
 9600SOL    HW229700   2.660   0.303   0.796
 9601SOL     OW29701   5.941   4.097   0.805
 9601SOL    HW129702   5.948   4.095   0.904
 9601SOL    HW229703   5.849   4.070   0.777
 9602SOL     OW29704   4.774   4.065   5.511
 9602SOL    HW129705   4.731   3.991   5.562
 9602SOL    HW229706   4.755   4.152   5.557
 9603SOL     OW29707   5.455   6.550   6.228
 9603SOL    HW129708   5.524   6.623   6.234
 9603SOL    HW229709   5.407   6.557   6.141
 9604SOL     OW29710   5.030   0.342   1.564
 9604SOL    HW129711   5.066   0.416   1.507
 9604SOL    HW229712   5.103   0.276   1.583
 9605SOL     OW29713   0.366   5.457   2.894
 9605SOL    HW129714   0.288   5.518   2.893
 9605SOL    HW229715   0.365   5.401   2.977
 9606SOL     OW29716   1.767   0.759   6.809
 9606SOL    HW129717   1.760   0.659   6.811
 9606SOL    HW229718   1.823   0.787   6.731
 9607SOL     OW29719   2.706   1.467   0.235
 9607SOL    HW129720   2.643   1.533   0.276
 9607SOL    HW229721   2.773   1.515   0.179
 9608SOL     OW29722   0.043   4.759   2.803
 9608SOL    HW129723   0.057   4.858   2.804
 9608SOL    HW229724   0.041   4.725   2.897
 9609SOL     OW29725   4.349   3.081   0.002
 9609SOL    HW129726   4.375   3.128   0.087
 9609SOL    HW229727   4.264   3.121   6.986
 9610SOL     OW29728   1.738   4.725   2.679
 9610SOL    HW129729   1.797   4.675   2.616
 9610SOL    HW229730   1.687   4.795   2.629
 9611SOL     OW29731   1.663   6.378   0.548
 9611SOL    HW129732   1.587   6.371   0.484
 9611SOL    HW229733   1.721   6.297   0.539
 9612SOL     OW29734   0.587   3.502   1.643
 9612SOL    HW129735   0.645   3.581   1.661
 9612SOL    HW229736   0.642   3.419   1.646
 9613SOL     OW29737   5.614   6.424   3.182
 9613SOL    HW129738   5.582   6.432   3.277
 9613SOL    HW229739   5.714   6.425   3.181
 9614SOL     OW29740   3.585   1.851   2.361
 9614SOL    HW129741   3.608   1.929   2.419
 9614SOL    HW229742   3.639   1.772   2.388
 9615SOL     OW29743   2.925   1.664   1.328
 9615SOL    HW129744   2.870   1.657   1.411
 9615SOL    HW229745   3.016   1.625   1.345
 9616SOL     OW29746   3.759   3.418   1.105
 9616SOL    HW129747   3.695   3.409   1.028
 9616SOL    HW229748   3.843   3.367   1.085
 9617SOL     OW29749   2.148   2.974   3.312
 9617SOL    HW129750   2.201   2.898   3.275
 9617SOL    HW229751   2.065   2.939   3.356
 9618SOL     OW29752   2.987   0.077   1.249
 9618SOL    HW129753   3.039   0.136   1.310
 9618SOL    HW229754   2.965   0.126   1.165
 9619SOL     OW29755   2.165   0.364   5.582
 9619SOL    HW129756   2.089   0.302   5.599
 9619SOL    HW229757   2.132   0.459   5.586
 9620SOL     OW29758   4.077   0.149   4.587
 9620SOL    HW129759   4.110   0.145   4.681
 9620SOL    HW229760   3.978   0.136   4.585
 9621SOL     OW29761   1.827   3.039   1.619
 9621SOL    HW129762   1.908   2.982   1.633
 9621SOL    HW229763   1.773   3.002   1.544
 9622SOL     OW29764   6.331   1.485   0.789
 9622SOL    HW129765   6.273   1.420   0.838
 9622SOL    HW229766   6.309   1.578   0.819
 9623SOL     OW29767   2.084   3.302   6.128
 9623SOL    HW129768   2.179   3.332   6.123
 9623SOL    HW229769   2.025   3.372   6.087
 9624SOL     OW29770   5.957   3.873   3.142
 9624SOL    HW129771   6.025   3.835   3.078
 9624SOL    HW229772   5.871   3.889   3.093
 9625SOL     OW29773   5.660   5.436   0.510
 9625SOL    HW129774   5.649   5.421   0.412
 9625SOL    HW229775   5.755   5.420   0.536
 9626SOL     OW29776   3.738   5.063   0.631
 9626SOL    HW129777   3.708   4.970   0.649
 9626SOL    HW229778   3.680   5.127   0.680
 9627SOL     OW29779   0.881   6.318   6.449
 9627SOL    HW129780   0.824   6.275   6.379
 9627SOL    HW229781   0.827   6.333   6.531
 9628SOL     OW29782   5.232   5.112   0.699
 9628SOL    HW129783   5.257   5.182   0.632
 9628SOL    HW229784   5.302   5.108   0.770
 9629SOL     OW29785   2.103   0.511   1.735
 9629SOL    HW129786   2.130   0.605   1.755
 9629SOL    HW229787   2.087   0.461   1.820
 9630SOL     OW29788   5.837   6.855   4.397
 9630SOL    HW129789   5.852   6.891   4.489
 9630SOL    HW229790   5.807   6.759   4.404
 9631SOL     OW29791   6.739   0.093   6.004
 9631SOL    HW129792   6.753   0.155   5.926
 9631SOL    HW229793   6.783   0.005   5.985
 9632SOL     OW29794   1.413   6.416   2.716
 9632SOL    HW129795   1.317   6.432   2.740
 9632SOL    HW229796   1.429   6.318   2.709
 9633SOL     OW29797   5.657   5.039   6.712
 9633SOL    HW129798   5.601   5.056   6.631
 9633SOL    HW229799   5.635   4.949   6.749
 9634SOL     OW29800   1.302   6.643   4.155
 9634SOL    HW129801   1.360   6.612   4.230
 9634SOL    HW229802   1.325   6.593   4.072
 9635SOL     OW29803   2.443   5.718   4.915
 9635SOL    HW129804   2.534   5.737   4.880
 9635SOL    HW229805   2.447   5.706   5.014
 9636SOL     OW29806   4.305   1.699   5.584
 9636SOL    HW129807   4.343   1.781   5.628
 9636SOL    HW229808   4.261   1.642   5.653
 9637SOL     OW29809   2.413   2.311   6.272
 9637SOL    HW129810   2.351   2.378   6.232
 9637SOL    HW229811   2.507   2.346   6.270
 9638SOL     OW29812   6.649   3.577   5.941
 9638SOL    HW129813   6.682   3.663   5.980
 9638SOL    HW229814   6.577   3.539   5.999
 9639SOL     OW29815   3.905   1.568   2.196
 9639SOL    HW129816   3.984   1.579   2.136
 9639SOL    HW229817   3.909   1.636   2.270
 9640SOL     OW29818   2.258   2.938   3.690
 9640SOL    HW129819   2.312   2.894   3.619
 9640SOL    HW229820   2.289   2.905   3.780
 9641SOL     OW29821   4.628   0.251   0.140
 9641SOL    HW129822   4.723   0.232   0.164
 9641SOL    HW229823   4.599   0.335   0.186
 9642SOL     OW29824   2.571   0.284   4.774
 9642SOL    HW129825   2.550   0.381   4.757
 9642SOL    HW229826   2.546   0.261   4.868
 9643SOL     OW29827   5.455   4.076   3.527
 9643SOL    HW129828   5.473   4.124   3.612
 9643SOL    HW229829   5.367   4.029   3.532
 9644SOL     OW29830   1.173   3.042   6.213
 9644SOL    HW129831   1.194   3.137   6.190
 9644SOL    HW229832   1.144   3.036   6.308
 9645SOL     OW29833   2.792   4.967   5.371
 9645SOL    HW129834   2.733   4.953   5.450
 9645SOL    HW229835   2.807   4.880   5.324
 9646SOL     OW29836   4.208   5.004   2.327
 9646SOL    HW129837   4.173   5.017   2.234
 9646SOL    HW229838   4.258   4.918   2.331
 9647SOL     OW29839   6.385   3.564   1.550
 9647SOL    HW129840   6.307   3.554   1.488
 9647SOL    HW229841   6.468   3.578   1.497
 9648SOL     OW29842   4.101   1.687   1.297
 9648SOL    HW129843   4.005   1.690   1.270
 9648SOL    HW229844   4.111   1.632   1.380
 9649SOL     OW29845   3.073   6.644   0.017
 9649SOL    HW129846   3.141   6.597   6.979
 9649SOL    HW229847   2.991   6.587   0.024
 9650SOL     OW29848   0.007   5.192   2.486
 9650SOL    HW129849   0.076   5.134   2.445
 9650SOL    HW229850   6.938   5.144   2.489
 9651SOL     OW29851   0.147   2.088   5.396
 9651SOL    HW129852   0.115   2.094   5.301
 9651SOL    HW229853   0.121   2.000   5.435
 9652SOL     OW29854   0.884   5.077   1.524
 9652SOL    HW129855   0.852   5.163   1.563
 9652SOL    HW229856   0.915   5.017   1.598
 9653SOL     OW29857   4.338   4.710   4.771
 9653SOL    HW129858   4.347   4.621   4.815
 9653SOL    HW229859   4.402   4.774   4.814
 9654SOL     OW29860   2.644   2.380   1.880
 9654SOL    HW129861   2.615   2.386   1.976
 9654SOL    HW229862   2.740   2.405   1.873
 9655SOL     OW29863   0.124   1.988   6.184
 9655SOL    HW129864   0.186   1.911   6.198
 9655SOL    HW229865   0.172   2.061   6.134
 9656SOL     OW29866   2.846   0.006   2.667
 9656SOL    HW129867   2.858   0.100   2.634
 9656SOL    HW229868   2.757   6.990   2.639
 9657SOL     OW29869   5.359   0.836   4.446
 9657SOL    HW129870   5.393   0.755   4.493
 9657SOL    HW229871   5.260   0.841   4.453
 9658SOL     OW29872   6.310   2.454   2.332
 9658SOL    HW129873   6.323   2.547   2.298
 9658SOL    HW229874   6.385   2.431   2.394
 9659SOL     OW29875   0.010   4.267   0.430
 9659SOL    HW129876   6.941   4.244   0.475
 9659SOL    HW229877   0.083   4.267   0.498
 9660SOL     OW29878   0.736   5.953   1.148
 9660SOL    HW129879   0.827   5.914   1.138
 9660SOL    HW229880   0.667   5.886   1.118
 9661SOL     OW29881   4.466   6.909   0.659
 9661SOL    HW129882   4.372   6.932   0.635
 9661SOL    HW229883   4.486   6.816   0.630
 9662SOL     OW29884   5.851   2.399   5.140
 9662SOL    HW129885   5.949   2.394   5.119
 9662SOL    HW229886   5.826   2.494   5.160
 9663SOL     OW29887   1.696   5.378   3.351
 9663SOL    HW129888   1.775   5.429   3.385
 9663SOL    HW229889   1.667   5.311   3.420
 9664SOL     OW29890   4.781   6.773   2.680
 9664SOL    HW129891   4.688   6.783   2.715
 9664SOL    HW229892   4.787   6.814   2.589
 9665SOL     OW29893   5.620   4.757   4.892
 9665SOL    HW129894   5.608   4.798   4.982
 9665SOL    HW229895   5.628   4.658   4.902
 9666SOL     OW29896   6.048   3.984   1.913
 9666SOL    HW129897   6.117   4.014   1.980
 9666SOL    HW229898   6.029   4.059   1.850
 9667SOL     OW29899   3.515   3.546   3.955
 9667SOL    HW129900   3.428   3.594   3.954
 9667SOL    HW229901   3.517   3.478   3.883
 9668SOL     OW29902   0.223   1.376   6.011
 9668SOL    HW129903   0.223   1.475   6.007
 9668SOL    HW229904   0.246   1.339   5.920
 9669SOL     OW29905   0.579   0.666   0.198
 9669SOL    HW129906   0.633   0.690   0.117
 9669SOL    HW229907   0.622   0.705   0.279
 9670SOL     OW29908   4.896   4.509   6.268
 9670SOL    HW129909   4.873   4.415   6.241
 9670SOL    HW229910   4.813   4.560   6.288
 9671SOL     OW29911   0.141   5.636   5.850
 9671SOL    HW129912   0.232   5.645   5.809
 9671SOL    HW229913   0.114   5.540   5.850
 9672SOL     OW29914   1.401   6.225   4.397
 9672SOL    HW129915   1.333   6.250   4.466
 9672SOL    HW229916   1.480   6.184   4.441
 9673SOL     OW29917   3.805   3.816   6.548
 9673SOL    HW129918   3.813   3.740   6.613
 9673SOL    HW229919   3.866   3.890   6.577
 9674SOL     OW29920   3.192   6.419   1.533
 9674SOL    HW129921   3.244   6.463   1.459
 9674SOL    HW229922   3.177   6.485   1.606
 9675SOL     OW29923   6.493   1.328   2.378
 9675SOL    HW129924   6.429   1.385   2.430
 9675SOL    HW229925   6.587   1.358   2.396
 9676SOL     OW29926   1.110   3.266   5.052
 9676SOL    HW129927   1.163   3.182   5.049
 9676SOL    HW229928   1.012   3.244   5.055
 9677SOL     OW29929   2.487   4.288   5.815
 9677SOL    HW129930   2.455   4.210   5.869
 9677SOL    HW229931   2.459   4.276   5.719
 9678SOL     OW29932   3.994   3.379   2.812
 9678SOL    HW129933   3.993   3.305   2.879
 9678SOL    HW229934   4.041   3.458   2.851
 9679SOL     OW29935   1.609   2.963   1.460
 9679SOL    HW129936   1.553   3.003   1.387
 9679SOL    HW229937   1.561   2.885   1.500
 9680SOL     OW29938   5.997   6.315   3.009
 9680SOL    HW129939   5.953   6.341   2.923
 9680SOL    HW229940   5.986   6.217   3.024
 9681SOL     OW29941   2.121   0.664   1.133
 9681SOL    HW129942   2.149   0.575   1.166
 9681SOL    HW229943   2.099   0.723   1.211
 9682SOL     OW29944   5.224   5.163   3.408
 9682SOL    HW129945   5.307   5.108   3.413
 9682SOL    HW229946   5.227   5.235   3.478
 9683SOL     OW29947   3.789   4.992   0.344
 9683SOL    HW129948   3.756   5.069   0.289
 9683SOL    HW229949   3.743   4.992   0.433
 9684SOL     OW29950   0.409   3.762   4.711
 9684SOL    HW129951   0.448   3.843   4.667
 9684SOL    HW229952   0.434   3.680   4.660
 9685SOL     OW29953   2.161   2.952   1.236
 9685SOL    HW129954   2.188   3.036   1.283
 9685SOL    HW229955   2.061   2.944   1.237
 9686SOL     OW29956   6.577   0.745   1.486
 9686SOL    HW129957   6.590   0.793   1.400
 9686SOL    HW229958   6.663   0.701   1.514
 9687SOL     OW29959   2.402   0.877   2.823
 9687SOL    HW129960   2.356   0.788   2.834
 9687SOL    HW229961   2.343   0.949   2.858
 9688SOL     OW29962   0.191   2.009   2.890
 9688SOL    HW129963   0.233   1.918   2.890
 9688SOL    HW229964   0.092   2.001   2.880
 9689SOL     OW29965   2.665   6.288   6.930
 9689SOL    HW129966   2.744   6.348   6.920
 9689SOL    HW229967   2.615   6.311   7.013
 9690SOL     OW29968   6.132   4.761   0.135
 9690SOL    HW129969   6.130   4.682   0.197
 9690SOL    HW229970   6.187   4.834   0.175
 9691SOL     OW29971   1.761   5.259   1.478
 9691SOL    HW129972   1.818   5.178   1.469
 9691SOL    HW229973   1.783   5.307   1.563
 9692SOL     OW29974   2.919   4.976   1.833
 9692SOL    HW129975   2.844   5.010   1.777
 9692SOL    HW229976   3.000   5.035   1.820
 9693SOL     OW29977   6.436   5.680   1.624
 9693SOL    HW129978   6.504   5.652   1.556
 9693SOL    HW229979   6.455   5.634   1.711
 9694SOL     OW29980   1.446   2.412   0.449
 9694SOL    HW129981   1.512   2.471   0.404
 9694SOL    HW229982   1.474   2.316   0.438
 9695SOL     OW29983   6.172   4.212   1.116
 9695SOL    HW129984   6.244   4.228   1.184
 9695SOL    HW229985   6.212   4.166   1.036
 9696SOL     OW29986   4.010   2.714   1.722
 9696SOL    HW129987   3.925   2.742   1.768
 9696SOL    HW229988   4.049   2.793   1.674
 9697SOL     OW29989   0.652   4.892   6.990
 9697SOL    HW129990   0.661   4.811   0.029
 9697SOL    HW229991   0.741   4.938   6.984
 9698SOL     OW29992   5.987   0.835   4.821
 9698SOL    HW129993   5.978   0.765   4.751
 9698SOL    HW229994   5.896   0.865   4.851
 9699SOL     OW29995   0.844   3.313   6.617
 9699SOL    HW129996   0.927   3.306   6.561
 9699SOL    HW229997   0.869   3.342   6.709
 9700SOL     OW29998   3.201   4.721   5.758
 9700SOL    HW129999   3.127   4.726   5.825
 9700SOL    HW230000   3.267   4.651   5.788
 9701SOL     OW30001   3.922   5.286   4.681
 9701SOL    HW130002   3.923   5.372   4.732
 9701SOL    HW230003   3.981   5.219   4.727
 9702SOL     OW30004   5.179   1.061   0.355
 9702SOL    HW130005   5.148   1.122   0.427
 9702SOL    HW230006   5.121   1.073   0.274
 9703SOL     OW30007   3.328   5.980   4.458
 9703SOL    HW130008   3.324   5.880   4.467
 9703SOL    HW230009   3.239   6.014   4.427
 9704SOL     OW30010   3.578   6.906   2.895
 9704SOL    HW130011   3.565   6.825   2.952
 9704SOL    HW230012   3.519   6.980   2.928
 9705SOL     OW30013   3.654   4.814   0.691
 9705SOL    HW130014   3.566   4.769   0.709
 9705SOL    HW230015   3.703   4.764   0.620
 9706SOL     OW30016   6.435   2.870   1.775
 9706SOL    HW130017   6.337   2.853   1.786
 9706SOL    HW230018   6.485   2.815   1.842
 9707SOL     OW30019   1.148   4.164   2.336
 9707SOL    HW130020   1.134   4.101   2.260
 9707SOL    HW230021   1.234   4.142   2.383
 9708SOL     OW30022   2.093   2.106   4.138
 9708SOL    HW130023   2.174   2.160   4.163
 9708SOL    HW230024   2.014   2.142   4.187
 9709SOL     OW30025   0.788   6.081   3.406
 9709SOL    HW130026   0.698   6.036   3.408
 9709SOL    HW230027   0.815   6.105   3.499
 9710SOL     OW30028   0.218   1.239   2.951
 9710SOL    HW130029   0.140   1.228   2.890
 9710SOL    HW230030   0.197   1.309   3.019
 9711SOL     OW30031   1.702   3.100   5.940
 9711SOL    HW130032   1.775   3.109   5.872
 9711SOL    HW230033   1.726   3.027   6.004
 9712SOL     OW30034   5.619   1.835   4.698
 9712SOL    HW130035   5.690   1.765   4.688
 9712SOL    HW230036   5.661   1.924   4.712
 9713SOL     OW30037   0.398   4.730   3.474
 9713SOL    HW130038   0.343   4.776   3.404
 9713SOL    HW230039   0.343   4.662   3.520
 9714SOL     OW30040   2.041   1.558   2.167
 9714SOL    HW130041   2.107   1.619   2.212
 9714SOL    HW230042   2.090   1.494   2.108
 9715SOL     OW30043   5.819   5.479   5.149
 9715SOL    HW130044   5.793   5.574   5.168
 9715SOL    HW230045   5.852   5.472   5.055
 9716SOL     OW30046   4.225   1.879   6.860
 9716SOL    HW130047   4.266   1.866   6.770
 9716SOL    HW230048   4.192   1.791   6.895
 9717SOL     OW30049   5.383   6.082   3.768
 9717SOL    HW130050   5.316   6.156   3.759
 9717SOL    HW230051   5.462   6.115   3.821
 9718SOL     OW30052   4.013   3.277   1.146
 9718SOL    HW130053   4.064   3.353   1.187
 9718SOL    HW230054   3.976   3.219   1.219
 9719SOL     OW30055   0.606   2.453   0.159
 9719SOL    HW130056   0.568   2.475   0.069
 9719SOL    HW230057   0.625   2.355   0.165
 9720SOL     OW30058   0.406   6.399   2.371
 9720SOL    HW130059   0.416   6.430   2.276
 9720SOL    HW230060   0.351   6.315   2.373
 9721SOL     OW30061   0.154   3.959   2.092
 9721SOL    HW130062   0.162   3.889   2.021
 9721SOL    HW230063   0.205   4.040   2.065
 9722SOL     OW30064   0.400   0.820   3.302
 9722SOL    HW130065   0.408   0.803   3.400
 9722SOL    HW230066   0.305   0.847   3.281
 9723SOL     OW30067   0.723   0.306   3.088
 9723SOL    HW130068   0.631   0.321   3.053
 9723SOL    HW230069   0.761   0.223   3.047
 9724SOL     OW30070   2.936   2.579   1.716
 9724SOL    HW130071   2.844   2.618   1.721
 9724SOL    HW230072   2.944   2.504   1.782
 9725SOL     OW30073   4.966   3.432   6.160
 9725SOL    HW130074   4.956   3.332   6.165
 9725SOL    HW230075   5.013   3.465   6.242
 9726SOL     OW30076   5.451   6.801   4.445
 9726SOL    HW130077   5.365   6.753   4.462
 9726SOL    HW230078   5.448   6.891   4.489
 9727SOL     OW30079   0.647   3.131   5.628
 9727SOL    HW130080   0.735   3.174   5.606
 9727SOL    HW230081   0.656   3.080   5.714
 9728SOL     OW30082   1.709   6.117   6.235
 9728SOL    HW130083   1.621   6.164   6.231
 9728SOL    HW230084   1.777   6.168   6.183
 9729SOL     OW30085   1.375   4.503   3.016
 9729SOL    HW130086   1.399   4.557   2.937
 9729SOL    HW230087   1.452   4.500   3.080
 9730SOL     OW30088   6.974   2.929   2.637
 9730SOL    HW130089   0.019   2.938   2.713
 9730SOL    HW230090   6.960   3.018   2.594
 9731SOL     OW30091   3.813   5.271   0.894
 9731SOL    HW130092   3.823   5.338   0.820
 9731SOL    HW230093   3.720   5.234   0.893
 9732SOL     OW30094   6.975   5.926   2.544
 9732SOL    HW130095   0.016   5.865   2.491
 9732SOL    HW230096   0.005   6.011   2.565
 9733SOL     OW30097   5.687   5.049   5.102
 9733SOL    HW130098   5.623   4.973   5.101
 9733SOL    HW230099   5.781   5.014   5.098
 9734SOL     OW30100   5.531   1.795   4.212
 9734SOL    HW130101   5.434   1.819   4.223
 9734SOL    HW230102   5.567   1.763   4.300
 9735SOL     OW30103   2.580   4.942   2.057
 9735SOL    HW130104   2.663   4.998   2.054
 9735SOL    HW230105   2.509   4.986   2.002
 9736SOL     OW30106   5.565   1.296   6.765
 9736SOL    HW130107   5.532   1.276   6.858
 9736SOL    HW230108   5.529   1.384   6.735
 9737SOL     OW30109   4.204   2.221   4.969
 9737SOL    HW130110   4.209   2.298   5.032
 9737SOL    HW230111   4.281   2.159   4.986
 9738SOL     OW30112   1.537   0.886   3.470
 9738SOL    HW130113   1.475   0.811   3.450
 9738SOL    HW230114   1.546   0.945   3.390
 9739SOL     OW30115   6.879   5.300   1.722
 9739SOL    HW130116   6.834   5.216   1.752
 9739SOL    HW230117   6.874   5.308   1.623
 9740SOL     OW30118   6.160   3.846   2.928
 9740SOL    HW130119   6.076   3.886   2.892
 9740SOL    HW230120   6.233   3.915   2.927
 9741SOL     OW30121   4.292   1.648   2.496
 9741SOL    HW130122   4.369   1.655   2.560
 9741SOL    HW230123   4.265   1.740   2.466
 9742SOL     OW30124   5.458   0.734   3.077
 9742SOL    HW130125   5.473   0.771   2.986
 9742SOL    HW230126   5.386   0.786   3.123
 9743SOL     OW30127   1.903   3.166   5.780
 9743SOL    HW130128   1.995   3.201   5.801
 9743SOL    HW230129   1.908   3.107   5.699
 9744SOL     OW30130   1.808   0.862   2.237
 9744SOL    HW130131   1.898   0.829   2.207
 9744SOL    HW230132   1.796   0.956   2.205
 9745SOL     OW30133   1.276   2.509   4.985
 9745SOL    HW130134   1.272   2.491   5.083
 9745SOL    HW230135   1.206   2.455   4.938
 9746SOL     OW30136   5.678   0.676   5.446
 9746SOL    HW130137   5.693   0.578   5.436
 9746SOL    HW230138   5.600   0.704   5.391
 9747SOL     OW30139   1.386   0.556   0.837
 9747SOL    HW130140   1.376   0.599   0.747
 9747SOL    HW230141   1.474   0.510   0.843
 9748SOL     OW30142   1.450   5.852   3.900
 9748SOL    HW130143   1.541   5.873   3.864
 9748SOL    HW230144   1.381   5.907   3.852
 9749SOL     OW30145   1.447   3.418   4.786
 9749SOL    HW130146   1.532   3.470   4.772
 9749SOL    HW230147   1.414   3.383   4.698
 9750SOL     OW30148   4.935   4.958   3.634
 9750SOL    HW130149   4.996   4.908   3.573
 9750SOL    HW230150   4.987   4.999   3.709
 9751SOL     OW30151   1.488   2.124   0.993
 9751SOL    HW130152   1.488   2.138   0.894
 9751SOL    HW230153   1.460   2.030   1.013
 9752SOL     OW30154   4.396   0.779   5.874
 9752SOL    HW130155   4.388   0.841   5.952
 9752SOL    HW230156   4.314   0.787   5.817
 9753SOL     OW30157   6.722   5.646   5.072
 9753SOL    HW130158   6.737   5.564   5.016
 9753SOL    HW230159   6.645   5.698   5.035
 9754SOL     OW30160   0.861   1.821   6.764
 9754SOL    HW130161   0.787   1.776   6.713
 9754SOL    HW230162   0.838   1.823   6.861
 9755SOL     OW30163   4.073   3.486   4.995
 9755SOL    HW130164   4.041   3.507   4.903
 9755SOL    HW230165   4.051   3.390   5.017
 9756SOL     OW30166   5.857   3.251   6.920
 9756SOL    HW130167   5.807   3.171   6.888
 9756SOL    HW230168   5.888   3.236   7.013
 9757SOL     OW30169   5.203   2.629   3.727
 9757SOL    HW130170   5.279   2.652   3.787
 9757SOL    HW230171   5.140   2.567   3.775
 9758SOL     OW30172   1.978   0.513   6.667
 9758SOL    HW130173   2.027   0.452   6.729
 9758SOL    HW230174   2.042   0.578   6.626
 9759SOL     OW30175   2.272   6.113   1.487
 9759SOL    HW130176   2.313   6.048   1.551
 9759SOL    HW230177   2.205   6.170   1.535
 9760SOL     OW30178   5.282   4.984   5.031
 9760SOL    HW130179   5.276   4.981   4.931
 9760SOL    HW230180   5.362   4.933   5.061
 9761SOL     OW30181   5.282   4.873   1.880
 9761SOL    HW130182   5.322   4.964   1.866
 9761SOL    HW230183   5.347   4.815   1.928
 9762SOL     OW30184   2.235   1.695   4.959
 9762SOL    HW130185   2.230   1.794   4.975
 9762SOL    HW230186   2.305   1.675   4.891
 9763SOL     OW30187   3.803   1.232   1.649
 9763SOL    HW130188   3.807   1.329   1.670
 9763SOL    HW230189   3.708   1.205   1.633
 9764SOL     OW30190   1.317   3.327   3.234
 9764SOL    HW130191   1.337   3.283   3.322
 9764SOL    HW230192   1.315   3.259   3.162
 9765SOL     OW30193   0.077   2.346   5.482
 9765SOL    HW130194   0.160   2.401   5.485
 9765SOL    HW230195   0.097   2.258   5.439
 9766SOL     OW30196   3.107   0.649   3.278
 9766SOL    HW130197   3.078   0.590   3.354
 9766SOL    HW230198   3.141   0.736   3.315
 9767SOL     OW30199   5.202   0.670   5.421
 9767SOL    HW130200   5.182   0.617   5.503
 9767SOL    HW230201   5.246   0.611   5.353
 9768SOL     OW30202   4.547   2.122   2.504
 9768SOL    HW130203   4.528   2.130   2.406
 9768SOL    HW230204   4.519   2.206   2.550
 9769SOL     OW30205   1.063   2.329   1.567
 9769SOL    HW130206   1.103   2.306   1.655
 9769SOL    HW230207   1.132   2.322   1.495
 9770SOL     OW30208   5.351   5.092   6.099
 9770SOL    HW130209   5.423   5.137   6.152
 9770SOL    HW230210   5.392   5.045   6.021
 9771SOL     OW30211   4.568   5.145   6.926
 9771SOL    HW130212   4.540   5.237   6.901
 9771SOL    HW230213   4.666   5.144   6.946
 9772SOL     OW30214   6.647   6.821   2.099
 9772SOL    HW130215   6.732   6.846   2.146
 9772SOL    HW230216   6.588   6.769   2.161
 9773SOL     OW30217   5.772   5.522   3.453
 9773SOL    HW130218   5.740   5.504   3.546
 9773SOL    HW230219   5.754   5.617   3.429
 9774SOL     OW30220   5.863   5.038   4.044
 9774SOL    HW130221   5.845   5.134   4.066
 9774SOL    HW230222   5.897   5.031   3.950
 9775SOL     OW30223   1.974   2.830   4.325
 9775SOL    HW130224   2.006   2.918   4.289
 9775SOL    HW230225   1.929   2.845   4.413
 9776SOL     OW30226   6.735   5.559   4.401
 9776SOL    HW130227   6.833   5.554   4.380
 9776SOL    HW230228   6.711   5.651   4.431
 9777SOL     OW30229   5.951   3.900   5.780
 9777SOL    HW130230   5.860   3.941   5.792
 9777SOL    HW230231   5.948   3.805   5.812
 9778SOL     OW30232   4.961   6.488   2.623
 9778SOL    HW130233   4.898   6.565   2.616
 9778SOL    HW230234   4.909   6.403   2.635
 9779SOL     OW30235   2.963   1.431   5.147
 9779SOL    HW130236   2.935   1.526   5.153
 9779SOL    HW230237   2.918   1.386   5.070
 9780SOL     OW30238   2.557   3.226   0.692
 9780SOL    HW130239   2.475   3.274   0.660
 9780SOL    HW230240   2.534   3.130   0.709
 9781SOL     OW30241   2.599   4.786   5.094
 9781SOL    HW130242   2.515   4.749   5.053
 9781SOL    HW230243   2.678   4.737   5.058
 9782SOL     OW30244   6.097   0.421   1.335
 9782SOL    HW130245   6.114   0.416   1.434
 9782SOL    HW230246   6.014   0.370   1.313
 9783SOL     OW30247   6.069   1.668   2.586
 9783SOL    HW130248   6.040   1.608   2.512
 9783SOL    HW230249   5.988   1.703   2.634
 9784SOL     OW30250   4.067   1.379   2.854
 9784SOL    HW130251   3.979   1.335   2.875
 9784SOL    HW230252   4.067   1.472   2.889
 9785SOL     OW30253   6.736   2.516   2.772
 9785SOL    HW130254   6.713   2.547   2.865
 9785SOL    HW230255   6.775   2.425   2.777
 9786SOL     OW30256   1.947   5.227   5.611
 9786SOL    HW130257   2.032   5.204   5.564
 9786SOL    HW230258   1.968   5.264   5.702
 9787SOL     OW30259   4.804   3.963   1.837
 9787SOL    HW130260   4.903   3.959   1.823
 9787SOL    HW230261   4.768   3.870   1.845
 9788SOL     OW30262   6.585   0.845   4.450
 9788SOL    HW130263   6.641   0.766   4.425
 9788SOL    HW230264   6.625   0.890   4.531
 9789SOL     OW30265   2.411   6.035   4.765
 9789SOL    HW130266   2.490   6.091   4.790
 9789SOL    HW230267   2.408   5.953   4.823
 9790SOL     OW30268   5.864   1.729   4.300
 9790SOL    HW130269   5.827   1.637   4.311
 9790SOL    HW230270   5.888   1.744   4.204
 9791SOL     OW30271   1.519   1.194   1.504
 9791SOL    HW130272   1.455   1.233   1.570
 9791SOL    HW230273   1.471   1.125   1.449
 9792SOL     OW30274   4.296   4.730   0.999
 9792SOL    HW130275   4.253   4.814   0.967
 9792SOL    HW230276   4.393   4.746   1.016
 9793SOL     OW30277   5.863   5.593   2.155
 9793SOL    HW130278   5.784   5.632   2.107
 9793SOL    HW230279   5.934   5.572   2.089
 9794SOL     OW30280   5.268   3.199   6.002
 9794SOL    HW130281   5.266   3.296   5.978
 9794SOL    HW230282   5.252   3.144   5.920
 9795SOL     OW30283   1.711   3.379   3.886
 9795SOL    HW130284   1.658   3.431   3.952
 9795SOL    HW230285   1.762   3.441   3.827
 9796SOL     OW30286   2.910   5.098   0.234
 9796SOL    HW130287   2.951   5.073   0.321
 9796SOL    HW230288   2.956   5.048   0.160
 9797SOL     OW30289   4.750   3.345   6.504
 9797SOL    HW130290   4.726   3.411   6.433
 9797SOL    HW230291   4.682   3.271   6.504
 9798SOL     OW30292   2.719   0.395   1.193
 9798SOL    HW130293   2.622   0.375   1.183
 9798SOL    HW230294   2.739   0.483   1.151
 9799SOL     OW30295   3.017   3.093   2.594
 9799SOL    HW130296   3.053   3.050   2.511
 9799SOL    HW230297   3.030   3.031   2.672
 9800SOL     OW30298   4.141   5.408   6.875
 9800SOL    HW130299   4.103   5.338   6.815
 9800SOL    HW230300   4.115   5.498   6.841
 9801SOL     OW30301   4.206   5.978   6.786
 9801SOL    HW130302   4.138   6.011   6.851
 9801SOL    HW230303   4.266   6.053   6.760
 9802SOL     OW30304   0.495   3.255   0.971
 9802SOL    HW130305   0.448   3.342   0.955
 9802SOL    HW230306   0.522   3.249   1.067
 9803SOL     OW30307   6.111   0.379   6.716
 9803SOL    HW130308   6.026   0.417   6.751
 9803SOL    HW230309   6.181   0.384   6.787
 9804SOL     OW30310   6.406   5.368   3.891
 9804SOL    HW130311   6.347   5.333   3.819
 9804SOL    HW230312   6.493   5.398   3.852
 9805SOL     OW30313   1.528   5.295   6.932
 9805SOL    HW130314   1.459   5.226   6.948
 9805SOL    HW230315   1.614   5.251   6.904
 9806SOL     OW30316   6.711   2.616   2.142
 9806SOL    HW130317   6.772   2.539   2.121
 9806SOL    HW230318   6.752   2.672   2.213
 9807SOL     OW30319   4.153   1.924   0.401
 9807SOL    HW130320   4.166   1.830   0.433
 9807SOL    HW230321   4.107   1.923   0.313
 9808SOL     OW30322   7.017   1.871   4.768
 9808SOL    HW130323   6.996   1.814   4.847
 9808SOL    HW230324   0.090   1.849   4.734
 9809SOL     OW30325   0.095   1.208   4.326
 9809SOL    HW130326   0.155   1.234   4.402
 9809SOL    HW230327   0.017   1.270   4.322
 9810SOL     OW30328   2.777   0.972   2.997
 9810SOL    HW130329   2.796   0.961   2.900
 9810SOL    HW230330   2.749   1.066   3.016
 9811SOL     OW30331   6.541   6.402   2.761
 9811SOL    HW130332   6.476   6.466   2.721
 9811SOL    HW230333   6.600   6.451   2.825
 9812SOL     OW30334   4.847   2.406   6.093
 9812SOL    HW130335   4.787   2.486   6.094
 9812SOL    HW230336   4.931   2.426   6.144
 9813SOL     OW30337   6.855   4.489   0.103
 9813SOL    HW130338   6.794   4.474   0.180
 9813SOL    HW230339   6.880   4.586   0.098
 9814SOL     OW30340   6.943   6.441   5.610
 9814SOL    HW130341   6.919   6.384   5.531
 9814SOL    HW230342   6.873   6.430   5.681
 9815SOL     OW30343   5.957   3.517   1.823
 9815SOL    HW130344   5.909   3.473   1.748
 9815SOL    HW230345   6.053   3.530   1.799
 9816SOL     OW30346   6.496   0.171   6.928
 9816SOL    HW130347   6.548   0.101   6.978
 9816SOL    HW230348   6.544   0.193   6.843
 9817SOL     OW30349   3.278   5.898   0.616
 9817SOL    HW130350   3.296   5.908   0.714
 9817SOL    HW230351   3.283   5.988   0.572
 9818SOL     OW30352   0.939   6.929   3.373
 9818SOL    HW130353   1.015   6.883   3.419
 9818SOL    HW230354   0.974   7.006   3.319
 9819SOL     OW30355   6.182   4.200   4.754
 9819SOL    HW130356   6.198   4.101   4.756
 9819SOL    HW230357   6.268   4.247   4.736
 9820SOL     OW30358   3.435   1.913   6.580
 9820SOL    HW130359   3.460   1.974   6.655
 9820SOL    HW230360   3.518   1.882   6.533
 9821SOL     OW30361   4.530   2.514   1.805
 9821SOL    HW130362   4.441   2.496   1.846
 9821SOL    HW230363   4.525   2.495   1.707
 9822SOL     OW30364   3.892   6.286   5.040
 9822SOL    HW130365   3.912   6.314   4.946
 9822SOL    HW230366   3.794   6.267   5.049
 9823SOL     OW30367   1.560   0.565   3.270
 9823SOL    HW130368   1.477   0.587   3.320
 9823SOL    HW230369   1.593   0.474   3.297
 9824SOL     OW30370   1.065   6.015   5.580
 9824SOL    HW130371   1.035   5.920   5.576
 9824SOL    HW230372   1.046   6.060   5.492
 9825SOL     OW30373   5.447   5.969   6.017
 9825SOL    HW130374   5.376   6.032   6.050
 9825SOL    HW230375   5.414   5.875   6.025
 9826SOL     OW30376   2.606   6.236   5.804
 9826SOL    HW130377   2.583   6.151   5.758
 9826SOL    HW230378   2.613   6.221   5.903
 9827SOL     OW30379   1.861   5.554   2.111
 9827SOL    HW130380   1.813   5.574   2.025
 9827SOL    HW230381   1.897   5.461   2.108
 9828SOL     OW30382   3.570   2.135   5.090
 9828SOL    HW130383   3.541   2.148   4.995
 9828SOL    HW230384   3.490   2.137   5.150
 9829SOL     OW30385   4.845   5.176   5.540
 9829SOL    HW130386   4.785   5.256   5.543
 9829SOL    HW230387   4.873   5.151   5.633
 9830SOL     OW30388   5.753   2.153   2.769
 9830SOL    HW130389   5.820   2.124   2.700
 9830SOL    HW230390   5.737   2.078   2.833
 9831SOL     OW30391   0.506   4.095   1.877
 9831SOL    HW130392   0.446   4.153   1.932
 9831SOL    HW230393   0.487   3.999   1.897
 9832SOL     OW30394   4.483   4.559   4.544
 9832SOL    HW130395   4.434   4.574   4.630
 9832SOL    HW230396   4.424   4.510   4.480
 9833SOL     OW30397   3.210   4.125   4.266
 9833SOL    HW130398   3.178   4.126   4.361
 9833SOL    HW230399   3.137   4.093   4.206
 9834SOL     OW30400   2.110   5.496   5.354
 9834SOL    HW130401   2.061   5.428   5.409
 9834SOL    HW230402   2.060   5.583   5.356
 9835SOL     OW30403   3.574   4.193   4.509
 9835SOL    HW130404   3.553   4.155   4.419
 9835SOL    HW230405   3.512   4.270   4.528
 9836SOL     OW30406   0.345   3.570   5.110
 9836SOL    HW130407   0.376   3.561   5.205
 9836SOL    HW230408   0.410   3.627   5.059
 9837SOL     OW30409   5.252   2.289   2.308
 9837SOL    HW130410   5.189   2.357   2.270
 9837SOL    HW230411   5.209   2.244   2.386
 9838SOL     OW30412   0.849   6.691   1.700
 9838SOL    HW130413   0.855   6.781   1.656
 9838SOL    HW230414   0.835   6.704   1.799
 9839SOL     OW30415   4.187   0.800   2.788
 9839SOL    HW130416   4.287   0.802   2.783
 9839SOL    HW230417   4.159   0.790   2.884
 9840SOL     OW30418   6.303   0.997   0.167
 9840SOL    HW130419   6.247   1.079   0.184
 9840SOL    HW230420   6.400   1.020   0.173
 9841SOL     OW30421   0.150   6.277   4.014
 9841SOL    HW130422   0.093   6.312   4.088
 9841SOL    HW230423   0.245   6.304   4.029
 9842SOL     OW30424   2.657   1.938   6.448
 9842SOL    HW130425   2.563   1.943   6.414
 9842SOL    HW230426   2.703   2.025   6.431
 9843SOL     OW30427   0.434   6.753   1.392
 9843SOL    HW130428   0.448   6.847   1.422
 9843SOL    HW230429   0.508   6.695   1.428
 9844SOL     OW30430   5.065   0.284   4.072
 9844SOL    HW130431   5.120   0.367   4.066
 9844SOL    HW230432   5.097   0.229   4.149
 9845SOL     OW30433   1.842   3.501   1.322
 9845SOL    HW130434   1.919   3.499   1.387
 9845SOL    HW230435   1.838   3.414   1.273
 9846SOL     OW30436   5.318   1.708   0.842
 9846SOL    HW130437   5.237   1.667   0.801
 9846SOL    HW230438   5.291   1.763   0.921
 9847SOL     OW30439   4.208   4.065   0.824
 9847SOL    HW130440   4.131   4.014   0.860
 9847SOL    HW230441   4.247   4.017   0.745
 9848SOL     OW30442   3.437   3.890   5.379
 9848SOL    HW130443   3.389   3.884   5.291
 9848SOL    HW230444   3.527   3.845   5.371
 9849SOL     OW30445   0.780   1.751   4.734
 9849SOL    HW130446   0.827   1.810   4.799
 9849SOL    HW230447   0.692   1.792   4.710
 9850SOL     OW30448   0.614   0.523   4.670
 9850SOL    HW130449   0.670   0.460   4.724
 9850SOL    HW230450   0.520   0.489   4.665
 9851SOL     OW30451   4.001   4.893   4.388
 9851SOL    HW130452   4.080   4.851   4.433
 9851SOL    HW230453   3.917   4.863   4.433
 9852SOL     OW30454   2.005   1.234   0.076
 9852SOL    HW130455   2.081   1.183   0.034
 9852SOL    HW230456   2.032   1.263   0.167
 9853SOL     OW30457   6.477   4.370   3.905
 9853SOL    HW130458   6.392   4.385   3.956
 9853SOL    HW230459   6.492   4.272   3.893
 9854SOL     OW30460   0.982   5.184   6.089
 9854SOL    HW130461   0.886   5.194   6.113
 9854SOL    HW230462   1.030   5.132   6.160
 9855SOL     OW30463   1.567   4.435   1.654
 9855SOL    HW130464   1.558   4.357   1.716
 9855SOL    HW230465   1.475   4.467   1.627
 9856SOL     OW30466   5.680   4.311   3.382
 9856SOL    HW130467   5.626   4.339   3.303
 9856SOL    HW230468   5.706   4.392   3.435
 9857SOL     OW30469   3.744   1.066   4.786
 9857SOL    HW130470   3.779   0.980   4.749
 9857SOL    HW230471   3.773   1.076   4.881
 9858SOL     OW30472   6.419   6.370   2.301
 9858SOL    HW130473   6.391   6.348   2.395
 9858SOL    HW230474   6.417   6.470   2.289
 9859SOL     OW30475   6.463   6.006   3.167
 9859SOL    HW130476   6.516   6.041   3.089
 9859SOL    HW230477   6.370   6.042   3.162
 9860SOL     OW30478   1.363   3.421   4.307
 9860SOL    HW130479   1.346   3.491   4.376
 9860SOL    HW230480   1.295   3.348   4.318
 9861SOL     OW30481   3.674   1.468   4.753
 9861SOL    HW130482   3.766   1.430   4.763
 9861SOL    HW230483   3.609   1.413   4.805
 9862SOL     OW30484   0.956   5.307   0.738
 9862SOL    HW130485   0.896   5.333   0.662
 9862SOL    HW230486   0.907   5.321   0.824
 9863SOL     OW30487   3.918   6.064   0.451
 9863SOL    HW130488   3.880   6.136   0.509
 9863SOL    HW230489   3.992   6.018   0.501
 9864SOL     OW30490   2.543   5.836   5.174
 9864SOL    HW130491   2.571   5.740   5.183
 9864SOL    HW230492   2.600   5.881   5.106
 9865SOL     OW30493   0.498   6.175   5.232
 9865SOL    HW130494   0.593   6.161   5.204
 9865SOL    HW230495   0.471   6.270   5.212
 9866SOL     OW30496   6.206   5.335   4.305
 9866SOL    HW130497   6.282   5.307   4.246
 9866SOL    HW230498   6.173   5.256   4.356
 9867SOL     OW30499   4.813   2.154   1.757
 9867SOL    HW130500   4.870   2.141   1.838
 9867SOL    HW230501   4.813   2.250   1.730
 9868SOL     OW30502   1.799   4.329   3.164
 9868SOL    HW130503   1.849   4.280   3.093
 9868SOL    HW230504   1.850   4.411   3.190
 9869SOL     OW30505   6.860   2.467   0.932
 9869SOL    HW130506   6.903   2.380   0.907
 9869SOL    HW230507   6.797   2.452   1.009
 9870SOL     OW30508   3.059   1.024   2.552
 9870SOL    HW130509   2.995   0.965   2.603
 9870SOL    HW230510   3.151   0.985   2.558
 9871SOL     OW30511   0.416   4.299   4.465
 9871SOL    HW130512   0.377   4.291   4.374
 9871SOL    HW230513   0.354   4.350   4.524
 9872SOL     OW30514   1.509   5.051   5.689
 9872SOL    HW130515   1.449   4.980   5.653
 9872SOL    HW230516   1.601   5.039   5.651
 9873SOL     OW30517   1.269   1.330   6.070
 9873SOL    HW130518   1.305   1.423   6.059
 9873SOL    HW230519   1.231   1.299   5.983
 9874SOL     OW30520   1.037   2.649   4.654
 9874SOL    HW130521   1.129   2.642   4.616
 9874SOL    HW230522   1.032   2.728   4.715
 9875SOL     OW30523   6.497   5.047   0.758
 9875SOL    HW130524   6.503   5.144   0.731
 9875SOL    HW230525   6.560   4.994   0.702
 9876SOL     OW30526   1.698   6.668   3.520
 9876SOL    HW130527   1.634   6.700   3.590
 9876SOL    HW230528   1.719   6.572   3.536
 9877SOL     OW30529   0.729   5.781   5.262
 9877SOL    HW130530   0.736   5.682   5.254
 9877SOL    HW230531   0.805   5.824   5.214
 9878SOL     OW30532   2.389   2.685   6.881
 9878SOL    HW130533   2.385   2.610   6.815
 9878SOL    HW230534   2.299   2.697   6.923
 9879SOL     OW30535   0.189   5.223   6.369
 9879SOL    HW130536   0.103   5.266   6.341
 9879SOL    HW230537   0.249   5.214   6.289
 9880SOL     OW30538   2.545   1.708   0.270
 9880SOL    HW130539   2.550   1.700   0.369
 9880SOL    HW230540   2.472   1.648   0.235
 9881SOL     OW30541   5.771   0.366   4.179
 9881SOL    HW130542   5.679   0.330   4.165
 9881SOL    HW230543   5.791   0.433   4.108
 9882SOL     OW30544   3.478   3.097   4.907
 9882SOL    HW130545   3.474   3.012   4.961
 9882SOL    HW230546   3.570   3.106   4.867
 9883SOL     OW30547   2.230   6.584   1.885
 9883SOL    HW130548   2.268   6.654   1.945
 9883SOL    HW230549   2.243   6.494   1.927
 9884SOL     OW30550   2.567   3.772   5.768
 9884SOL    HW130551   2.640   3.704   5.778
 9884SOL    HW230552   2.507   3.745   5.693
 9885SOL     OW30553   5.865   3.219   4.260
 9885SOL    HW130554   5.885   3.190   4.166
 9885SOL    HW230555   5.889   3.316   4.270
 9886SOL     OW30556   4.557   5.829   1.291
 9886SOL    HW130557   4.656   5.816   1.292
 9886SOL    HW230558   4.533   5.884   1.211
 9887SOL     OW30559   3.432   0.166   6.931
 9887SOL    HW130560   3.460   0.183   6.836
 9887SOL    HW230561   3.361   0.231   6.956
 9888SOL     OW30562   6.252   5.227   2.597
 9888SOL    HW130563   6.186   5.164   2.637
 9888SOL    HW230564   6.217   5.320   2.602
 9889SOL     OW30565   6.950   5.607   3.343
 9889SOL    HW130566   6.910   5.584   3.254
 9889SOL    HW230567   0.031   5.595   3.338
 9890SOL     OW30568   6.843   4.027   1.789
 9890SOL    HW130569   6.792   4.110   1.767
 9890SOL    HW230570   6.808   3.988   1.874
 9891SOL     OW30571   5.837   4.646   1.094
 9891SOL    HW130572   5.922   4.679   1.053
 9891SOL    HW230573   5.842   4.547   1.108
 9892SOL     OW30574   2.332   4.705   4.089
 9892SOL    HW130575   2.238   4.710   4.056
 9892SOL    HW230576   2.353   4.787   4.143
 9893SOL     OW30577   4.778   5.246   3.846
 9893SOL    HW130578   4.702   5.181   3.838
 9893SOL    HW230579   4.746   5.337   3.821
 9894SOL     OW30580   4.207   3.416   5.871
 9894SOL    HW130581   4.124   3.467   5.891
 9894SOL    HW230582   4.254   3.394   5.957
 9895SOL     OW30583   5.482   2.173   6.789
 9895SOL    HW130584   5.473   2.248   6.724
 9895SOL    HW230585   5.411   2.181   6.859
 9896SOL     OW30586   4.702   4.038   0.734
 9896SOL    HW130587   4.628   4.064   0.797
 9896SOL    HW230588   4.790   4.054   0.777
 9897SOL     OW30589   6.229   2.239   3.543
 9897SOL    HW130590   6.289   2.304   3.589
 9897SOL    HW230591   6.166   2.198   3.609
 9898SOL     OW30592   1.298   4.669   5.501
 9898SOL    HW130593   1.234   4.735   5.464
 9898SOL    HW230594   1.317   4.690   5.597
 9899SOL     OW30595   5.072   5.311   1.695
 9899SOL    HW130596   4.995   5.368   1.669
 9899SOL    HW230597   5.134   5.301   1.617
 9900SOL     OW30598   1.551   2.880   3.692
 9900SOL    HW130599   1.489   2.888   3.614
 9900SOL    HW230600   1.576   2.971   3.726
 9901SOL     OW30601   3.120   2.413   5.444
 9901SOL    HW130602   3.157   2.434   5.353
 9901SOL    HW230603   3.043   2.349   5.435
 9902SOL     OW30604   4.182   3.629   0.011
 9902SOL    HW130605   4.247   3.701   0.032
 9902SOL    HW230606   4.218   3.540   0.040
 9903SOL     OW30607   4.073   1.930   2.204
 9903SOL    HW130608   4.093   1.937   2.302
 9903SOL    HW230609   4.061   2.021   2.165
 9904SOL     OW30610   6.320   0.919   1.245
 9904SOL    HW130611   6.280   0.828   1.233
 9904SOL    HW230612   6.418   0.910   1.263
 9905SOL     OW30613   1.356   6.841   4.898
 9905SOL    HW130614   1.439   6.786   4.894
 9905SOL    HW230615   1.377   6.935   4.871
 9906SOL     OW30616   2.679   2.992   6.208
 9906SOL    HW130617   2.724   2.938   6.138
 9906SOL    HW230618   2.635   3.071   6.166
 9907SOL     OW30619   2.654   6.197   2.488
 9907SOL    HW130620   2.612   6.139   2.418
 9907SOL    HW230621   2.752   6.206   2.469
 9908SOL     OW30622   1.244   3.272   5.702
 9908SOL    HW130623   1.242   3.312   5.610
 9908SOL    HW230624   1.159   3.295   5.749
 9909SOL     OW30625   3.922   0.152   2.562
 9909SOL    HW130626   3.850   0.105   2.612
 9909SOL    HW230627   3.954   0.095   2.487
 9910SOL     OW30628   6.955   4.099   1.414
 9910SOL    HW130629   6.860   4.082   1.389
 9910SOL    HW230630   6.980   4.043   1.493
 9911SOL     OW30631   3.425   4.912   3.293
 9911SOL    HW130632   3.333   4.906   3.255
 9911SOL    HW230633   3.426   4.979   3.367
 9912SOL     OW30634   5.203   0.453   1.331
 9912SOL    HW130635   5.290   0.409   1.309
 9912SOL    HW230636   5.217   0.527   1.396
 9913SOL     OW30637   4.828   2.044   2.884
 9913SOL    HW130638   4.908   1.993   2.917
 9913SOL    HW230639   4.745   2.003   2.920
 9914SOL     OW30640   1.623   0.128   4.963
 9914SOL    HW130641   1.698   0.066   4.940
 9914SOL    HW230642   1.635   0.215   4.916
 9915SOL     OW30643   5.411   3.433   4.319
 9915SOL    HW130644   5.455   3.343   4.321
 9915SOL    HW230645   5.313   3.423   4.336
 9916SOL     OW30646   2.161   2.991   2.105
 9916SOL    HW130647   2.086   2.947   2.057
 9916SOL    HW230648   2.223   3.033   2.039
 9917SOL     OW30649   2.581   3.325   5.878
 9917SOL    HW130650   2.662   3.380   5.900
 9917SOL    HW230651   2.569   3.320   5.779
 9918SOL     OW30652   1.964   1.349   5.991
 9918SOL    HW130653   2.049   1.312   6.029
 9918SOL    HW230654   1.895   1.355   6.062
 9919SOL     OW30655   0.645   5.501   2.793
 9919SOL    HW130656   0.708   5.576   2.814
 9919SOL    HW230657   0.563   5.510   2.849
 9920SOL     OW30658   4.435   6.835   1.242
 9920SOL    HW130659   4.356   6.886   1.277
 9920SOL    HW230660   4.476   6.783   1.316
 9921SOL     OW30661   5.512   0.551   3.268
 9921SOL    HW130662   5.510   0.615   3.192
 9921SOL    HW230663   5.567   0.589   3.342
 9922SOL     OW30664   4.487   4.092   0.880
 9922SOL    HW130665   4.397   4.051   0.867
 9922SOL    HW230666   4.496   4.123   0.975
 9923SOL     OW30667   6.259   2.046   6.533
 9923SOL    HW130668   6.193   2.117   6.512
 9923SOL    HW230669   6.224   1.989   6.608
 9924SOL     OW30670   6.756   1.004   3.242
 9924SOL    HW130671   6.659   0.981   3.234
 9924SOL    HW230672   6.811   0.926   3.211
 9925SOL     OW30673   2.394   2.619   5.232
 9925SOL    HW130674   2.395   2.519   5.235
 9925SOL    HW230675   2.355   2.650   5.146
 9926SOL     OW30676   1.304   1.120   0.152
 9926SOL    HW130677   1.377   1.090   0.213
 9926SOL    HW230678   1.216   1.115   0.199
 9927SOL     OW30679   0.532   1.995   2.077
 9927SOL    HW130680   0.531   2.094   2.089
 9927SOL    HW230681   0.576   1.952   2.156
 9928SOL     OW30682   0.160   3.863   2.537
 9928SOL    HW130683   0.081   3.902   2.490
 9928SOL    HW230684   0.176   3.914   2.622
 9929SOL     OW30685   2.610   3.899   0.111
 9929SOL    HW130686   2.649   3.952   0.035
 9929SOL    HW230687   2.671   3.824   0.135
 9930SOL     OW30688   0.136   6.256   6.250
 9930SOL    HW130689   0.156   6.180   6.188
 9930SOL    HW230690   0.201   6.254   6.327
 9931SOL     OW30691   1.582   5.685   5.548
 9931SOL    HW130692   1.497   5.633   5.542
 9931SOL    HW230693   1.653   5.629   5.591
 9932SOL     OW30694   1.388   1.714   0.471
 9932SOL    HW130695   1.422   1.623   0.494
 9932SOL    HW230696   1.465   1.775   0.450
 9933SOL     OW30697   1.269   2.263   3.894
 9933SOL    HW130698   1.218   2.277   3.809
 9933SOL    HW230699   1.366   2.277   3.877
 9934SOL     OW30700   4.094   1.399   5.971
 9934SOL    HW130701   4.122   1.307   5.943
 9934SOL    HW230702   3.998   1.396   6.000
 9935SOL     OW30703   2.926   1.856   1.109
 9935SOL    HW130704   2.911   1.801   1.190
 9935SOL    HW230705   2.986   1.934   1.131
 9936SOL     OW30706   5.855   5.868   6.627
 9936SOL    HW130707   5.888   5.812   6.704
 9936SOL    HW230708   5.886   5.962   6.638
 9937SOL     OW30709   0.552   0.398   3.497
 9937SOL    HW130710   0.545   0.340   3.579
 9937SOL    HW230711   0.501   0.355   3.422
 9938SOL     OW30712   6.614   1.441   4.495
 9938SOL    HW130713   6.560   1.520   4.524
 9938SOL    HW230714   6.599   1.365   4.559
 9939SOL     OW30715   2.922   4.421   1.256
 9939SOL    HW130716   2.905   4.459   1.347
 9939SOL    HW230717   3.000   4.358   1.260
 9940SOL     OW30718   0.140   0.800   3.758
 9940SOL    HW130719   0.041   0.811   3.749
 9940SOL    HW230720   0.161   0.753   3.843
 9941SOL     OW30721   5.044   4.696   6.085
 9941SOL    HW130722   4.990   4.642   6.150
 9941SOL    HW230723   5.071   4.782   6.128
 9942SOL     OW30724   4.670   5.297   3.252
 9942SOL    HW130725   4.591   5.315   3.193
 9942SOL    HW230726   4.749   5.271   3.196
 9943SOL     OW30727   2.490   4.084   6.874
 9943SOL    HW130728   2.567   4.102   6.935
 9943SOL    HW230729   2.524   4.046   6.788
 9944SOL     OW30730   1.110   5.178   6.831
 9944SOL    HW130731   1.206   5.155   6.818
 9944SOL    HW230732   1.103   5.273   6.861
 9945SOL     OW30733   5.837   3.593   6.565
 9945SOL    HW130734   5.833   3.688   6.595
 9945SOL    HW230735   5.808   3.533   6.640
 9946SOL     OW30736   5.500   1.704   2.284
 9946SOL    HW130737   5.422   1.671   2.338
 9946SOL    HW230738   5.568   1.743   2.345
 9947SOL     OW30739   1.010   1.983   3.529
 9947SOL    HW130740   0.913   2.002   3.544
 9947SOL    HW230741   1.058   1.981   3.617
 9948SOL     OW30742   6.500   6.938   4.218
 9948SOL    HW130743   6.412   6.966   4.180
 9948SOL    HW230744   6.524   6.999   4.294
 9949SOL     OW30745   5.592   5.070   4.156
 9949SOL    HW130746   5.666   5.004   4.170
 9949SOL    HW230747   5.561   5.104   4.245
 9950SOL     OW30748   6.367   4.463   5.277
 9950SOL    HW130749   6.366   4.469   5.376
 9950SOL    HW230750   6.414   4.543   5.239
 9951SOL     OW30751   0.713   2.559   2.211
 9951SOL    HW130752   0.623   2.593   2.239
 9951SOL    HW230753   0.739   2.602   2.124
 9952SOL     OW30754   0.654   4.706   1.998
 9952SOL    HW130755   0.556   4.713   2.016
 9952SOL    HW230756   0.676   4.752   1.912
 9953SOL     OW30757   6.086   2.619   3.355
 9953SOL    HW130758   6.145   2.621   3.436
 9953SOL    HW230759   5.991   2.620   3.384
 9954SOL     OW30760   3.431   1.843   5.699
 9954SOL    HW130761   3.481   1.779   5.640
 9954SOL    HW230762   3.493   1.916   5.729
 9955SOL     OW30763   6.228   3.593   0.570
 9955SOL    HW130764   6.150   3.532   0.552
 9955SOL    HW230765   6.194   3.686   0.586
 9956SOL     OW30766   2.074   3.793   2.901
 9956SOL    HW130767   2.002   3.784   2.970
 9956SOL    HW230768   2.092   3.703   2.861
 9957SOL     OW30769   4.815   0.070   0.899
 9957SOL    HW130770   4.903   0.045   0.940
 9957SOL    HW230771   4.742   0.059   0.966
 9958SOL     OW30772   4.724   4.719   6.869
 9958SOL    HW130773   4.804   4.749   6.922
 9958SOL    HW230774   4.665   4.663   6.927
 9959SOL     OW30775   4.525   4.293   0.405
 9959SOL    HW130776   4.443   4.310   0.350
 9959SOL    HW230777   4.534   4.195   0.421
 9960SOL     OW30778   0.844   0.970   6.669
 9960SOL    HW130779   0.766   0.936   6.721
 9960SOL    HW230780   0.811   1.027   6.594
 9961SOL     OW30781   3.163   4.682   1.463
 9961SOL    HW130782   3.148   4.619   1.539
 9961SOL    HW230783   3.201   4.632   1.385
 9962SOL     OW30784   3.413   6.729   1.047
 9962SOL    HW130785   3.366   6.716   0.960
 9962SOL    HW230786   3.466   6.647   1.069
 9963SOL     OW30787   0.897   1.391   6.249
 9963SOL    HW130788   0.984   1.433   6.276
 9963SOL    HW230789   0.913   1.328   6.172
 9964SOL     OW30790   4.573   3.869   5.595
 9964SOL    HW130791   4.559   3.817   5.679
 9964SOL    HW230792   4.553   3.811   5.516
 9965SOL     OW30793   2.813   5.773   4.457
 9965SOL    HW130794   2.747   5.712   4.414
 9965SOL    HW230795   2.903   5.759   4.414
 9966SOL     OW30796   4.062   4.861   2.662
 9966SOL    HW130797   4.115   4.917   2.597
 9966SOL    HW230798   4.124   4.802   2.713
 9967SOL     OW30799   6.984   0.166   3.070
 9967SOL    HW130800   6.916   0.230   3.104
 9967SOL    HW230801   0.040   0.216   3.025
 9968SOL     OW30802   3.510   6.946   0.357
 9968SOL    HW130803   3.524   6.991   0.269
 9968SOL    HW230804   3.513   6.847   0.345
 9969SOL     OW30805   1.616   5.106   3.794
 9969SOL    HW130806   1.698   5.052   3.780
 9969SOL    HW230807   1.634   5.178   3.861
 9970SOL     OW30808   6.421   3.829   1.617
 9970SOL    HW130809   6.403   3.730   1.616
 9970SOL    HW230810   6.356   3.876   1.557
 9971SOL     OW30811   0.784   4.547   2.192
 9971SOL    HW130812   0.705   4.578   2.139
 9971SOL    HW230813   0.755   4.476   2.257
 9972SOL     OW30814   2.736   2.863   0.058
 9972SOL    HW130815   2.749   2.933   0.129
 9972SOL    HW230816   2.692   2.904   6.996
 9973SOL     OW30817   3.520   2.132   3.780
 9973SOL    HW130818   3.438   2.124   3.724
 9973SOL    HW230819   3.555   2.225   3.776
 9974SOL     OW30820   0.662   3.021   3.024
 9974SOL    HW130821   0.626   2.942   3.074
 9974SOL    HW230822   0.728   2.990   2.956
 9975SOL     OW30823   1.638   5.089   0.203
 9975SOL    HW130824   1.561   5.109   0.143
 9975SOL    HW230825   1.666   4.994   0.190
 9976SOL     OW30826   2.997   3.962   6.478
 9976SOL    HW130827   3.093   3.978   6.502
 9976SOL    HW230828   2.971   4.025   6.404
 9977SOL     OW30829   5.250   5.920   5.602
 9977SOL    HW130830   5.184   5.845   5.602
 9977SOL    HW230831   5.284   5.935   5.509
 9978SOL     OW30832   0.582   3.298   6.538
 9978SOL    HW130833   0.559   3.225   6.473
 9978SOL    HW230834   0.679   3.292   6.561
 9979SOL     OW30835   4.370   3.244   5.344
 9979SOL    HW130836   4.302   3.302   5.298
 9979SOL    HW230837   4.460   3.286   5.337
 9980SOL     OW30838   1.970   0.756   0.442
 9980SOL    HW130839   1.927   0.843   0.417
 9980SOL    HW230840   1.905   0.682   0.430
 9981SOL     OW30841   0.699   2.798   1.858
 9981SOL    HW130842   0.645   2.828   1.937
 9981SOL    HW230843   0.764   2.869   1.832
 9982SOL     OW30844   2.161   1.952   5.079
 9982SOL    HW130845   2.227   2.019   5.113
 9982SOL    HW230846   2.099   1.996   5.014
 9983SOL     OW30847   0.813   3.026   1.790
 9983SOL    HW130848   0.830   3.075   1.704
 9983SOL    HW230849   0.901   3.007   1.834
 9984SOL     OW30850   6.663   6.009   0.565
 9984SOL    HW130851   6.634   5.980   0.473
 9984SOL    HW230852   6.608   6.087   0.594
 9985SOL     OW30853   4.221   5.343   0.596
 9985SOL    HW130854   4.215   5.409   0.671
 9985SOL    HW230855   4.132   5.299   0.582
 9986SOL     OW30856   5.368   4.334   0.414
 9986SOL    HW130857   5.317   4.383   0.343
 9986SOL    HW230858   5.305   4.276   0.466
 9987SOL     OW30859   5.400   3.075   1.821
 9987SOL    HW130860   5.440   3.140   1.885
 9987SOL    HW230861   5.470   3.009   1.793
 9988SOL     OW30862   5.111   6.361   4.283
 9988SOL    HW130863   5.184   6.296   4.263
 9988SOL    HW230864   5.088   6.358   4.380
 9989SOL     OW30865   6.086   4.976   2.121
 9989SOL    HW130866   6.098   5.036   2.041
 9989SOL    HW230867   6.174   4.959   2.164
 9990SOL     OW30868   0.359   0.255   3.645
 9990SOL    HW130869   0.272   0.221   3.681
 9990SOL    HW230870   0.363   0.240   3.546
 9991SOL     OW30871   1.544   4.517   4.183
 9991SOL    HW130872   1.452   4.479   4.180
 9991SOL    HW230873   1.601   4.474   4.112
 9992SOL     OW30874   3.293   4.816   1.015
 9992SOL    HW130875   3.255   4.740   1.068
 9992SOL    HW230876   3.226   4.846   0.948
 9993SOL     OW30877   4.027   6.935   4.339
 9993SOL    HW130878   4.071   6.980   4.417
 9993SOL    HW230879   4.031   6.836   4.351
 9994SOL     OW30880   6.524   5.186   4.546
 9994SOL    HW130881   6.585   5.107   4.557
 9994SOL    HW230882   6.432   5.161   4.576
 9995SOL     OW30883   2.768   0.808   5.224
 9995SOL    HW130884   2.700   0.744   5.188
 9995SOL    HW230885   2.831   0.834   5.151
 9996SOL     OW30886   1.935   3.912   0.693
 9996SOL    HW130887   1.954   3.955   0.782
 9996SOL    HW230888   2.021   3.899   0.644
 9997SOL     OW30889   6.057   2.960   4.404
 9997SOL    HW130890   6.052   3.054   4.439
 9997SOL    HW230891   6.121   2.907   4.460
 9998SOL     OW30892   5.008   4.075   2.458
 9998SOL    HW130893   4.918   4.035   2.442
 9998SOL    HW230894   5.047   4.035   2.542
 9999SOL     OW30895   0.649   6.274   4.550
 9999SOL    HW130896   0.629   6.359   4.500
 9999SOL    HW230897   0.727   6.228   4.506
10000SOL     OW30898   5.217   1.863   1.802
10000SOL    HW130899   5.301   1.918   1.804
10000SOL    HW230900   5.149   1.907   1.744
10001SOL     OW30901   3.752   5.732   2.156
10001SOL    HW130902   3.773   5.670   2.080
10001SOL    HW230903   3.677   5.694   2.210
10002SOL     OW30904   2.807   1.008   1.894
10002SOL    HW130905   2.879   0.963   1.842
10002SOL    HW230906   2.768   1.083   1.841
10003SOL     OW30907   1.210   1.135   3.248
10003SOL    HW130908   1.265   1.194   3.307
10003SOL    HW230909   1.118   1.172   3.240
10004SOL     OW30910   6.374   5.072   4.817
10004SOL    HW130911   6.426   5.140   4.869
10004SOL    HW230912   6.423   4.985   4.818
10005SOL     OW30913   1.982   5.856   3.530
10005SOL    HW130914   1.977   5.953   3.506
10005SOL    HW230915   1.897   5.811   3.504
10006SOL     OW30916   5.412   0.326   5.562
10006SOL    HW130917   5.316   0.351   5.576
10006SOL    HW230918   5.418   0.259   5.488
10007SOL     OW30919   1.327   4.918   4.820
10007SOL    HW130920   1.293   4.839   4.769
10007SOL    HW230921   1.363   4.888   4.908
10008SOL     OW30922   4.080   1.960   5.823
10008SOL    HW130923   4.145   1.938   5.896
10008SOL    HW230924   4.122   2.025   5.760
10009SOL     OW30925   1.155   4.209   1.550
10009SOL    HW130926   1.145   4.162   1.462
10009SOL    HW230927   1.193   4.146   1.617
10010SOL     OW30928   2.428   4.927   6.977
10010SOL    HW130929   2.430   4.841   6.926
10010SOL    HW230930   2.403   5.002   6.916
10011SOL     OW30931   1.183   3.434   0.586
10011SOL    HW130932   1.102   3.493   0.585
10011SOL    HW230933   1.251   3.473   0.649
10012SOL     OW30934   4.939   1.238   1.789
10012SOL    HW130935   4.894   1.220   1.877
10012SOL    HW230936   5.027   1.284   1.806
10013SOL     OW30937   1.335   5.922   4.545
10013SOL    HW130938   1.247   5.926   4.498
10013SOL    HW230939   1.331   5.854   4.618
10014SOL     OW30940   0.703   6.500   3.154
10014SOL    HW130941   0.737   6.594   3.153
10014SOL    HW230942   0.612   6.498   3.195
10015SOL     OW30943   3.896   4.378   5.745
10015SOL    HW130944   3.912   4.301   5.682
10015SOL    HW230945   3.884   4.462   5.693
10016SOL     OW30946   2.304   6.770   3.552
10016SOL    HW130947   2.361   6.807   3.625
10016SOL    HW230948   2.256   6.845   3.507
10017SOL     OW30949   2.907   1.590   3.168
10017SOL    HW130950   2.834   1.629   3.224
10017SOL    HW230951   2.992   1.586   3.221
10018SOL     OW30952   6.542   3.244   6.090
10018SOL    HW130953   6.578   3.211   6.003
10018SOL    HW230954   6.468   3.184   6.120
10019SOL     OW30955   0.537   1.731   2.500
10019SOL    HW130956   0.623   1.691   2.531
10019SOL    HW230957   0.463   1.666   2.514
10020SOL     OW30958   6.714   0.500   1.847
10020SOL    HW130959   6.662   0.516   1.931
10020SOL    HW230960   6.793   0.562   1.845
10021SOL     OW30961   1.480   3.925   1.805
10021SOL    HW130962   1.526   3.878   1.881
10021SOL    HW230963   1.390   3.957   1.836
10022SOL     OW30964   3.147   6.386   0.216
10022SOL    HW130965   3.137   6.306   0.275
10022SOL    HW230966   3.123   6.469   0.267
10023SOL     OW30967   2.488   0.163   5.818
10023SOL    HW130968   2.476   0.215   5.903
10023SOL    HW230969   2.474   0.066   5.836
10024SOL     OW30970   1.748   4.514   2.897
10024SOL    HW130971   1.685   4.446   2.859
10024SOL    HW230972   1.752   4.593   2.836
10025SOL     OW30973   1.437   4.332   1.361
10025SOL    HW130974   1.395   4.366   1.445
10025SOL    HW230975   1.390   4.372   1.282
10026SOL     OW30976   5.040   1.606   3.215
10026SOL    HW130977   5.073   1.585   3.307
10026SOL    HW230978   4.949   1.648   3.221
10027SOL     OW30979   1.706   1.779   5.661
10027SOL    HW130980   1.632   1.840   5.691
10027SOL    HW230981   1.784   1.789   5.722
10028SOL     OW30982   4.024   0.444   1.503
10028SOL    HW130983   4.077   0.467   1.421
10028SOL    HW230984   3.973   0.525   1.533
10029SOL     OW30985   0.382   3.137   4.606
10029SOL    HW130986   0.365   3.103   4.699
10029SOL    HW230987   0.327   3.219   4.591
10030SOL     OW30988   2.567   6.818   4.562
10030SOL    HW130989   2.540   6.837   4.656
10030SOL    HW230990   2.535   6.726   4.537
10031SOL     OW30991   3.878   5.233   4.274
10031SOL    HW130992   3.833   5.179   4.346
10031SOL    HW230993   3.943   5.297   4.317
10032SOL     OW30994   3.286   5.938   5.185
10032SOL    HW130995   3.383   5.917   5.195
10032SOL    HW230996   3.240   5.923   5.272
10033SOL     OW30997   4.020   1.757   3.199
10033SOL    HW130998   4.088   1.830   3.204
10033SOL    HW230999   3.971   1.750   3.286
10034SOL     OW31000   2.035   0.548   3.211
10034SOL    HW131001   1.989   0.594   3.136
10034SOL    HW231002   2.035   0.449   3.195
10035SOL     OW31003   6.066   3.119   1.173
10035SOL    HW131004   6.038   3.033   1.130
10035SOL    HW231005   6.017   3.130   1.260
10036SOL     OW31006   6.490   0.803   6.544
10036SOL    HW131007   6.554   0.753   6.602
10036SOL    HW231008   6.408   0.825   6.596
10037SOL     OW31009   6.333   6.921   6.835
10037SOL    HW131010   6.369   6.843   6.885
10037SOL    HW231011   6.410   6.976   6.800
10038SOL     OW31012   4.313   0.058   6.940
10038SOL    HW131013   4.365   0.114   6.875
10038SOL    HW231014   4.372   0.034   7.017
10039SOL     OW31015   5.463   5.419   4.259
10039SOL    HW131016   5.418   5.340   4.300
10039SOL    HW231017   5.399   5.496   4.259
10040SOL     OW31018   3.750   0.289   0.425
10040SOL    HW131019   3.771   0.300   0.522
10040SOL    HW231020   3.658   0.324   0.407
10041SOL     OW31021   6.352   4.758   5.598
10041SOL    HW131022   6.286   4.833   5.595
10041SOL    HW231023   6.418   4.768   5.523
10042SOL     OW31024   0.469   1.051   5.118
10042SOL    HW131025   0.401   1.122   5.134
10042SOL    HW231026   0.560   1.092   5.109
10043SOL     OW31027   1.120   0.926   3.433
10043SOL    HW131028   1.171   0.982   3.368
10043SOL    HW231029   1.048   0.981   3.476
10044SOL     OW31030   2.146   1.033   5.152
10044SOL    HW131031   2.048   1.013   5.147
10044SOL    HW231032   2.187   1.016   5.062
10045SOL     OW31033   4.532   6.786   4.278
10045SOL    HW131034   4.580   6.795   4.365
10045SOL    HW231035   4.563   6.704   4.231
10046SOL     OW31036   0.139   2.429   1.522
10046SOL    HW131037   0.124   2.492   1.597
10046SOL    HW231038   0.151   2.480   1.437
10047SOL     OW31039   6.228   2.139   4.882
10047SOL    HW131040   6.157   2.176   4.942
10047SOL    HW231041   6.229   2.039   4.889
10048SOL     OW31042   3.423   1.433   1.849
10048SOL    HW131043   3.372   1.363   1.900
10048SOL    HW231044   3.521   1.415   1.855
10049SOL     OW31045   1.988   0.842   6.644
10049SOL    HW131046   2.015   0.890   6.727
10049SOL    HW231047   2.061   0.779   6.617
10050SOL     OW31048   5.096   2.805   4.805
10050SOL    HW131049   5.168   2.748   4.765
10050SOL    HW231050   5.136   2.885   4.847
10051SOL     OW31051   6.631   2.925   4.512
10051SOL    HW131052   6.633   2.940   4.413
10051SOL    HW231053   6.706   2.864   4.538
10052SOL     OW31054   1.855   3.600   1.798
10052SOL    HW131055   1.767   3.643   1.777
10052SOL    HW231056   1.875   3.530   1.730
10053SOL     OW31057   3.473   5.158   3.513
10053SOL    HW131058   3.558   5.210   3.514
10053SOL    HW231059   3.396   5.220   3.499
10054SOL     OW31060   4.456   5.597   6.109
10054SOL    HW131061   4.480   5.521   6.169
10054SOL    HW231062   4.370   5.639   6.140
10055SOL     OW31063   6.824   2.391   5.302
10055SOL    HW131064   6.727   2.375   5.323
10055SOL    HW231065   6.858   2.317   5.244
10056SOL     OW31066   6.101   4.697   0.985
10056SOL    HW131067   6.164   4.769   0.955
10056SOL    HW231068   6.137   4.608   0.957
10057SOL     OW31069   4.282   1.907   4.584
10057SOL    HW131070   4.237   1.907   4.495
10057SOL    HW231071   4.222   1.949   4.652
10058SOL     OW31072   6.170   5.353   3.278
10058SOL    HW131073   6.139   5.328   3.187
10058SOL    HW231074   6.241   5.289   3.308
10059SOL     OW31075   5.267   0.470   0.800
10059SOL    HW131076   5.208   0.533   0.748
10059SOL    HW231077   5.359   0.471   0.760
10060SOL     OW31078   2.785   2.082   2.127
10060SOL    HW131079   2.819   2.176   2.133
10060SOL    HW231080   2.802   2.035   2.213
10061SOL     OW31081   5.935   0.728   4.272
10061SOL    HW131082   5.999   0.653   4.254
10061SOL    HW231083   5.947   0.760   4.366
10062SOL     OW31084   5.912   6.374   3.534
10062SOL    HW131085   5.921   6.470   3.561
10062SOL    HW231086   5.835   6.333   3.583
10063SOL     OW31087   1.185   2.932   3.618
10063SOL    HW131088   1.123   2.988   3.563
10063SOL    HW231089   1.132   2.873   3.678
10064SOL     OW31090   5.343   5.617   5.006
10064SOL    HW131091   5.332   5.641   4.909
10064SOL    HW231092   5.353   5.518   5.015
10065SOL     OW31093   1.692   6.652   2.156
10065SOL    HW131094   1.599   6.659   2.117
10065SOL    HW231095   1.688   6.669   2.254
10066SOL     OW31096   0.611   0.969   4.219
10066SOL    HW131097   0.598   1.028   4.139
10066SOL    HW231098   0.638   1.025   4.297
10067SOL     OW31099   5.293   4.969   4.488
10067SOL    HW131100   5.331   4.963   4.580
10067SOL    HW231101   5.209   4.915   4.483
10068SOL     OW31102   5.410   2.977   4.427
10068SOL    HW131103   5.453   3.065   4.407
10068SOL    HW231104   5.470   2.903   4.397
10069SOL     OW31105   2.190   1.043   3.723
10069SOL    HW131106   2.122   1.089   3.665
10069SOL    HW231107   2.269   1.016   3.667
10070SOL     OW31108   0.142   6.516   4.843
10070SOL    HW131109   0.218   6.475   4.793
10070SOL    HW231110   0.146   6.485   4.939
10071SOL     OW31111   4.439   5.449   3.863
10071SOL    HW131112   4.481   5.536   3.838
10071SOL    HW231113   4.344   5.448   3.834
10072SOL     OW31114   0.885   6.182   3.656
10072SOL    HW131115   0.827   6.260   3.680
10072SOL    HW231116   0.920   6.139   3.739
10073SOL     OW31117   5.925   4.902   5.096
10073SOL    HW131118   5.992   4.928   5.027
10073SOL    HW231119   5.926   4.802   5.107
10074SOL     OW31120   1.349   6.587   5.732
10074SOL    HW131121   1.283   6.638   5.678
10074SOL    HW231122   1.310   6.498   5.757
10075SOL     OW31123   1.411   2.678   3.129
10075SOL    HW131124   1.454   2.675   3.219
10075SOL    HW231125   1.337   2.610   3.125
10076SOL     OW31126   4.675   0.089   4.396
10076SOL    HW131127   4.616   0.141   4.457
10076SOL    HW231128   4.629   0.078   4.307
10077SOL     OW31129   4.030   2.337   6.747
10077SOL    HW131130   4.024   2.407   6.675
10077SOL    HW231131   3.957   2.353   6.814
10078SOL     OW31132   6.353   6.089   4.642
10078SOL    HW131133   6.429   6.048   4.693
10078SOL    HW231134   6.373   6.186   4.626
10079SOL     OW31135   1.599   3.122   1.804
10079SOL    HW131136   1.660   3.106   1.727
10079SOL    HW231137   1.650   3.112   1.890
10080SOL     OW31138   2.062   2.719   0.404
10080SOL    HW131139   2.099   2.749   0.492
10080SOL    HW231140   2.109   2.635   0.376
10081SOL     OW31141   0.902   0.334   6.262
10081SOL    HW131142   0.855   0.325   6.349
10081SOL    HW231143   0.995   0.297   6.271
10082SOL     OW31144   6.387   2.315   1.790
10082SOL    HW131145   6.312   2.340   1.852
10082SOL    HW231146   6.364   2.230   1.743
10083SOL     OW31147   4.523   1.355   3.754
10083SOL    HW131148   4.454   1.414   3.797
10083SOL    HW231149   4.558   1.399   3.672
10084SOL     OW31150   3.148   0.663   6.501
10084SOL    HW131151   3.067   0.611   6.531
10084SOL    HW231152   3.227   0.602   6.499
10085SOL     OW31153   0.896   4.931   3.033
10085SOL    HW131154   0.849   4.857   2.984
10085SOL    HW231155   0.848   4.948   3.119
10086SOL     OW31156   5.975   5.235   2.397
10086SOL    HW131157   6.042   5.248   2.325
10086SOL    HW231158   5.979   5.311   2.462
10087SOL     OW31159   0.920   1.137   4.280
10087SOL    HW131160   0.962   1.138   4.370
10087SOL    HW231161   0.834   1.190   4.283
10088SOL     OW31162   0.170   0.063   5.061
10088SOL    HW131163   0.164   0.140   4.997
10088SOL    HW231164   0.259   0.019   5.053
10089SOL     OW31165   2.806   1.381   2.749
10089SOL    HW131166   2.862   1.371   2.667
10089SOL    HW231167   2.733   1.313   2.749
10090SOL     OW31168   1.203   4.545   0.799
10090SOL    HW131169   1.129   4.560   0.733
10090SOL    HW231170   1.282   4.602   0.775
10091SOL     OW31171   1.131   3.766   4.388
10091SOL    HW131172   1.045   3.718   4.369
10091SOL    HW231173   1.117   3.829   4.464
10092SOL     OW31174   1.779   3.826   5.413
10092SOL    HW131175   1.875   3.798   5.415
10092SOL    HW231176   1.732   3.781   5.337
10093SOL     OW31177   0.456   4.869   5.163
10093SOL    HW131178   0.452   4.953   5.217
10093SOL    HW231179   0.544   4.862   5.117
10094SOL     OW31180   2.523   0.426   2.354
10094SOL    HW131181   2.544   0.403   2.259
10094SOL    HW231182   2.545   0.348   2.413
10095SOL     OW31183   6.051   1.233   5.381
10095SOL    HW131184   6.134   1.261   5.429
10095SOL    HW231185   6.016   1.148   5.422
10096SOL     OW31186   6.724   5.317   2.668
10096SOL    HW131187   6.796   5.341   2.734
10096SOL    HW231188   6.645   5.281   2.718
10097SOL     OW31189   1.246   0.938   0.437
10097SOL    HW131190   1.228   0.901   0.529
10097SOL    HW231191   1.173   1.001   0.412
10098SOL     OW31192   1.840   5.808   5.838
10098SOL    HW131193   1.748   5.844   5.823
10098SOL    HW231194   1.902   5.847   5.770
10099SOL     OW31195   6.966   3.715   5.934
10099SOL    HW131196   7.001   3.622   5.926
10099SOL    HW231197   7.012   3.762   6.010
10100SOL     OW31198   4.524   0.248   5.306
10100SOL    HW131199   4.430   0.249   5.339
10100SOL    HW231200   4.582   0.302   5.367
10101SOL     OW31201   6.995   4.598   2.401
10101SOL    HW131202   0.039   4.659   2.352
10101SOL    HW231203   0.030   4.527   2.448
10102SOL     OW31204   3.085   1.068   3.068
10102SOL    HW131205   3.095   1.150   3.010
10102SOL    HW231206   2.992   1.033   3.060
10103SOL     OW31207   3.223   1.582   5.036
10103SOL    HW131208   3.133   1.538   5.043
10103SOL    HW231209   3.250   1.586   4.940
10104SOL     OW31210   0.554   4.068   5.187
10104SOL    HW131211   0.599   4.119   5.260
10104SOL    HW231212   0.471   4.115   5.160
10105SOL     OW31213   1.328   1.430   6.528
10105SOL    HW131214   1.343   1.524   6.558
10105SOL    HW231215   1.417   1.386   6.512
10106SOL     OW31216   5.151   4.895   0.442
10106SOL    HW131217   5.211   4.846   0.379
10106SOL    HW231218   5.158   4.853   0.533
10107SOL     OW31219   6.475   1.125   5.722
10107SOL    HW131220   6.519   1.146   5.635
10107SOL    HW231221   6.545   1.103   5.790
10108SOL     OW31222   6.349   6.144   0.087
10108SOL    HW131223   6.425   6.175   0.029
10108SOL    HW231224   6.263   6.155   0.039
10109SOL     OW31225   4.004   6.178   2.908
10109SOL    HW131226   4.079   6.141   2.963
10109SOL    HW231227   3.949   6.103   2.872
10110SOL     OW31228   3.724   6.495   5.188
10110SOL    HW131229   3.672   6.485   5.103
10110SOL    HW231230   3.792   6.567   5.177
10111SOL     OW31231   6.989   3.821   3.600
10111SOL    HW131232   0.021   3.903   3.625
10111SOL    HW231233   7.017   3.790   3.509
10112SOL     OW31234   6.128   3.526   5.576
10112SOL    HW131235   6.106   3.433   5.545
10112SOL    HW231236   6.066   3.551   5.650
10113SOL     OW31237   3.985   0.949   0.187
10113SOL    HW131238   3.968   0.897   0.103
10113SOL    HW231239   3.973   0.888   0.266
10114SOL     OW31240   5.424   1.275   0.538
10114SOL    HW131241   5.505   1.245   0.487
10114SOL    HW231242   5.435   1.371   0.564
10115SOL     OW31243   2.271   2.294   3.482
10115SOL    HW131244   2.272   2.199   3.513
10115SOL    HW231245   2.338   2.347   3.535
10116SOL     OW31246   0.918   6.873   1.114
10116SOL    HW131247   1.009   6.889   1.151
10116SOL    HW231248   0.865   6.958   1.117
10117SOL     OW31249   6.464   0.313   4.296
10117SOL    HW131250   6.425   0.322   4.388
10117SOL    HW231251   6.407   0.250   4.243
10118SOL     OW31252   0.451   4.879   2.828
10118SOL    HW131253   0.441   4.957   2.890
10118SOL    HW231254   0.511   4.811   2.869
10119SOL     OW31255   2.156   6.952   4.295
10119SOL    HW131256   2.123   6.904   4.377
10119SOL    HW231257   2.150   0.033   4.311
10120SOL     OW31258   0.528   3.140   3.889
10120SOL    HW131259   0.567   3.159   3.799
10120SOL    HW231260   0.539   3.043   3.910
10121SOL     OW31261   6.721   4.969   4.881
10121SOL    HW131262   6.759   5.036   4.818
10121SOL    HW231263   6.662   4.905   4.831
10122SOL     OW31264   5.930   3.019   0.103
10122SOL    HW131265   5.942   2.954   0.179
10122SOL    HW231266   5.874   3.096   0.133
10123SOL     OW31267   6.913   5.913   0.716
10123SOL    HW131268   6.825   5.941   0.680
10123SOL    HW231269   6.941   5.976   0.789
10124SOL     OW31270   2.234   4.134   6.875
10124SOL    HW131271   2.329   4.107   6.858
10124SOL    HW231272   2.203   4.196   6.803
10125SOL     OW31273   1.511   0.463   2.952
10125SOL    HW131274   1.512   0.481   3.050
10125SOL    HW231275   1.424   0.495   2.913
10126SOL     OW31276   5.901   5.684   6.423
10126SOL    HW131277   5.977   5.627   6.454
10126SOL    HW231278   5.898   5.768   6.478
10127SOL     OW31279   3.253   5.584   5.781
10127SOL    HW131280   3.238   5.534   5.696
10127SOL    HW231281   3.341   5.632   5.776
10128SOL     OW31282   0.547   1.364   1.053
10128SOL    HW131283   0.542   1.363   0.954
10128SOL    HW231284   0.513   1.277   1.089
10129SOL     OW31285   4.659   2.669   3.852
10129SOL    HW131286   4.682   2.662   3.949
10129SOL    HW231287   4.574   2.620   3.834
10130SOL     OW31288   1.556   4.911   2.596
10130SOL    HW131289   1.459   4.890   2.611
10130SOL    HW231290   1.588   4.972   2.668
10131SOL     OW31291   0.319   2.035   2.434
10131SOL    HW131292   0.269   2.092   2.499
10131SOL    HW231293   0.402   2.083   2.406
10132SOL     OW31294   3.178   6.617   3.082
10132SOL    HW131295   3.245   6.676   3.036
10132SOL    HW231296   3.087   6.657   3.073
10133SOL     OW31297   4.227   6.520   2.955
10133SOL    HW131298   4.285   6.599   2.976
10133SOL    HW231299   4.226   6.506   2.856
10134SOL     OW31300   6.573   0.417   3.680
10134SOL    HW131301   6.553   0.387   3.587
10134SOL    HW231302   6.500   0.386   3.741
10135SOL     OW31303   4.828   3.883   2.776
10135SOL    HW131304   4.790   3.941   2.704
10135SOL    HW231305   4.843   3.791   2.740
10136SOL     OW31306   5.860   0.087   3.248
10136SOL    HW131307   5.768   0.050   3.242
10136SOL    HW231308   5.912   0.061   3.167
10137SOL     OW31309   6.749   5.387   4.034
10137SOL    HW131310   6.844   5.371   4.009
10137SOL    HW231311   6.744   5.464   4.098
10138SOL     OW31312   5.029   1.982   0.821
10138SOL    HW131313   4.993   1.894   0.791
10138SOL    HW231314   5.083   2.023   0.748
10139SOL     OW31315   3.834   2.954   2.532
10139SOL    HW131316   3.744   2.912   2.547
10139SOL    HW231317   3.841   2.985   2.437
10140SOL     OW31318   6.318   5.974   6.043
10140SOL    HW131319   6.324   6.053   5.982
10140SOL    HW231320   6.333   5.890   5.990
10141SOL     OW31321   3.287   2.149   4.322
10141SOL    HW131322   3.214   2.195   4.372
10141SOL    HW231323   3.363   2.131   4.384
10142SOL     OW31324   5.231   6.565   5.399
10142SOL    HW131325   5.136   6.580   5.425
10142SOL    HW231326   5.242   6.582   5.301
10143SOL     OW31327   4.558   0.316   1.248
10143SOL    HW131328   4.555   0.409   1.212
10143SOL    HW231329   4.646   0.300   1.293
10144SOL     OW31330   4.070   6.087   5.801
10144SOL    HW131331   4.148   6.039   5.761
10144SOL    HW231332   4.012   6.124   5.729
10145SOL     OW31333   3.111   5.819   5.676
10145SOL    HW131334   3.156   5.819   5.587
10145SOL    HW231335   3.148   5.745   5.732
10146SOL     OW31336   3.987   4.960   5.393
10146SOL    HW131337   3.912   5.006   5.441
10146SOL    HW231338   4.073   4.981   5.439
10147SOL     OW31339   5.084   4.797   4.510
10147SOL    HW131340   5.090   4.707   4.553
10147SOL    HW231341   4.995   4.807   4.465
10148SOL     OW31342   6.392   5.811   0.404
10148SOL    HW131343   6.394   5.711   0.401
10148SOL    HW231344   6.372   5.841   0.497
10149SOL     OW31345   4.621   2.144   0.219
10149SOL    HW131346   4.537   2.131   0.273
10149SOL    HW231347   4.608   2.105   0.128
10150SOL     OW31348   5.150   4.051   0.750
10150SOL    HW131349   5.082   4.011   0.811
10150SOL    HW231350   5.203   4.120   0.799
10151SOL     OW31351   1.553   0.340   6.403
10151SOL    HW131352   1.650   0.350   6.423
10151SOL    HW231353   1.532   0.385   6.316
10152SOL     OW31354   1.689   5.785   3.771
10152SOL    HW131355   1.624   5.780   3.696
10152SOL    HW231356   1.754   5.859   3.754
10153SOL     OW31357   4.169   5.985   3.845
10153SOL    HW131358   4.171   6.066   3.904
10153SOL    HW231359   4.091   5.992   3.783
10154SOL     OW31360   6.090   6.713   5.753
10154SOL    HW131361   6.014   6.763   5.714
10154SOL    HW231362   6.127   6.650   5.685
10155SOL     OW31363   3.755   1.698   5.999
10155SOL    HW131364   3.774   1.659   5.909
10155SOL    HW231365   3.830   1.676   6.061
10156SOL     OW31366   6.395   6.998   1.765
10156SOL    HW131367   6.467   7.003   1.697
10156SOL    HW231368   6.306   7.006   1.721
10157SOL     OW31369   5.756   1.964   5.836
10157SOL    HW131370   5.766   1.865   5.839
10157SOL    HW231371   5.770   1.996   5.742
10158SOL     OW31372   4.678   3.893   6.940
10158SOL    HW131373   4.730   3.824   6.890
10158SOL    HW231374   4.583   3.892   6.910
10159SOL     OW31375   2.832   3.244   6.041
10159SOL    HW131376   2.922   3.268   6.075
10159SOL    HW231377   2.771   3.223   6.118
10160SOL     OW31378   1.118   4.518   2.327
10160SOL    HW131379   1.048   4.511   2.398
10160SOL    HW231380   1.082   4.572   2.251
10161SOL     OW31381   3.385   4.762   0.676
10161SOL    HW131382   3.302   4.767   0.731
10161SOL    HW231383   3.360   4.746   0.580
10162SOL     OW31384   3.164   3.853   0.555
10162SOL    HW131385   3.232   3.923   0.533
10162SOL    HW231386   3.079   3.897   0.583
10163SOL     OW31387   5.796   4.218   6.357
10163SOL    HW131388   5.854   4.299   6.351
10163SOL    HW231389   5.845   4.138   6.322
10164SOL     OW31390   6.264   2.820   4.999
10164SOL    HW131391   6.359   2.790   4.989
10164SOL    HW231392   6.262   2.914   5.031
10165SOL     OW31393   1.814   2.487   3.772
10165SOL    HW131394   1.809   2.512   3.868
10165SOL    HW231395   1.831   2.388   3.764
10166SOL     OW31396   3.739   0.580   1.838
10166SOL    HW131397   3.766   0.568   1.933
10166SOL    HW231398   3.658   0.639   1.833
10167SOL     OW31399   4.509   1.248   6.590
10167SOL    HW131400   4.415   1.245   6.624
10167SOL    HW231401   4.517   1.317   6.518
10168SOL     OW31402   0.022   3.834   4.600
10168SOL    HW131403   7.012   3.929   4.609
10168SOL    HW231404   0.048   3.799   4.689
10169SOL     OW31405   6.798   3.907   3.324
10169SOL    HW131406   6.854   3.961   3.386
10169SOL    HW231407   6.846   3.824   3.299
10170SOL     OW31408   0.874   4.219   5.968
10170SOL    HW131409   0.962   4.179   5.996
10170SOL    HW231410   0.855   4.194   5.873
10171SOL     OW31411   6.619   4.030   6.684
10171SOL    HW131412   6.589   3.935   6.684
10171SOL    HW231413   6.584   4.076   6.602
10172SOL     OW31414   6.471   0.267   3.443
10172SOL    HW131415   6.547   0.270   3.377
10172SOL    HW231416   6.402   0.335   3.418
10173SOL     OW31417   1.864   2.184   1.109
10173SOL    HW131418   1.869   2.219   1.203
10173SOL    HW231419   1.860   2.261   1.045
10174SOL     OW31420   5.663   5.056   1.927
10174SOL    HW131421   5.686   5.147   1.964
10174SOL    HW231422   5.573   5.059   1.885
10175SOL     OW31423   6.877   2.559   4.027
10175SOL    HW131424   6.885   2.518   3.936
10175SOL    HW231425   6.963   2.548   4.077
10176SOL     OW31426   1.015   3.038   5.609
10176SOL    HW131427   0.984   3.132   5.591
10176SOL    HW231428   1.097   3.020   5.555
10177SOL     OW31429   2.491   0.328   0.079
10177SOL    HW131430   2.425   0.374   0.020
10177SOL    HW231431   2.583   0.339   0.042
10178SOL     OW31432   6.610   3.028   5.071
10178SOL    HW131433   6.514   3.005   5.091
10178SOL    HW231434   6.621   3.040   4.972
10179SOL     OW31435   1.058   1.614   6.026
10179SOL    HW131436   1.027   1.522   6.003
10179SOL    HW231437   0.991   1.681   5.995
10180SOL     OW31438   3.843   5.910   6.689
10180SOL    HW131439   3.845   5.873   6.596
10180SOL    HW231440   3.937   5.922   6.722
10181SOL     OW31441   4.896   3.445   2.097
10181SOL    HW131442   4.830   3.415   2.028
10181SOL    HW231443   4.944   3.365   2.134
10182SOL     OW31444   5.688   1.664   2.017
10182SOL    HW131445   5.667   1.569   2.042
10182SOL    HW231446   5.625   1.725   2.065
10183SOL     OW31447   0.746   2.102   6.113
10183SOL    HW131448   0.808   2.177   6.135
10183SOL    HW231449   0.706   2.065   6.197
10184SOL     OW31450   4.735   1.496   6.206
10184SOL    HW131451   4.787   1.574   6.240
10184SOL    HW231452   4.717   1.432   6.281
10185SOL     OW31453   5.132   5.828   1.419
10185SOL    HW131454   5.203   5.871   1.363
10185SOL    HW231455   5.044   5.870   1.398
10186SOL     OW31456   5.568   3.392   3.169
10186SOL    HW131457   5.599   3.324   3.236
10186SOL    HW231458   5.471   3.411   3.182
10187SOL     OW31459   0.576   2.219   1.805
10187SOL    HW131460   0.490   2.167   1.811
10187SOL    HW231461   0.585   2.256   1.712
10188SOL     OW31462   3.692   6.314   0.171
10188SOL    HW131463   3.672   6.322   0.269
10188SOL    HW231464   3.644   6.235   0.133
10189SOL     OW31465   2.474   0.985   5.388
10189SOL    HW131466   2.548   0.942   5.440
10189SOL    HW231467   2.512   1.053   5.325
10190SOL     OW31468   5.216   2.648   0.997
10190SOL    HW131469   5.232   2.553   1.025
10190SOL    HW231470   5.130   2.680   1.036
10191SOL     OW31471   4.561   4.188   6.877
10191SOL    HW131472   4.587   4.220   6.786
10191SOL    HW231473   4.562   4.088   6.879
10192SOL     OW31474   4.524   0.716   5.001
10192SOL    HW131475   4.540   0.812   4.979
10192SOL    HW231476   4.522   0.704   5.100
10193SOL     OW31477   4.362   3.825   1.703
10193SOL    HW131478   4.458   3.797   1.693
10193SOL    HW231479   4.304   3.744   1.711
10194SOL     OW31480   6.001   5.169   4.937
10194SOL    HW131481   6.070   5.223   4.987
10194SOL    HW231482   6.032   5.075   4.929
10195SOL     OW31483   6.231   4.476   1.429
10195SOL    HW131484   6.220   4.469   1.330
10195SOL    HW231485   6.152   4.523   1.468
10196SOL     OW31486   5.026   1.486   4.524
10196SOL    HW131487   5.121   1.473   4.496
10196SOL    HW231488   5.024   1.509   4.622
10197SOL     OW31489   0.011   1.938   5.206
10197SOL    HW131490   7.001   1.857   5.258
10197SOL    HW231491   6.965   1.955   5.132
10198SOL     OW31492   3.931   0.666   1.671
10198SOL    HW131493   3.874   0.615   1.735
10198SOL    HW231494   3.891   0.756   1.654
10199SOL     OW31495   2.629   2.672   6.243
10199SOL    HW131496   2.566   2.704   6.173
10199SOL    HW231497   2.682   2.749   6.279
10200SOL     OW31498   5.066   2.150   1.025
10200SOL    HW131499   5.036   2.108   0.939
10200SOL    HW231500   5.128   2.088   1.073
10201SOL     OW31501   0.675   4.652   0.734
10201SOL    HW131502   0.754   4.599   0.764
10201SOL    HW231503   0.615   4.669   0.812
10202SOL     OW31504   4.041   2.243   6.178
10202SOL    HW131505   4.116   2.279   6.233
10202SOL    HW231506   3.954   2.276   6.215
10203SOL     OW31507   5.493   2.941   4.125
10203SOL    HW131508   5.487   2.847   4.093
10203SOL    HW231509   5.420   2.995   4.084
10204SOL     OW31510   5.422   6.607   6.725
10204SOL    HW131511   5.449   6.653   6.640
10204SOL    HW231512   5.406   6.510   6.708
10205SOL     OW31513   0.432   1.687   0.636
10205SOL    HW131514   0.411   1.603   0.687
10205SOL    HW231515   0.474   1.753   0.697
10206SOL     OW31516   0.897   1.181   6.058
10206SOL    HW131517   0.943   1.123   6.126
10206SOL    HW231518   0.898   1.136   5.969
10207SOL     OW31519   1.249   2.137   6.593
10207SOL    HW131520   1.304   2.060   6.625
10207SOL    HW231521   1.166   2.144   6.648
10208SOL     OW31522   5.596   5.247   3.937
10208SOL    HW131523   5.576   5.179   4.007
10208SOL    HW231524   5.623   5.333   3.981
10209SOL     OW31525   0.060   6.993   6.098
10209SOL    HW131526   0.091   0.070   6.091
10209SOL    HW231527   0.024   6.963   6.010
10210SOL     OW31528   4.499   6.534   0.872
10210SOL    HW131529   4.577   6.490   0.829
10210SOL    HW231530   4.502   6.633   0.855
10211SOL     OW31531   3.277   6.824   4.687
10211SOL    HW131532   3.314   6.763   4.617
10211SOL    HW231533   3.186   6.794   4.714
10212SOL     OW31534   0.963   6.934   5.052
10212SOL    HW131535   0.893   6.866   5.074
10212SOL    HW231536   1.034   6.933   5.123
10213SOL     OW31537   4.551   2.668   1.010
10213SOL    HW131538   4.635   2.614   1.018
10213SOL    HW231539   4.487   2.640   1.081
10214SOL     OW31540   1.361   1.809   1.816
10214SOL    HW131541   1.372   1.906   1.833
10214SOL    HW231542   1.274   1.793   1.770
10215SOL     OW31543   4.032   3.174   2.978
10215SOL    HW131544   4.016   3.185   3.077
10215SOL    HW231545   4.097   3.100   2.963
10216SOL     OW31546   6.150   0.479   1.622
10216SOL    HW131547   6.092   0.526   1.688
10216SOL    HW231548   6.231   0.534   1.603
10217SOL     OW31549   2.387   0.885   3.607
10217SOL    HW131550   2.421   0.824   3.678
10217SOL    HW231551   2.325   0.836   3.546
10218SOL     OW31552   0.901   3.138   1.276
10218SOL    HW131553   0.880   3.212   1.212
10218SOL    HW231554   0.993   3.103   1.257
10219SOL     OW31555   6.963   1.575   2.415
10219SOL    HW131556   6.977   1.632   2.496
10219SOL    HW231557   0.026   1.578   2.357
10220SOL     OW31558   4.123   2.622   1.020
10220SOL    HW131559   4.057   2.578   0.960
10220SOL    HW231560   4.076   2.653   1.103
10221SOL     OW31561   0.820   5.425   3.192
10221SOL    HW131562   0.894   5.491   3.180
10221SOL    HW231563   0.835   5.346   3.132
10222SOL     OW31564   2.924   3.571   4.734
10222SOL    HW131565   2.940   3.520   4.819
10222SOL    HW231566   2.914   3.506   4.659
10223SOL     OW31567   0.673   5.130   0.873
10223SOL    HW131568   0.715   5.218   0.895
10223SOL    HW231569   0.642   5.086   0.957
10224SOL     OW31570   6.001   3.374   3.590
10224SOL    HW131571   6.058   3.450   3.559
10224SOL    HW231572   5.980   3.315   3.512
10225SOL     OW31573   1.603   4.014   5.820
10225SOL    HW131574   1.590   3.986   5.725
10225SOL    HW231575   1.516   4.008   5.869
10226SOL     OW31576   3.574   1.773   0.361
10226SOL    HW131577   3.486   1.801   0.321
10226SOL    HW231578   3.560   1.693   0.420
10227SOL     OW31579   5.299   3.813   0.342
10227SOL    HW131580   5.314   3.845   0.436
10227SOL    HW231581   5.385   3.818   0.291
10228SOL     OW31582   6.583   0.353   0.493
10228SOL    HW131583   6.547   0.446   0.490
10228SOL    HW231584   6.682   0.355   0.474
10229SOL     OW31585   0.639   3.036   4.925
10229SOL    HW131586   0.574   3.075   4.860
10229SOL    HW231587   0.619   3.070   5.017
10230SOL     OW31588   6.564   5.730   2.310
10230SOL    HW131589   6.614   5.760   2.392
10230SOL    HW231590   6.466   5.747   2.323
10231SOL     OW31591   1.459   6.042   3.580
10231SOL    HW131592   1.508   6.040   3.493
10231SOL    HW231593   1.453   6.136   3.613
10232SOL     OW31594   2.988   0.620   3.750
10232SOL    HW131595   2.909   0.668   3.711
10232SOL    HW231596   3.064   0.684   3.762
10233SOL     OW31597   3.872   4.150   5.913
10233SOL    HW131598   3.882   4.246   5.889
10233SOL    HW231599   3.929   4.094   5.852
10234SOL     OW31600   5.879   0.303   1.223
10234SOL    HW131601   5.880   0.209   1.255
10234SOL    HW231602   5.872   0.304   1.123
10235SOL     OW31603   0.960   1.205   3.192
10235SOL    HW131604   0.891   1.183   3.260
10235SOL    HW231605   0.928   1.282   3.136
10236SOL     OW31606   2.562   6.618   0.165
10236SOL    HW131607   2.515   6.666   0.091
10236SOL    HW231608   2.498   6.601   0.239
10237SOL     OW31609   0.536   2.997   0.090
10237SOL    HW131610   0.480   3.080   0.101
10237SOL    HW231611   0.620   3.006   0.144
10238SOL     OW31612   4.088   4.998   0.989
10238SOL    HW131613   4.052   4.977   0.898
10238SOL    HW231614   4.064   4.924   1.052
10239SOL     OW31615   1.473   2.935   4.345
10239SOL    HW131616   1.514   3.025   4.326
10239SOL    HW231617   1.487   2.913   4.441
10240SOL     OW31618   2.406   0.031   2.002
10240SOL    HW131619   2.501   0.042   2.032
10240SOL    HW231620   2.399   6.971   1.940
10241SOL     OW31621   4.952   1.934   1.965
10241SOL    HW131622   4.964   2.033   1.961
10241SOL    HW231623   5.042   1.890   1.974
10242SOL     OW31624   0.277   2.327   0.827
10242SOL    HW131625   0.234   2.344   0.916
10242SOL    HW231626   0.319   2.237   0.827
10243SOL     OW31627   2.482   4.479   1.178
10243SOL    HW131628   2.559   4.428   1.139
10243SOL    HW231629   2.501   4.499   1.274
10244SOL     OW31630   2.381   3.837   1.231
10244SOL    HW131631   2.426   3.917   1.270
10244SOL    HW231632   2.431   3.754   1.258
10245SOL     OW31633   3.607   3.943   0.784
10245SOL    HW131634   3.659   3.872   0.831
10245SOL    HW231635   3.520   3.906   0.754
10246SOL     OW31636   3.391   2.890   4.245
10246SOL    HW131637   3.310   2.908   4.301
10246SOL    HW231638   3.389   2.948   4.164
10247SOL     OW31639   1.120   4.279   5.161
10247SOL    HW131640   1.162   4.202   5.113
10247SOL    HW231641   1.171   4.363   5.140
10248SOL     OW31642   1.379   6.740   3.566
10248SOL    HW131643   1.342   6.825   3.527
10248SOL    HW231644   1.330   6.662   3.527
10249SOL     OW31645   2.014   5.070   6.922
10249SOL    HW131646   2.050   5.024   7.003
10249SOL    HW231647   2.051   5.028   6.840
10250SOL     OW31648   5.694   2.952   0.295
10250SOL    HW131649   5.730   2.858   0.299
10250SOL    HW231650   5.595   2.950   0.285
10251SOL     OW31651   1.514   0.347   3.803
10251SOL    HW131652   1.570   0.429   3.791
10251SOL    HW231653   1.523   0.288   3.724
10252SOL     OW31654   4.838   3.611   5.354
10252SOL    HW131655   4.788   3.586   5.271
10252SOL    HW231656   4.832   3.710   5.368
10253SOL     OW31657   3.967   6.894   6.767
10253SOL    HW131658   4.037   6.955   6.732
10253SOL    HW231659   3.880   6.914   6.723
10254SOL     OW31660   5.185   2.011   5.007
10254SOL    HW131661   5.221   1.925   4.972
10254SOL    HW231662   5.138   2.059   4.934
10255SOL     OW31663   2.829   5.670   1.002
10255SOL    HW131664   2.876   5.751   0.968
10255SOL    HW231665   2.772   5.694   1.081
10256SOL     OW31666   5.428   1.166   1.840
10256SOL    HW131667   5.388   1.093   1.785
10256SOL    HW231668   5.484   1.128   1.913
10257SOL     OW31669   3.009   4.934   3.333
10257SOL    HW131670   3.080   4.967   3.271
10257SOL    HW231671   3.051   4.904   3.419
10258SOL     OW31672   3.143   2.168   3.237
10258SOL    HW131673   3.113   2.219   3.317
10258SOL    HW231674   3.187   2.083   3.266
10259SOL     OW31675   1.002   4.358   4.193
10259SOL    HW131676   1.043   4.273   4.160
10259SOL    HW231677   0.930   4.337   4.259
10260SOL     OW31678   1.551   1.374   3.415
10260SOL    HW131679   1.541   1.312   3.492
10260SOL    HW231680   1.471   1.367   3.355
10261SOL     OW31681   0.269   3.484   0.989
10261SOL    HW131682   0.327   3.562   0.964
10261SOL    HW231683   0.221   3.451   0.908
10262SOL     OW31684   3.834   0.893   6.724
10262SOL    HW131685   3.815   0.796   6.739
10262SOL    HW231686   3.891   0.904   6.642
10263SOL     OW31687   6.025   0.773   0.664
10263SOL    HW131688   6.059   0.780   0.570
10263SOL    HW231689   5.961   0.847   0.681
10264SOL     OW31690   6.005   5.004   6.522
10264SOL    HW131691   5.925   5.064   6.525
10264SOL    HW231692   6.040   4.991   6.615
10265SOL     OW31693   2.294   2.694   0.867
10265SOL    HW131694   2.274   2.596   0.874
10265SOL    HW231695   2.333   2.726   0.954
10266SOL     OW31696   3.184   2.983   2.795
10266SOL    HW131697   3.206   2.943   2.884
10266SOL    HW231698   3.251   3.053   2.772
10267SOL     OW31699   5.176   0.846   0.541
10267SOL    HW131700   5.227   0.793   0.474
10267SOL    HW231701   5.142   0.930   0.499
10268SOL     OW31702   5.539   0.024   1.511
10268SOL    HW131703   5.582   0.102   1.556
10268SOL    HW231704   5.567   0.021   1.415
10269SOL     OW31705   1.416   2.599   6.744
10269SOL    HW131706   1.489   2.666   6.731
10269SOL    HW231707   1.363   2.624   6.825
10270SOL     OW31708   3.551   5.978   2.339
10270SOL    HW131709   3.589   5.895   2.382
10270SOL    HW231710   3.615   6.054   2.352
10271SOL     OW31711   3.116   2.117   1.161
10271SOL    HW131712   3.168   2.198   1.187
10271SOL    HW231713   3.020   2.142   1.147
10272SOL     OW31714   6.894   1.111   4.081
10272SOL    HW131715   6.811   1.142   4.035
10272SOL    HW231716   6.963   1.183   4.078
10273SOL     OW31717   3.094   5.308   4.497
10273SOL    HW131718   2.996   5.326   4.498
10273SOL    HW231719   3.126   5.306   4.402
10274SOL     OW31720   0.376   5.182   5.545
10274SOL    HW131721   0.344   5.089   5.527
10274SOL    HW231722   0.390   5.194   5.644
10275SOL     OW31723   0.134   0.896   3.168
10275SOL    HW131724   0.067   0.873   3.238
10275SOL    HW231725   0.128   0.830   3.093
10276SOL     OW31726   4.495   5.597   5.622
10276SOL    HW131727   4.453   5.634   5.540
10276SOL    HW231728   4.545   5.669   5.670
10277SOL     OW31729   1.295   6.937   4.465
10277SOL    HW131730   1.293   6.857   4.404
10277SOL    HW231731   1.326   7.017   4.415
10278SOL     OW31732   0.177   0.530   4.895
10278SOL    HW131733   0.093   0.557   4.942
10278SOL    HW231734   0.216   0.609   4.848
10279SOL     OW31735   2.425   5.554   4.343
10279SOL    HW131736   2.476   5.639   4.353
10279SOL    HW231737   2.471   5.495   4.277
10280SOL     OW31738   5.738   3.476   0.513
10280SOL    HW131739   5.677   3.417   0.460
10280SOL    HW231740   5.700   3.487   0.605
10281SOL     OW31741   6.725   2.338   3.297
10281SOL    HW131742   6.695   2.257   3.247
10281SOL    HW231743   6.807   2.376   3.253
10282SOL     OW31744   4.935   3.284   3.092
10282SOL    HW131745   4.911   3.287   2.995
10282SOL    HW231746   4.915   3.193   3.128
10283SOL     OW31747   0.425   3.719   1.072
10283SOL    HW131748   0.390   3.677   1.155
10283SOL    HW231749   0.384   3.810   1.062
10284SOL     OW31750   0.145   2.431   3.898
10284SOL    HW131751   0.178   2.349   3.945
10284SOL    HW231752   0.220   2.497   3.890
10285SOL     OW31753   4.284   6.745   3.203
10285SOL    HW131754   4.239   6.729   3.291
10285SOL    HW231755   4.383   6.754   3.218
10286SOL     OW31756   2.733   1.075   3.729
10286SOL    HW131757   2.782   1.007   3.674
10286SOL    HW231758   2.799   1.124   3.787
10287SOL     OW31759   2.052   5.762   1.767
10287SOL    HW131760   2.080   5.771   1.862
10287SOL    HW231761   1.953   5.747   1.763
10288SOL     OW31762   3.233   6.906   5.135
10288SOL    HW131763   3.184   6.987   5.166
10288SOL    HW231764   3.270   6.922   5.044
10289SOL     OW31765   3.234   5.990   0.883
10289SOL    HW131766   3.209   5.975   0.979
10289SOL    HW231767   3.201   6.079   0.853
10290SOL     OW31768   3.124   3.349   2.507
10290SOL    HW131769   3.087   3.434   2.543
10290SOL    HW231770   3.057   3.275   2.521
10291SOL     OW31771   3.246   1.141   3.320
10291SOL    HW131772   3.218   1.114   3.228
10291SOL    HW231773   3.320   1.081   3.351
10292SOL     OW31774   0.378   0.950   6.111
10292SOL    HW131775   0.313   0.903   6.051
10292SOL    HW231776   0.330   1.021   6.163
10293SOL     OW31777   0.768   3.675   3.624
10293SOL    HW131778   0.670   3.692   3.628
10293SOL    HW231779   0.785   3.577   3.614
10294SOL     OW31780   3.680   1.886   2.998
10294SOL    HW131781   3.603   1.822   2.989
10294SOL    HW231782   3.765   1.839   2.976
10295SOL     OW31783   1.264   2.328   6.067
10295SOL    HW131784   1.280   2.332   6.165
10295SOL    HW231785   1.202   2.401   6.039
10296SOL     OW31786   5.788   0.813   5.790
10296SOL    HW131787   5.727   0.892   5.796
10296SOL    HW231788   5.766   0.760   5.708
10297SOL     OW31789   2.810   1.651   0.027
10297SOL    HW131790   2.755   1.681   6.967
10297SOL    HW231791   2.905   1.679   0.013
10298SOL     OW31792   1.289   4.454   1.637
10298SOL    HW131793   1.237   4.385   1.586
10298SOL    HW231794   1.235   4.486   1.715
10299SOL     OW31795   4.645   6.362   2.368
10299SOL    HW131796   4.589   6.295   2.319
10299SOL    HW231797   4.647   6.339   2.465
10300SOL     OW31798   1.302   4.152   1.924
10300SOL    HW131799   1.272   4.242   1.890
10300SOL    HW231800   1.325   4.158   2.021
10301SOL     OW31801   3.921   1.992   5.384
10301SOL    HW131802   3.933   2.084   5.421
10301SOL    HW231803   3.830   1.984   5.342
10302SOL     OW31804   2.797   6.776   4.386
10302SOL    HW131805   2.850   6.858   4.412
10302SOL    HW231806   2.712   6.774   4.438
10303SOL     OW31807   1.027   6.125   3.884
10303SOL    HW131808   1.042   6.029   3.860
10303SOL    HW231809   1.106   6.160   3.933
10304SOL     OW31810   6.464   7.002   0.473
10304SOL    HW131811   6.433   0.053   0.407
10304SOL    HW231812   6.405   6.922   0.466
10305SOL     OW31813   3.293   3.922   6.179
10305SOL    HW131814   3.208   3.965   6.148
10305SOL    HW231815   3.359   3.922   6.104
10306SOL     OW31816   5.102   6.432   1.270
10306SOL    HW131817   5.174   6.405   1.334
10306SOL    HW231818   5.133   6.508   1.214
10307SOL     OW31819   3.033   1.505   4.568
10307SOL    HW131820   2.972   1.527   4.492
10307SOL    HW231821   3.126   1.533   4.546
10308SOL     OW31822   2.199   4.387   2.647
10308SOL    HW131823   2.135   4.374   2.722
10308SOL    HW231824   2.188   4.478   2.608
10309SOL     OW31825   6.464   0.782   5.686
10309SOL    HW131826   6.403   0.740   5.619
10309SOL    HW231827   6.411   0.816   5.763
10310SOL     OW31828   2.790   3.712   0.184
10310SOL    HW131829   2.756   3.680   0.272
10310SOL    HW231830   2.855   3.645   0.147
10311SOL     OW31831   6.124   5.558   0.421
10311SOL    HW131832   6.136   5.628   0.491
10311SOL    HW231833   6.183   5.480   0.441
10312SOL     OW31834   4.358   0.458   2.029
10312SOL    HW131835   4.421   0.412   2.091
10312SOL    HW231836   4.410   0.504   1.957
10313SOL     OW31837   3.800   5.986   2.804
10313SOL    HW131838   3.800   5.900   2.752
10313SOL    HW231839   3.733   5.980   2.878
10314SOL     OW31840   0.515   0.390   6.682
10314SOL    HW131841   0.454   0.323   6.723
10314SOL    HW231842   0.472   0.480   6.683
10315SOL     OW31843   5.165   6.720   3.709
10315SOL    HW131844   5.257   6.706   3.671
10315SOL    HW231845   5.157   6.813   3.744
10316SOL     OW31846   6.388   2.263   5.976
10316SOL    HW131847   6.414   2.335   6.040
10316SOL    HW231848   6.365   2.180   6.028
10317SOL     OW31849   3.601   5.951   5.921
10317SOL    HW131850   3.643   5.927   6.009
10317SOL    HW231851   3.667   5.936   5.847
10318SOL     OW31852   5.450   0.224   6.488
10318SOL    HW131853   5.497   0.218   6.400
10318SOL    HW231854   5.515   0.256   6.558
10319SOL     OW31855   0.352   4.319   5.806
10319SOL    HW131856   0.427   4.267   5.846
10319SOL    HW231857   0.340   4.290   5.711
10320SOL     OW31858   6.857   6.772   3.168
10320SOL    HW131859   6.855   6.673   3.181
10320SOL    HW231860   6.892   6.816   3.251
10321SOL     OW31861   5.857   2.360   2.095
10321SOL    HW131862   5.901   2.443   2.131
10321SOL    HW231863   5.761   2.379   2.075
10322SOL     OW31864   4.047   4.808   4.740
10322SOL    HW131865   4.109   4.768   4.672
10322SOL    HW231866   4.089   4.804   4.830
10323SOL     OW31867   6.256   5.097   5.200
10323SOL    HW131868   6.273   5.143   5.287
10323SOL    HW231869   6.229   5.164   5.131
10324SOL     OW31870   2.961   3.778   2.415
10324SOL    HW131871   2.914   3.704   2.463
10324SOL    HW231872   2.944   3.769   2.317
10325SOL     OW31873   0.183   4.988   2.429
10325SOL    HW131874   0.269   5.034   2.453
10325SOL    HW231875   0.151   4.934   2.508
10326SOL     OW31876   5.535   3.941   6.429
10326SOL    HW131877   5.573   3.938   6.337
10326SOL    HW231878   5.473   3.863   6.442
10327SOL     OW31879   2.412   3.260   1.658
10327SOL    HW131880   2.406   3.329   1.730
10327SOL    HW231881   2.449   3.175   1.695
10328SOL     OW31882   6.303   2.875   2.143
10328SOL    HW131883   6.206   2.863   2.125
10328SOL    HW231884   6.336   2.958   2.097
10329SOL     OW31885   2.756   0.564   2.836
10329SOL    HW131886   2.702   0.575   2.920
10329SOL    HW231887   2.694   0.561   2.757
10330SOL     OW31888   4.653   0.547   1.110
10330SOL    HW131889   4.560   0.554   1.074
10330SOL    HW231890   4.714   0.516   1.037
10331SOL     OW31891   6.432   5.971   6.685
10331SOL    HW131892   6.505   5.924   6.736
10331SOL    HW231893   6.368   5.903   6.649
10332SOL     OW31894   1.024   0.180   6.723
10332SOL    HW131895   1.058   0.187   6.629
10332SOL    HW231896   0.929   0.213   6.726
10333SOL     OW31897   0.304   5.906   4.665
10333SOL    HW131898   0.242   5.831   4.685
10333SOL    HW231899   0.340   5.944   4.751
10334SOL     OW31900   3.366   0.124   4.385
10334SOL    HW131901   3.372   0.185   4.463
10334SOL    HW231902   3.367   0.178   4.300
10335SOL     OW31903   1.519   4.574   6.581
10335SOL    HW131904   1.469   4.645   6.530
10335SOL    HW231905   1.465   4.489   6.581
10336SOL     OW31906   6.470   6.483   1.857
10336SOL    HW131907   6.503   6.563   1.807
10336SOL    HW231908   6.416   6.513   1.935
10337SOL     OW31909   6.683   5.387   0.305
10337SOL    HW131910   6.730   5.470   0.333
10337SOL    HW231911   6.732   5.307   0.342
10338SOL     OW31912   1.421   6.383   2.227
10338SOL    HW131913   1.479   6.457   2.259
10338SOL    HW231914   1.325   6.411   2.229
10339SOL     OW31915   6.283   3.422   6.409
10339SOL    HW131916   6.250   3.340   6.362
10339SOL    HW231917   6.219   3.497   6.394
10340SOL     OW31918   1.808   2.628   6.547
10340SOL    HW131919   1.781   2.572   6.469
10340SOL    HW231920   1.732   2.687   6.574
10341SOL     OW31921   2.039   3.532   2.221
10341SOL    HW131922   1.965   3.578   2.173
10341SOL    HW231923   2.119   3.525   2.160
10342SOL     OW31924   1.590   0.523   3.569
10342SOL    HW131925   1.662   0.491   3.508
10342SOL    HW231926   1.629   0.583   3.638
10343SOL     OW31927   2.916   5.051   0.703
10343SOL    HW131928   2.977   5.121   0.740
10343SOL    HW231929   2.913   4.973   0.765
10344SOL     OW31930   3.604   3.769   6.850
10344SOL    HW131931   3.510   3.785   6.819
10344SOL    HW231932   3.652   3.856   6.857
10345SOL     OW31933   1.524   3.206   5.585
10345SOL    HW131934   1.453   3.250   5.530
10345SOL    HW231935   1.574   3.275   5.638
10346SOL     OW31936   6.875   5.299   1.423
10346SOL    HW131937   6.933   5.360   1.370
10346SOL    HW231938   6.793   5.276   1.370
10347SOL     OW31939   4.494   1.177   3.409
10347SOL    HW131940   4.482   1.183   3.310
10347SOL    HW231941   4.529   1.264   3.444
10348SOL     OW31942   6.267   2.516   0.334
10348SOL    HW131943   6.192   2.501   0.269
10348SOL    HW231944   6.251   2.602   0.383
10349SOL     OW31945   0.735   0.370   6.488
10349SOL    HW131946   0.670   0.348   6.561
10349SOL    HW231947   0.750   0.469   6.485
10350SOL     OW31948   2.813   5.827   5.439
10350SOL    HW131949   2.806   5.926   5.454
10350SOL    HW231950   2.746   5.798   5.372
10351SOL     OW31951   4.685   5.015   5.823
10351SOL    HW131952   4.771   5.063   5.840
10351SOL    HW231953   4.704   4.919   5.803
10352SOL     OW31954   3.418   0.841   6.341
10352SOL    HW131955   3.510   0.814   6.370
10352SOL    HW231956   3.414   0.842   6.241
10353SOL     OW31957   6.522   2.787   4.883
10353SOL    HW131958   6.533   2.706   4.825
10353SOL    HW231959   6.494   2.865   4.827
10354SOL     OW31960   5.360   1.143   0.843
10354SOL    HW131961   5.355   1.206   0.921
10354SOL    HW231962   5.437   1.080   0.855
10355SOL     OW31963   3.151   5.960   2.044
10355SOL    HW131964   3.167   6.052   2.008
10355SOL    HW231965   3.239   5.915   2.061
10356SOL     OW31966   0.153   4.148   6.348
10356SOL    HW131967   0.099   4.101   6.277
10356SOL    HW231968   0.137   4.105   6.436
10357SOL     OW31969   2.210   2.281   5.908
10357SOL    HW131970   2.256   2.365   5.935
10357SOL    HW231971   2.278   2.208   5.899
10358SOL     OW31972   6.690   2.530   3.042
10358SOL    HW131973   6.773   2.483   3.072
10358SOL    HW231974   6.693   2.625   3.071
10359SOL     OW31975   0.339   1.495   1.193
10359SOL    HW131976   0.307   1.545   1.113
10359SOL    HW231977   0.422   1.445   1.171
10360SOL     OW31978   4.495   5.378   3.046
10360SOL    HW131979   4.566   5.421   2.990
10360SOL    HW231980   4.407   5.386   2.999
10361SOL     OW31981   2.874   5.939   2.270
10361SOL    HW131982   2.896   5.842   2.275
10361SOL    HW231983   2.777   5.952   2.290
10362SOL     OW31984   2.064   5.290   4.861
10362SOL    HW131985   2.005   5.354   4.812
10362SOL    HW231986   2.128   5.247   4.797
10363SOL     OW31987   5.466   0.865   2.853
10363SOL    HW131988   5.520   0.846   2.771
10363SOL    HW231989   5.474   0.962   2.876
10364SOL     OW31990   2.675   3.849   1.116
10364SOL    HW131991   2.741   3.824   1.046
10364SOL    HW231992   2.595   3.789   1.109
10365SOL     OW31993   3.760   5.306   0.016
10365SOL    HW131994   3.783   5.403   0.015
10365SOL    HW231995   3.725   5.279   6.944
10366SOL     OW31996   2.450   6.881   3.766
10366SOL    HW131997   2.386   6.909   3.837
10366SOL    HW231998   2.525   6.947   3.761
10367SOL     OW31999   5.941   1.795   3.101
10367SOL    HW132000   5.965   1.829   3.010
10367SOL    HW232001   5.883   1.862   3.148
10368SOL     OW32002   2.223   1.418   2.037
10368SOL    HW132003   2.234   1.377   2.127
10368SOL    HW232004   2.305   1.471   2.014
10369SOL     OW32005   3.870   1.742   1.162
10369SOL    HW132006   3.941   1.809   1.140
10369SOL    HW232007   3.788   1.763   1.108
10370SOL     OW32008   4.100   0.921   5.272
10370SOL    HW132009   4.138   0.868   5.347
10370SOL    HW232010   4.025   0.978   5.306
10371SOL     OW32011   4.212   5.631   5.154
10371SOL    HW132012   4.174   5.606   5.243
10371SOL    HW232013   4.312   5.628   5.158
10372SOL     OW32014   2.662   0.950   4.580
10372SOL    HW132015   2.626   1.032   4.626
10372SOL    HW232016   2.586   0.887   4.561
10373SOL     OW32017   1.134   6.832   4.682
10373SOL    HW132018   1.188   6.864   4.604
10373SOL    HW232019   1.189   6.840   4.765
10374SOL     OW32020   2.796   1.648   3.454
10374SOL    HW132021   2.710   1.624   3.498
10374SOL    HW232022   2.862   1.574   3.465
10375SOL     OW32023   5.669   2.176   0.973
10375SOL    HW132024   5.642   2.122   0.893
10375SOL    HW232025   5.737   2.127   1.026
10376SOL     OW32026   0.220   1.488   3.740
10376SOL    HW132027   0.282   1.434   3.684
10376SOL    HW232028   0.131   1.442   3.745
10377SOL     OW32029   0.603   0.626   3.652
10377SOL    HW132030   0.574   0.531   3.661
10377SOL    HW232031   0.628   0.645   3.557
10378SOL     OW32032   6.703   0.451   5.508
10378SOL    HW132033   6.634   0.401   5.560
10378SOL    HW232034   6.666   0.479   5.420
10379SOL     OW32035   5.070   0.180   4.945
10379SOL    HW132036   5.010   0.212   4.872
10379SOL    HW232037   5.157   0.150   4.907
10380SOL     OW32038   5.751   0.838   2.703
10380SOL    HW132039   5.837   0.789   2.717
10380SOL    HW232040   5.711   0.811   2.616
10381SOL     OW32041   4.931   5.312   6.093
10381SOL    HW132042   5.007   5.265   6.139
10381SOL    HW232043   4.900   5.388   6.149
10382SOL     OW32044   2.533   5.691   5.588
10382SOL    HW132045   2.508   5.606   5.542
10382SOL    HW232046   2.621   5.678   5.635
10383SOL     OW32047   0.680   3.137   0.757
10383SOL    HW132048   0.670   3.037   0.753
10383SOL    HW232049   0.618   3.173   0.826
10384SOL     OW32050   6.829   0.074   0.793
10384SOL    HW132051   6.816   0.172   0.806
10384SOL    HW232052   6.925   0.050   0.808
10385SOL     OW32053   6.038   0.854   5.915
10385SOL    HW132054   5.955   0.856   5.858
10385SOL    HW232055   6.097   0.780   5.885
10386SOL     OW32056   6.886   3.153   5.194
10386SOL    HW132057   6.985   3.157   5.180
10386SOL    HW232058   6.850   3.070   5.152
10387SOL     OW32059   1.984   2.608   2.754
10387SOL    HW132060   1.991   2.664   2.837
10387SOL    HW232061   1.989   2.668   2.673
10388SOL     OW32062   1.672   5.011   3.140
10388SOL    HW132063   1.700   4.916   3.150
10388SOL    HW232064   1.665   5.054   3.230
10389SOL     OW32065   1.225   4.744   3.698
10389SOL    HW132066   1.212   4.650   3.729
10389SOL    HW232067   1.171   4.806   3.755
10390SOL     OW32068   1.679   3.367   3.064
10390SOL    HW132069   1.599   3.320   3.025
10390SOL    HW232070   1.719   3.427   2.995
10391SOL     OW32071   1.667   6.241   6.592
10391SOL    HW132072   1.766   6.231   6.583
10391SOL    HW232073   1.622   6.155   6.570
10392SOL     OW32074   6.274   4.970   0.239
10392SOL    HW132075   6.299   4.921   0.322
10392SOL    HW232076   6.224   5.052   0.262
10393SOL     OW32077   0.430   1.443   4.288
10393SOL    HW132078   0.461   1.538   4.292
10393SOL    HW232079   0.498   1.383   4.330
10394SOL     OW32080   2.784   6.578   6.992
10394SOL    HW132081   2.699   6.619   0.005
10394SOL    HW232082   2.787   6.578   6.893
10395SOL     OW32083   6.969   0.640   4.417
10395SOL    HW132084   6.892   0.582   4.391
10395SOL    HW232085   0.021   0.636   4.347
10396SOL     OW32086   0.884   0.361   4.329
10396SOL    HW132087   0.951   0.401   4.267
10396SOL    HW232088   0.794   0.362   4.287
10397SOL     OW32089   3.628   0.893   3.809
10397SOL    HW132090   3.623   0.793   3.808
10397SOL    HW232091   3.702   0.922   3.869
10398SOL     OW32092   5.970   2.620   1.304
10398SOL    HW132093   6.053   2.638   1.357
10398SOL    HW232094   5.891   2.616   1.366
10399SOL     OW32095   5.225   2.409   5.256
10399SOL    HW132096   5.208   2.500   5.293
10399SOL    HW232097   5.144   2.377   5.208
10400SOL     OW32098   2.746   5.497   2.590
10400SOL    HW132099   2.706   5.482   2.499
10400SOL    HW232100   2.675   5.488   2.659
10401SOL     OW32101   0.531   5.553   2.001
10401SOL    HW132102   0.540   5.651   2.019
10401SOL    HW232103   0.458   5.515   2.057
10402SOL     OW32104   1.095   3.388   4.572
10402SOL    HW132105   1.175   3.433   4.533
10402SOL    HW232106   1.119   3.295   4.601
10403SOL     OW32107   5.568   1.473   1.687
10403SOL    HW132108   5.537   1.521   1.769
10403SOL    HW232109   5.492   1.462   1.623
10404SOL     OW32110   0.698   6.776   4.278
10404SOL    HW132111   0.704   6.705   4.208
10404SOL    HW232112   0.643   6.852   4.244
10405SOL     OW32113   1.711   6.310   5.681
10405SOL    HW132114   1.639   6.319   5.751
10405SOL    HW232115   1.800   6.301   5.726
10406SOL     OW32116   2.668   4.062   5.960
10406SOL    HW132117   2.768   4.070   5.960
10406SOL    HW232118   2.637   4.033   5.870
10407SOL     OW32119   0.933   2.434   6.460
10407SOL    HW132120   0.918   2.475   6.551
10407SOL    HW232121   1.015   2.474   6.420
10408SOL     OW32122   4.367   4.912   3.519
10408SOL    HW132123   4.323   4.921   3.608
10408SOL    HW232124   4.466   4.909   3.531
10409SOL     OW32125   0.576   4.122   2.178
10409SOL    HW132126   0.578   4.184   2.100
10409SOL    HW232127   0.485   4.123   2.219
10410SOL     OW32128   4.902   0.981   1.646
10410SOL    HW132129   4.807   0.965   1.619
10410SOL    HW232130   4.908   1.066   1.698
10411SOL     OW32131   2.397   4.635   2.932
10411SOL    HW132132   2.472   4.614   2.996
10411SOL    HW232133   2.389   4.561   2.866
10412SOL     OW32134   1.528   2.170   0.400
10412SOL    HW132135   1.500   2.094   0.458
10412SOL    HW232136   1.585   2.135   0.325
10413SOL     OW32137   6.922   2.601   6.894
10413SOL    HW132138   6.922   2.699   6.876
10413SOL    HW232139   6.897   2.552   6.811
10414SOL     OW32140   5.500   6.090   6.611
10414SOL    HW132141   5.533   6.016   6.552
10414SOL    HW232142   5.524   6.070   6.706
10415SOL     OW32143   0.427   5.935   4.139
10415SOL    HW132144   0.379   5.882   4.070
10415SOL    HW232145   0.427   5.886   4.226
10416SOL     OW32146   5.524   1.813   5.018
10416SOL    HW132147   5.543   1.758   4.937
10416SOL    HW232148   5.580   1.780   5.095
10417SOL     OW32149   3.778   4.849   3.653
10417SOL    HW132150   3.742   4.918   3.590
10417SOL    HW232151   3.791   4.889   3.743
10418SOL     OW32152   6.641   4.400   6.758
10418SOL    HW132153   6.549   4.388   6.721
10418SOL    HW232154   6.675   4.492   6.735
10419SOL     OW32155   3.406   1.422   4.857
10419SOL    HW132156   3.459   1.398   4.938
10419SOL    HW232157   3.321   1.368   4.855
10420SOL     OW32158   6.815   3.605   3.234
10420SOL    HW132159   6.717   3.588   3.240
10420SOL    HW232160   6.845   3.594   3.139
10421SOL     OW32161   1.172   4.701   4.378
10421SOL    HW132162   1.144   4.617   4.425
10421SOL    HW232163   1.239   4.750   4.434
10422SOL     OW32164   6.631   3.599   4.705
10422SOL    HW132165   6.536   3.612   4.735
10422SOL    HW232166   6.654   3.668   4.636
10423SOL     OW32167   3.559   4.903   3.956
10423SOL    HW132168   3.513   4.954   3.883
10423SOL    HW232169   3.654   4.887   3.929
10424SOL     OW32170   3.438   0.955   0.278
10424SOL    HW132171   3.406   0.890   0.209
10424SOL    HW232172   3.538   0.961   0.275
10425SOL     OW32173   1.900   1.231   0.367
10425SOL    HW132174   1.871   1.137   0.349
10425SOL    HW232175   1.837   1.295   0.322
10426SOL     OW32176   6.266   2.052   6.085
10426SOL    HW132177   6.196   2.122   6.074
10426SOL    HW232178   6.223   1.962   6.088
10427SOL     OW32179   5.823   6.588   4.496
10427SOL    HW132180   5.741   6.581   4.553
10427SOL    HW232181   5.843   6.499   4.455
10428SOL     OW32182   1.792   0.688   4.111
10428SOL    HW132183   1.816   0.725   4.022
10428SOL    HW232184   1.752   0.760   4.168
10429SOL     OW32185   1.083   3.239   2.653
10429SOL    HW132186   1.152   3.307   2.630
10429SOL    HW232187   1.034   3.267   2.736
10430SOL     OW32188   2.816   0.414   4.011
10430SOL    HW132189   2.824   0.512   4.028
10430SOL    HW232190   2.765   0.371   4.086
10431SOL     OW32191   2.977   1.243   3.294
10431SOL    HW132192   3.025   1.164   3.256
10431SOL    HW232193   2.882   1.242   3.262
10432SOL     OW32194   0.821   5.875   5.500
10432SOL    HW132195   0.772   5.818   5.434
10432SOL    HW232196   0.779   5.966   5.503
10433SOL     OW32197   1.840   0.058   2.683
10433SOL    HW132198   1.809   0.007   2.763
10433SOL    HW232199   1.842   7.015   2.604
10434SOL     OW32200   4.151   6.580   5.226
10434SOL    HW132201   4.151   6.649   5.154
10434SOL    HW232202   4.167   6.489   5.186
10435SOL     OW32203   1.782   2.177   6.717
10435SOL    HW132204   1.715   2.104   6.710
10435SOL    HW232205   1.871   2.139   6.741
10436SOL     OW32206   6.660   4.135   4.742
10436SOL    HW132207   6.741   4.159   4.796
10436SOL    HW232208   6.646   4.036   4.744
10437SOL     OW32209   4.950   5.912   5.164
10437SOL    HW132210   4.904   5.876   5.245
10437SOL    HW232211   4.950   6.012   5.168
10438SOL     OW32212   6.538   6.143   6.448
10438SOL    HW132213   6.621   6.114   6.400
10438SOL    HW232214   6.502   6.065   6.500
10439SOL     OW32215   6.455   6.794   4.528
10439SOL    HW132216   6.553   6.802   4.510
10439SOL    HW232217   6.418   6.717   4.475
10440SOL     OW32218   0.101   2.272   6.993
10440SOL    HW132219   0.066   2.183   0.003
10440SOL    HW232220   0.065   2.295   6.903
10441SOL     OW32221   3.725   2.035   1.284
10441SOL    HW132222   3.728   2.120   1.337
10441SOL    HW232223   3.783   1.967   1.327
10442SOL     OW32224   2.157   1.792   6.104
10442SOL    HW132225   2.255   1.815   6.099
10442SOL    HW232226   2.107   1.867   6.147
10443SOL     OW32227   0.121   2.358   3.011
10443SOL    HW132228   0.032   2.374   2.968
10443SOL    HW232229   0.175   2.296   2.954
10444SOL     OW32230   3.731   5.777   4.296
10444SOL    HW132231   3.676   5.694   4.289
10444SOL    HW232232   3.785   5.775   4.381
10445SOL     OW32233   1.330   3.929   2.654
10445SOL    HW132234   1.281   3.849   2.687
10445SOL    HW232235   1.421   3.901   2.623
10446SOL     OW32236   1.682   3.876   6.025
10446SOL    HW132237   1.742   3.926   6.087
10446SOL    HW232238   1.662   3.932   5.945
10447SOL     OW32239   0.230   2.163   2.662
10447SOL    HW132240   0.149   2.204   2.621
10447SOL    HW232241   0.205   2.118   2.748
10448SOL     OW32242   2.407   6.025   2.958
10448SOL    HW132243   2.446   6.100   2.905
10448SOL    HW232244   2.431   6.036   3.055
10449SOL     OW32245   4.178   5.569   5.443
10449SOL    HW132246   4.251   5.638   5.442
10449SOL    HW232247   4.186   5.514   5.526
10450SOL     OW32248   0.308   0.631   5.995
10450SOL    HW132249   0.300   0.730   5.978
10450SOL    HW232250   0.218   0.594   6.018
10451SOL     OW32251   2.296   0.867   3.130
10451SOL    HW132252   2.245   0.784   3.153
10451SOL    HW232253   2.393   0.853   3.149
10452SOL     OW32254   0.428   3.561   4.512
10452SOL    HW132255   0.379   3.484   4.553
10452SOL    HW232256   0.515   3.529   4.474
10453SOL     OW32257   3.968   5.661   3.578
10453SOL    HW132258   3.881   5.686   3.622
10453SOL    HW232259   3.971   5.563   3.563
10454SOL     OW32260   6.824   0.219   5.778
10454SOL    HW132261   6.750   0.224   5.711
10454SOL    HW232262   6.906   0.263   5.742
10455SOL     OW32263   6.324   6.254   3.762
10455SOL    HW132264   6.257   6.308   3.812
10455SOL    HW232265   6.294   6.242   3.667
10456SOL     OW32266   1.110   5.486   6.843
10456SOL    HW132267   1.019   5.449   6.862
10456SOL    HW232268   1.106   5.586   6.845
10457SOL     OW32269   3.452   2.440   6.967
10457SOL    HW132270   3.399   2.485   6.894
10457SOL    HW232271   3.549   2.454   6.951
10458SOL     OW32272   0.069   5.707   6.468
10458SOL    HW132273   0.042   5.775   6.400
10458SOL    HW232274   7.007   5.679   6.521
10459SOL     OW32275   0.302   5.350   0.428
10459SOL    HW132276   0.306   5.351   0.528
10459SOL    HW232277   0.303   5.255   0.396
10460SOL     OW32278   0.589   2.604   1.050
10460SOL    HW132279   0.586   2.686   0.992
10460SOL    HW232280   0.581   2.522   0.992
10461SOL     OW32281   0.142   5.036   5.315
10461SOL    HW132282   0.186   5.125   5.311
10461SOL    HW232283   0.184   4.982   5.388
10462SOL     OW32284   4.070   1.816   0.858
10462SOL    HW132285   4.071   1.856   0.950
10462SOL    HW232286   3.983   1.770   0.842
10463SOL     OW32287   4.735   2.765   6.447
10463SOL    HW132288   4.653   2.770   6.505
10463SOL    HW232289   4.715   2.710   6.366
10464SOL     OW32290   6.601   4.964   2.823
10464SOL    HW132291   6.538   5.040   2.806
10464SOL    HW232292   6.638   4.931   2.737
10465SOL     OW32293   5.224   4.349   2.111
10465SOL    HW132294   5.257   4.405   2.187
10465SOL    HW232295   5.177   4.268   2.148
10466SOL     OW32296   6.295   4.807   6.472
10466SOL    HW132297   6.224   4.767   6.415
10466SOL    HW232298   6.385   4.783   6.435
10467SOL     OW32299   1.798   2.658   6.877
10467SOL    HW132300   1.841   2.571   6.854
10467SOL    HW232301   1.828   2.728   6.812
10468SOL     OW32302   2.922   5.131   3.835
10468SOL    HW132303   2.962   5.063   3.896
10468SOL    HW232304   2.854   5.087   3.777
10469SOL     OW32305   6.287   1.454   4.745
10469SOL    HW132306   6.336   1.395   4.809
10469SOL    HW232307   6.259   1.538   4.793
10470SOL     OW32308   2.484   2.574   4.037
10470SOL    HW132309   2.399   2.604   4.081
10470SOL    HW232310   2.474   2.580   3.937
10471SOL     OW32311   3.412   6.752   0.142
10471SOL    HW132312   3.390   6.662   0.106
10471SOL    HW232313   3.328   6.805   0.153
10472SOL     OW32314   2.794   4.838   0.074
10472SOL    HW132315   2.893   4.836   0.060
10472SOL    HW232316   2.756   4.921   0.033
10473SOL     OW32317   4.995   4.824   6.927
10473SOL    HW132318   4.998   4.895   6.998
10473SOL    HW232319   5.089   4.804   6.897
10474SOL     OW32320   5.023   1.008   3.472
10474SOL    HW132321   5.085   1.081   3.443
10474SOL    HW232322   5.056   0.968   3.558
10475SOL     OW32323   0.978   6.912   1.446
10475SOL    HW132324   1.049   6.920   1.377
10475SOL    HW232325   0.891   6.889   1.402
10476SOL     OW32326   3.748   6.212   6.720
10476SOL    HW132327   3.762   6.199   6.622
10476SOL    HW232328   3.801   6.145   6.771
10477SOL     OW32329   6.182   6.098   3.198
10477SOL    HW132330   6.125   6.041   3.256
10477SOL    HW232331   6.138   6.187   3.184
10478SOL     OW32332   6.075   0.624   0.060
10478SOL    HW132333   6.043   0.551   7.017
10478SOL    HW232334   6.145   0.679   0.014
10479SOL     OW32335   0.448   2.286   2.090
10479SOL    HW132336   0.479   2.306   1.997
10479SOL    HW232337   0.348   2.292   2.094
10480SOL     OW32338   1.646   0.162   2.446
10480SOL    HW132339   1.733   0.113   2.432
10480SOL    HW232340   1.570   0.099   2.430
10481SOL     OW32341   0.188   0.841   2.597
10481SOL    HW132342   0.223   0.928   2.564
10481SOL    HW232343   0.092   0.851   2.622
10482SOL     OW32344   5.327   3.709   3.947
10482SOL    HW132345   5.370   3.793   3.978
10482SOL    HW232346   5.396   3.646   3.914
10483SOL     OW32347   6.151   5.633   0.663
10483SOL    HW132348   6.216   5.710   0.660
10483SOL    HW232349   6.058   5.668   0.664
10484SOL     OW32350   6.405   1.071   1.703
10484SOL    HW132351   6.350   1.005   1.755
10484SOL    HW232352   6.344   1.141   1.665
10485SOL     OW32353   5.497   3.255   5.628
10485SOL    HW132354   5.406   3.254   5.589
10485SOL    HW232355   5.550   3.330   5.589
10486SOL     OW32356   5.671   2.936   1.766
10486SOL    HW132357   5.685   2.916   1.864
10486SOL    HW232358   5.757   2.923   1.717
10487SOL     OW32359   6.363   6.886   1.502
10487SOL    HW132360   6.389   6.968   1.451
10487SOL    HW232361   6.265   6.889   1.521
10488SOL     OW32362   2.668   2.402   6.182
10488SOL    HW132363   2.648   2.494   6.214
10488SOL    HW232364   2.765   2.382   6.195
10489SOL     OW32365   6.942   5.655   6.168
10489SOL    HW132366   6.877   5.701   6.108
10489SOL    HW232367   0.013   5.699   6.162
10490SOL     OW32368   6.853   0.962   3.711
10490SOL    HW132369   6.789   1.037   3.694
10490SOL    HW232370   6.862   0.948   3.809
10491SOL     OW32371   2.438   4.647   6.073
10491SOL    HW132372   2.345   4.660   6.106
10491SOL    HW232373   2.482   4.736   6.060
10492SOL     OW32374   4.973   3.447   5.115
10492SOL    HW132375   4.917   3.365   5.126
10492SOL    HW232376   4.919   3.519   5.072
10493SOL     OW32377   3.763   0.911   1.725
10493SOL    HW132378   3.750   0.960   1.639
10493SOL    HW232379   3.681   0.858   1.746
10494SOL     OW32380   5.889   1.687   4.661
10494SOL    HW132381   5.934   1.664   4.747
10494SOL    HW232382   5.957   1.694   4.588
10495SOL     OW32383   1.446   6.713   0.827
10495SOL    HW132384   1.458   6.613   0.824
10495SOL    HW232385   1.403   6.744   0.743
10496SOL     OW32386   0.108   6.659   6.211
10496SOL    HW132387   0.071   6.573   6.176
10496SOL    HW232388   0.032   6.715   6.246
10497SOL     OW32389   1.316   0.562   1.252
10497SOL    HW132390   1.300   0.491   1.183
10497SOL    HW232391   1.373   0.634   1.213
10498SOL     OW32392   1.740   6.536   5.922
10498SOL    HW132393   1.798   6.454   5.920
10498SOL    HW232394   1.691   6.539   6.009
10499SOL     OW32395   3.090   5.764   3.376
10499SOL    HW132396   3.015   5.726   3.323
10499SOL    HW232397   3.113   5.855   3.341
10500SOL     OW32398   1.177   2.070   6.094
10500SOL    HW132399   1.168   2.026   6.004
10500SOL    HW232400   1.166   2.169   6.083
10501SOL     OW32401   1.887   3.768   2.692
10501SOL    HW132402   1.968   3.774   2.749
10501SOL    HW232403   1.830   3.849   2.706
10502SOL     OW32404   3.501   6.304   6.922
10502SOL    HW132405   3.541   6.225   6.967
10502SOL    HW232406   3.561   6.335   6.848
10503SOL     OW32407   3.239   2.658   0.271
10503SOL    HW132408   3.213   2.562   0.264
10503SOL    HW232409   3.163   2.716   0.242
10504SOL     OW32410   3.019   2.970   0.524
10504SOL    HW132411   3.007   2.936   0.618
10504SOL    HW232412   3.028   3.069   0.526
10505SOL     OW32413   6.306   5.872   1.480
10505SOL    HW132414   6.267   5.928   1.553
10505SOL    HW232415   6.351   5.792   1.519
10506SOL     OW32416   0.515   3.809   6.224
10506SOL    HW132417   0.526   3.718   6.184
10506SOL    HW232418   0.576   3.818   6.303
10507SOL     OW32419   1.213   0.387   6.194
10507SOL    HW132420   1.241   0.352   6.105
10507SOL    HW232421   1.228   0.486   6.198
10508SOL     OW32422   5.428   4.558   3.555
10508SOL    HW132423   5.348   4.597   3.600
10508SOL    HW232424   5.482   4.507   3.622
10509SOL     OW32425   1.148   6.338   6.390
10509SOL    HW132426   1.051   6.329   6.412
10509SOL    HW232427   1.202   6.283   6.453
10510SOL     OW32428   6.225   5.724   6.947
10510SOL    HW132429   6.243   5.707   6.850
10510SOL    HW232430   6.306   5.764   6.990
10511SOL     OW32431   4.334   2.780   0.301
10511SOL    HW132432   4.342   2.689   0.260
10511SOL    HW232433   4.240   2.794   0.332
10512SOL     OW32434   4.239   0.116   6.010
10512SOL    HW132435   4.202   0.031   5.972
10512SOL    HW232436   4.185   0.144   6.089
10513SOL     OW32437   0.650   2.507   5.977
10513SOL    HW132438   0.662   2.424   5.924
10513SOL    HW232439   0.667   2.587   5.919
10514SOL     OW32440   6.724   4.442   0.349
10514SOL    HW132441   6.741   4.375   0.421
10514SOL    HW232442   6.661   4.404   0.282
10515SOL     OW32443   6.730   2.093   3.745
10515SOL    HW132444   6.669   2.049   3.679
10515SOL    HW232445   6.676   2.135   3.818
10516SOL     OW32446   4.367   0.930   6.134
10516SOL    HW132447   4.388   1.021   6.168
10516SOL    HW232448   4.428   0.863   6.176
10517SOL     OW32449   6.325   1.618   2.533
10517SOL    HW132450   6.235   1.617   2.577
10517SOL    HW232451   6.325   1.688   2.461
10518SOL     OW32452   0.946   6.384   0.777
10518SOL    HW132453   0.866   6.444   0.772
10518SOL    HW232454   0.923   6.302   0.830
10519SOL     OW32455   3.374   3.136   6.148
10519SOL    HW132456   3.366   3.200   6.071
10519SOL    HW232457   3.346   3.045   6.117
10520SOL     OW32458   3.158   2.593   6.956
10520SOL    HW132459   3.129   2.527   0.007
10520SOL    HW232460   3.079   2.620   6.901
10521SOL     OW32461   6.595   6.163   1.307
10521SOL    HW132462   6.582   6.067   1.283
10521SOL    HW232463   6.546   6.221   1.242
10522SOL     OW32464   6.614   0.522   0.723
10522SOL    HW132465   6.548   0.546   0.794
10522SOL    HW232466   6.702   0.500   0.764
10523SOL     OW32467   6.797   5.390   5.781
10523SOL    HW132468   6.747   5.396   5.868
10523SOL    HW232469   6.788   5.476   5.731
10524SOL     OW32470   2.069   0.205   4.501
10524SOL    HW132471   2.128   0.229   4.579
10524SOL    HW232472   2.126   0.178   4.423
10525SOL     OW32473   1.853   6.767   5.064
10525SOL    HW132474   1.793   6.837   5.026
10525SOL    HW232475   1.925   6.744   4.999
10526SOL     OW32476   0.100   0.991   2.070
10526SOL    HW132477   0.134   1.023   1.981
10526SOL    HW232478   0.071   1.070   2.124
10527SOL     OW32479   0.842   2.674   4.410
10527SOL    HW132480   0.890   2.684   4.498
10527SOL    HW232481   0.901   2.624   4.346
10528SOL     OW32482   6.984   5.264   5.041
10528SOL    HW132483   0.005   5.177   5.071
10528SOL    HW232484   6.966   5.322   5.120
10529SOL     OW32485   6.896   6.872   3.440
10529SOL    HW132486   6.855   6.957   3.407
10529SOL    HW232487   6.883   6.865   3.539
10530SOL     OW32488   2.713   2.333   5.693
10530SOL    HW132489   2.695   2.367   5.600
10530SOL    HW232490   2.811   2.332   5.710
10531SOL     OW32491   1.267   3.580   4.489
10531SOL    HW132492   1.345   3.616   4.540
10531SOL    HW232493   1.224   3.655   4.438
10532SOL     OW32494   4.200   2.604   6.444
10532SOL    HW132495   4.207   2.657   6.529
10532SOL    HW232496   4.108   2.611   6.408
10533SOL     OW32497   2.747   1.312   5.397
10533SOL    HW132498   2.705   1.368   5.326
10533SOL    HW232499   2.676   1.281   5.462
10534SOL     OW32500   6.914   5.643   0.825
10534SOL    HW132501   6.913   5.740   0.802
10534SOL    HW232502   6.875   5.630   0.916
10535SOL     OW32503   0.419   1.561   2.147
10535SOL    HW132504   0.429   1.481   2.206
10535SOL    HW232505   0.503   1.614   2.147
10536SOL     OW32506   4.732   0.575   2.987
10536SOL    HW132507   4.712   0.565   3.084
10536SOL    HW232508   4.815   0.630   2.975
10537SOL     OW32509   3.097   5.307   2.462
10537SOL    HW132510   3.095   5.404   2.485
10537SOL    HW232511   3.005   5.276   2.437
10538SOL     OW32512   4.093   4.152   0.174
10538SOL    HW132513   4.181   4.135   0.130
10538SOL    HW232514   4.030   4.194   0.108
10539SOL     OW32515   0.660   3.322   6.098
10539SOL    HW132516   0.604   3.255   6.050
10539SOL    HW232517   0.734   3.275   6.146
10540SOL     OW32518   2.021   0.818   5.737
10540SOL    HW132519   1.926   0.794   5.758
10540SOL    HW232520   2.082   0.770   5.799
10541SOL     OW32521   4.033   3.211   0.233
10541SOL    HW132522   3.995   3.199   0.325
10541SOL    HW232523   4.132   3.199   0.237
10542SOL     OW32524   0.026   2.449   0.655
10542SOL    HW132525   6.972   2.517   0.655
10542SOL    HW232526   0.115   2.494   0.662
10543SOL     OW32527   0.444   1.779   5.775
10543SOL    HW132528   0.513   1.708   5.759
10543SOL    HW232529   0.484   1.853   5.829
10544SOL     OW32530   2.175   2.045   2.256
10544SOL    HW132531   2.086   2.010   2.226
10544SOL    HW232532   2.173   2.145   2.256
10545SOL     OW32533   6.912   0.245   2.357
10545SOL    HW132534   6.860   0.330   2.345
10545SOL    HW232535   6.981   0.238   2.284
10546SOL     OW32536   2.522   0.035   4.445
10546SOL    HW132537   2.534   6.964   4.489
10546SOL    HW232538   2.547   0.027   4.348
10547SOL     OW32539   4.399   1.504   1.344
10547SOL    HW132540   4.339   1.445   1.399
10547SOL    HW232541   4.460   1.556   1.404
10548SOL     OW32542   5.256   3.744   4.640
10548SOL    HW132543   5.242   3.654   4.682
10548SOL    HW232544   5.180   3.804   4.666
10549SOL     OW32545   0.801   0.202   2.172
10549SOL    HW132546   0.804   0.285   2.228
10549SOL    HW232547   0.803   0.121   2.231
10550SOL     OW32548   5.225   0.512   3.967
10550SOL    HW132549   5.324   0.507   3.960
10550SOL    HW232550   5.184   0.487   3.878
10551SOL     OW32551   1.215   2.164   5.384
10551SOL    HW132552   1.288   2.119   5.435
10551SOL    HW232553   1.254   2.238   5.329
10552SOL     OW32554   3.360   2.474   5.931
10552SOL    HW132555   3.302   2.464   5.850
10552SOL    HW232556   3.446   2.518   5.904
10553SOL     OW32557   0.722   5.776   6.840
10553SOL    HW132558   0.742   5.745   6.933
10553SOL    HW232559   0.654   5.714   6.798
10554SOL     OW32560   6.907   4.737   0.028
10554SOL    HW132561   6.930   4.753   6.950
10554SOL    HW232562   6.937   4.815   0.083
10555SOL     OW32563   3.396   1.598   2.572
10555SOL    HW132564   3.297   1.597   2.585
10555SOL    HW232565   3.417   1.566   2.480
10556SOL     OW32566   2.082   3.330   5.209
10556SOL    HW132567   2.137   3.412   5.195
10556SOL    HW232568   2.126   3.253   5.163
10557SOL     OW32569   6.894   2.564   3.242
10557SOL    HW132570   6.909   2.499   3.317
10557SOL    HW232571   6.982   2.597   3.208
10558SOL     OW32572   4.317   6.800   5.340
10558SOL    HW132573   4.361   6.792   5.429
10558SOL    HW232574   4.262   6.719   5.322
10559SOL     OW32575   4.845   1.817   1.083
10559SOL    HW132576   4.832   1.901   1.030
10559SOL    HW232577   4.902   1.836   1.163
10560SOL     OW32578   1.287   4.148   4.953
10560SOL    HW132579   1.358   4.212   4.981
10560SOL    HW232580   1.314   4.055   4.979
10561SOL     OW32581   1.685   4.972   6.629
10561SOL    HW132582   1.642   4.920   6.703
10561SOL    HW232583   1.615   5.004   6.565
10562SOL     OW32584   4.481   1.223   0.739
10562SOL    HW132585   4.469   1.286   0.662
10562SOL    HW232586   4.579   1.212   0.758
10563SOL     OW32587   2.086   1.954   5.353
10563SOL    HW132588   2.000   1.913   5.383
10563SOL    HW232589   2.094   1.946   5.254
10564SOL     OW32590   5.892   1.103   1.686
10564SOL    HW132591   5.901   1.053   1.599
10564SOL    HW232592   5.883   1.201   1.667
10565SOL     OW32593   6.636   1.037   5.438
10565SOL    HW132594   6.683   0.981   5.507
10565SOL    HW232595   6.556   0.988   5.404
10566SOL     OW32596   3.436   4.024   6.411
10566SOL    HW132597   3.396   3.980   6.330
10566SOL    HW232598   3.498   4.097   6.382
10567SOL     OW32599   2.095   3.620   3.962
10567SOL    HW132600   2.173   3.671   4.000
10567SOL    HW232601   2.047   3.573   4.036
10568SOL     OW32602   5.644   1.178   2.365
10568SOL    HW132603   5.548   1.177   2.391
10568SOL    HW232604   5.700   1.156   2.444
10569SOL     OW32605   6.278   3.037   3.014
10569SOL    HW132606   6.310   3.011   2.923
10569SOL    HW232607   6.184   3.006   3.027
10570SOL     OW32608   2.251   4.607   2.500
10570SOL    HW132609   2.283   4.610   2.406
10570SOL    HW232610   2.285   4.687   2.550
10571SOL     OW32611   6.502   6.035   2.708
10571SOL    HW132612   6.548   5.957   2.751
10571SOL    HW232613   6.502   6.023   2.609
10572SOL     OW32614   5.924   3.920   2.780
10572SOL    HW132615   5.972   3.879   2.702
10572SOL    HW232616   5.887   4.009   2.754
10573SOL     OW32617   6.184   5.561   3.953
10573SOL    HW132618   6.256   5.626   3.926
10573SOL    HW232619   6.226   5.481   3.995
10574SOL     OW32620   1.114   2.224   3.292
10574SOL    HW132621   1.161   2.146   3.249
10574SOL    HW232622   1.095   2.203   3.388
10575SOL     OW32623   0.822   1.079   4.872
10575SOL    HW132624   0.846   1.002   4.814
10575SOL    HW232625   0.878   1.158   4.849
10576SOL     OW32626   1.580   5.623   4.964
10576SOL    HW132627   1.602   5.528   4.946
10576SOL    HW232628   1.660   5.680   4.948
10577SOL     OW32629   1.813   2.871   6.068
10577SOL    HW132630   1.738   2.846   6.130
10577SOL    HW232631   1.873   2.936   6.113
10578SOL     OW32632   5.764   6.940   5.127
10578SOL    HW132633   5.813   6.932   5.040
10578SOL    HW232634   5.728   6.851   5.153
10579SOL     OW32635   4.376   1.866   0.739
10579SOL    HW132636   4.425   1.895   0.821
10579SOL    HW232637   4.282   1.899   0.742
10580SOL     OW32638   6.750   5.865   6.444
10580SOL    HW132639   6.779   5.915   6.525
10580SOL    HW232640   6.801   5.897   6.364
10581SOL     OW32641   5.534   0.688   3.864
10581SOL    HW132642   5.469   0.743   3.916
10581SOL    HW232643   5.528   0.713   3.767
10582SOL     OW32644   3.462   5.341   6.725
10582SOL    HW132645   3.553   5.307   6.746
10582SOL    HW232646   3.452   5.353   6.626
10583SOL     OW32647   3.702   0.870   0.296
10583SOL    HW132648   3.715   0.945   0.361
10583SOL    HW232649   3.732   0.784   0.338
10584SOL     OW32650   5.377   6.340   1.758
10584SOL    HW132651   5.467   6.368   1.727
10584SOL    HW232652   5.385   6.282   1.839
10585SOL     OW32653   1.002   2.772   6.056
10585SOL    HW132654   0.906   2.754   6.075
10585SOL    HW232655   1.026   2.864   6.088
10586SOL     OW32656   2.719   5.940   5.994
10586SOL    HW132657   2.742   5.933   6.091
10586SOL    HW232658   2.745   5.855   5.948
10587SOL     OW32659   5.999   3.768   0.548
10587SOL    HW132660   5.938   3.828   0.496
10587SOL    HW232661   5.951   3.733   0.628
10588SOL     OW32662   1.025   4.923   2.495
10588SOL    HW132663   0.963   4.879   2.431
10588SOL    HW232664   1.116   4.930   2.455
10589SOL     OW32665   5.561   2.756   4.410
10589SOL    HW132666   5.572   2.672   4.464
10589SOL    HW232667   5.645   2.809   4.413
10590SOL     OW32668   1.312   0.161   3.536
10590SOL    HW132669   1.238   0.172   3.602
10590SOL    HW232670   1.311   0.068   3.500
10591SOL     OW32671   1.322   1.668   6.065
10591SOL    HW132672   1.228   1.636   6.048
10591SOL    HW232673   1.363   1.613   6.137
10592SOL     OW32674   6.945   1.426   0.343
10592SOL    HW132675   6.849   1.446   0.327
10592SOL    HW232676   6.957   1.328   0.359
10593SOL     OW32677   1.886   5.394   1.704
10593SOL    HW132678   1.985   5.383   1.710
10593SOL    HW232679   1.841   5.320   1.753
10594SOL     OW32680   6.240   1.486   4.277
10594SOL    HW132681   6.213   1.444   4.364
10594SOL    HW232682   6.219   1.583   4.278
10595SOL     OW32683   3.925   6.754   6.410
10595SOL    HW132684   3.962   6.847   6.413
10595SOL    HW232685   3.993   6.690   6.446
10596SOL     OW32686   4.300   6.948   2.225
10596SOL    HW132687   4.319   6.853   2.199
10596SOL    HW232688   4.239   6.989   2.157
10597SOL     OW32689   2.277   0.940   4.931
10597SOL    HW132690   2.237   0.914   4.843
10597SOL    HW232691   2.372   0.910   4.934
10598SOL     OW32692   1.934   2.421   6.846
10598SOL    HW132693   1.869   2.382   6.782
10598SOL    HW232694   2.018   2.367   6.846
10599SOL     OW32695   5.960   0.880   0.106
10599SOL    HW132696   6.038   0.821   0.127
10599SOL    HW232697   5.886   0.825   0.066
10600SOL     OW32698   2.795   2.595   5.754
10600SOL    HW132699   2.762   2.643   5.674
10600SOL    HW232700   2.719   2.578   5.817
10601SOL     OW32701   2.589   6.627   6.399
10601SOL    HW132702   2.607   6.589   6.308
10601SOL    HW232703   2.518   6.573   6.444
10602SOL     OW32704   5.053   1.510   1.506
10602SOL    HW132705   4.957   1.530   1.527
10602SOL    HW232706   5.066   1.511   1.407
10603SOL     OW32707   1.913   5.155   3.959
10603SOL    HW132708   1.910   5.089   3.884
10603SOL    HW232709   1.847   5.228   3.942
10604SOL     OW32710   6.565   4.546   4.439
10604SOL    HW132711   6.507   4.539   4.358
10604SOL    HW232712   6.643   4.605   4.420
10605SOL     OW32713   1.117   5.263   0.262
10605SOL    HW132714   1.149   5.334   0.200
10605SOL    HW232715   1.196   5.220   0.306
10606SOL     OW32716   0.257   0.529   1.642
10606SOL    HW132717   0.230   0.482   1.558
10606SOL    HW232718   0.330   0.477   1.687
10607SOL     OW32719   4.559   4.246   6.404
10607SOL    HW132720   4.615   4.214   6.328
10607SOL    HW232721   4.549   4.345   6.399
10608SOL     OW32722   5.633   1.372   4.382
10608SOL    HW132723   5.603   1.390   4.476
10608SOL    HW232724   5.571   1.419   4.318
10609SOL     OW32725   4.334   6.224   0.609
10609SOL    HW132726   4.422   6.194   0.645
10609SOL    HW232727   4.311   6.314   0.647
10610SOL     OW32728   1.455   3.194   5.916
10610SOL    HW132729   1.415   3.174   5.827
10610SOL    HW232730   1.551   3.166   5.917
10611SOL     OW32731   5.344   2.323   6.289
10611SOL    HW132732   5.384   2.277   6.368
10611SOL    HW232733   5.413   2.331   6.217
10612SOL     OW32734   2.473   6.946   6.547
10612SOL    HW132735   2.550   7.002   6.516
10612SOL    HW232736   2.421   6.915   6.467
10613SOL     OW32737   0.598   6.716   5.695
10613SOL    HW132738   0.576   6.730   5.791
10613SOL    HW232739   0.608   6.804   5.649
10614SOL     OW32740   6.441   1.140   4.439
10614SOL    HW132741   6.517   1.111   4.381
10614SOL    HW232742   6.370   1.181   4.381
10615SOL     OW32743   4.978   5.385   4.875
10615SOL    HW132744   5.011   5.328   4.800
10615SOL    HW232745   5.023   5.359   4.960
10616SOL     OW32746   3.317   6.553   0.543
10616SOL    HW132747   3.239   6.616   0.536
10616SOL    HW232748   3.316   6.508   0.632
10617SOL     OW32749   2.003   2.563   0.759
10617SOL    HW132750   1.915   2.595   0.725
10617SOL    HW232751   2.067   2.639   0.764
10618SOL     OW32752   6.042   2.775   0.222
10618SOL    HW132753   6.097   2.766   0.305
10618SOL    HW232754   6.080   2.716   0.150
10619SOL     OW32755   0.793   3.987   3.490
10619SOL    HW132756   0.729   3.929   3.540
10619SOL    HW232757   0.887   3.962   3.513
10620SOL     OW32758   1.671   6.131   4.683
10620SOL    HW132759   1.765   6.143   4.650
10620SOL    HW232760   1.651   6.201   4.752
10621SOL     OW32761   1.853   5.939   6.693
10621SOL    HW132762   1.876   6.003   6.620
10621SOL    HW232763   1.922   5.943   6.765
10622SOL     OW32764   3.847   0.059   1.572
10622SOL    HW132765   3.929   0.110   1.598
10622SOL    HW232766   3.783   0.121   1.527
10623SOL     OW32767   6.094   2.457   3.853
10623SOL    HW132768   6.139   2.516   3.787
10623SOL    HW232769   6.113   2.490   3.946
10624SOL     OW32770   1.383   1.080   4.686
10624SOL    HW132771   1.396   1.171   4.725
10624SOL    HW232772   1.391   1.011   4.758
10625SOL     OW32773   0.671   2.779   6.977
10625SOL    HW132774   0.613   2.827   0.024
10625SOL    HW232775   0.763   2.771   7.014
10626SOL     OW32776   0.674   1.815   1.901
10626SOL    HW132777   0.729   1.761   1.964
10626SOL    HW232778   0.610   1.872   1.953
10627SOL     OW32779   6.388   6.600   2.643
10627SOL    HW132780   6.309   6.639   2.594
10627SOL    HW232781   6.429   6.670   2.701
10628SOL     OW32782   6.462   5.571   5.643
10628SOL    HW132783   6.501   5.481   5.622
10628SOL    HW232784   6.536   5.637   5.655
10629SOL     OW32785   2.779   5.328   5.474
10629SOL    HW132786   2.702   5.277   5.436
10629SOL    HW232787   2.745   5.414   5.513
10630SOL     OW32788   5.942   1.482   3.402
10630SOL    HW132789   5.892   1.534   3.471
10630SOL    HW232790   5.904   1.502   3.311
10631SOL     OW32791   0.412   6.492   3.726
10631SOL    HW132792   0.330   6.475   3.672
10631SOL    HW232793   0.492   6.454   3.680
10632SOL     OW32794   6.427   2.351   4.863
10632SOL    HW132795   6.369   2.421   4.820
10632SOL    HW232796   6.371   2.271   4.885
10633SOL     OW32797   2.665   5.547   1.298
10633SOL    HW132798   2.687   5.461   1.342
10633SOL    HW232799   2.730   5.617   1.327
10634SOL     OW32800   3.500   6.191   0.795
10634SOL    HW132801   3.415   6.204   0.846
10634SOL    HW232802   3.551   6.113   0.834
10635SOL     OW32803   2.334   0.511   1.360
10635SOL    HW132804   2.395   0.500   1.438
10635SOL    HW232805   2.239   0.510   1.391
10636SOL     OW32806   0.704   1.972   1.048
10636SOL    HW132807   0.633   1.907   1.075
10636SOL    HW232808   0.793   1.939   1.080
10637SOL     OW32809   3.355   4.153   4.850
10637SOL    HW132810   3.371   4.245   4.815
10637SOL    HW232811   3.256   4.134   4.850
10638SOL     OW32812   6.506   6.355   4.703
10638SOL    HW132813   6.520   6.318   4.796
10638SOL    HW232814   6.441   6.430   4.707
10639SOL     OW32815   1.589   0.973   5.121
10639SOL    HW132816   1.612   0.950   5.026
10639SOL    HW232817   1.600   0.891   5.178
10640SOL     OW32818   5.164   1.315   6.812
10640SOL    HW132819   5.069   1.317   6.781
10640SOL    HW232820   5.167   1.325   6.911
10641SOL     OW32821   5.492   1.391   7.012
10641SOL    HW132822   5.448   1.364   0.080
10641SOL    HW232823   5.469   1.486   6.992
10642SOL     OW32824   0.291   2.116   1.797
10642SOL    HW132825   0.284   2.159   1.707
10642SOL    HW232826   0.281   2.017   1.787
10643SOL     OW32827   2.696   3.600   5.287
10643SOL    HW132828   2.766   3.590   5.358
10643SOL    HW232829   2.661   3.694   5.287
10644SOL     OW32830   4.722   1.552   4.335
10644SOL    HW132831   4.654   1.478   4.338
10644SOL    HW232832   4.720   1.602   4.422
10645SOL     OW32833   2.293   0.173   4.713
10645SOL    HW132834   2.277   0.075   4.701
10645SOL    HW232835   2.390   0.193   4.703
10646SOL     OW32836   1.299   2.824   5.908
10646SOL    HW132837   1.325   2.802   5.813
10646SOL    HW232838   1.200   2.835   5.914
10647SOL     OW32839   6.636   4.875   0.582
10647SOL    HW132840   6.711   4.912   0.526
10647SOL    HW232841   6.662   4.784   0.616
10648SOL     OW32842   4.955   3.017   6.871
10648SOL    HW132843   4.940   3.023   6.772
10648SOL    HW232844   4.893   3.081   6.917
10649SOL     OW32845   6.502   4.812   5.370
10649SOL    HW132846   6.547   4.900   5.358
10649SOL    HW232847   6.569   4.743   5.397
10650SOL     OW32848   2.510   6.635   3.998
10650SOL    HW132849   2.550   6.561   4.052
10650SOL    HW232850   2.573   6.659   3.924
10651SOL     OW32851   5.073   6.858   5.546
10651SOL    HW132852   4.989   6.824   5.588
10651SOL    HW232853   5.152   6.816   5.592
10652SOL     OW32854   3.619   0.341   6.314
10652SOL    HW132855   3.580   0.300   6.396
10652SOL    HW232856   3.579   0.298   6.233
10653SOL     OW32857   5.268   4.255   4.362
10653SOL    HW132858   5.260   4.161   4.395
10653SOL    HW232859   5.253   4.257   4.264
10654SOL     OW32860   3.822   1.103   0.793
10654SOL    HW132861   3.808   1.140   0.885
10654SOL    HW232862   3.916   1.070   0.784
10655SOL     OW32863   2.937   6.220   0.937
10655SOL    HW132864   2.973   6.181   1.022
10655SOL    HW232865   3.010   6.227   0.870
10656SOL     OW32866   6.503   2.460   0.236
10656SOL    HW132867   6.410   2.483   0.266
10656SOL    HW232868   6.559   2.440   0.317
10657SOL     OW32869   5.697   0.726   1.068
10657SOL    HW132870   5.665   0.675   0.988
10657SOL    HW232871   5.640   0.703   1.147
10658SOL     OW32872   0.287   5.006   4.206
10658SOL    HW132873   0.304   5.103   4.224
10658SOL    HW232874   0.295   4.955   4.291
10659SOL     OW32875   6.024   0.169   0.453
10659SOL    HW132876   5.981   0.243   0.504
10659SOL    HW232877   6.022   0.189   0.355
10660SOL     OW32878   4.751   4.893   5.454
10660SOL    HW132879   4.745   4.846   5.542
10660SOL    HW232880   4.743   4.992   5.469
10661SOL     OW32881   0.504   6.586   2.789
10661SOL    HW132882   0.487   6.669   2.841
10661SOL    HW232883   0.433   6.576   2.718
10662SOL     OW32884   6.693   1.080   0.421
10662SOL    HW132885   6.658   1.155   0.478
10662SOL    HW232886   6.639   1.074   0.337
10663SOL     OW32887   6.954   0.074   0.169
10663SOL    HW132888   0.019   0.123   0.193
10663SOL    HW232889   6.885   0.090   0.239
10664SOL     OW32890   2.253   5.256   0.029
10664SOL    HW132891   2.237   5.204   0.113
10664SOL    HW232892   2.315   5.332   0.048
10665SOL     OW32893   6.277   1.783   1.120
10665SOL    HW132894   6.373   1.792   1.094
10665SOL    HW232895   6.265   1.699   1.174
10666SOL     OW32896   2.249   6.077   0.100
10666SOL    HW132897   2.333   6.056   0.049
10666SOL    HW232898   2.221   6.170   0.079
10667SOL     OW32899   3.470   1.729   6.140
10667SOL    HW132900   3.556   1.737   6.089
10667SOL    HW232901   3.399   1.784   6.096
10668SOL     OW32902   1.443   1.667   6.554
10668SOL    HW132903   1.540   1.682   6.569
10668SOL    HW232904   1.422   1.678   6.456
10669SOL     OW32905   1.811   0.006   0.088
10669SOL    HW132906   1.815   0.075   0.160
10669SOL    HW232907   1.739   6.958   0.108
10670SOL     OW32908   5.741   4.382   5.964
10670SOL    HW132909   5.817   4.328   6.000
10670SOL    HW232910   5.769   4.427   5.879
10671SOL     OW32911   2.198   1.708   3.028
10671SOL    HW132912   2.132   1.761   3.081
10671SOL    HW232913   2.186   1.611   3.049
10672SOL     OW32914   6.982   3.176   1.250
10672SOL    HW132915   6.984   3.122   1.334
10672SOL    HW232916   6.888   3.204   1.230
10673SOL     OW32917   2.789   3.052   5.320
10673SOL    HW132918   2.701   3.039   5.273
10673SOL    HW232919   2.773   3.071   5.417
10674SOL     OW32920   4.070   3.306   1.549
10674SOL    HW132921   3.976   3.277   1.568
10674SOL    HW232922   4.072   3.362   1.466
10675SOL     OW32923   0.316   0.259   5.588
10675SOL    HW132924   0.357   0.234   5.501
10675SOL    HW232925   0.354   0.201   5.661
10676SOL     OW32926   6.311   6.754   6.455
10676SOL    HW132927   6.397   6.744   6.505
10676SOL    HW232928   6.328   6.795   6.366
10677SOL     OW32929   0.728   0.327   0.727
10677SOL    HW132930   0.765   0.308   0.637
10677SOL    HW232931   0.709   0.425   0.735
10678SOL     OW32932   2.193   5.938   2.272
10678SOL    HW132933   2.188   5.841   2.248
10678SOL    HW232934   2.285   5.960   2.304
10679SOL     OW32935   5.110   5.373   4.221
10679SOL    HW132936   5.131   5.293   4.277
10679SOL    HW232937   5.012   5.393   4.227
10680SOL     OW32938   1.598   3.271   2.715
10680SOL    HW132939   1.568   3.233   2.803
10680SOL    HW232940   1.534   3.243   2.644
10681SOL     OW32941   6.649   2.129   5.892
10681SOL    HW132942   6.565   2.179   5.913
10681SOL    HW232943   6.667   2.063   5.964
10682SOL     OW32944   0.091   1.533   3.043
10682SOL    HW132945   0.008   1.490   3.078
10682SOL    HW232946   0.093   1.525   2.943
10683SOL     OW32947   1.685   1.463   5.064
10683SOL    HW132948   1.658   1.481   4.970
10683SOL    HW232949   1.629   1.518   5.126
10684SOL     OW32950   6.499   4.664   0.263
10684SOL    HW132951   6.593   4.686   0.238
10684SOL    HW232952   6.494   4.570   0.297
10685SOL     OW32953   0.140   2.973   2.812
10685SOL    HW132954   0.137   2.987   2.911
10685SOL    HW232955   0.222   3.016   2.774
10686SOL     OW32956   3.195   5.198   6.881
10686SOL    HW132957   3.216   5.273   6.818
10686SOL    HW232958   3.246   5.211   6.966
10687SOL     OW32959   0.328   4.812   3.160
10687SOL    HW132960   0.229   4.819   3.158
10687SOL    HW232961   0.369   4.901   3.143
10688SOL     OW32962   6.736   5.118   1.837
10688SOL    HW132963   6.698   5.112   1.929
10688SOL    HW232964   6.693   5.050   1.778
10689SOL     OW32965   0.501   0.883   2.566
10689SOL    HW132966   0.457   0.968   2.539
10689SOL    HW232967   0.529   0.833   2.484
10690SOL     OW32968   4.294   4.861   1.703
10690SOL    HW132969   4.263   4.802   1.777
10690SOL    HW232970   4.250   4.833   1.618
10691SOL     OW32971   7.007   1.219   1.662
10691SOL    HW132972   6.999   1.314   1.632
10691SOL    HW232973   6.948   1.204   1.741
10692SOL     OW32974   3.798   6.213   3.430
10692SOL    HW132975   3.855   6.139   3.396
10692SOL    HW232976   3.703   6.182   3.434
10693SOL     OW32977   6.530   1.866   1.989
10693SOL    HW132978   6.524   1.874   1.889
10693SOL    HW232979   6.612   1.815   2.014
10694SOL     OW32980   3.940   6.383   6.906
10694SOL    HW132981   4.008   6.410   6.838
10694SOL    HW232982   3.913   6.463   6.960
10695SOL     OW32983   0.451   2.882   4.108
10695SOL    HW132984   0.464   2.903   4.205
10695SOL    HW232985   0.451   2.783   4.095
10696SOL     OW32986   0.036   5.931   1.820
10696SOL    HW132987   0.089   5.847   1.816
10696SOL    HW232988   0.086   6.000   1.872
10697SOL     OW32989   2.118   5.651   3.364
10697SOL    HW132990   2.085   5.683   3.275
10697SOL    HW232991   2.108   5.725   3.431
10698SOL     OW32992   2.891   6.647   3.625
10698SOL    HW132993   2.933   6.696   3.702
10698SOL    HW232994   2.943   6.664   3.542
10699SOL     OW32995   2.737   2.364   2.978
10699SOL    HW132996   2.802   2.290   2.996
10699SOL    HW232997   2.721   2.372   2.880
10700SOL     OW32998   6.897   6.774   0.991
10700SOL    HW132999   6.931   6.852   1.043
10700SOL    HW233000   6.798   6.784   0.977
10701SOL     OW33001   2.666   6.291   1.272
10701SOL    HW133002   2.749   6.335   1.236
10701SOL    HW233003   2.592   6.358   1.275
10702SOL     OW33004   6.483   2.910   1.273
10702SOL    HW133005   6.401   2.863   1.242
10702SOL    HW233006   6.564   2.862   1.238
10703SOL     OW33007   3.571   4.045   3.966
10703SOL    HW133008   3.585   3.950   3.994
10703SOL    HW233009   3.557   4.102   4.047
10704SOL     OW33010   4.784   6.930   1.987
10704SOL    HW133011   4.695   6.920   2.032
10704SOL    HW233012   4.783   7.013   1.931
10705SOL     OW33013   0.378   2.876   6.038
10705SOL    HW133014   0.472   2.897   6.065
10705SOL    HW233015   0.330   2.960   6.013
10706SOL     OW33016   3.676   1.132   2.264
10706SOL    HW133017   3.594   1.181   2.293
10706SOL    HW233018   3.705   1.165   2.175
10707SOL     OW33019   5.868   7.004   6.066
10707SOL    HW133020   5.926   6.931   6.030
10707SOL    HW233021   5.925   0.062   6.095
10708SOL     OW33022   4.905   1.423   0.813
10708SOL    HW133023   4.843   1.346   0.816
10708SOL    HW233024   4.969   1.418   0.891
10709SOL     OW33025   6.592   6.132   5.807
10709SOL    HW133026   6.643   6.165   5.887
10709SOL    HW233027   6.633   6.169   5.724
10710SOL     OW33028   5.865   5.511   3.190
10710SOL    HW133029   5.869   5.505   3.290
10710SOL    HW233030   5.775   5.479   3.159
10711SOL     OW33031   1.443   6.685   3.826
10711SOL    HW133032   1.414   6.698   3.731
10711SOL    HW233033   1.452   6.775   3.870
10712SOL     OW33034   3.811   1.677   4.987
10712SOL    HW133035   3.775   1.688   5.080
10712SOL    HW233036   3.746   1.717   4.921
10713SOL     OW33037   0.956   5.849   1.557
10713SOL    HW133038   0.895   5.771   1.549
10713SOL    HW233039   1.029   5.842   1.489
10714SOL     OW33040   6.893   5.048   5.971
10714SOL    HW133041   6.932   4.982   6.035
10714SOL    HW233042   6.900   5.012   5.878
10715SOL     OW33043   5.644   1.150   4.212
10715SOL    HW133044   5.643   1.188   4.120
10715SOL    HW233045   5.659   1.224   4.278
10716SOL     OW33046   6.125   0.339   3.548
10716SOL    HW133047   6.175   0.252   3.553
10716SOL    HW233048   6.182   0.408   3.505
10717SOL     OW33049   0.122   0.221   1.128
10717SOL    HW133050   0.024   0.235   1.117
10717SOL    HW233051   0.169   0.309   1.120
10718SOL     OW33052   0.170   4.859   0.332
10718SOL    HW133053   0.191   4.810   0.417
10718SOL    HW233054   0.165   4.793   0.256
10719SOL     OW33055   5.589   0.791   1.814
10719SOL    HW133056   5.625   0.701   1.835
10719SOL    HW233057   5.489   0.790   1.823
10720SOL     OW33058   0.409   3.461   6.711
10720SOL    HW133059   0.484   3.418   6.660
10720SOL    HW233060   0.446   3.500   6.796
10721SOL     OW33061   4.923   2.387   4.224
10721SOL    HW133062   4.880   2.361   4.310
10721SOL    HW233063   5.007   2.335   4.211
10722SOL     OW33064   0.418   3.885   0.177
10722SOL    HW133065   0.432   3.930   0.089
10722SOL    HW233066   0.369   3.799   0.162
10723SOL     OW33067   6.402   4.219   6.774
10723SOL    HW133068   6.485   4.164   6.788
10723SOL    HW233069   6.322   4.159   6.778
10724SOL     OW33070   3.740   6.390   5.770
10724SOL    HW133071   3.757   6.359   5.864
10724SOL    HW233072   3.649   6.431   5.765
10725SOL     OW33073   6.712   6.046   4.906
10725SOL    HW133074   6.661   6.114   4.957
10725SOL    HW233075   6.792   6.089   4.864
10726SOL     OW33076   5.158   0.611   4.223
10726SOL    HW133077   5.148   0.577   4.129
10726SOL    HW233078   5.255   0.626   4.243
10727SOL     OW33079   2.113   6.011   6.099
10727SOL    HW133080   2.132   5.931   6.042
10727SOL    HW233081   2.182   6.082   6.082
10728SOL     OW33082   4.977   5.625   3.108
10728SOL    HW133083   4.961   5.615   3.010
10728SOL    HW233084   5.072   5.601   3.129
10729SOL     OW33085   5.868   3.262   3.400
10729SOL    HW133086   5.872   3.163   3.385
10729SOL    HW233087   5.907   3.309   3.320
10730SOL     OW33088   2.130   6.060   2.959
10730SOL    HW133089   2.228   6.040   2.964
10730SOL    HW233090   2.105   6.124   3.031
10731SOL     OW33091   4.905   6.848   6.187
10731SOL    HW133092   4.858   6.762   6.209
10731SOL    HW233093   4.857   6.924   6.229
10732SOL     OW33094   6.263   6.258   2.844
10732SOL    HW133095   6.236   6.330   2.907
10732SOL    HW233096   6.361   6.264   2.825
10733SOL     OW33097   0.598   0.871   6.348
10733SOL    HW133098   0.631   0.943   6.409
10733SOL    HW233099   0.567   0.912   6.262
10734SOL     OW33100   1.131   1.385   5.063
10734SOL    HW133101   1.156   1.322   5.136
10734SOL    HW233102   1.140   1.479   5.095
10735SOL     OW33103   1.097   5.532   2.385
10735SOL    HW133104   1.173   5.468   2.381
10735SOL    HW233105   1.115   5.602   2.454
10736SOL     OW33106   5.768   6.656   3.448
10736SOL    HW133107   5.811   6.697   3.367
10736SOL    HW233108   5.804   6.700   3.530
10737SOL     OW33109   6.283   1.403   2.188
10737SOL    HW133110   6.382   1.395   2.180
10737SOL    HW233111   6.252   1.357   2.271
10738SOL     OW33112   3.610   1.197   1.949
10738SOL    HW133113   3.535   1.191   2.015
10738SOL    HW233114   3.672   1.271   1.976
10739SOL     OW33115   5.362   2.551   3.234
10739SOL    HW133116   5.371   2.540   3.333
10739SOL    HW233117   5.276   2.598   3.213
10740SOL     OW33118   1.898   6.835   6.302
10740SOL    HW133119   1.966   6.842   6.228
10740SOL    HW233120   1.880   6.926   6.338
10741SOL     OW33121   2.471   2.630   3.722
10741SOL    HW133122   2.497   2.698   3.654
10741SOL    HW233123   2.521   2.545   3.705
10742SOL     OW33124   6.334   6.340   2.570
10742SOL    HW133125   6.337   6.427   2.618
10742SOL    HW233126   6.379   6.270   2.626
10743SOL     OW33127   3.324   1.075   5.711
10743SOL    HW133128   3.237   1.123   5.700
10743SOL    HW233129   3.327   0.998   5.647
10744SOL     OW33130   1.813   0.649   0.762
10744SOL    HW133131   1.772   0.723   0.707
10744SOL    HW233132   1.899   0.621   0.719
10745SOL     OW33133   1.347   4.951   1.587
10745SOL    HW133134   1.296   5.031   1.621
10745SOL    HW233135   1.285   4.873   1.580
10746SOL     OW33136   2.056   5.910   6.400
10746SOL    HW133137   2.118   5.906   6.479
10746SOL    HW233138   2.108   5.927   6.317
10747SOL     OW33139   5.795   1.210   5.021
10747SOL    HW133140   5.744   1.249   5.098
10747SOL    HW233141   5.810   1.112   5.037
10748SOL     OW33142   4.030   5.995   0.872
10748SOL    HW133143   4.075   6.084   0.867
10748SOL    HW233144   4.077   5.938   0.940
10749SOL     OW33145   5.278   5.363   2.154
10749SOL    HW133146   5.212   5.322   2.091
10749SOL    HW233147   5.338   5.291   2.191
10750SOL     OW33148   5.058   2.098   4.312
10750SOL    HW133149   5.009   2.049   4.384
10750SOL    HW233150   5.120   2.164   4.353
10751SOL     OW33151   0.291   4.908   5.497
10751SOL    HW133152   0.353   4.837   5.463
10751SOL    HW233153   0.244   4.874   5.579
10752SOL     OW33154   6.041   6.397   0.479
10752SOL    HW133155   6.020   6.416   0.575
10752SOL    HW233156   6.012   6.304   0.456
10753SOL     OW33157   4.556   6.613   3.843
10753SOL    HW133158   4.627   6.543   3.828
10753SOL    HW233159   4.468   6.568   3.856
10754SOL     OW33160   0.897   4.260   1.694
10754SOL    HW133161   0.870   4.164   1.700
10754SOL    HW233162   0.982   4.267   1.642
10755SOL     OW33163   6.114   3.043   1.597
10755SOL    HW133164   6.066   3.103   1.534
10755SOL    HW233165   6.196   3.006   1.552
10756SOL     OW33166   0.736   1.699   0.625
10756SOL    HW133167   0.807   1.743   0.679
10756SOL    HW233168   0.722   1.749   0.540
10757SOL     OW33169   0.448   3.947   1.601
10757SOL    HW133170   0.522   3.998   1.645
10757SOL    HW233171   0.466   3.940   1.503
10758SOL     OW33172   0.785   0.331   6.794
10758SOL    HW133173   0.866   0.391   6.797
10758SOL    HW233174   0.706   0.384   6.766
10759SOL     OW33175   2.754   2.114   6.167
10759SOL    HW133176   2.762   2.057   6.249
10759SOL    HW233177   2.659   2.140   6.153
10760SOL     OW33178   1.065   5.495   0.424
10760SOL    HW133179   0.972   5.516   0.393
10760SOL    HW233180   1.087   5.401   0.399
10761SOL     OW33181   0.630   1.049   5.968
10761SOL    HW133182   0.564   1.007   6.029
10761SOL    HW233183   0.701   1.095   6.021
10762SOL     OW33184   3.042   6.444   6.402
10762SOL    HW133185   2.975   6.417   6.333
10762SOL    HW233186   3.123   6.480   6.357
10763SOL     OW33187   5.250   0.103   3.482
10763SOL    HW133188   5.193   0.087   3.402
10763SOL    HW233189   5.194   0.144   3.555
10764SOL     OW33190   4.214   0.685   4.468
10764SOL    HW133191   4.240   0.623   4.394
10764SOL    HW233192   4.177   0.633   4.545
10765SOL     OW33193   6.571   2.014   2.550
10765SOL    HW133194   6.630   2.051   2.477
10765SOL    HW233195   6.573   2.076   2.629
10766SOL     OW33196   1.489   5.346   6.490
10766SOL    HW133197   1.587   5.334   6.503
10766SOL    HW233198   1.472   5.422   6.428
10767SOL     OW33199   1.778   5.537   0.813
10767SOL    HW133200   1.833   5.568   0.735
10767SOL    HW233201   1.838   5.506   0.886
10768SOL     OW33202   5.437   5.942   0.939
10768SOL    HW133203   5.410   6.021   0.884
10768SOL    HW233204   5.361   5.877   0.944
10769SOL     OW33205   3.427   3.135   4.450
10769SOL    HW133206   3.429   3.195   4.530
10769SOL    HW233207   3.501   3.160   4.388
10770SOL     OW33208   5.276   0.141   3.882
10770SOL    HW133209   5.299   0.227   3.927
10770SOL    HW233210   5.359   0.096   3.851
10771SOL     OW33211   4.712   5.866   5.542
10771SOL    HW133212   4.687   5.902   5.632
10771SOL    HW233213   4.676   5.926   5.471
10772SOL     OW33214   5.802   4.943   2.670
10772SOL    HW133215   5.765   4.936   2.762
10772SOL    HW233216   5.838   4.854   2.643
10773SOL     OW33217   0.064   3.750   1.898
10773SOL    HW133218   0.123   3.784   1.825
10773SOL    HW233219   6.987   3.751   1.866
10774SOL     OW33220   1.009   2.932   0.675
10774SOL    HW133221   0.972   2.854   0.724
10774SOL    HW233222   1.027   3.007   0.740
10775SOL     OW33223   1.582   4.314   0.294
10775SOL    HW133224   1.541   4.268   0.372
10775SOL    HW233225   1.617   4.403   0.323
10776SOL     OW33226   1.129   2.345   3.628
10776SOL    HW133227   1.103   2.441   3.614
10776SOL    HW233228   1.054   2.296   3.672
10777SOL     OW33229   3.481   1.490   2.331
10777SOL    HW133230   3.459   1.530   2.241
10777SOL    HW233231   3.562   1.432   2.323
10778SOL     OW33232   6.142   6.680   3.242
10778SOL    HW133233   6.212   6.736   3.287
10778SOL    HW233234   6.172   6.657   3.150
10779SOL     OW33235   5.081   3.892   4.777
10779SOL    HW133236   5.004   3.947   4.807
10779SOL    HW233237   5.150   3.888   4.850
10780SOL     OW33238   1.965   6.061   5.012
10780SOL    HW133239   1.876   6.016   5.016
10780SOL    HW233240   2.029   6.003   4.962
10781SOL     OW33241   5.958   2.113   5.449
10781SOL    HW133242   5.929   2.057   5.372
10781SOL    HW233243   5.966   2.208   5.420
10782SOL     OW33244   1.653   2.782   4.845
10782SOL    HW133245   1.661   2.844   4.767
10782SOL    HW233246   1.601   2.701   4.819
10783SOL     OW33247   1.325   2.539   2.830
10783SOL    HW133248   1.278   2.622   2.799
10783SOL    HW233249   1.259   2.476   2.871
10784SOL     OW33250   3.309   5.789   2.523
10784SOL    HW133251   3.364   5.857   2.570
10784SOL    HW233252   3.282   5.717   2.587
10785SOL     OW33253   2.102   5.472   2.405
10785SOL    HW133254   2.009   5.490   2.438
10785SOL    HW233255   2.128   5.541   2.338
10786SOL     OW33256   3.862   1.278   2.056
10786SOL    HW133257   3.922   1.242   2.128
10786SOL    HW233258   3.901   1.255   1.967
10787SOL     OW33259   3.880   0.605   3.341
10787SOL    HW133260   3.837   0.677   3.397
10787SOL    HW233261   3.837   0.604   3.251
10788SOL     OW33262   1.026   4.574   0.602
10788SOL    HW133263   1.036   4.671   0.580
10788SOL    HW233264   1.069   4.518   0.531
10789SOL     OW33265   6.521   1.204   1.294
10789SOL    HW133266   6.558   1.268   1.361
10789SOL    HW233267   6.424   1.221   1.282
10790SOL     OW33268   0.659   1.678   4.997
10790SOL    HW133269   0.740   1.692   5.053
10790SOL    HW233270   0.685   1.672   4.900
10791SOL     OW33271   1.453   2.049   3.563
10791SOL    HW133272   1.390   1.976   3.539
10791SOL    HW233273   1.545   2.012   3.576
10792SOL     OW33274   4.161   1.794   1.645
10792SOL    HW133275   4.255   1.786   1.614
10792SOL    HW233276   4.127   1.705   1.674
10793SOL     OW33277   4.220   1.878   4.939
10793SOL    HW133278   4.156   1.848   5.010
10793SOL    HW233279   4.170   1.928   4.868
10794SOL     OW33280   4.765   2.432   0.587
10794SOL    HW133281   4.719   2.418   0.499
10794SOL    HW233282   4.832   2.359   0.601
10795SOL     OW33283   0.304   3.728   3.487
10795SOL    HW133284   0.204   3.733   3.486
10795SOL    HW233285   0.337   3.707   3.395
10796SOL     OW33286   0.300   6.814   6.107
10796SOL    HW133287   0.316   6.905   6.146
10796SOL    HW233288   0.223   6.771   6.154
10797SOL     OW33289   3.930   3.855   0.071
10797SOL    HW133290   3.894   3.938   0.114
10797SOL    HW233291   3.888   3.775   0.114
10798SOL     OW33292   2.217   0.231   0.157
10798SOL    HW133293   2.299   0.282   0.132
10798SOL    HW233294   2.193   0.167   0.084
10799SOL     OW33295   2.584   0.948   2.644
10799SOL    HW133296   2.537   0.938   2.556
10799SOL    HW233297   2.521   0.924   2.718
10800SOL     OW33298   1.906   0.192   5.739
10800SOL    HW133299   1.890   0.282   5.779
10800SOL    HW233300   1.846   0.125   5.782
10801SOL     OW33301   2.534   6.609   6.101
10801SOL    HW133302   2.448   6.558   6.100
10801SOL    HW233303   2.517   6.704   6.072
10802SOL     OW33304   0.814   4.882   4.651
10802SOL    HW133305   0.885   4.850   4.713
10802SOL    HW233306   0.728   4.834   4.670
10803SOL     OW33307   0.155   4.236   4.734
10803SOL    HW133308   0.071   4.256   4.683
10803SOL    HW233309   0.140   4.157   4.793
10804SOL     OW33310   5.193   4.607   1.017
10804SOL    HW133311   5.211   4.701   0.989
10804SOL    HW233312   5.105   4.577   0.981
10805SOL     OW33313   4.160   6.662   0.320
10805SOL    HW133314   4.071   6.704   0.335
10805SOL    HW233315   4.184   6.667   0.223
10806SOL     OW33316   5.347   3.549   0.001
10806SOL    HW133317   5.379   3.643   0.009
10806SOL    HW233318   5.247   3.547   0.010
10807SOL     OW33319   4.738   0.020   3.355
10807SOL    HW133320   4.800   0.025   3.277
10807SOL    HW233321   4.690   0.107   3.365
10808SOL     OW33322   0.080   2.468   6.654
10808SOL    HW133323   0.109   2.558   6.688
10808SOL    HW233324   0.008   2.480   6.586
10809SOL     OW33325   2.575   0.949   3.426
10809SOL    HW133326   2.509   0.935   3.500
10809SOL    HW233327   2.602   1.045   3.423
10810SOL     OW33328   0.380   1.638   6.001
10810SOL    HW133329   0.386   1.697   5.920
10810SOL    HW233330   0.435   1.556   5.985
10811SOL     OW33331   4.531   4.473   5.459
10811SOL    HW133332   4.501   4.518   5.543
10811SOL    HW233333   4.568   4.541   5.396
10812SOL     OW33334   6.704   2.144   3.107
10812SOL    HW133335   6.757   2.069   3.147
10812SOL    HW233336   6.623   2.107   3.061
10813SOL     OW33337   2.963   6.211   1.727
10813SOL    HW133338   2.955   6.282   1.657
10813SOL    HW233339   3.049   6.223   1.777
10814SOL     OW33340   1.975   6.624   4.718
10814SOL    HW133341   1.913   6.609   4.641
10814SOL    HW233342   1.977   6.542   4.776
10815SOL     OW33343   4.993   2.419   2.805
10815SOL    HW133344   4.963   2.367   2.725
10815SOL    HW233345   4.936   2.500   2.815
10816SOL     OW33346   2.185   1.721   2.312
10816SOL    HW133347   2.283   1.739   2.308
10816SOL    HW233348   2.148   1.757   2.398
10817SOL     OW33349   4.581   6.860   2.191
10817SOL    HW133350   4.505   6.924   2.177
10817SOL    HW233351   4.556   6.794   2.263
10818SOL     OW33352   5.094   3.416   6.742
10818SOL    HW133353   5.000   3.401   6.772
10818SOL    HW233354   5.096   3.488   6.673
10819SOL     OW33355   0.273   3.908   6.214
10819SOL    HW133356   0.358   3.857   6.201
10819SOL    HW233357   0.289   3.982   6.280
10820SOL     OW33358   0.367   6.783   4.561
10820SOL    HW133359   0.378   6.857   4.495
10820SOL    HW233360   0.297   6.808   4.628
10821SOL     OW33361   6.810   0.111   0.374
10821SOL    HW133362   6.813   0.167   0.457
10821SOL    HW233363   6.848   0.021   0.393
10822SOL     OW33364   1.548   4.480   1.019
10822SOL    HW133365   1.570   4.401   0.961
10822SOL    HW233366   1.623   4.496   1.083
10823SOL     OW33367   1.592   0.759   1.438
10823SOL    HW133368   1.616   0.728   1.346
10823SOL    HW233369   1.668   0.740   1.500
10824SOL     OW33370   5.374   0.329   2.620
10824SOL    HW133371   5.298   0.374   2.574
10824SOL    HW233372   5.342   0.241   2.657
10825SOL     OW33373   3.449   1.275   1.333
10825SOL    HW133374   3.512   1.348   1.362
10825SOL    HW233375   3.387   1.253   1.408
10826SOL     OW33376   6.797   3.094   1.773
10826SOL    HW133377   6.870   3.162   1.778
10826SOL    HW233378   6.750   3.090   1.861
10827SOL     OW33379   0.123   2.676   4.148
10827SOL    HW133380   0.042   2.731   4.128
10827SOL    HW233381   0.188   2.683   4.073
10828SOL     OW33382   0.979   5.860   0.307
10828SOL    HW133383   1.022   5.916   0.377
10828SOL    HW233384   0.888   5.831   0.338
10829SOL     OW33385   2.504   3.599   1.259
10829SOL    HW133386   2.571   3.556   1.200
10829SOL    HW233387   2.445   3.529   1.300
10830SOL     OW33388   4.787   2.267   3.763
10830SOL    HW133389   4.872   2.224   3.792
10830SOL    HW233390   4.725   2.273   3.840
10831SOL     OW33391   5.403   2.204   3.438
10831SOL    HW133392   5.329   2.263   3.470
10831SOL    HW233393   5.489   2.232   3.482
10832SOL     OW33394   0.138   2.111   1.490
10832SOL    HW133395   0.164   2.208   1.490
10832SOL    HW233396   0.219   2.054   1.504
10833SOL     OW33397   3.116   6.626   4.442
10833SOL    HW133398   3.033   6.675   4.418
10833SOL    HW233399   3.113   6.600   4.539
10834SOL     OW33400   0.509   0.710   5.796
10834SOL    HW133401   0.490   0.655   5.715
10834SOL    HW233402   0.481   0.659   5.878
10835SOL     OW33403   6.638   1.789   2.733
10835SOL    HW133404   6.593   1.700   2.737
10835SOL    HW233405   6.602   1.842   2.656
10836SOL     OW33406   1.877   2.332   6.240
10836SOL    HW133407   1.910   2.249   6.194
10836SOL    HW233408   1.783   2.317   6.271
10837SOL     OW33409   0.914   5.563   1.160
10837SOL    HW133410   0.817   5.541   1.173
10837SOL    HW233411   0.969   5.496   1.210
10838SOL     OW33412   6.055   6.792   0.599
10838SOL    HW133413   6.065   6.703   0.643
10838SOL    HW233414   6.086   6.786   0.504
10839SOL     OW33415   2.302   2.411   0.948
10839SOL    HW133416   2.263   2.376   0.863
10839SOL    HW233417   2.279   2.348   1.023
10840SOL     OW33418   3.693   5.062   2.593
10840SOL    HW133419   3.669   5.115   2.674
10840SOL    HW233420   3.747   4.982   2.620
10841SOL     OW33421   4.516   4.068   5.917
10841SOL    HW133422   4.608   4.030   5.922
10841SOL    HW233423   4.491   4.086   5.822
10842SOL     OW33424   6.179   2.774   1.805
10842SOL    HW133425   6.117   2.850   1.788
10842SOL    HW233426   6.137   2.711   1.871
10843SOL     OW33427   0.569   0.861   1.655
10843SOL    HW133428   0.604   0.943   1.702
10843SOL    HW233429   0.473   0.875   1.632
10844SOL     OW33430   3.813   6.503   3.411
10844SOL    HW133431   3.721   6.519   3.446
10844SOL    HW233432   3.838   6.407   3.426
10845SOL     OW33433   2.239   2.800   0.615
10845SOL    HW133434   2.292   2.885   0.606
10845SOL    HW233435   2.261   2.756   0.702
10846SOL     OW33436   3.231   2.031   2.051
10846SOL    HW133437   3.324   2.037   2.088
10846SOL    HW233438   3.226   2.081   1.965
10847SOL     OW33439   4.288   2.924   6.067
10847SOL    HW133440   4.327   2.945   5.977
10847SOL    HW233441   4.200   2.970   6.076
10848SOL     OW33442   1.556   1.333   0.091
10848SOL    HW133443   1.551   1.418   0.037
10848SOL    HW233444   1.464   1.303   0.114
10849SOL     OW33445   2.648   4.931   4.092
10849SOL    HW133446   2.617   4.954   3.999
10849SOL    HW233447   2.580   4.960   4.158
10850SOL     OW33448   5.224   0.211   0.917
10850SOL    HW133449   5.208   0.283   0.849
10850SOL    HW233450   5.174   0.234   1.001
10851SOL     OW33451   4.125   2.161   6.558
10851SOL    HW133452   4.149   2.075   6.602
10851SOL    HW233453   4.076   2.220   6.623
10852SOL     OW33454   0.860   6.972   6.456
10852SOL    HW133455   0.802   6.932   6.384
10852SOL    HW233456   0.821   6.950   6.546
10853SOL     OW33457   2.326   1.506   4.520
10853SOL    HW133458   2.298   1.529   4.613
10853SOL    HW233459   2.248   1.515   4.459
10854SOL     OW33460   6.912   6.364   0.166
10854SOL    HW133461   6.965   6.381   0.249
10854SOL    HW233462   6.945   6.280   0.123
10855SOL     OW33463   1.333   6.175   1.248
10855SOL    HW133464   1.276   6.247   1.208
10855SOL    HW233465   1.329   6.180   1.347
10856SOL     OW33466   6.083   0.148   6.569
10856SOL    HW133467   6.139   0.075   6.609
10856SOL    HW233468   6.103   0.234   6.615
10857SOL     OW33469   6.097   0.308   4.480
10857SOL    HW133470   6.129   0.384   4.423
10857SOL    HW233471   6.038   0.249   4.425
10858SOL     OW33472   2.114   1.569   0.889
10858SOL    HW133473   2.139   1.631   0.815
10858SOL    HW233474   2.027   1.525   0.867
10859SOL     OW33475   0.832   4.939   2.076
10859SOL    HW133476   0.798   5.017   2.023
10859SOL    HW233477   0.771   4.861   2.061
10860SOL     OW33478   6.023   2.444   0.523
10860SOL    HW133479   6.073   2.509   0.580
10860SOL    HW233480   6.082   2.366   0.501
10861SOL     OW33481   3.310   2.845   2.189
10861SOL    HW133482   3.354   2.883   2.271
10861SOL    HW233483   3.378   2.797   2.134
10862SOL     OW33484   3.895   3.119   5.654
10862SOL    HW133485   3.896   3.211   5.614
10862SOL    HW233486   3.813   3.070   5.623
10863SOL     OW33487   2.459   1.706   3.041
10863SOL    HW133488   2.365   1.731   3.066
10863SOL    HW233489   2.508   1.787   3.009
10864SOL     OW33490   3.180   4.846   2.094
10864SOL    HW133491   3.174   4.901   2.177
10864SOL    HW233492   3.089   4.812   2.070
10865SOL     OW33493   3.063   1.289   2.916
10865SOL    HW133494   3.118   1.361   2.958
10865SOL    HW233495   2.995   1.329   2.855
10866SOL     OW33496   0.025   3.713   3.343
10866SOL    HW133497   6.948   3.693   3.325
10866SOL    HW233498   0.082   3.679   3.268
10867SOL     OW33499   4.328   3.368   0.712
10867SOL    HW133500   4.351   3.371   0.809
10867SOL    HW233501   4.294   3.277   0.688
10868SOL     OW33502   0.948   1.319   4.822
10868SOL    HW133503   1.003   1.340   4.904
10868SOL    HW233504   0.951   1.397   4.759
10869NA      NA33505   6.806   2.310   5.833
10870NA      NA33506   4.574   4.487   5.050
10871NA      NA33507   1.368   4.881   2.927
10872NA      NA33508   5.686   4.073   3.467
10873NA      NA33509   3.749   2.348   5.434
10874NA      NA33510   2.193   4.852   0.239
10875NA      NA33511   1.516   5.523   6.922
10876NA      NA33512   3.530   4.420   0.935
10877NA      NA33513   4.447   5.266   0.628
10878NA      NA33514   3.249   0.894   6.509
10879NA      NA33515   5.363   6.835   1.911
10880NA      NA33516   1.816   6.758   5.294
10881NA      NA33517   4.106   5.266   1.520
10882NA      NA33518   3.551   3.152   6.760
   7.01830   7.01830   7.01830
