Generated by trjconv : CNT in water t= 186.00000
33518
    1C        C    1   2.843   2.772   4.750
    1C        C    2   2.903   2.726   4.870
    1C        C    3   2.850   2.779   4.988
    1C        C    4   2.851   2.776   4.263
    1C        C    5   2.904   2.728   4.385
    1C        C    6   2.852   2.776   4.507
    1C        C    7   3.016   2.646   4.631
    1C        C    8   2.898   2.723   4.630
    1C        C    9   3.080   2.611   4.752
    1C        C   10   3.014   2.639   4.873
    1C        C   11   3.184   2.494   4.974
    1C        C   12   3.064   2.565   4.981
    1C        C   13   2.856   2.775   3.773
    1C        C   14   2.906   2.727   3.896
    1C        C   15   2.854   2.777   4.018
    1C        C   16   3.020   2.649   4.140
    1C        C   17   2.904   2.729   4.141
    1C        C   18   3.081   2.617   4.263
    1C        C   19   3.025   2.654   4.387
    1C        C   20   3.211   2.558   4.506
    1C        C   21   3.081   2.614   4.510
    1C        C   22   3.282   2.536   4.626
    1C        C   23   3.210   2.553   4.746
    1C        C   24   3.416   2.483   4.867
    1C        C   25   3.274   2.503   4.863
    1C        C   26   3.493   2.477   4.984
    1C        C   27   2.856   2.773   3.285
    1C        C   28   2.911   2.729   3.407
    1C        C   29   2.859   2.777   3.530
    1C        C   30   3.023   2.643   3.651
    1C        C   31   2.910   2.728   3.652
    1C        C   32   3.080   2.605   3.775
    1C        C   33   3.020   2.643   3.897
    1C        C   34   3.215   2.560   4.016
    1C        C   35   3.083   2.610   4.019
    1C        C   36   3.280   2.539   4.140
    1C        C   37   3.213   2.565   4.261
    1C        C   38   3.417   2.510   4.383
    1C        C   39   3.280   2.544   4.384
    1C        C   40   3.490   2.495   4.503
    1C        C   41   3.420   2.502   4.625
    1C        C   42   3.632   2.479   4.743
    1C        C   43   3.490   2.482   4.746
    1C        C   44   3.704   2.483   4.865
    1C        C   45   3.632   2.474   4.985
    1C        C   46   2.837   2.750   2.795
    1C        C   47   2.896   2.713   2.918
    1C        C   48   2.845   2.762   3.040
    1C        C   49   3.018   2.639   3.164
    1C        C   50   2.903   2.721   3.162
    1C        C   51   3.082   2.606   3.285
    1C        C   52   3.021   2.641   3.408
    1C        C   53   3.213   2.548   3.525
    1C        C   54   3.084   2.605   3.530
    1C        C   55   3.276   2.525   3.650
    1C        C   56   3.207   2.544   3.772
    1C        C   57   3.418   2.507   3.894
    1C        C   58   3.279   2.535   3.893
    1C        C   59   3.488   2.501   4.016
    1C        C   60   3.419   2.512   4.139
    1C        C   61   3.630   2.502   4.260
    1C        C   62   3.489   2.501   4.261
    1C        C   63   3.704   2.503   4.381
    1C        C   64   3.631   2.494   4.502
    1C        C   65   3.838   2.533   4.618
    1C        C   66   3.704   2.490   4.623
    1C        C   67   3.904   2.558   4.741
    1C        C   68   3.838   2.526   4.862
    1C        C   69   4.049   2.579   4.974
    1C        C   70   3.920   2.524   4.976
    1C        C   71   2.827   2.743   2.309
    1C        C   72   2.884   2.699   2.430
    1C        C   73   2.831   2.747   2.552
    1C        C   74   3.009   2.627   2.674
    1C        C   75   2.890   2.703   2.673
    1C        C   76   3.074   2.596   2.795
    1C        C   77   3.013   2.634   2.917
    1C        C   78   3.205   2.546   3.038
    1C        C   79   3.076   2.604   3.040
    1C        C   80   3.277   2.527   3.158
    1C        C   81   3.213   2.553   3.281
    1C        C   82   3.418   2.499   3.404
    1C        C   83   3.280   2.527   3.403
    1C        C   84   3.484   2.493   3.528
    1C        C   85   3.416   2.502   3.652
    1C        C   86   3.631   2.495   3.770
    1C        C   87   3.489   2.498   3.772
    1C        C   88   3.699   2.504   3.893
    1C        C   89   3.629   2.506   4.016
    1C        C   90   3.838   2.542   4.133
    1C        C   91   3.699   2.514   4.138
    1C        C   92   3.905   2.566   4.255
    1C        C   93   3.841   2.535   4.378
    1C        C   94   4.033   2.629   4.500
    1C        C   95   3.909   2.560   4.499
    1C        C   96   4.091   2.670   4.622
    1C        C   97   4.028   2.627   4.740
    1C        C   98   4.186   2.767   4.863
    1C        C   99   4.089   2.661   4.864
    1C        C  100   4.201   2.848   4.977
    1C        C  101   2.821   2.732   2.073
    1C        C  102   2.990   2.592   2.192
    1C        C  103   2.879   2.683   2.191
    1C        C  104   3.063   2.571   2.312
    1C        C  105   3.001   2.619   2.429
    1C        C  106   3.199   2.538   2.547
    1C        C  107   3.068   2.592   2.550
    1C        C  108   3.269   2.525   2.669
    1C        C  109   3.205   2.542   2.793
    1C        C  110   3.410   2.498   2.914
    1C        C  111   3.271   2.519   2.916
    1C        C  112   3.484   2.492   3.034
    1C        C  113   3.416   2.501   3.158
    1C        C  114   3.628   2.495   3.281
    1C        C  115   3.487   2.493   3.280
    1C        C  116   3.697   2.504   3.404
    1C        C  117   3.626   2.499   3.526
    1C        C  118   3.836   2.540   3.645
    1C        C  119   3.698   2.509   3.647
    1C        C  120   3.900   2.563   3.769
    1C        C  121   3.837   2.535   3.892
    1C        C  122   4.029   2.632   4.014
    1C        C  123   3.907   2.561   4.012
    1C        C  124   4.089   2.672   4.136
    1C        C  125   4.027   2.636   4.258
    1C        C  126   4.199   2.763   4.378
    1C        C  127   4.090   2.673   4.379
    1C        C  128   4.246   2.819   4.499
    1C        C  129   4.194   2.767   4.620
    1C        C  130   4.318   2.938   4.741
    1C        C  131   4.235   2.823   4.742
    1C        C  132   4.352   3.005   4.861
    1C        C  133   4.279   2.963   4.973
    1C        C  134   3.171   2.469   2.079
    1C        C  135   3.038   2.511   2.084
    1C        C  136   3.259   2.474   2.189
    1C        C  137   3.194   2.516   2.307
    1C        C  138   3.405   2.484   2.427
    1C        C  139   3.265   2.502   2.428
    1C        C  140   3.479   2.482   2.548
    1C        C  141   3.408   2.497   2.669
    1C        C  142   3.621   2.495   2.791
    1C        C  143   3.480   2.492   2.791
    1C        C  144   3.693   2.497   2.913
    1C        C  145   3.625   2.490   3.036
    1C        C  146   3.834   2.534   3.157
    1C        C  147   3.696   2.501   3.157
    1C        C  148   3.903   2.560   3.278
    1C        C  149   3.834   2.540   3.399
    1C        C  150   4.028   2.623   3.524
    1C        C  151   3.901   2.560   3.522
    1C        C  152   4.082   2.668   3.646
    1C        C  153   4.025   2.629   3.769
    1C        C  154   4.192   2.763   3.891
    1C        C  155   4.086   2.671   3.890
    1C        C  156   4.243   2.817   4.011
    1C        C  157   4.197   2.763   4.133
    1C        C  158   4.337   2.922   4.255
    1C        C  159   4.248   2.812   4.255
    1C        C  160   4.375   2.985   4.375
    1C        C  161   4.332   2.931   4.498
    1C        C  162   4.433   3.118   4.617
    1C        C  163   4.366   2.994   4.620
    1C        C  164   4.458   3.189   4.737
    1C        C  165   4.429   3.123   4.858
    1C        C  166   4.502   3.325   4.973
    1C        C  167   4.475   3.189   4.973
    1C        C  168   3.476   2.432   2.070
    1C        C  169   3.398   2.452   2.185
    1C        C  170   3.615   2.466   2.308
    1C        C  171   3.473   2.465   2.304
    1C        C  172   3.692   2.482   2.425
    1C        C  173   3.620   2.486   2.546
    1C        C  174   3.826   2.539   2.667
    1C        C  175   3.690   2.500   2.668
    1C        C  176   3.892   2.564   2.789
    1C        C  177   3.828   2.539   2.912
    1C        C  178   4.025   2.621   3.033
    1C        C  179   3.897   2.562   3.034
    1C        C  180   4.088   2.657   3.154
    1C        C  181   4.030   2.622   3.278
    1C        C  182   4.192   2.753   3.401
    1C        C  183   4.089   2.657   3.401
    1C        C  184   4.243   2.805   3.522
    1C        C  185   4.192   2.757   3.645
    1C        C  186   4.336   2.914   3.766
    1C        C  187   4.244   2.807   3.767
    1C        C  188   4.374   2.978   3.886
    1C        C  189   4.330   2.928   4.011
    1C        C  190   4.445   3.105   4.127
    1C        C  191   4.377   2.982   4.133
    1C        C  192   4.463   3.174   4.248
    1C        C  193   4.432   3.114   4.373
    1C        C  194   4.504   3.316   4.492
    1C        C  195   4.463   3.181   4.494
    1C        C  196   4.521   3.390   4.611
    1C        C  197   4.502   3.324   4.734
    1C        C  198   4.557   3.536   4.849
    1C        C  199   4.523   3.397   4.854
    1C        C  200   4.585   3.620   4.962
    1C        C  201   3.616   2.423   2.071
    1C        C  202   3.825   2.509   2.186
    1C        C  203   3.688   2.467   2.186
    1C        C  204   3.897   2.544   2.303
    1C        C  205   3.827   2.524   2.424
    1C        C  206   4.021   2.619   2.544
    1C        C  207   3.894   2.558   2.544
    1C        C  208   4.080   2.658   2.666
    1C        C  209   4.019   2.626   2.789
    1C        C  210   4.194   2.749   2.909
    1C        C  211   4.080   2.665   2.910
    1C        C  212   4.243   2.799   3.032
    1C        C  213   4.195   2.749   3.155
    1C        C  214   4.329   2.913   3.274
    1C        C  215   4.244   2.800   3.278
    1C        C  216   4.359   2.978   3.396
    1C        C  217   4.327   2.919   3.520
    1C        C  218   4.425   3.105   3.643
    1C        C  219   4.366   2.977   3.643
    1C        C  220   4.460   3.173   3.762
    1C        C  221   4.437   3.105   3.884
    1C        C  222   4.499   3.309   4.005
    1C        C  223   4.469   3.171   4.004
    1C        C  224   4.512   3.381   4.126
    1C        C  225   4.497   3.311   4.249
    1C        C  226   4.521   3.525   4.366
    1C        C  227   4.512   3.385   4.369
    1C        C  228   4.521   3.601   4.486
    1C        C  229   4.525   3.531   4.609
    1C        C  230   4.507   3.745   4.728
    1C        C  231   4.540   3.607   4.727
    1C        C  232   4.498   3.822   4.846
    1C        C  233   4.547   3.755   4.959
    1C        C  234   4.012   2.613   2.067
    1C        C  235   3.891   2.546   2.067
    1C        C  236   4.084   2.653   2.181
    1C        C  237   4.022   2.612   2.301
    1C        C  238   4.197   2.739   2.423
    1C        C  239   4.083   2.653   2.421
    1C        C  240   4.250   2.785   2.545
    1C        C  241   4.195   2.740   2.667
    1C        C  242   4.333   2.907   2.785
    1C        C  243   4.248   2.794   2.787
    1C        C  244   4.376   2.964   2.907
    1C        C  245   4.332   2.909   3.029
    1C        C  246   4.431   3.096   3.151
    1C        C  247   4.370   2.968   3.151
    1C        C  248   4.457   3.163   3.273
    1C        C  249   4.424   3.104   3.397
    1C        C  250   4.490   3.305   3.514
    1C        C  251   4.450   3.169   3.519
    1C        C  252   4.500   3.376   3.635
    1C        C  253   4.497   3.309   3.759
    1C        C  254   4.527   3.518   3.879
    1C        C  255   4.512   3.378   3.882
    1C        C  256   4.522   3.592   4.000
    1C        C  257   4.523   3.521   4.122
    1C        C  258   4.495   3.734   4.241
    1C        C  259   4.520   3.595   4.243
    1C        C  260   4.480   3.806   4.361
    1C        C  261   4.498   3.740   4.484
    1C        C  262   4.431   3.942   4.606
    1C        C  263   4.482   3.811   4.606
    1C        C  264   4.400   4.012   4.725
    1C        C  265   4.440   3.951   4.845
    1C        C  266   4.319   4.131   4.957
    1C        C  267   4.390   4.011   4.962
    1C        C  268   4.268   2.770   2.064
    1C        C  269   4.200   2.733   2.181
    1C        C  270   4.340   2.896   2.300
    1C        C  271   4.252   2.784   2.301
    1C        C  272   4.377   2.957   2.421
    1C        C  273   4.336   2.897   2.543
    1C        C  274   4.440   3.088   2.662
    1C        C  275   4.371   2.965   2.662
    1C        C  276   4.469   3.155   2.783
    1C        C  277   4.441   3.090   2.905
    1C        C  278   4.503   3.292   3.026
    1C        C  279   4.458   3.158   3.028
    1C        C  280   4.515   3.366   3.146
    1C        C  281   4.496   3.299   3.269
    1C        C  282   4.519   3.512   3.391
    1C        C  283   4.509   3.371   3.390
    1C        C  284   4.515   3.585   3.512
    1C        C  285   4.519   3.516   3.635
    1C        C  286   4.495   3.727   3.754
    1C        C  287   4.521   3.588   3.757
    1C        C  288   4.478   3.798   3.874
    1C        C  289   4.500   3.731   3.997
    1C        C  290   4.430   3.933   4.116
    1C        C  291   4.484   3.803   4.118
    1C        C  292   4.402   3.999   4.238
    1C        C  293   4.436   3.940   4.362
    1C        C  294   4.327   4.126   4.482
    1C        C  295   4.402   4.006   4.483
    1C        C  296   4.282   4.188   4.600
    1C        C  297   4.323   4.132   4.723
    1C        C  298   4.202   4.319   4.841
    1C        C  299   4.278   4.197   4.841
    1C        C  300   4.171   4.405   4.951
    1C        C  301   4.357   2.877   2.062
    1C        C  302   4.465   3.070   2.177
    1C        C  303   4.397   2.944   2.178
    1C        C  304   4.484   3.143   2.297
    1C        C  305   4.447   3.080   2.418
    1C        C  306   4.512   3.284   2.536
    1C        C  307   4.475   3.147   2.539
    1C        C  308   4.513   3.357   2.657
    1C        C  309   4.504   3.292   2.782
    1C        C  310   4.525   3.502   2.901
    1C        C  311   4.520   3.361   2.904
    1C        C  312   4.524   3.575   3.022
    1C        C  313   4.518   3.508   3.147
    1C        C  314   4.492   3.720   3.265
    1C        C  315   4.515   3.581   3.268
    1C        C  316   4.476   3.791   3.386
    1C        C  317   4.491   3.724   3.509
    1C        C  318   4.432   3.929   3.628
    1C        C  319   4.477   3.795   3.631
    1C        C  320   4.403   3.994   3.750
    1C        C  321   4.430   3.931   3.873
    1C        C  322   4.321   4.115   3.992
    1C        C  323   4.396   3.996   3.994
    1C        C  324   4.281   4.173   4.115
    1C        C  325   4.330   4.121   4.237
    1C        C  326   4.191   4.284   4.355
    1C        C  327   4.286   4.179   4.358
    1C        C  328   4.138   4.341   4.473
    1C        C  329   4.191   4.297   4.596
    1C        C  330   4.030   4.439   4.714
    1C        C  331   4.145   4.356   4.716
    1C        C  332   3.972   4.490   4.833
    1C        C  333   4.056   4.485   4.944
    1C        C  334   4.556   3.269   2.062
    1C        C  335   4.535   3.130   2.068
    1C        C  336   4.540   3.351   2.174
    1C        C  337   4.520   3.281   2.294
    1C        C  338   4.529   3.496   2.412
    1C        C  339   4.528   3.354   2.415
    1C        C  340   4.525   3.567   2.534
    1C        C  341   4.528   3.498   2.657
    1C        C  342   4.500   3.710   2.775
    1C        C  343   4.523   3.571   2.777
    1C        C  344   4.482   3.782   2.895
    1C        C  345   4.501   3.714   3.017
    1C        C  346   4.428   3.915   3.137
    1C        C  347   4.475   3.782   3.139
    1C        C  348   4.399   3.983   3.258
    1C        C  349   4.433   3.926   3.383
    1C        C  350   4.321   4.106   3.502
    1C        C  351   4.403   3.991   3.505
    1C        C  352   4.276   4.163   3.623
    1C        C  353   4.324   4.111   3.746
    1C        C  354   4.181   4.269   3.868
    1C        C  355   4.279   4.167   3.868
    1C        C  356   4.127   4.318   3.989
    1C        C  357   4.177   4.268   4.111
    1C        C  358   4.011   4.399   4.232
    1C        C  359   4.128   4.319   4.234
    1C        C  360   3.954   4.446   4.352
    1C        C  361   4.021   4.420   4.474
    1C        C  362   3.829   4.516   4.592
    1C        C  363   3.959   4.462   4.594
    1C        C  364   3.762   4.544   4.713
    1C        C  365   3.839   4.537   4.832
    1C        C  366   3.630   4.594   4.948
    1C        C  367   3.768   4.575   4.946
    1C        C  368   4.514   3.568   2.055
    1C        C  369   4.520   3.491   2.172
    1C        C  370   4.498   3.707   2.289
    1C        C  371   4.519   3.567   2.291
    1C        C  372   4.488   3.779   2.410
    1C        C  373   4.504   3.707   2.531
    1C        C  374   4.428   3.907   2.650
    1C        C  375   4.479   3.775   2.652
    1C        C  376   4.395   3.974   2.770
    1C        C  377   4.430   3.914   2.893
    1C        C  378   4.333   4.103   3.011
    1C        C  379   4.400   3.979   3.015
    1C        C  380   4.282   4.155   3.132
    1C        C  381   4.318   4.098   3.256
    1C        C  382   4.179   4.259   3.377
    1C        C  383   4.277   4.158   3.378
    1C        C  384   4.127   4.309   3.498
    1C        C  385   4.178   4.265   3.622
    1C        C  386   4.005   4.385   3.741
    1C        C  387   4.125   4.311   3.745
    1C        C  388   3.945   4.423   3.863
    1C        C  389   4.007   4.392   3.986
    1C        C  390   3.818   4.483   4.109
    1C        C  391   3.950   4.432   4.109
    1C        C  392   3.750   4.517   4.228
    1C        C  393   3.824   4.500   4.348
    1C        C  394   3.618   4.548   4.476
    1C        C  395   3.757   4.522   4.470
    1C        C  396   3.546   4.568   4.595
    1C        C  397   3.622   4.564   4.715
    1C        C  398   3.410   4.550   4.840
    1C        C  399   3.549   4.572   4.836
    1C        C  400   3.344   4.512   4.958
    1C        C  401   4.510   3.707   2.054
    1C        C  402   4.458   3.919   2.165
    1C        C  403   4.497   3.784   2.170
    1C        C  404   4.411   3.975   2.286
    1C        C  405   4.441   3.913   2.409
    1C        C  406   4.330   4.097   2.523
    1C        C  407   4.402   3.976   2.529
    1C        C  408   4.284   4.156   2.643
    1C        C  409   4.323   4.095   2.765
    1C        C  410   4.182   4.248   2.886
    1C        C  411   4.288   4.156   2.887
    1C        C  412   4.128   4.297   3.008
    1C        C  413   4.180   4.253   3.132
    1C        C  414   4.001   4.370   3.254
    1C        C  415   4.122   4.296   3.253
    1C        C  416   3.941   4.406   3.376
    1C        C  417   4.004   4.379   3.499
    1C        C  418   3.808   4.468   3.620
    1C        C  419   3.939   4.415   3.619
    1C        C  420   3.744   4.491   3.744
    1C        C  421   3.813   4.473   3.866
    1C        C  422   3.609   4.527   3.987
    1C        C  423   3.747   4.500   3.988
    1C        C  424   3.540   4.538   4.110
    1C        C  425   3.610   4.536   4.232
    1C        C  426   3.403   4.542   4.354
    1C        C  427   3.544   4.551   4.356
    1C        C  428   3.333   4.541   4.477
    1C        C  429   3.406   4.555   4.597
    1C        C  430   3.196   4.520   4.722
    1C        C  431   3.336   4.547   4.720
    1C        C  432   3.127   4.495   4.843
    1C        C  433   3.206   4.496   4.959
    1C        C  434   4.386   4.123   2.051
    1C        C  435   4.450   3.998   2.050
    1C        C  436   4.311   4.169   2.164
    1C        C  437   4.339   4.098   2.284
    1C        C  438   4.180   4.248   2.400
    1C        C  439   4.285   4.154   2.402
    1C        C  440   4.128   4.297   2.522
    1C        C  441   4.180   4.252   2.645
    1C        C  442   4.005   4.373   2.765
    1C        C  443   4.122   4.294   2.767
    1C        C  444   3.944   4.408   2.888
    1C        C  445   4.009   4.373   3.009
    1C        C  446   3.815   4.463   3.133
    1C        C  447   3.943   4.404   3.130
    1C        C  448   3.748   4.492   3.254
    1C        C  449   3.813   4.468   3.376
    1C        C  450   3.607   4.526   3.496
    1C        C  451   3.745   4.496   3.497
    1C        C  452   3.539   4.534   3.619
    1C        C  453   3.608   4.529   3.742
    1C        C  454   3.397   4.542   3.863
    1C        C  455   3.538   4.540   3.865
    1C        C  456   3.328   4.531   3.986
    1C        C  457   3.398   4.535   4.108
    1C        C  458   3.194   4.496   4.235
    1C        C  459   3.331   4.530   4.232
    1C        C  460   3.127   4.483   4.359
    1C        C  461   3.196   4.509   4.480
    1C        C  462   2.999   4.435   4.604
    1C        C  463   3.125   4.498   4.602
    1C        C  464   2.930   4.406   4.724
    1C        C  465   2.990   4.452   4.844
    1C        C  466   2.801   4.342   4.960
    1C        C  467   2.909   4.432   4.960
    1C        C  468   4.127   4.289   2.043
    1C        C  469   4.192   4.250   2.160
    1C        C  470   4.009   4.375   2.283
    1C        C  471   4.127   4.295   2.278
    1C        C  472   3.942   4.408   2.402
    1C        C  473   4.008   4.373   2.522
    1C        C  474   3.813   4.460   2.645
    1C        C  475   3.944   4.407   2.643
    1C        C  476   3.746   4.486   2.767
    1C        C  477   3.815   4.463   2.889
    1C        C  478   3.607   4.511   3.012
    1C        C  479   3.744   4.476   3.011
    1C        C  480   3.534   4.520   3.132
    1C        C  481   3.609   4.517   3.252
    1C        C  482   3.396   4.528   3.375
    1C        C  483   3.537   4.530   3.373
    1C        C  484   3.326   4.522   3.498
    1C        C  485   3.398   4.536   3.619
    1C        C  486   3.191   4.499   3.742
    1C        C  487   3.327   4.537   3.741
    1C        C  488   3.126   4.476   3.865
    1C        C  489   3.189   4.505   3.988
    1C        C  490   2.999   4.418   4.115
    1C        C  491   3.126   4.482   4.112
    1C        C  492   2.940   4.387   4.240
    1C        C  493   2.998   4.428   4.362
    1C        C  494   2.827   4.304   4.482
    1C        C  495   2.935   4.394   4.484
    1C        C  496   2.776   4.257   4.605
    1C        C  497   2.822   4.314   4.726
    1C        C  498   2.666   4.167   4.848
    1C        C  499   2.755   4.277   4.845
    1C        C  500   2.604   4.115   4.962
    1C        C  501   4.007   4.361   2.043
    1C        C  502   3.816   4.463   2.156
    1C        C  503   3.945   4.406   2.161
    1C        C  504   3.745   4.482   2.276
    1C        C  505   3.810   4.458   2.399
    1C        C  506   3.606   4.505   2.521
    1C        C  507   3.745   4.479   2.523
    1C        C  508   3.537   4.513   2.644
    1C        C  509   3.607   4.510   2.766
    1C        C  510   3.396   4.522   2.889
    1C        C  511   3.538   4.518   2.889
    1C        C  512   3.321   4.527   3.008
    1C        C  513   3.393   4.531   3.129
    1C        C  514   3.189   4.490   3.256
    1C        C  515   3.325   4.527   3.253
    1C        C  516   3.119   4.468   3.376
    1C        C  517   3.187   4.493   3.498
    1C        C  518   2.994   4.413   3.625
    1C        C  519   3.121   4.474   3.621
    1C        C  520   2.936   4.377   3.749
    1C        C  521   2.999   4.414   3.870
    1C        C  522   2.836   4.283   3.997
    1C        C  523   2.944   4.374   3.993
    1C        C  524   2.785   4.238   4.121
    1C        C  525   2.832   4.296   4.241
    1C        C  526   2.700   4.130   4.367
    1C        C  527   2.778   4.248   4.362
    1C        C  528   2.658   4.073   4.490
    1C        C  529   2.692   4.143   4.608
    1C        C  530   2.588   3.963   4.734
    1C        C  531   2.638   4.096   4.729
    1C        C  532   2.544   3.902   4.854
    1C        C  533   2.537   3.992   4.964
    1C        C  534   3.617   4.554   2.040
    1C        C  535   3.750   4.510   2.042
    1C        C  536   3.536   4.537   2.156
    1C        C  537   3.607   4.516   2.278
    1C        C  538   3.394   4.511   2.402
    1C        C  539   3.535   4.517   2.399
    1C        C  540   3.323   4.504   2.524
    1C        C  541   3.396   4.513   2.645
    1C        C  542   3.186   4.487   2.767
    1C        C  543   3.325   4.510   2.767
    1C        C  544   3.117   4.467   2.889
    1C        C  545   3.183   4.495   3.011
    1C        C  546   2.996   4.399   3.135
    1C        C  547   3.121   4.466   3.134
    1C        C  548   2.934   4.369   3.258
    1C        C  549   2.991   4.409   3.382
    1C        C  550   2.820   4.286   3.507
    1C        C  551   2.930   4.374   3.505
    1C        C  552   2.774   4.236   3.631
    1C        C  553   2.830   4.285   3.751
    1C        C  554   2.704   4.117   3.876
    1C        C  555   2.789   4.229   3.875
    1C        C  556   2.658   4.066   4.000
    1C        C  557   2.699   4.127   4.121
    1C        C  558   2.591   3.948   4.247
    1C        C  559   2.657   4.073   4.245
    1C        C  560   2.560   3.885   4.369
    1C        C  561   2.589   3.950   4.491
    1C        C  562   2.537   3.750   4.615
    1C        C  563   2.565   3.888   4.616
    1C        C  564   2.518   3.681   4.737
    1C        C  565   2.519   3.761   4.855
    1C        C  566   2.535   3.550   4.981
    1C        C  567   2.519   3.688   4.975
    1C        C  568   3.328   4.476   2.040
    1C        C  569   3.397   4.509   2.158
    1C        C  570   3.184   4.482   2.280
    1C        C  571   3.323   4.510   2.279
    1C        C  572   3.120   4.452   2.403
    1C        C  573   3.185   4.477   2.525
    1C        C  574   2.986   4.404   2.647
    1C        C  575   3.115   4.462   2.647
    1C        C  576   2.927   4.366   2.770
    1C        C  577   2.992   4.401   2.890
    1C        C  578   2.826   4.273   3.018
    1C        C  579   2.935   4.363   3.014
    1C        C  580   2.777   4.223   3.141
    1C        C  581   2.827   4.276   3.262
    1C        C  582   2.691   4.117   3.384
    1C        C  583   2.775   4.231   3.385
    1C        C  584   2.662   4.055   3.508
    1C        C  585   2.700   4.115   3.630
    1C        C  586   2.595   3.935   3.755
    1C        C  587   2.661   4.060   3.754
    1C        C  588   2.572   3.873   3.880
    1C        C  589   2.594   3.940   4.002
    1C        C  590   2.541   3.739   4.130
    1C        C  591   2.571   3.877   4.126
    1C        C  592   2.526   3.673   4.254
    1C        C  593   2.532   3.747   4.374
    1C        C  594   2.515   3.535   4.500
    1C        C  595   2.525   3.676   4.496
    1C        C  596   2.516   3.464   4.622
    1C        C  597   2.517   3.539   4.742
    1C        C  598   2.535   3.331   4.865
    1C        C  599   2.527   3.471   4.866
    1C        C  600   2.524   3.251   4.980
    1C        C  601   3.194   4.440   2.045
    1C        C  602   2.980   4.402   2.160
    1C        C  603   3.115   4.449   2.160
    1C        C  604   2.923   4.363   2.285
    1C        C  605   2.990   4.395   2.405
    1C        C  606   2.818   4.275   2.528
    1C        C  607   2.923   4.368   2.526
    1C        C  608   2.767   4.226   2.650
    1C        C  609   2.820   4.274   2.772
    1C        C  610   2.685   4.114   2.895
    1C        C  611   2.774   4.224   2.896
    1C        C  612   2.648   4.056   3.018
    1C        C  613   2.689   4.113   3.141
    1C        C  614   2.594   3.925   3.267
    1C        C  615   2.654   4.053   3.264
    1C        C  616   2.565   3.863   3.390
    1C        C  617   2.596   3.931   3.511
    1C        C  618   2.533   3.730   3.640
    1C        C  619   2.568   3.867   3.634
    1C        C  620   2.523   3.663   3.764
    1C        C  621   2.538   3.736   3.884
    1C        C  622   2.512   3.529   4.010
    1C        C  623   2.527   3.669   4.008
    1C        C  624   2.516   3.460   4.133
    1C        C  625   2.515   3.532   4.254
    1C        C  626   2.542   3.325   4.380
    1C        C  627   2.518   3.464   4.378
    1C        C  628   2.553   3.254   4.502
    1C        C  629   2.540   3.325   4.623
    1C        C  630   2.601   3.122   4.745
    1C        C  631   2.556   3.257   4.746
    1C        C  632   2.620   3.054   4.868
    1C        C  633   2.564   3.117   4.984
    1C        C  634   2.783   4.306   2.054
    1C        C  635   2.892   4.394   2.048
    1C        C  636   2.750   4.234   2.170
    1C        C  637   2.807   4.282   2.290
    1C        C  638   2.675   4.111   2.409
    1C        C  639   2.758   4.225   2.409
    1C        C  640   2.642   4.049   2.532
    1C        C  641   2.686   4.110   2.652
    1C        C  642   2.590   3.921   2.776
    1C        C  643   2.654   4.047   2.775
    1C        C  644   2.569   3.857   2.900
    1C        C  645   2.592   3.926   3.021
    1C        C  646   2.533   3.724   3.149
    1C        C  647   2.568   3.860   3.144
    1C        C  648   2.520   3.656   3.272
    1C        C  649   2.534   3.725   3.394
    1C        C  650   2.512   3.519   3.520
    1C        C  651   2.519   3.660   3.519
    1C        C  652   2.514   3.449   3.643
    1C        C  653   2.513   3.522   3.764
    1C        C  654   2.532   3.315   3.891
    1C        C  655   2.512   3.455   3.889
    1C        C  656   2.557   3.250   4.014
    1C        C  657   2.543   3.321   4.135
    1C        C  658   2.608   3.122   4.260
    1C        C  659   2.561   3.255   4.259
    1C        C  660   2.640   3.060   4.384
    1C        C  661   2.604   3.123   4.505
    1C        C  662   2.712   2.938   4.627
    1C        C  663   2.631   3.054   4.626
    1C        C  664   2.756   2.884   4.750
    1C        C  665   2.698   2.934   4.870
    1C        C  666   2.742   2.867   4.985
    1C        C  667   2.684   4.026   2.055
    1C        C  668   2.688   4.107   2.169
    1C        C  669   2.588   3.915   2.292
    1C        C  670   2.641   4.047   2.288
    1C        C  671   2.564   3.847   2.414
    1C        C  672   2.587   3.919   2.533
    1C        C  673   2.518   3.719   2.659
    1C        C  674   2.558   3.855   2.656
    1C        C  675   2.511   3.649   2.781
    1C        C  676   2.535   3.720   2.901
    1C        C  677   2.513   3.514   3.031
    1C        C  678   2.523   3.654   3.026
    1C        C  679   2.513   3.443   3.153
    1C        C  680   2.507   3.515   3.275
    1C        C  681   2.530   3.307   3.404
    1C        C  682   2.512   3.447   3.398
    1C        C  683   2.549   3.237   3.526
    1C        C  684   2.533   3.309   3.646
    1C        C  685   2.602   3.113   3.774
    1C        C  686   2.546   3.243   3.770
    1C        C  687   2.639   3.053   3.896
    1C        C  688   2.605   3.117   4.017
    1C        C  689   2.714   2.937   4.141
    1C        C  690   2.634   3.054   4.140
    1C        C  691   2.760   2.884   4.264
    1C        C  692   2.719   2.943   4.386
    1C        C  693   2.755   2.879   4.506
    1C        C  694   2.631   3.896   2.056
    1C        C  695   2.528   3.708   2.178
    1C        C  696   2.579   3.839   2.173
    1C        C  697   2.515   3.638   2.300
    1C        C  698   2.520   3.713   2.419
    1C        C  699   2.491   3.503   2.543
    1C        C  700   2.498   3.644   2.541
    1C        C  701   2.500   3.433   2.666
    1C        C  702   2.505   3.508   2.785
    1C        C  703   2.529   3.302   2.915
    1C        C  704   2.507   3.441   2.910
    1C        C  705   2.545   3.233   3.038
    1C        C  706   2.532   3.303   3.159
    1C        C  707   2.603   3.106   3.281
    1C        C  708   2.551   3.237   3.283
    1C        C  709   2.634   3.046   3.406
    1C        C  710   2.604   3.107   3.529
    1C        C  711   2.713   2.930   3.650
    1C        C  712   2.634   3.046   3.653
    1C        C  713   2.759   2.878   3.773
    1C        C  714   2.717   2.935   3.896
    1C        C  715   2.757   2.880   4.019
    1C        C  716   2.450   3.500   2.066
    1C        C  717   2.490   3.634   2.065
    1C        C  718   2.466   3.421   2.184
    1C        C  719   2.487   3.499   2.301
    1C        C  720   2.518   3.290   2.424
    1C        C  721   2.490   3.428   2.424
    1C        C  722   2.536   3.223   2.547
    1C        C  723   2.525   3.294   2.669
    1C        C  724   2.601   3.102   2.791
    1C        C  725   2.545   3.232   2.794
    1C        C  726   2.625   3.037   2.914
    1C        C  727   2.594   3.100   3.036
    1C        C  728   2.710   2.924   3.160
    1C        C  729   2.631   3.041   3.159
    1C        C  730   2.756   2.872   3.283
    1C        C  731   2.713   2.929   3.405
    1C        C  732   2.757   2.874   3.528
    1C        C  733   2.490   3.198   2.070
    1C        C  734   2.485   3.279   2.184
    1C        C  735   2.571   3.081   2.306
    1C        C  736   2.519   3.214   2.305
    1C        C  737   2.600   3.018   2.429
    1C        C  738   2.580   3.089   2.550
    1C        C  739   2.698   2.910   2.672
    1C        C  740   2.625   3.031   2.670
    1C        C  741   2.745   2.858   2.795
    1C        C  742   2.702   2.918   2.915
    1C        C  743   2.749   2.866   3.037
    1C        C  744   2.548   3.071   2.071
    1C        C  745   2.687   2.901   2.185
    1C        C  746   2.601   3.013   2.186
    1C        C  747   2.729   2.846   2.309
    1C        C  748   2.685   2.905   2.429
    1C        C  749   2.738   2.853   2.550
    1C        C  750   2.740   2.846   2.068
    1C        C  751   3.661   2.303   1.998
    1C        O  752   3.662   2.183   2.037
    1C        O  753   3.679   2.320   1.860
    1C        C  754   4.620   3.051   1.975
    1C        O  755   4.594   3.046   1.852
    1C        O  756   4.735   2.977   2.002
    1C        C  757   4.450   4.227   1.967
    1C        O  758   4.558   4.283   1.998
    1C        O  759   4.411   4.227   1.832
    1C        C  760   3.600   4.680   1.963
    1C        O  761   3.616   4.796   2.010
    1C        O  762   3.614   4.682   1.824
    1C        C  763   2.895   4.481   1.928
    1C        O  764   2.931   4.426   1.821
    1C        O  765   2.929   4.616   1.927
    1C        C  766   2.325   3.480   1.989
    1C        O  767   2.332   3.454   1.866
    1C        O  768   2.190   3.489   2.024
    1C        C  769   4.704   3.593   5.045
    1C        O  770   4.687   3.583   5.170
    1C        O  771   4.833   3.625   5.000
    1C        C  772   4.272   4.457   5.046
    1C        O  773   4.280   4.420   5.166
    1C        O  774   4.376   4.545   5.014
    1C        C  775   4.157   2.495   5.030
    1C        O  776   4.208   2.397   4.969
    1C        O  777   4.211   2.506   5.159
    1C        C  778   2.905   4.530   5.070
    1C        O  779   2.840   4.638   5.061
    1C        O  780   2.967   4.520   5.196
    1C        C  781   2.493   3.050   5.096
    1C        O  782   2.372   3.014   5.092
    1C        O  783   2.541   3.049   5.227
    1C        C  784   2.428   3.990   5.065
    1C        O  785   2.316   4.046   5.051
    1C        O  786   2.448   3.941   5.194
    1C        C  787   2.947   2.426   2.004
    1C        O  788   2.921   2.454   1.884
    1C        O  789   2.882   2.315   2.058
    1C        C  790   3.180   2.358   5.033
    1C        O  791   3.130   2.258   4.975
    1C        O  792   3.213   2.332   5.167
    1C        H  793   4.281   3.019   5.064
    1C        H  794   4.136   2.830   5.060
    1C        H  795   4.533   3.126   5.037
    1C        H  796   4.463   3.384   5.054
    1C        H  797   4.598   3.816   5.029
    1C        H  798   4.413   3.972   5.058
    1C        H  799   4.301   4.181   5.050
    1C        H  800   4.061   4.574   5.003
    1C        H  801   3.817   4.576   5.041
    1C        H  802   3.580   4.609   5.042
    1C        H  803   3.396   4.510   5.051
    1C        H  804   3.164   4.433   5.035
    1C        H  805   3.888   2.469   5.061
    1C        H  806   3.676   2.405   5.054
    1C        H  807   3.003   2.559   5.069
    1C        H  808   3.440   2.479   5.077
    1C        H  809   2.903   2.765   5.080
    1C        H  810   2.676   2.863   5.069
    1C        H  811   2.476   3.292   5.067
    1C        H  812   2.532   3.508   5.079
    1C        H  813   2.485   3.727   5.069
    1C        H  814   2.642   4.142   5.059
    1C        H  815   2.739   4.348   5.047
    1C        H  816   2.688   2.862   1.976
    1C        H  817   2.830   2.674   1.984
    1C        H  818   3.214   2.480   1.982
    1C        H  819   3.426   2.410   1.978
    1C        H  820   3.879   2.474   1.988
    1C        H  821   4.046   2.641   1.969
    1C        H  822   4.290   2.689   1.998
    1C        H  823   4.416   2.877   1.972
    1C        H  824   4.571   3.312   1.965
    1C        H  825   4.515   3.517   1.960
    1C        H  826   4.531   3.754   1.960
    1C        H  827   3.790   4.484   1.946
    1C        H  828   3.978   4.395   1.946
    1C        H  829   4.157   4.251   1.948
    1C        H  830   4.484   3.961   1.956
    1C        H  831   2.691   3.832   1.994
    1C        H  832   2.713   4.062   1.959
    1C        H  833   2.715   4.294   1.972
    1C        H  834   3.383   4.434   1.959
    1C        H  835   3.160   4.378   1.965
    1C        H  836   2.535   3.014   1.982
    1C        H  837   2.476   3.245   1.975
    1C        H  838   2.479   3.686   1.972
    2V3OU   H29  839   2.804   3.548   1.945
    2V3OU   C27  840   2.787   3.501   2.046
    2V3OU   H27  841   2.732   3.572   2.113
    2V3OU   H28  842   2.736   3.402   2.045
    2V3OU   O11  843   2.913   3.490   2.113
    2V3OU   C15  844   2.925   3.399   2.215
    2V3OU   C13  845   3.050   3.379   2.277
    2V3OU   C14  846   3.076   3.272   2.364
    2V3OU   C16  847   2.971   3.191   2.404
    2V3OU    H6  848   2.993   3.108   2.473
    2V3OU   C12  849   3.212   3.230   2.403
    2V3OU    O2  850   3.230   3.131   2.476
    2V3OU   C10  851   3.327   3.311   2.357
    2V3OU    C8  852   3.457   3.269   2.379
    2V3OU   O10  853   3.485   3.148   2.435
    2V3OU   H26  854   3.394   3.112   2.440
    2V3OU    C6  855   3.566   3.345   2.325
    2V3OU    C5  856   3.537   3.468   2.267
    2V3OU    C4  857   3.703   3.289   2.314
    2V3OU    H4  858   3.724   3.225   2.405
    2V3OU    H5  859   3.706   3.230   2.218
    2V3OU    C2  860   3.817   3.391   2.319
    2V3OU    O6  861   3.809   3.471   2.437
    2V3OU   H21  862   3.766   3.555   2.412
    2V3OU    C3  863   3.781   3.494   2.212
    2V3OU    H2  864   3.862   3.571   2.209
    2V3OU    H3  865   3.780   3.440   2.113
    2V3OU   C25  866   3.955   3.327   2.300
    2V3OU    O7  867   4.000   3.295   2.190
    2V3OU   C26  868   4.036   3.291   2.423
    2V3OU   H22  869   4.079   3.380   2.475
    2V3OU   H23  870   4.121   3.225   2.393
    2V3OU    O8  871   3.963   3.209   2.512
    2V3OU   H24  872   3.915   3.270   2.571
    2V3OU    C1  873   3.646   3.563   2.229
    2V3OU    H1  874   3.622   3.621   2.135
    2V3OU    O3  875   3.659   3.659   2.335
    2V3OU   C19  876   3.621   3.796   2.326
    2V3OU    H9  877   3.525   3.809   2.267
    2V3OU    O4  878   3.714   3.853   2.237
    2V3OU   C20  879   3.846   3.883   2.284
    2V3OU   H10  880   3.890   3.780   2.293
    2V3OU   C24  881   3.614   3.855   2.467
    2V3OU   H16  882   3.546   3.794   2.531
    2V3OU   H17  883   3.565   3.954   2.453
    2V3OU   C23  884   3.754   3.872   2.527
    2V3OU   H15  885   3.797   3.769   2.547
    2V3OU    N1  886   3.744   3.948   2.650
    2V3OU   H19  887   3.808   3.920   2.721
    2V3OU   H20  888   3.650   3.931   2.681
    2V3OU   C21  889   3.848   3.944   2.424
    2V3OU   H11  890   3.954   3.929   2.460
    2V3OU    O5  891   3.828   4.085   2.428
    2V3OU   H18  892   3.783   4.109   2.511
    2V3OU   C22  893   3.916   3.954   2.169
    2V3OU   H12  894   3.858   4.046   2.143
    2V3OU   H13  895   3.912   3.889   2.078
    2V3OU   H14  896   4.027   3.956   2.187
    2V3OU   C11  897   3.160   3.475   2.259
    2V3OU    O1  898   3.130   3.592   2.225
    2V3OU    C9  899   3.297   3.422   2.274
    2V3OU    C7  900   3.402   3.504   2.235
    2V3OU    O9  901   3.380   3.619   2.161
    2V3OU   H25  902   3.285   3.635   2.158
    2V3OU   C17  903   2.822   3.314   2.262
    2V3OU    H7  904   2.721   3.351   2.246
    2V3OU   C18  905   2.842   3.216   2.358
    2V3OU    H8  906   2.767   3.174   2.427
    3SOL     OW  907   3.133   4.618   0.568
    3SOL    HW1  908   3.205   4.687   0.579
    3SOL    HW2  909   3.160   4.534   0.616
    4SOL     OW  910   6.702   6.064   1.548
    4SOL    HW1  911   6.786   6.080   1.496
    4SOL    HW2  912   6.626   6.109   1.502
    5SOL     OW  913   3.850   1.709   3.081
    5SOL    HW1  914   3.769   1.658   3.052
    5SOL    HW2  915   3.858   1.706   3.180
    6SOL     OW  916   4.386   1.502   1.373
    6SOL    HW1  917   4.351   1.428   1.430
    6SOL    HW2  918   4.483   1.515   1.392
    7SOL     OW  919   6.311   3.736   2.127
    7SOL    HW1  920   6.230   3.735   2.185
    7SOL    HW2  921   6.386   3.781   2.176
    8SOL     OW  922   2.757   6.956   6.134
    8SOL    HW1  923   2.714   0.000   6.193
    8SOL    HW2  924   2.814   7.002   6.066
    9SOL     OW  925   6.776   5.601   5.826
    9SOL    HW1  926   6.682   5.571   5.835
    9SOL    HW2  927   6.829   5.571   5.905
   10SOL     OW  928   0.762   4.837   6.002
   10SOL    HW1  929   0.681   4.778   6.001
   10SOL    HW2  930   0.740   4.925   5.959
   11SOL     OW  931   2.798   0.057   0.261
   11SOL    HW1  932   2.708   0.072   0.303
   11SOL    HW2  933   2.798   6.997   0.209
   12SOL     OW  934   3.774   6.213   4.277
   12SOL    HW1  935   3.770   6.297   4.332
   12SOL    HW2  936   3.707   6.148   4.310
   13SOL     OW  937   3.374   5.470   3.772
   13SOL    HW1  938   3.448   5.402   3.773
   13SOL    HW2  939   3.286   5.423   3.778
   14SOL     OW  940   4.966   5.769   6.414
   14SOL    HW1  941   4.997   5.709   6.488
   14SOL    HW2  942   5.045   5.804   6.364
   15SOL     OW  943   0.791   5.450   0.850
   15SOL    HW1  944   0.691   5.443   0.847
   15SOL    HW2  945   0.818   5.519   0.917
   16SOL     OW  946   5.501   3.164   5.422
   16SOL    HW1  947   5.554   3.237   5.466
   16SOL    HW2  948   5.534   3.150   5.329
   17SOL     OW  949   5.495   6.172   5.708
   17SOL    HW1  950   5.474   6.269   5.723
   17SOL    HW2  951   5.439   6.138   5.633
   18SOL     OW  952   3.472   1.191   5.906
   18SOL    HW1  953   3.394   1.188   5.844
   18SOL    HW2  954   3.467   1.114   5.970
   19SOL     OW  955   0.448   6.912   3.382
   19SOL    HW1  956   0.495   6.827   3.360
   19SOL    HW2  957   0.508   6.969   3.439
   20SOL     OW  958   4.925   2.279   4.414
   20SOL    HW1  959   5.023   2.296   4.410
   20SOL    HW2  960   4.902   2.239   4.503
   21SOL     OW  961   3.183   2.139   2.369
   21SOL    HW1  962   3.092   2.161   2.332
   21SOL    HW2  963   3.248   2.131   2.293
   22SOL     OW  964   2.344   6.757   0.244
   22SOL    HW1  965   2.423   6.818   0.250
   22SOL    HW2  966   2.322   6.739   0.148
   23SOL     OW  967   4.550   6.737   3.560
   23SOL    HW1  968   4.461   6.695   3.542
   23SOL    HW2  969   4.540   6.809   3.628
   24SOL     OW  970   5.225   1.221   2.905
   24SOL    HW1  971   5.319   1.255   2.896
   24SOL    HW2  972   5.187   1.252   2.993
   25SOL     OW  973   3.371   6.590   5.140
   25SOL    HW1  974   3.326   6.600   5.051
   25SOL    HW2  975   3.468   6.569   5.125
   26SOL     OW  976   6.331   1.247   0.631
   26SOL    HW1  977   6.429   1.269   0.630
   26SOL    HW2  978   6.286   1.295   0.555
   27SOL     OW  979   0.432   1.734   1.592
   27SOL    HW1  980   0.382   1.757   1.508
   27SOL    HW2  981   0.514   1.790   1.598
   28SOL     OW  982   3.642   1.579   6.996
   28SOL    HW1  983   3.605   1.539   6.912
   28SOL    HW2  984   3.662   1.507   0.037
   29SOL     OW  985   5.194   3.362   1.702
   29SOL    HW1  986   5.151   3.346   1.613
   29SOL    HW2  987   5.261   3.437   1.693
   30SOL     OW  988   3.775   0.765   4.543
   30SOL    HW1  989   3.851   0.702   4.526
   30SOL    HW2  990   3.690   0.713   4.555
   31SOL     OW  991   0.878   1.726   6.047
   31SOL    HW1  992   0.891   1.631   6.020
   31SOL    HW2  993   0.965   1.774   6.045
   32SOL     OW  994   0.232   1.530   3.049
   32SOL    HW1  995   0.181   1.467   2.991
   32SOL    HW2  996   0.286   1.592   2.992
   33SOL     OW  997   2.264   3.970   0.125
   33SOL    HW1  998   2.242   4.008   0.035
   33SOL    HW2  999   2.184   3.977   0.185
   34SOL     OW 1000   2.291   1.580   2.848
   34SOL    HW1 1001   2.306   1.676   2.825
   34SOL    HW2 1002   2.210   1.572   2.907
   35SOL     OW 1003   3.465   2.996   6.818
   35SOL    HW1 1004   3.409   2.938   6.759
   35SOL    HW2 1005   3.408   3.069   6.856
   36SOL     OW 1006   6.429   0.565   5.904
   36SOL    HW1 1007   6.526   0.578   5.925
   36SOL    HW2 1008   6.416   0.563   5.805
   37SOL     OW 1009   1.334   0.036   0.686
   37SOL    HW1 1010   1.321   0.003   0.780
   37SOL    HW2 1011   1.265   7.020   0.627
   38SOL     OW 1012   6.852   4.796   2.474
   38SOL    HW1 1013   6.824   4.709   2.433
   38SOL    HW2 1014   6.893   4.855   2.404
   39SOL     OW 1015   6.438   4.883   6.625
   39SOL    HW1 1016   6.529   4.861   6.660
   39SOL    HW2 1017   6.370   4.826   6.671
   40SOL     OW 1018   5.446   2.236   1.421
   40SOL    HW1 1019   5.415   2.183   1.341
   40SOL    HW2 1020   5.546   2.237   1.424
   41SOL     OW 1021   6.802   6.931   3.833
   41SOL    HW1 1022   6.830   6.924   3.928
   41SOL    HW2 1023   6.822   6.846   3.785
   42SOL     OW 1024   2.330   5.653   5.519
   42SOL    HW1 1025   2.309   5.635   5.423
   42SOL    HW2 1026   2.392   5.583   5.553
   43SOL     OW 1027   5.161   6.611   5.217
   43SOL    HW1 1028   5.227   6.684   5.235
   43SOL    HW2 1029   5.187   6.530   5.269
   44SOL     OW 1030   5.823   1.869   6.234
   44SOL    HW1 1031   5.904   1.848   6.289
   44SOL    HW2 1032   5.742   1.829   6.277
   45SOL     OW 1033   3.274   6.800   3.059
   45SOL    HW1 1034   3.322   6.818   2.974
   45SOL    HW2 1035   3.339   6.803   3.135
   46SOL     OW 1036   1.375   3.339   3.672
   46SOL    HW1 1037   1.459   3.386   3.702
   46SOL    HW2 1038   1.344   3.380   3.586
   47SOL     OW 1039   4.922   4.742   1.436
   47SOL    HW1 1040   5.004   4.784   1.398
   47SOL    HW2 1041   4.927   4.643   1.426
   48SOL     OW 1042   6.869   2.820   6.280
   48SOL    HW1 1043   6.869   2.761   6.361
   48SOL    HW2 1044   6.780   2.863   6.269
   49SOL     OW 1045   4.765   4.118   1.952
   49SOL    HW1 1046   4.670   4.102   1.981
   49SOL    HW2 1047   4.766   4.179   1.874
   50SOL     OW 1048   6.684   2.586   5.582
   50SOL    HW1 1049   6.593   2.616   5.552
   50SOL    HW2 1050   6.705   2.627   5.670
   51SOL     OW 1051   3.255   6.334   2.257
   51SOL    HW1 1052   3.185   6.264   2.272
   51SOL    HW2 1053   3.218   6.424   2.280
   52SOL     OW 1054   5.224   2.471   3.393
   52SOL    HW1 1055   5.261   2.541   3.332
   52SOL    HW2 1056   5.139   2.435   3.356
   53SOL     OW 1057   4.144   6.998   4.822
   53SOL    HW1 1058   4.074   0.005   4.758
   53SOL    HW2 1059   4.148   6.898   4.821
   54SOL     OW 1060   3.823   4.584   1.027
   54SOL    HW1 1061   3.724   4.580   1.010
   54SOL    HW2 1062   3.856   4.494   1.053
   55SOL     OW 1063   3.350   1.392   6.302
   55SOL    HW1 1064   3.406   1.386   6.219
   55SOL    HW2 1065   3.262   1.348   6.286
   56SOL     OW 1066   0.268   0.297   1.022
   56SOL    HW1 1067   0.324   0.230   1.070
   56SOL    HW2 1068   0.190   0.251   0.980
   57SOL     OW 1069   5.299   0.538   0.555
   57SOL    HW1 1070   5.223   0.513   0.494
   57SOL    HW2 1071   5.336   0.627   0.528
   58SOL     OW 1072   6.372   6.829   6.035
   58SOL    HW1 1073   6.317   6.746   6.021
   58SOL    HW2 1074   6.348   6.896   5.965
   59SOL     OW 1075   1.389   1.201   5.853
   59SOL    HW1 1076   1.481   1.220   5.885
   59SOL    HW2 1077   1.386   1.207   5.753
   60SOL     OW 1078   5.457   1.211   5.993
   60SOL    HW1 1079   5.361   1.189   6.013
   60SOL    HW2 1080   5.516   1.159   6.055
   61SOL     OW 1081   5.201   1.737   5.055
   61SOL    HW1 1082   5.222   1.822   5.103
   61SOL    HW2 1083   5.260   1.664   5.089
   62SOL     OW 1084   0.161   0.902   3.129
   62SOL    HW1 1085   0.070   0.861   3.132
   62SOL    HW2 1086   0.229   0.836   3.162
   63SOL     OW 1087   5.434   1.626   3.978
   63SOL    HW1 1088   5.482   1.690   4.039
   63SOL    HW2 1089   5.490   1.609   3.897
   64SOL     OW 1090   0.586   3.652   6.221
   64SOL    HW1 1091   0.663   3.639   6.159
   64SOL    HW2 1092   0.606   3.607   6.309
   65SOL     OW 1093   6.490   4.848   5.313
   65SOL    HW1 1094   6.391   4.838   5.324
   65SOL    HW2 1095   6.519   4.934   5.356
   66SOL     OW 1096   3.774   0.851   6.217
   66SOL    HW1 1097   3.752   0.932   6.163
   66SOL    HW2 1098   3.703   0.837   6.286
   67SOL     OW 1099   5.324   4.401   5.649
   67SOL    HW1 1100   5.385   4.448   5.585
   67SOL    HW2 1101   5.252   4.355   5.598
   68SOL     OW 1102   5.519   0.858   6.727
   68SOL    HW1 1103   5.477   0.867   6.818
   68SOL    HW2 1104   5.552   0.765   6.714
   69SOL     OW 1105   0.893   3.455   6.487
   69SOL    HW1 1106   0.898   3.531   6.423
   69SOL    HW2 1107   0.980   3.446   6.535
   70SOL     OW 1108   5.776   4.978   3.854
   70SOL    HW1 1109   5.856   4.970   3.913
   70SOL    HW2 1110   5.778   4.907   3.785
   71SOL     OW 1111   4.421   1.298   2.990
   71SOL    HW1 1112   4.424   1.200   3.010
   71SOL    HW2 1113   4.408   1.312   2.892
   72SOL     OW 1114   2.683   5.896   4.772
   72SOL    HW1 1115   2.779   5.888   4.800
   72SOL    HW2 1116   2.676   5.889   4.673
   73SOL     OW 1117   3.726   0.812   0.618
   73SOL    HW1 1118   3.752   0.816   0.714
   73SOL    HW2 1119   3.627   0.800   0.611
   74SOL     OW 1120   5.114   6.574   6.076
   74SOL    HW1 1121   5.190   6.599   6.137
   74SOL    HW2 1122   5.054   6.653   6.064
   75SOL     OW 1123   4.100   0.067   6.882
   75SOL    HW1 1124   4.106   0.116   6.969
   75SOL    HW2 1125   4.094   6.994   6.899
   76SOL     OW 1126   2.614   2.370   1.117
   76SOL    HW1 1127   2.554   2.347   1.040
   76SOL    HW2 1128   2.569   2.437   1.176
   77SOL     OW 1129   6.191   6.314   3.872
   77SOL    HW1 1130   6.092   6.299   3.875
   77SOL    HW2 1131   6.213   6.401   3.916
   78SOL     OW 1132   5.667   0.717   5.870
   78SOL    HW1 1133   5.601   0.792   5.867
   78SOL    HW2 1134   5.714   0.711   5.783
   79SOL     OW 1135   3.078   6.945   0.314
   79SOL    HW1 1136   2.989   6.987   0.294
   79SOL    HW2 1137   3.112   6.899   0.232
   80SOL     OW 1138   5.293   1.995   4.305
   80SOL    HW1 1139   5.378   2.019   4.258
   80SOL    HW2 1140   5.303   1.904   4.347
   81SOL     OW 1141   2.047   0.283   3.133
   81SOL    HW1 1142   2.100   0.199   3.126
   81SOL    HW2 1143   2.002   0.302   3.045
   82SOL     OW 1144   6.639   4.977   0.754
   82SOL    HW1 1145   6.623   5.039   0.677
   82SOL    HW2 1146   6.554   4.932   0.780
   83SOL     OW 1147   0.724   0.516   0.464
   83SOL    HW1 1148   0.632   0.544   0.437
   83SOL    HW2 1149   0.757   0.578   0.536
   84SOL     OW 1150   5.405   2.884   3.706
   84SOL    HW1 1151   5.440   2.828   3.631
   84SOL    HW2 1152   5.467   2.960   3.723
   85SOL     OW 1153   1.966   1.708   4.504
   85SOL    HW1 1154   1.973   1.689   4.602
   85SOL    HW2 1155   2.057   1.725   4.467
   86SOL     OW 1156   0.037   0.185   5.084
   86SOL    HW1 1157   0.063   0.108   5.142
   86SOL    HW2 1158   0.078   0.174   4.994
   87SOL     OW 1159   5.232   3.415   0.563
   87SOL    HW1 1160   5.172   3.451   0.634
   87SOL    HW2 1161   5.265   3.324   0.589
   88SOL     OW 1162   3.547   1.596   6.326
   88SOL    HW1 1163   3.546   1.499   6.350
   88SOL    HW2 1164   3.637   1.620   6.288
   89SOL     OW 1165   0.753   2.121   5.646
   89SOL    HW1 1166   0.823   2.082   5.586
   89SOL    HW2 1167   0.677   2.057   5.655
   90SOL     OW 1168   4.193   6.240   2.897
   90SOL    HW1 1169   4.230   6.208   2.810
   90SOL    HW2 1170   4.244   6.321   2.927
   91SOL     OW 1171   4.594   4.444   5.204
   91SOL    HW1 1172   4.592   4.344   5.212
   91SOL    HW2 1173   4.631   4.470   5.115
   92SOL     OW 1174   3.366   3.784   0.203
   92SOL    HW1 1175   3.428   3.861   0.191
   92SOL    HW2 1176   3.406   3.719   0.268
   93SOL     OW 1177   2.649   3.707   6.465
   93SOL    HW1 1178   2.620   3.630   6.522
   93SOL    HW2 1179   2.710   3.675   6.393
   94SOL     OW 1180   2.660   6.098   6.037
   94SOL    HW1 1181   2.568   6.059   6.036
   94SOL    HW2 1182   2.707   6.076   5.952
   95SOL     OW 1183   1.280   0.573   3.006
   95SOL    HW1 1184   1.194   0.622   2.992
   95SOL    HW2 1185   1.261   0.475   3.011
   96SOL     OW 1186   3.499   0.275   4.696
   96SOL    HW1 1187   3.581   0.298   4.749
   96SOL    HW2 1188   3.463   0.357   4.652
   97SOL     OW 1189   2.036   3.276   6.078
   97SOL    HW1 1190   2.106   3.205   6.081
   97SOL    HW2 1191   1.970   3.256   6.006
   98SOL     OW 1192   6.637   3.910   0.766
   98SOL    HW1 1193   6.657   4.000   0.728
   98SOL    HW2 1194   6.715   3.878   0.820
   99SOL     OW 1195   4.454   3.572   1.118
   99SOL    HW1 1196   4.394   3.570   1.198
   99SOL    HW2 1197   4.474   3.478   1.089
  100SOL     OW 1198   0.120   0.157   4.833
  100SOL    HW1 1199   0.126   0.231   4.766
  100SOL    HW2 1200   0.177   0.080   4.804
  101SOL     OW 1201   1.572   5.435   1.966
  101SOL    HW1 1202   1.631   5.376   1.912
  101SOL    HW2 1203   1.602   5.433   2.062
  102SOL     OW 1204   4.217   0.065   2.621
  102SOL    HW1 1205   4.259   0.097   2.706
  102SOL    HW2 1206   4.147   7.021   2.642
  103SOL     OW 1207   3.090   1.117   2.099
  103SOL    HW1 1208   3.094   1.132   2.000
  103SOL    HW2 1209   3.035   1.036   2.119
  104SOL     OW 1210   0.272   5.182   2.687
  104SOL    HW1 1211   0.230   5.097   2.657
  104SOL    HW2 1212   0.294   5.176   2.784
  105SOL     OW 1213   6.655   2.790   7.005
  105SOL    HW1 1214   6.590   2.782   0.056
  105SOL    HW2 1215   6.605   2.804   6.919
  106SOL     OW 1216   3.967   5.848   4.709
  106SOL    HW1 1217   4.006   5.881   4.795
  106SOL    HW2 1218   3.975   5.919   4.639
  107SOL     OW 1219   2.219   1.466   1.995
  107SOL    HW1 1220   2.263   1.386   2.035
  107SOL    HW2 1221   2.156   1.436   1.923
  108SOL     OW 1222   3.762   5.274   5.872
  108SOL    HW1 1223   3.754   5.174   5.871
  108SOL    HW2 1224   3.746   5.310   5.780
  109SOL     OW 1225   0.099   0.785   1.177
  109SOL    HW1 1226   0.128   0.768   1.271
  109SOL    HW2 1227   0.121   0.706   1.120
  110SOL     OW 1228   3.414   5.951   5.639
  110SOL    HW1 1229   3.317   5.948   5.614
  110SOL    HW2 1230   3.451   6.041   5.616
  111SOL     OW 1231   3.036   1.233   4.172
  111SOL    HW1 1232   2.985   1.193   4.248
  111SOL    HW2 1233   3.011   1.187   4.087
  112SOL     OW 1234   4.676   6.928   6.082
  112SOL    HW1 1235   4.727   6.948   5.998
  112SOL    HW2 1236   4.615   6.851   6.066
  113SOL     OW 1237   6.186   5.715   3.083
  113SOL    HW1 1238   6.169   5.813   3.095
  113SOL    HW2 1239   6.213   5.674   3.170
  114SOL     OW 1240   0.791   0.686   0.942
  114SOL    HW1 1241   0.828   0.605   0.989
  114SOL    HW2 1242   0.855   0.762   0.953
  115SOL     OW 1243   4.019   1.310   3.531
  115SOL    HW1 1244   3.960   1.352   3.462
  115SOL    HW2 1245   4.115   1.325   3.507
  116SOL     OW 1246   5.848   4.896   1.575
  116SOL    HW1 1247   5.867   4.969   1.640
  116SOL    HW2 1248   5.874   4.925   1.483
  117SOL     OW 1249   1.221   1.553   0.609
  117SOL    HW1 1250   1.146   1.564   0.674
  117SOL    HW2 1251   1.306   1.535   0.660
  118SOL     OW 1252   1.955   1.028   3.157
  118SOL    HW1 1253   1.974   0.949   3.216
  118SOL    HW2 1254   1.859   1.054   3.167
  119SOL     OW 1255   0.581   1.045   6.747
  119SOL    HW1 1256   0.625   1.015   6.832
  119SOL    HW2 1257   0.551   0.965   6.696
  120SOL     OW 1258   6.610   6.897   0.324
  120SOL    HW1 1259   6.683   6.965   0.320
  120SOL    HW2 1260   6.566   6.889   0.235
  121SOL     OW 1261   2.413   3.484   6.321
  121SOL    HW1 1262   2.497   3.440   6.288
  121SOL    HW2 1263   2.335   3.452   6.267
  122SOL     OW 1264   1.852   4.605   6.198
  122SOL    HW1 1265   1.927   4.580   6.259
  122SOL    HW2 1266   1.851   4.542   6.120
  123SOL     OW 1267   7.020   1.429   1.822
  123SOL    HW1 1268   6.935   1.470   1.855
  123SOL    HW2 1269   0.042   1.385   1.899
  124SOL     OW 1270   5.011   3.108   0.657
  124SOL    HW1 1271   4.951   3.029   0.667
  124SOL    HW2 1272   4.987   3.158   0.574
  125SOL     OW 1273   3.370   1.845   1.535
  125SOL    HW1 1274   3.299   1.896   1.584
  125SOL    HW2 1275   3.458   1.859   1.580
  126SOL     OW 1276   2.635   3.572   1.144
  126SOL    HW1 1277   2.583   3.551   1.227
  126SOL    HW2 1278   2.614   3.504   1.074
  127SOL     OW 1279   0.834   5.195   6.547
  127SOL    HW1 1280   0.785   5.134   6.485
  127SOL    HW2 1281   0.769   5.247   6.602
  128SOL     OW 1282   4.909   2.941   1.406
  128SOL    HW1 1283   4.844   2.878   1.448
  128SOL    HW2 1284   4.918   2.919   1.308
  129SOL     OW 1285   2.368   2.722   6.066
  129SOL    HW1 1286   2.344   2.755   5.974
  129SOL    HW2 1287   2.376   2.799   6.128
  130SOL     OW 1288   0.746   1.569   4.013
  130SOL    HW1 1289   0.686   1.495   3.982
  130SOL    HW2 1290   0.737   1.648   3.952
  131SOL     OW 1291   5.177   2.117   3.644
  131SOL    HW1 1292   5.176   2.159   3.735
  131SOL    HW2 1293   5.235   2.171   3.583
  132SOL     OW 1294   2.301   2.119   1.294
  132SOL    HW1 1295   2.271   2.064   1.372
  132SOL    HW2 1296   2.257   2.208   1.297
  133SOL     OW 1297   4.860   6.343   4.425
  133SOL    HW1 1298   4.854   6.265   4.487
  133SOL    HW2 1299   4.820   6.423   4.469
  134SOL     OW 1300   6.734   1.864   2.360
  134SOL    HW1 1301   6.665   1.875   2.288
  134SOL    HW2 1302   6.706   1.791   2.422
  135SOL     OW 1303   5.885   3.718   3.365
  135SOL    HW1 1304   5.944   3.719   3.445
  135SOL    HW2 1305   5.914   3.644   3.304
  136SOL     OW 1306   3.469   3.687   5.974
  136SOL    HW1 1307   3.395   3.705   6.039
  136SOL    HW2 1308   3.431   3.678   5.882
  137SOL     OW 1309   5.552   1.491   4.587
  137SOL    HW1 1310   5.458   1.524   4.573
  137SOL    HW2 1311   5.556   1.393   4.571
  138SOL     OW 1312   0.886   4.422   3.346
  138SOL    HW1 1313   0.899   4.521   3.340
  138SOL    HW2 1314   0.855   4.386   3.258
  139SOL     OW 1315   2.164   6.887   4.786
  139SOL    HW1 1316   2.200   6.825   4.856
  139SOL    HW2 1317   2.102   6.837   4.726
  140SOL     OW 1318   0.642   5.645   2.618
  140SOL    HW1 1319   0.560   5.618   2.668
  140SOL    HW2 1320   0.721   5.596   2.656
  141SOL     OW 1321   6.411   3.336   5.156
  141SOL    HW1 1322   6.491   3.376   5.199
  141SOL    HW2 1323   6.330   3.354   5.211
  142SOL     OW 1324   1.884   4.118   0.449
  142SOL    HW1 1325   1.818   4.190   0.472
  142SOL    HW2 1326   1.976   4.150   0.470
  143SOL     OW 1327   5.669   4.548   0.960
  143SOL    HW1 1328   5.731   4.623   0.939
  143SOL    HW2 1329   5.592   4.581   1.013
  144SOL     OW 1330   1.214   6.026   5.960
  144SOL    HW1 1331   1.280   6.028   6.035
  144SOL    HW2 1332   1.162   5.940   5.964
  145SOL     OW 1333   0.012   5.769   0.206
  145SOL    HW1 1334   6.997   5.845   0.257
  145SOL    HW2 1335   6.985   5.755   0.122
  146SOL     OW 1336   4.802   0.523   6.406
  146SOL    HW1 1337   4.741   0.466   6.351
  146SOL    HW2 1338   4.791   0.618   6.380
  147SOL     OW 1339   6.367   3.924   6.946
  147SOL    HW1 1340   6.275   3.887   6.957
  147SOL    HW2 1341   6.383   3.993   7.017
  148SOL     OW 1342   0.246   5.446   6.312
  148SOL    HW1 1343   0.156   5.491   6.304
  148SOL    HW2 1344   0.245   5.383   6.389
  149SOL     OW 1345   2.951   1.792   4.295
  149SOL    HW1 1346   3.026   1.730   4.318
  149SOL    HW2 1347   2.960   1.876   4.349
  150SOL     OW 1348   5.473   6.106   6.813
  150SOL    HW1 1349   5.502   6.044   6.740
  150SOL    HW2 1350   5.443   6.053   6.892
  151SOL     OW 1351   2.976   2.390   0.910
  151SOL    HW1 1352   2.936   2.315   0.962
  151SOL    HW2 1353   2.915   2.414   0.834
  152SOL     OW 1354   1.158   0.899   2.953
  152SOL    HW1 1355   1.171   0.891   3.052
  152SOL    HW2 1356   1.236   0.948   2.913
  153SOL     OW 1357   2.878   0.683   1.636
  153SOL    HW1 1358   2.825   0.644   1.711
  153SOL    HW2 1359   2.909   0.775   1.661
  154SOL     OW 1360   0.798   1.838   2.711
  154SOL    HW1 1361   0.699   1.837   2.700
  154SOL    HW2 1362   0.824   1.783   2.791
  155SOL     OW 1363   6.662   1.775   2.864
  155SOL    HW1 1364   6.671   1.840   2.789
  155SOL    HW2 1365   6.565   1.767   2.889
  156SOL     OW 1366   0.755   2.010   0.883
  156SOL    HW1 1367   0.692   2.062   0.825
  156SOL    HW2 1368   0.775   2.061   0.966
  157SOL     OW 1369   5.923   3.223   1.171
  157SOL    HW1 1370   5.929   3.188   1.077
  157SOL    HW2 1371   5.828   3.250   1.190
  158SOL     OW 1372   2.038   5.918   2.468
  158SOL    HW1 1373   2.073   5.995   2.415
  158SOL    HW2 1374   2.027   5.839   2.407
  159SOL     OW 1375   4.287   4.656   2.078
  159SOL    HW1 1376   4.307   4.587   2.008
  159SOL    HW2 1377   4.369   4.711   2.095
  160SOL     OW 1378   6.061   5.330   0.064
  160SOL    HW1 1379   5.972   5.332   0.019
  160SOL    HW2 1380   6.066   5.251   0.126
  161SOL     OW 1381   1.746   5.773   4.274
  161SOL    HW1 1382   1.695   5.726   4.202
  161SOL    HW2 1383   1.843   5.747   4.268
  162SOL     OW 1384   3.841   6.218   6.958
  162SOL    HW1 1385   3.931   6.219   6.914
  162SOL    HW2 1386   3.825   6.128   6.999
  163SOL     OW 1387   5.295   5.664   0.709
  163SOL    HW1 1388   5.393   5.644   0.703
  163SOL    HW2 1389   5.255   5.658   0.617
  164SOL     OW 1390   6.308   4.402   0.009
  164SOL    HW1 1391   6.230   4.394   6.971
  164SOL    HW2 1392   6.376   4.464   6.994
  165SOL     OW 1393   5.389   3.115   1.361
  165SOL    HW1 1394   5.334   3.103   1.444
  165SOL    HW2 1395   5.485   3.095   1.382
  166SOL     OW 1396   7.009   4.979   3.310
  166SOL    HW1 1397   6.940   5.046   3.336
  166SOL    HW2 1398   0.070   5.025   3.290
  167SOL     OW 1399   5.375   2.920   0.102
  167SOL    HW1 1400   5.307   2.939   0.173
  167SOL    HW2 1401   5.393   2.821   0.100
  168SOL     OW 1402   2.558   3.060   1.386
  168SOL    HW1 1403   2.527   3.068   1.291
  168SOL    HW2 1404   2.595   2.969   1.402
  169SOL     OW 1405   4.867   0.903   1.828
  169SOL    HW1 1406   4.855   0.810   1.861
  169SOL    HW2 1407   4.873   0.965   1.906
  170SOL     OW 1408   1.023   1.103   3.644
  170SOL    HW1 1409   1.059   1.123   3.735
  170SOL    HW2 1410   1.034   1.005   3.624
  171SOL     OW 1411   3.994   4.578   6.971
  171SOL    HW1 1412   3.933   4.595   6.894
  171SOL    HW2 1413   4.004   4.662   0.001
  172SOL     OW 1414   5.975   1.705   3.931
  172SOL    HW1 1415   6.008   1.613   3.951
  172SOL    HW2 1416   6.052   1.768   3.928
  173SOL     OW 1417   0.029   1.964   4.650
  173SOL    HW1 1418   7.010   2.054   4.658
  173SOL    HW2 1419   0.052   1.947   4.554
  174SOL     OW 1420   3.104   5.487   4.054
  174SOL    HW1 1421   3.052   5.570   4.074
  174SOL    HW2 1422   3.093   5.464   3.957
  175SOL     OW 1423   2.324   0.061   1.815
  175SOL    HW1 1424   2.403   0.121   1.802
  175SOL    HW2 1425   2.257   0.080   1.743
  176SOL     OW 1426   1.098   4.489   0.928
  176SOL    HW1 1427   1.102   4.504   1.027
  176SOL    HW2 1428   1.177   4.531   0.885
  177SOL     OW 1429   5.848   3.460   2.195
  177SOL    HW1 1430   5.917   3.433   2.127
  177SOL    HW2 1431   5.851   3.396   2.272
  178SOL     OW 1432   2.784   2.425   6.728
  178SOL    HW1 1433   2.836   2.393   6.806
  178SOL    HW2 1434   2.690   2.390   6.734
  179SOL     OW 1435   2.642   1.556   6.251
  179SOL    HW1 1436   2.573   1.569   6.180
  179SOL    HW2 1437   2.602   1.504   6.327
  180SOL     OW 1438   1.482   6.532   0.064
  180SOL    HW1 1439   1.561   6.579   0.104
  180SOL    HW2 1440   1.473   6.559   6.993
  181SOL     OW 1441   3.172   2.596   6.215
  181SOL    HW1 1442   3.136   2.585   6.307
  181SOL    HW2 1443   3.148   2.515   6.160
  182SOL     OW 1444   3.364   1.374   3.889
  182SOL    HW1 1445   3.414   1.450   3.847
  182SOL    HW2 1446   3.368   1.383   3.988
  183SOL     OW 1447   3.492   1.929   3.469
  183SOL    HW1 1448   3.526   1.991   3.540
  183SOL    HW2 1449   3.488   1.978   3.382
  184SOL     OW 1450   2.213   6.199   4.305
  184SOL    HW1 1451   2.228   6.171   4.210
  184SOL    HW2 1452   2.139   6.267   4.308
  185SOL     OW 1453   0.062   1.530   6.434
  185SOL    HW1 1454   6.996   1.540   6.393
  185SOL    HW2 1455   0.068   1.442   6.482
  186SOL     OW 1456   5.646   1.000   4.150
  186SOL    HW1 1457   5.681   1.094   4.151
  186SOL    HW2 1458   5.554   0.999   4.111
  187SOL     OW 1459   4.251   0.397   3.254
  187SOL    HW1 1460   4.323   0.368   3.317
  187SOL    HW2 1461   4.287   0.399   3.161
  188SOL     OW 1462   6.999   1.690   2.725
  188SOL    HW1 1463   6.981   1.596   2.754
  188SOL    HW2 1464   6.915   1.733   2.693
  189SOL     OW 1465   2.361   5.477   1.483
  189SOL    HW1 1466   2.347   5.524   1.570
  189SOL    HW2 1467   2.445   5.423   1.486
  190SOL     OW 1468   4.946   1.765   4.765
  190SOL    HW1 1469   4.943   1.783   4.666
  190SOL    HW2 1470   4.997   1.839   4.810
  191SOL     OW 1471   5.643   6.314   6.745
  191SOL    HW1 1472   5.607   6.348   6.658
  191SOL    HW2 1473   5.584   6.241   6.779
  192SOL     OW 1474   0.512   5.567   1.945
  192SOL    HW1 1475   0.593   5.608   1.988
  192SOL    HW2 1476   0.438   5.634   1.944
  193SOL     OW 1477   4.653   2.948   5.511
  193SOL    HW1 1478   4.708   3.029   5.495
  193SOL    HW2 1479   4.617   2.950   5.605
  194SOL     OW 1480   3.995   0.771   2.867
  194SOL    HW1 1481   3.934   0.699   2.900
  194SOL    HW2 1482   3.941   0.852   2.843
  195SOL     OW 1483   1.875   0.351   4.890
  195SOL    HW1 1484   1.912   0.435   4.849
  195SOL    HW2 1485   1.895   0.273   4.831
  196SOL     OW 1486   2.652   0.475   0.424
  196SOL    HW1 1487   2.621   0.454   0.516
  196SOL    HW2 1488   2.752   0.474   0.420
  197SOL     OW 1489   2.925   0.451   1.007
  197SOL    HW1 1490   3.015   0.433   1.046
  197SOL    HW2 1491   2.901   0.379   0.942
  198SOL     OW 1492   4.750   0.802   2.946
  198SOL    HW1 1493   4.782   0.819   3.039
  198SOL    HW2 1494   4.744   0.703   2.930
  199SOL     OW 1495   0.215   2.514   3.907
  199SOL    HW1 1496   0.212   2.473   3.816
  199SOL    HW2 1497   0.310   2.521   3.937
  200SOL     OW 1498   1.600   3.639   0.878
  200SOL    HW1 1499   1.556   3.724   0.906
  200SOL    HW2 1500   1.608   3.578   0.956
  201SOL     OW 1501   6.961   0.071   6.411
  201SOL    HW1 1502   6.874   0.070   6.460
  201SOL    HW2 1503   0.008   0.031   6.469
  202SOL     OW 1504   3.703   1.321   0.119
  202SOL    HW1 1505   3.761   1.317   0.200
  202SOL    HW2 1506   3.608   1.304   0.144
  203SOL     OW 1507   6.113   2.433   5.444
  203SOL    HW1 1508   6.036   2.450   5.382
  203SOL    HW2 1509   6.088   2.360   5.509
  204SOL     OW 1510   1.087   0.067   4.706
  204SOL    HW1 1511   1.070   0.164   4.696
  204SOL    HW2 1512   1.106   0.026   4.617
  205SOL     OW 1513   0.722   2.564   2.849
  205SOL    HW1 1514   0.646   2.519   2.801
  205SOL    HW2 1515   0.686   2.622   2.922
  206SOL     OW 1516   0.354   4.348   0.943
  206SOL    HW1 1517   0.305   4.348   0.856
  206SOL    HW2 1518   0.440   4.298   0.932
  207SOL     OW 1519   6.501   1.916   3.793
  207SOL    HW1 1520   6.517   1.909   3.891
  207SOL    HW2 1521   6.532   1.832   3.748
  208SOL     OW 1522   6.707   4.323   5.560
  208SOL    HW1 1523   6.783   4.377   5.594
  208SOL    HW2 1524   6.724   4.297   5.465
  209SOL     OW 1525   0.326   5.401   4.037
  209SOL    HW1 1526   0.328   5.452   4.123
  209SOL    HW2 1527   0.244   5.345   4.032
  210SOL     OW 1528   4.530   1.453   0.610
  210SOL    HW1 1529   4.568   1.365   0.582
  210SOL    HW2 1530   4.431   1.447   0.614
  211SOL     OW 1531   1.422   6.496   2.117
  211SOL    HW1 1532   1.412   6.425   2.186
  211SOL    HW2 1533   1.473   6.573   2.155
  212SOL     OW 1534   1.384   3.606   1.596
  212SOL    HW1 1535   1.411   3.701   1.608
  212SOL    HW2 1536   1.336   3.574   1.678
  213SOL     OW 1537   2.942   6.751   0.658
  213SOL    HW1 1538   2.873   6.679   0.647
  213SOL    HW2 1539   2.974   6.751   0.753
  214SOL     OW 1540   3.787   5.452   2.664
  214SOL    HW1 1541   3.855   5.411   2.603
  214SOL    HW2 1542   3.728   5.381   2.700
  215SOL     OW 1543   2.935   3.706   0.510
  215SOL    HW1 1544   2.870   3.637   0.480
  215SOL    HW2 1545   3.025   3.688   0.470
  216SOL     OW 1546   0.904   5.682   3.170
  216SOL    HW1 1547   0.955   5.763   3.200
  216SOL    HW2 1548   0.807   5.695   3.189
  217SOL     OW 1549   1.358   2.665   4.108
  217SOL    HW1 1550   1.271   2.651   4.060
  217SOL    HW2 1551   1.388   2.578   4.147
  218SOL     OW 1552   0.938   3.155   4.349
  218SOL    HW1 1553   0.974   3.062   4.354
  218SOL    HW2 1554   0.863   3.159   4.283
  219SOL     OW 1555   4.316   0.413   0.255
  219SOL    HW1 1556   4.330   0.316   0.239
  219SOL    HW2 1557   4.300   0.460   0.168
  220SOL     OW 1558   2.797   0.005   1.650
  220SOL    HW1 1559   2.820   0.092   1.695
  220SOL    HW2 1560   2.701   7.008   1.667
  221SOL     OW 1561   5.690   4.273   0.955
  221SOL    HW1 1562   5.707   4.370   0.972
  221SOL    HW2 1563   5.593   4.260   0.932
  222SOL     OW 1564   1.070   4.629   5.552
  222SOL    HW1 1565   1.047   4.688   5.628
  222SOL    HW2 1566   1.169   4.632   5.536
  223SOL     OW 1567   6.740   3.183   6.177
  223SOL    HW1 1568   6.661   3.241   6.159
  223SOL    HW2 1569   6.788   3.217   6.258
  224SOL     OW 1570   2.809   1.996   5.886
  224SOL    HW1 1571   2.752   2.078   5.900
  224SOL    HW2 1572   2.799   1.935   5.964
  225SOL     OW 1573   5.197   3.834   6.592
  225SOL    HW1 1574   5.224   3.927   6.567
  225SOL    HW2 1575   5.097   3.827   6.594
  226SOL     OW 1576   0.921   1.354   5.728
  226SOL    HW1 1577   0.990   1.306   5.674
  226SOL    HW2 1578   0.859   1.403   5.667
  227SOL     OW 1579   0.560   4.256   1.917
  227SOL    HW1 1580   0.555   4.312   1.999
  227SOL    HW2 1581   0.513   4.169   1.932
  228SOL     OW 1582   2.459   0.244   3.189
  228SOL    HW1 1583   2.367   0.210   3.212
  228SOL    HW2 1584   2.479   0.225   3.093
  229SOL     OW 1585   6.145   6.156   6.023
  229SOL    HW1 1586   6.120   6.118   5.934
  229SOL    HW2 1587   6.180   6.083   6.082
  230SOL     OW 1588   3.500   4.953   3.660
  230SOL    HW1 1589   3.600   4.959   3.655
  230SOL    HW2 1590   3.465   4.922   3.572
  231SOL     OW 1591   6.165   1.679   6.909
  231SOL    HW1 1592   6.253   1.636   6.887
  231SOL    HW2 1593   6.109   1.682   6.827
  232SOL     OW 1594   0.322   3.457   6.623
  232SOL    HW1 1595   0.386   3.517   6.671
  232SOL    HW2 1596   0.249   3.512   6.582
  233SOL     OW 1597   3.288   1.079   3.127
  233SOL    HW1 1598   3.377   1.099   3.088
  233SOL    HW2 1599   3.293   0.996   3.182
  234SOL     OW 1600   5.262   1.032   6.314
  234SOL    HW1 1601   5.319   1.110   6.340
  234SOL    HW2 1602   5.166   1.052   6.336
  235SOL     OW 1603   4.824   2.668   2.005
  235SOL    HW1 1604   4.841   2.747   1.945
  235SOL    HW2 1605   4.897   2.661   2.073
  236SOL     OW 1606   5.787   2.585   6.742
  236SOL    HW1 1607   5.870   2.632   6.771
  236SOL    HW2 1608   5.723   2.579   6.819
  237SOL     OW 1609   6.970   4.659   2.164
  237SOL    HW1 1610   6.884   4.636   2.209
  237SOL    HW2 1611   6.955   4.732   2.097
  238SOL     OW 1612   5.307   1.185   0.606
  238SOL    HW1 1613   5.315   1.114   0.536
  238SOL    HW2 1614   5.211   1.210   0.617
  239SOL     OW 1615   1.063   4.397   6.427
  239SOL    HW1 1616   0.990   4.329   6.429
  239SOL    HW2 1617   1.023   4.489   6.436
  240SOL     OW 1618   6.772   2.960   3.125
  240SOL    HW1 1619   6.803   3.054   3.111
  240SOL    HW2 1620   6.685   2.960   3.173
  241SOL     OW 1621   2.878   2.145   5.002
  241SOL    HW1 1622   2.969   2.186   4.999
  241SOL    HW2 1623   2.811   2.215   5.025
  242SOL     OW 1624   3.380   4.147   4.400
  242SOL    HW1 1625   3.382   4.147   4.300
  242SOL    HW2 1626   3.472   4.166   4.435
  243SOL     OW 1627   4.549   0.896   6.617
  243SOL    HW1 1628   4.484   0.966   6.646
  243SOL    HW2 1629   4.548   0.820   6.683
  244SOL     OW 1630   6.663   3.585   5.499
  244SOL    HW1 1631   6.712   3.631   5.574
  244SOL    HW2 1632   6.688   3.488   5.498
  245SOL     OW 1633   5.101   2.471   3.947
  245SOL    HW1 1634   5.199   2.479   3.925
  245SOL    HW2 1635   5.090   2.449   4.043
  246SOL     OW 1636   5.097   2.278   3.207
  246SOL    HW1 1637   5.035   2.255   3.281
  246SOL    HW2 1638   5.055   2.347   3.148
  247SOL     OW 1639   2.610   1.444   0.297
  247SOL    HW1 1640   2.669   1.522   0.277
  247SOL    HW2 1641   2.565   1.415   0.213
  248SOL     OW 1642   3.828   1.372   2.852
  248SOL    HW1 1643   3.883   1.302   2.898
  248SOL    HW2 1644   3.797   1.337   2.764
  249SOL     OW 1645   4.731   0.569   4.879
  249SOL    HW1 1646   4.696   0.623   4.956
  249SOL    HW2 1647   4.797   0.502   4.912
  250SOL     OW 1648   5.184   3.492   0.313
  250SOL    HW1 1649   5.200   3.431   0.390
  250SOL    HW2 1650   5.198   3.443   0.228
  251SOL     OW 1651   4.906   3.477   5.493
  251SOL    HW1 1652   5.005   3.476   5.480
  251SOL    HW2 1653   4.885   3.456   5.588
  252SOL     OW 1654   6.787   6.167   5.227
  252SOL    HW1 1655   6.819   6.113   5.305
  252SOL    HW2 1656   6.838   6.252   5.222
  253SOL     OW 1657   2.865   5.224   6.099
  253SOL    HW1 1658   2.884   5.136   6.055
  253SOL    HW2 1659   2.951   5.271   6.119
  254SOL     OW 1660   6.028   2.121   3.830
  254SOL    HW1 1661   6.014   2.208   3.876
  254SOL    HW2 1662   6.044   2.137   3.732
  255SOL     OW 1663   1.452   4.654   5.386
  255SOL    HW1 1664   1.439   4.720   5.312
  255SOL    HW2 1665   1.436   4.697   5.474
  256SOL     OW 1666   6.253   3.965   6.333
  256SOL    HW1 1667   6.188   4.034   6.365
  256SOL    HW2 1668   6.337   3.970   6.387
  257SOL     OW 1669   4.944   0.335   3.722
  257SOL    HW1 1670   4.884   0.277   3.777
  257SOL    HW2 1671   4.976   0.412   3.777
  258SOL     OW 1672   2.429   5.021   4.953
  258SOL    HW1 1673   2.362   5.089   4.922
  258SOL    HW2 1674   2.505   5.016   4.888
  259SOL     OW 1675   6.462   2.236   2.968
  259SOL    HW1 1676   6.453   2.323   2.919
  259SOL    HW2 1677   6.469   2.161   2.902
  260SOL     OW 1678   4.151   6.823   1.863
  260SOL    HW1 1679   4.124   6.894   1.927
  260SOL    HW2 1680   4.071   6.767   1.840
  261SOL     OW 1681   6.813   3.235   0.411
  261SOL    HW1 1682   6.726   3.274   0.383
  261SOL    HW2 1683   6.825   3.146   0.368
  262SOL     OW 1684   0.736   3.514   7.011
  262SOL    HW1 1685   0.737   3.483   6.916
  262SOL    HW2 1686   0.672   3.458   0.039
  263SOL     OW 1687   2.219   0.821   4.595
  263SOL    HW1 1688   2.166   0.849   4.515
  263SOL    HW2 1689   2.284   0.893   4.618
  264SOL     OW 1690   5.736   2.902   6.862
  264SOL    HW1 1691   5.714   2.957   6.943
  264SOL    HW2 1692   5.750   2.963   6.784
  265SOL     OW 1693   5.631   6.494   2.844
  265SOL    HW1 1694   5.586   6.584   2.841
  265SOL    HW2 1695   5.565   6.423   2.819
  266SOL     OW 1696   3.308   2.695   5.874
  266SOL    HW1 1697   3.351   2.771   5.824
  266SOL    HW2 1698   3.380   2.636   5.911
  267SOL     OW 1699   0.538   1.152   6.322
  267SOL    HW1 1700   0.462   1.199   6.367
  267SOL    HW2 1701   0.561   1.200   6.238
  268SOL     OW 1702   3.767   1.332   6.271
  268SOL    HW1 1703   3.860   1.322   6.234
  268SOL    HW2 1704   3.773   1.354   6.368
  269SOL     OW 1705   1.605   3.459   1.516
  269SOL    HW1 1706   1.537   3.519   1.558
  269SOL    HW2 1707   1.568   3.367   1.508
  270SOL     OW 1708   1.087   6.231   0.669
  270SOL    HW1 1709   1.064   6.248   0.765
  270SOL    HW2 1710   1.186   6.220   0.659
  271SOL     OW 1711   0.004   2.052   0.006
  271SOL    HW1 1712   6.977   2.069   0.090
  271SOL    HW2 1713   6.986   1.976   6.982
  272SOL     OW 1714   3.607   5.311   3.797
  272SOL    HW1 1715   3.549   5.260   3.733
  272SOL    HW2 1716   3.630   5.252   3.875
  273SOL     OW 1717   2.501   4.493   4.358
  273SOL    HW1 1718   2.491   4.441   4.443
  273SOL    HW2 1719   2.449   4.449   4.286
  274SOL     OW 1720   3.812   1.658   3.363
  274SOL    HW1 1721   3.849   1.573   3.326
  274SOL    HW2 1722   3.886   1.726   3.371
  275SOL     OW 1723   6.405   5.222   3.662
  275SOL    HW1 1724   6.419   5.151   3.594
  275SOL    HW2 1725   6.425   5.311   3.622
  276SOL     OW 1726   6.422   6.547   2.466
  276SOL    HW1 1727   6.507   6.568   2.515
  276SOL    HW2 1728   6.367   6.485   2.522
  277SOL     OW 1729   1.833   4.423   0.436
  277SOL    HW1 1730   1.914   4.481   0.441
  277SOL    HW2 1731   1.835   4.370   0.351
  278SOL     OW 1732   0.224   4.772   2.240
  278SOL    HW1 1733   0.160   4.715   2.290
  278SOL    HW2 1734   0.230   4.862   2.283
  279SOL     OW 1735   5.676   3.382   4.570
  279SOL    HW1 1736   5.601   3.365   4.505
  279SOL    HW2 1737   5.639   3.409   4.658
  280SOL     OW 1738   2.889   6.740   3.335
  280SOL    HW1 1739   2.936   6.724   3.248
  280SOL    HW2 1740   2.930   6.819   3.381
  281SOL     OW 1741   2.689   4.165   1.636
  281SOL    HW1 1742   2.724   4.073   1.654
  281SOL    HW2 1743   2.646   4.167   1.546
  282SOL     OW 1744   3.129   1.254   6.289
  282SOL    HW1 1745   3.031   1.254   6.311
  282SOL    HW2 1746   3.153   1.169   6.244
  283SOL     OW 1747   6.038   1.768   6.413
  283SOL    HW1 1748   6.133   1.795   6.396
  283SOL    HW2 1749   6.030   1.669   6.403
  284SOL     OW 1750   1.198   4.129   3.819
  284SOL    HW1 1751   1.115   4.130   3.763
  284SOL    HW2 1752   1.218   4.222   3.850
  285SOL     OW 1753   5.773   4.977   4.520
  285SOL    HW1 1754   5.836   5.054   4.533
  285SOL    HW2 1755   5.680   5.008   4.538
  286SOL     OW 1756   3.354   5.540   6.243
  286SOL    HW1 1757   3.307   5.459   6.207
  286SOL    HW2 1758   3.452   5.523   6.245
  287SOL     OW 1759   0.917   3.596   0.945
  287SOL    HW1 1760   0.894   3.587   1.041
  287SOL    HW2 1761   0.913   3.506   0.900
  288SOL     OW 1762   3.567   1.447   6.764
  288SOL    HW1 1763   3.480   1.482   6.799
  288SOL    HW2 1764   3.556   1.423   6.667
  289SOL     OW 1765   1.111   4.441   5.362
  289SOL    HW1 1766   1.065   4.517   5.408
  289SOL    HW2 1767   1.047   4.365   5.352
  290SOL     OW 1768   6.129   2.307   4.720
  290SOL    HW1 1769   6.077   2.368   4.661
  290SOL    HW2 1770   6.172   2.235   4.665
  291SOL     OW 1771   1.435   2.467   4.284
  291SOL    HW1 1772   1.492   2.393   4.249
  291SOL    HW2 1773   1.493   2.534   4.330
  292SOL     OW 1774   1.307   2.721   3.316
  292SOL    HW1 1775   1.370   2.658   3.270
  292SOL    HW2 1776   1.359   2.793   3.362
  293SOL     OW 1777   4.328   6.219   2.660
  293SOL    HW1 1778   4.237   6.221   2.619
  293SOL    HW2 1779   4.387   6.284   2.612
  294SOL     OW 1780   0.999   5.930   6.423
  294SOL    HW1 1781   1.099   5.927   6.422
  294SOL    HW2 1782   0.964   5.897   6.336
  295SOL     OW 1783   3.207   1.587   3.591
  295SOL    HW1 1784   3.252   1.626   3.510
  295SOL    HW2 1785   3.180   1.662   3.652
  296SOL     OW 1786   3.552   2.014   3.213
  296SOL    HW1 1787   3.577   1.958   3.134
  296SOL    HW2 1788   3.633   2.033   3.268
  297SOL     OW 1789   2.933   4.875   3.612
  297SOL    HW1 1790   2.929   4.855   3.515
  297SOL    HW2 1791   2.859   4.939   3.635
  298SOL     OW 1792   3.130   5.940   1.868
  298SOL    HW1 1793   3.114   5.845   1.897
  298SOL    HW2 1794   3.171   5.991   1.943
  299SOL     OW 1795   5.345   3.435   6.200
  299SOL    HW1 1796   5.257   3.442   6.247
  299SOL    HW2 1797   5.337   3.369   6.125
  300SOL     OW 1798   6.490   0.658   3.056
  300SOL    HW1 1799   6.506   0.721   2.979
  300SOL    HW2 1800   6.394   0.628   3.054
  301SOL     OW 1801   4.975   3.199   1.133
  301SOL    HW1 1802   4.940   3.190   1.040
  301SOL    HW2 1803   4.974   3.295   1.160
  302SOL     OW 1804   1.239   0.407   3.262
  302SOL    HW1 1805   1.228   0.379   3.358
  302SOL    HW2 1806   1.270   0.328   3.208
  303SOL     OW 1807   6.045   0.909   2.547
  303SOL    HW1 1808   6.035   0.945   2.454
  303SOL    HW2 1809   5.993   0.965   2.610
  304SOL     OW 1810   2.533   0.529   3.657
  304SOL    HW1 1811   2.455   0.569   3.705
  304SOL    HW2 1812   2.613   0.587   3.670
  305SOL     OW 1813   0.443   3.519   0.417
  305SOL    HW1 1814   0.465   3.423   0.437
  305SOL    HW2 1815   0.436   3.531   0.318
  306SOL     OW 1816   1.750   0.703   3.454
  306SOL    HW1 1817   1.706   0.708   3.544
  306SOL    HW2 1818   1.837   0.653   3.463
  307SOL     OW 1819   4.505   6.868   0.919
  307SOL    HW1 1820   4.455   6.823   0.845
  307SOL    HW2 1821   4.581   6.810   0.948
  308SOL     OW 1822   6.342   4.123   5.221
  308SOL    HW1 1823   6.392   4.136   5.135
  308SOL    HW2 1824   6.406   4.103   5.294
  309SOL     OW 1825   4.185   4.289   6.087
  309SOL    HW1 1826   4.114   4.233   6.129
  309SOL    HW2 1827   4.146   4.339   6.009
  310SOL     OW 1828   6.490   6.640   5.775
  310SOL    HW1 1829   6.405   6.641   5.827
  310SOL    HW2 1830   6.493   6.721   5.715
  311SOL     OW 1831   6.226   5.494   1.444
  311SOL    HW1 1832   6.211   5.430   1.370
  311SOL    HW2 1833   6.324   5.504   1.461
  312SOL     OW 1834   4.488   1.816   5.673
  312SOL    HW1 1835   4.418   1.885   5.691
  312SOL    HW2 1836   4.516   1.773   5.760
  313SOL     OW 1837   2.950   4.133   1.768
  313SOL    HW1 1838   3.022   4.103   1.830
  313SOL    HW2 1839   2.906   4.214   1.806
  314SOL     OW 1840   3.196   5.247   6.984
  314SOL    HW1 1841   3.221   5.324   6.925
  314SOL    HW2 1842   3.171   5.281   0.050
  315SOL     OW 1843   0.919   3.122   3.266
  315SOL    HW1 1844   0.893   3.041   3.318
  315SOL    HW2 1845   0.893   3.204   3.318
  316SOL     OW 1846   2.489   2.340   4.010
  316SOL    HW1 1847   2.560   2.384   3.955
  316SOL    HW2 1848   2.532   2.280   4.077
  317SOL     OW 1849   1.248   0.495   1.541
  317SOL    HW1 1850   1.179   0.478   1.611
  317SOL    HW2 1851   1.272   0.408   1.497
  318SOL     OW 1852   0.800   6.150   6.986
  318SOL    HW1 1853   0.800   6.249   7.001
  318SOL    HW2 1854   0.719   6.110   0.004
  319SOL     OW 1855   0.396   0.681   2.873
  319SOL    HW1 1856   0.302   0.659   2.848
  319SOL    HW2 1857   0.421   0.771   2.838
  320SOL     OW 1858   5.313   2.293   6.661
  320SOL    HW1 1859   5.324   2.392   6.651
  320SOL    HW2 1860   5.227   2.273   6.707
  321SOL     OW 1861   3.030   1.424   1.901
  321SOL    HW1 1862   2.963   1.490   1.936
  321SOL    HW2 1863   3.120   1.465   1.898
  322SOL     OW 1864   3.383   3.446   4.655
  322SOL    HW1 1865   3.283   3.444   4.648
  322SOL    HW2 1866   3.419   3.357   4.630
  323SOL     OW 1867   0.533   3.361   0.111
  323SOL    HW1 1868   0.553   3.281   0.055
  323SOL    HW2 1869   0.440   3.354   0.148
  324SOL     OW 1870   2.155   2.755   4.159
  324SOL    HW1 1871   2.093   2.747   4.081
  324SOL    HW2 1872   2.225   2.683   4.153
  325SOL     OW 1873   2.180   3.117   1.737
  325SOL    HW1 1874   2.261   3.081   1.690
  325SOL    HW2 1875   2.152   3.202   1.693
  326SOL     OW 1876   1.811   5.243   6.464
  326SOL    HW1 1877   1.867   5.161   6.450
  326SOL    HW2 1878   1.820   5.273   6.559
  327SOL     OW 1879   1.438   5.329   3.896
  327SOL    HW1 1880   1.392   5.303   3.811
  327SOL    HW2 1881   1.390   5.290   3.974
  328SOL     OW 1882   3.122   4.834   2.404
  328SOL    HW1 1883   3.219   4.833   2.383
  328SOL    HW2 1884   3.078   4.911   2.357
  329SOL     OW 1885   2.935   3.748   4.045
  329SOL    HW1 1886   3.026   3.788   4.057
  329SOL    HW2 1887   2.873   3.784   4.116
  330SOL     OW 1888   3.501   6.186   1.842
  330SOL    HW1 1889   3.422   6.204   1.783
  330SOL    HW2 1890   3.558   6.115   1.800
  331SOL     OW 1891   4.591   4.761   6.750
  331SOL    HW1 1892   4.690   4.765   6.744
  331SOL    HW2 1893   4.564   4.723   6.839
  332SOL     OW 1894   3.805   2.092   4.609
  332SOL    HW1 1895   3.748   2.086   4.691
  332SOL    HW2 1896   3.886   2.147   4.629
  333SOL     OW 1897   3.261   6.905   6.815
  333SOL    HW1 1898   3.194   6.854   6.762
  333SOL    HW2 1899   3.266   6.868   6.908
  334SOL     OW 1900   2.312   0.219   0.729
  334SOL    HW1 1901   2.360   0.141   0.771
  334SOL    HW2 1902   2.228   0.238   0.780
  335SOL     OW 1903   3.493   6.541   4.142
  335SOL    HW1 1904   3.476   6.635   4.112
  335SOL    HW2 1905   3.572   6.539   4.202
  336SOL     OW 1906   2.207   1.032   4.017
  336SOL    HW1 1907   2.294   1.015   4.065
  336SOL    HW2 1908   2.140   1.069   4.082
  337SOL     OW 1909   0.075   3.619   0.892
  337SOL    HW1 1910   0.131   3.702   0.886
  337SOL    HW2 1911   0.094   3.572   0.978
  338SOL     OW 1912   2.832   2.437   0.690
  338SOL    HW1 1913   2.861   2.433   0.595
  338SOL    HW2 1914   2.737   2.406   0.697
  339SOL     OW 1915   3.728   6.606   4.294
  339SOL    HW1 1916   3.767   6.531   4.348
  339SOL    HW2 1917   3.703   6.681   4.354
  340SOL     OW 1918   5.095   4.072   4.531
  340SOL    HW1 1919   5.025   4.006   4.560
  340SOL    HW2 1920   5.084   4.090   4.433
  341SOL     OW 1921   6.368   6.826   4.027
  341SOL    HW1 1922   6.457   6.790   4.055
  341SOL    HW2 1923   6.376   6.867   3.936
  342SOL     OW 1924   5.654   3.906   0.230
  342SOL    HW1 1925   5.632   3.836   0.162
  342SOL    HW2 1926   5.746   3.891   0.265
  343SOL     OW 1927   1.699   5.983   0.856
  343SOL    HW1 1928   1.631   5.953   0.923
  343SOL    HW2 1929   1.674   5.949   0.766
  344SOL     OW 1930   1.912   5.360   1.378
  344SOL    HW1 1931   1.918   5.458   1.399
  344SOL    HW2 1932   1.997   5.315   1.406
  345SOL     OW 1933   6.610   0.926   6.014
  345SOL    HW1 1934   6.675   0.856   5.983
  345SOL    HW2 1935   6.561   0.963   5.935
  346SOL     OW 1936   2.232   0.577   1.765
  346SOL    HW1 1937   2.207   0.494   1.815
  346SOL    HW2 1938   2.285   0.638   1.825
  347SOL     OW 1939   4.462   6.506   6.453
  347SOL    HW1 1940   4.496   6.413   6.464
  347SOL    HW2 1941   4.459   6.551   6.543
  348SOL     OW 1942   4.883   5.075   1.548
  348SOL    HW1 1943   4.819   4.999   1.547
  348SOL    HW2 1944   4.836   5.158   1.579
  349SOL     OW 1945   6.756   4.548   2.309
  349SOL    HW1 1946   6.691   4.586   2.244
  349SOL    HW2 1947   6.791   4.461   2.274
  350SOL     OW 1948   3.418   3.441   1.534
  350SOL    HW1 1949   3.442   3.506   1.462
  350SOL    HW2 1950   3.487   3.370   1.539
  351SOL     OW 1951   2.588   2.453   0.423
  351SOL    HW1 1952   2.499   2.490   0.396
  351SOL    HW2 1953   2.592   2.356   0.400
  352SOL     OW 1954   3.826   6.846   4.704
  352SOL    HW1 1955   3.883   6.921   4.670
  352SOL    HW2 1956   3.753   6.884   4.762
  353SOL     OW 1957   2.942   0.183   0.852
  353SOL    HW1 1958   2.889   0.189   0.767
  353SOL    HW2 1959   3.025   0.128   0.836
  354SOL     OW 1960   4.414   2.141   0.099
  354SOL    HW1 1961   4.401   2.227   0.148
  354SOL    HW2 1962   4.447   2.161   0.006
  355SOL     OW 1963   6.617   2.823   2.912
  355SOL    HW1 1964   6.651   2.734   2.942
  355SOL    HW2 1965   6.616   2.886   2.989
  356SOL     OW 1966   4.396   5.602   4.659
  356SOL    HW1 1967   4.350   5.657   4.729
  356SOL    HW2 1968   4.384   5.505   4.679
  357SOL     OW 1969   6.829   6.898   5.450
  357SOL    HW1 1970   6.870   6.964   5.513
  357SOL    HW2 1971   6.826   6.936   5.358
  358SOL     OW 1972   5.725   0.338   1.849
  358SOL    HW1 1973   5.781   0.281   1.789
  358SOL    HW2 1974   5.756   0.433   1.843
  359SOL     OW 1975   1.839   2.057   2.211
  359SOL    HW1 1976   1.801   2.075   2.302
  359SOL    HW2 1977   1.880   1.966   2.209
  360SOL     OW 1978   2.635   6.457   6.148
  360SOL    HW1 1979   2.726   6.469   6.189
  360SOL    HW2 1980   2.580   6.398   6.207
  361SOL     OW 1981   5.410   5.829   2.642
  361SOL    HW1 1982   5.423   5.831   2.741
  361SOL    HW2 1983   5.319   5.792   2.621
  362SOL     OW 1984   3.570   3.851   0.545
  362SOL    HW1 1985   3.577   3.788   0.467
  362SOL    HW2 1986   3.474   3.869   0.565
  363SOL     OW 1987   4.152   5.305   3.999
  363SOL    HW1 1988   4.118   5.376   4.060
  363SOL    HW2 1989   4.122   5.324   3.906
  364SOL     OW 1990   0.324   5.670   5.549
  364SOL    HW1 1991   0.283   5.721   5.472
  364SOL    HW2 1992   0.257   5.663   5.622
  365SOL     OW 1993   4.656   6.233   2.352
  365SOL    HW1 1994   4.721   6.241   2.277
  365SOL    HW2 1995   4.591   6.159   2.334
  366SOL     OW 1996   5.432   1.427   0.359
  366SOL    HW1 1997   5.402   1.346   0.411
  366SOL    HW2 1998   5.465   1.398   0.270
  367SOL     OW 1999   5.203   2.636   0.942
  367SOL    HW1 2000   5.201   2.696   0.861
  367SOL    HW2 2001   5.227   2.543   0.914
  368SOL     OW 2002   0.695   4.039   5.008
  368SOL    HW1 2003   0.717   4.136   5.011
  368SOL    HW2 2004   0.779   3.986   5.017
  369SOL     OW 2005   6.761   4.589   1.567
  369SOL    HW1 2006   6.784   4.614   1.473
  369SOL    HW2 2007   6.787   4.663   1.628
  370SOL     OW 2008   2.990   1.730   5.391
  370SOL    HW1 2009   2.997   1.730   5.490
  370SOL    HW2 2010   3.079   1.703   5.352
  371SOL     OW 2011   2.356   3.630   6.528
  371SOL    HW1 2012   2.272   3.681   6.509
  371SOL    HW2 2013   2.382   3.576   6.448
  372SOL     OW 2014   6.927   0.631   5.087
  372SOL    HW1 2015   7.013   0.584   5.069
  372SOL    HW2 2016   6.854   0.564   5.098
  373SOL     OW 2017   6.356   6.215   5.708
  373SOL    HW1 2018   6.453   6.230   5.685
  373SOL    HW2 2019   6.344   6.120   5.737
  374SOL     OW 2020   4.620   6.848   2.521
  374SOL    HW1 2021   4.714   6.820   2.542
  374SOL    HW2 2022   4.570   6.863   2.606
  375SOL     OW 2023   6.831   4.921   3.650
  375SOL    HW1 2024   6.804   4.958   3.739
  375SOL    HW2 2025   6.895   4.846   3.664
  376SOL     OW 2026   1.877   3.514   3.776
  376SOL    HW1 2027   1.975   3.516   3.796
  376SOL    HW2 2028   1.860   3.559   3.688
  377SOL     OW 2029   6.260   2.714   1.865
  377SOL    HW1 2030   6.199   2.711   1.786
  377SOL    HW2 2031   6.348   2.674   1.841
  378SOL     OW 2032   3.519   2.549   5.450
  378SOL    HW1 2033   3.573   2.469   5.422
  378SOL    HW2 2034   3.431   2.519   5.485
  379SOL     OW 2035   6.000   4.118   1.579
  379SOL    HW1 2036   6.058   4.069   1.645
  379SOL    HW2 2037   5.929   4.057   1.545
  380SOL     OW 2038   2.608   1.463   1.914
  380SOL    HW1 2039   2.546   1.481   1.838
  380SOL    HW2 2040   2.655   1.547   1.940
  381SOL     OW 2041   2.057   4.648   1.435
  381SOL    HW1 2042   2.114   4.576   1.475
  381SOL    HW2 2043   2.002   4.691   1.506
  382SOL     OW 2044   4.512   5.936   6.662
  382SOL    HW1 2045   4.591   5.997   6.652
  382SOL    HW2 2046   4.453   5.944   6.582
  383SOL     OW 2047   6.169   2.993   6.094
  383SOL    HW1 2048   6.231   2.949   6.030
  383SOL    HW2 2049   6.220   3.022   6.175
  384SOL     OW 2050   0.984   3.968   4.970
  384SOL    HW1 2051   0.972   3.922   5.058
  384SOL    HW2 2052   1.031   3.906   4.906
  385SOL     OW 2053   4.812   6.329   0.351
  385SOL    HW1 2054   4.766   6.280   0.276
  385SOL    HW2 2055   4.744   6.384   0.400
  386SOL     OW 2056   3.820   6.973   5.144
  386SOL    HW1 2057   3.866   0.026   5.101
  386SOL    HW2 2058   3.883   6.926   5.206
  387SOL     OW 2059   0.449   6.355   3.831
  387SOL    HW1 2060   0.512   6.342   3.755
  387SOL    HW2 2061   0.364   6.306   3.812
  388SOL     OW 2062   0.703   2.098   4.770
  388SOL    HW1 2063   0.614   2.055   4.781
  388SOL    HW2 2064   0.770   2.028   4.742
  389SOL     OW 2065   4.277   4.098   1.655
  389SOL    HW1 2066   4.265   4.011   1.701
  389SOL    HW2 2067   4.331   4.160   1.713
  390SOL     OW 2068   3.560   1.022   0.328
  390SOL    HW1 2069   3.560   1.013   0.427
  390SOL    HW2 2070   3.510   1.104   0.302
  391SOL     OW 2071   2.522   4.179   5.311
  391SOL    HW1 2072   2.452   4.246   5.288
  391SOL    HW2 2073   2.494   4.089   5.277
  392SOL     OW 2074   1.737   3.416   2.563
  392SOL    HW1 2075   1.710   3.414   2.467
  392SOL    HW2 2076   1.726   3.509   2.598
  393SOL     OW 2077   1.387   5.103   0.647
  393SOL    HW1 2078   1.300   5.055   0.637
  393SOL    HW2 2079   1.417   5.136   0.557
  394SOL     OW 2080   0.773   2.803   6.888
  394SOL    HW1 2081   0.733   2.888   6.854
  394SOL    HW2 2082   0.864   2.821   6.925
  395SOL     OW 2083   5.322   4.493   1.968
  395SOL    HW1 2084   5.314   4.408   1.917
  395SOL    HW2 2085   5.414   4.531   1.957
  396SOL     OW 2086   2.405   1.842   2.189
  396SOL    HW1 2087   2.469   1.850   2.113
  396SOL    HW2 2088   2.426   1.910   2.259
  397SOL     OW 2089   5.329   1.273   5.558
  397SOL    HW1 2090   5.360   1.226   5.476
  397SOL    HW2 2091   5.287   1.207   5.621
  398SOL     OW 2092   0.872   6.526   4.643
  398SOL    HW1 2093   0.856   6.530   4.545
  398SOL    HW2 2094   0.942   6.457   4.663
  399SOL     OW 2095   6.489   6.012   4.261
  399SOL    HW1 2096   6.398   5.995   4.224
  399SOL    HW2 2097   6.511   5.941   4.328
  400SOL     OW 2098   6.936   6.821   4.982
  400SOL    HW1 2099   6.917   6.763   4.903
  400SOL    HW2 2100   6.855   6.877   5.002
  401SOL     OW 2101   6.461   0.425   6.200
  401SOL    HW1 2102   6.558   0.417   6.221
  401SOL    HW2 2103   6.449   0.439   6.102
  402SOL     OW 2104   6.206   0.557   2.348
  402SOL    HW1 2105   6.269   0.616   2.399
  402SOL    HW2 2106   6.220   0.571   2.250
  403SOL     OW 2107   3.221   0.082   6.534
  403SOL    HW1 2108   3.260   7.020   6.566
  403SOL    HW2 2109   3.227   0.151   6.606
  404SOL     OW 2110   3.410   6.235   5.614
  404SOL    HW1 2111   3.340   6.260   5.680
  404SOL    HW2 2112   3.409   6.300   5.538
  405SOL     OW 2113   2.278   4.341   3.513
  405SOL    HW1 2114   2.296   4.439   3.518
  405SOL    HW2 2115   2.223   4.320   3.432
  406SOL     OW 2116   0.902   4.984   5.043
  406SOL    HW1 2117   0.889   4.894   5.085
  406SOL    HW2 2118   0.964   4.976   4.966
  407SOL     OW 2119   1.623   3.113   3.704
  407SOL    HW1 2120   1.715   3.120   3.666
  407SOL    HW2 2121   1.591   3.204   3.730
  408SOL     OW 2122   3.819   2.113   2.697
  408SOL    HW1 2123   3.875   2.184   2.654
  408SOL    HW2 2124   3.858   2.087   2.785
  409SOL     OW 2125   0.025   3.651   1.782
  409SOL    HW1 2126   0.014   3.618   1.876
  409SOL    HW2 2127   0.034   3.751   1.783
  410SOL     OW 2128   1.302   2.258   1.340
  410SOL    HW1 2129   1.380   2.274   1.401
  410SOL    HW2 2130   1.331   2.204   1.262
  411SOL     OW 2131   0.124   1.987   1.956
  411SOL    HW1 2132   0.176   1.902   1.952
  411SOL    HW2 2133   0.185   2.065   1.945
  412SOL     OW 2134   2.967   5.078   2.639
  412SOL    HW1 2135   2.879   5.030   2.631
  412SOL    HW2 2136   3.038   5.014   2.668
  413SOL     OW 2137   3.768   4.923   2.180
  413SOL    HW1 2138   3.715   4.850   2.136
  413SOL    HW2 2139   3.756   5.008   2.129
  414SOL     OW 2140   3.612   0.470   4.368
  414SOL    HW1 2141   3.693   0.528   4.358
  414SOL    HW2 2142   3.631   0.379   4.330
  415SOL     OW 2143   0.161   1.914   0.395
  415SOL    HW1 2144   0.236   1.977   0.372
  415SOL    HW2 2145   0.190   1.820   0.378
  416SOL     OW 2146   5.379   4.230   4.536
  416SOL    HW1 2147   5.427   4.188   4.613
  416SOL    HW2 2148   5.330   4.160   4.485
  417SOL     OW 2149   2.235   1.336   6.501
  417SOL    HW1 2150   2.147   1.384   6.502
  417SOL    HW2 2151   2.257   1.307   6.593
  418SOL     OW 2152   2.770   6.974   4.966
  418SOL    HW1 2153   2.855   6.944   4.921
  418SOL    HW2 2154   2.692   6.927   4.925
  419SOL     OW 2155   6.926   6.781   2.302
  419SOL    HW1 2156   6.893   6.785   2.397
  419SOL    HW2 2157   6.866   6.720   2.250
  420SOL     OW 2158   5.508   0.998   6.492
  420SOL    HW1 2159   5.527   0.929   6.422
  420SOL    HW2 2160   5.523   0.958   6.582
  421SOL     OW 2161   5.594   4.457   5.258
  421SOL    HW1 2162   5.539   4.411   5.189
  421SOL    HW2 2163   5.691   4.445   5.238
  422SOL     OW 2164   5.047   1.697   1.044
  422SOL    HW1 2165   5.124   1.636   1.026
  422SOL    HW2 2166   4.984   1.651   1.107
  423SOL     OW 2167   2.603   0.316   6.474
  423SOL    HW1 2168   2.666   0.263   6.532
  423SOL    HW2 2169   2.642   0.406   6.456
  424SOL     OW 2170   1.612   5.580   3.149
  424SOL    HW1 2171   1.609   5.627   3.060
  424SOL    HW2 2172   1.590   5.646   3.221
  425SOL     OW 2173   4.520   1.029   4.786
  425SOL    HW1 2174   4.588   1.074   4.728
  425SOL    HW2 2175   4.562   1.003   4.873
  426SOL     OW 2176   2.491   2.502   4.910
  426SOL    HW1 2177   2.487   2.602   4.903
  426SOL    HW2 2178   2.491   2.462   4.818
  427SOL     OW 2179   4.675   1.169   3.991
  427SOL    HW1 2180   4.715   1.078   3.987
  427SOL    HW2 2181   4.740   1.232   4.034
  428SOL     OW 2182   2.660   0.895   4.651
  428SOL    HW1 2183   2.589   0.933   4.710
  428SOL    HW2 2184   2.696   0.811   4.691
  429SOL     OW 2185   0.792   5.583   4.153
  429SOL    HW1 2186   0.857   5.659   4.158
  429SOL    HW2 2187   0.750   5.570   4.243
  430SOL     OW 2188   1.698   0.042   3.583
  430SOL    HW1 2189   1.750   6.983   3.568
  430SOL    HW2 2190   1.647   0.035   3.669
  431SOL     OW 2191   2.709   1.976   0.939
  431SOL    HW1 2192   2.803   1.963   0.906
  431SOL    HW2 2193   2.680   1.894   0.989
  432SOL     OW 2194   5.293   1.953   0.998
  432SOL    HW1 2195   5.215   1.897   0.972
  432SOL    HW2 2196   5.375   1.920   0.953
  433SOL     OW 2197   3.730   6.577   6.273
  433SOL    HW1 2198   3.775   6.488   6.273
  433SOL    HW2 2199   3.799   6.650   6.274
  434SOL     OW 2200   3.925   6.332   3.744
  434SOL    HW1 2201   3.931   6.288   3.834
  434SOL    HW2 2202   3.900   6.428   3.755
  435SOL     OW 2203   3.682   1.730   5.669
  435SOL    HW1 2204   3.634   1.642   5.673
  435SOL    HW2 2205   3.620   1.804   5.695
  436SOL     OW 2206   3.140   6.010   3.096
  436SOL    HW1 2207   3.129   5.970   3.187
  436SOL    HW2 2208   3.131   6.110   3.103
  437SOL     OW 2209   6.999   1.230   4.510
  437SOL    HW1 2210   0.001   1.134   4.514
  437SOL    HW2 2211   6.907   1.240   4.547
  438SOL     OW 2212   1.166   5.093   3.299
  438SOL    HW1 2213   1.261   5.119   3.315
  438SOL    HW2 2214   1.118   5.082   3.386
  439SOL     OW 2215   6.017   0.846   2.815
  439SOL    HW1 2216   6.067   0.787   2.752
  439SOL    HW2 2217   5.995   0.794   2.898
  440SOL     OW 2218   3.787   1.075   7.000
  440SOL    HW1 2219   3.831   1.018   0.045
  440SOL    HW2 2220   3.735   1.148   0.021
  441SOL     OW 2221   6.724   4.135   3.089
  441SOL    HW1 2222   6.797   4.124   3.157
  441SOL    HW2 2223   6.763   4.142   2.998
  442SOL     OW 2224   4.769   4.325   5.931
  442SOL    HW1 2225   4.806   4.279   5.850
  442SOL    HW2 2226   4.840   4.380   5.974
  443SOL     OW 2227   4.721   4.423   2.879
  443SOL    HW1 2228   4.692   4.397   2.971
  443SOL    HW2 2229   4.821   4.427   2.875
  444SOL     OW 2230   3.873   1.639   0.358
  444SOL    HW1 2231   3.776   1.654   0.339
  444SOL    HW2 2232   3.923   1.628   0.272
  445SOL     OW 2233   2.786   6.270   2.864
  445SOL    HW1 2234   2.806   6.247   2.959
  445SOL    HW2 2235   2.719   6.205   2.827
  446SOL     OW 2236   5.192   5.847   2.865
  446SOL    HW1 2237   5.287   5.857   2.897
  446SOL    HW2 2238   5.160   5.754   2.884
  447SOL     OW 2239   6.398   3.958   6.086
  447SOL    HW1 2240   6.366   3.967   6.180
  447SOL    HW2 2241   6.413   3.861   6.065
  448SOL     OW 2242   2.743   1.362   2.523
  448SOL    HW1 2243   2.835   1.393   2.547
  448SOL    HW2 2244   2.675   1.418   2.572
  449SOL     OW 2245   2.009   2.688   3.661
  449SOL    HW1 2246   2.072   2.760   3.633
  449SOL    HW2 2247   2.057   2.602   3.670
  450SOL     OW 2248   0.389   4.960   3.491
  450SOL    HW1 2249   0.376   4.966   3.590
  450SOL    HW2 2250   0.484   4.981   3.469
  451SOL     OW 2251   0.222   2.416   3.632
  451SOL    HW1 2252   0.189   2.322   3.635
  451SOL    HW2 2253   0.296   2.423   3.565
  452SOL     OW 2254   3.611   6.481   2.817
  452SOL    HW1 2255   3.538   6.413   2.816
  452SOL    HW2 2256   3.660   6.479   2.730
  453SOL     OW 2257   4.186   0.332   6.825
  453SOL    HW1 2258   4.234   0.362   6.742
  453SOL    HW2 2259   4.158   0.237   6.815
  454SOL     OW 2260   6.454   4.267   6.197
  454SOL    HW1 2261   6.366   4.221   6.207
  454SOL    HW2 2262   6.508   4.221   6.126
  455SOL     OW 2263   0.077   3.986   5.780
  455SOL    HW1 2264   0.132   3.995   5.697
  455SOL    HW2 2265   0.135   4.003   5.860
  456SOL     OW 2266   1.833   1.103   3.623
  456SOL    HW1 2267   1.794   1.070   3.709
  456SOL    HW2 2268   1.907   1.167   3.642
  457SOL     OW 2269   1.536   5.960   5.931
  457SOL    HW1 2270   1.620   5.981   5.881
  457SOL    HW2 2271   1.554   5.961   6.029
  458SOL     OW 2272   2.784   1.613   3.146
  458SOL    HW1 2273   2.846   1.573   3.078
  458SOL    HW2 2274   2.691   1.615   3.110
  459SOL     OW 2275   2.040   0.132   5.152
  459SOL    HW1 2276   2.125   0.184   5.151
  459SOL    HW2 2277   2.016   0.105   5.059
  460SOL     OW 2278   1.185   1.425   5.139
  460SOL    HW1 2279   1.149   1.518   5.132
  460SOL    HW2 2280   1.245   1.406   5.060
  461SOL     OW 2281   6.869   4.819   5.544
  461SOL    HW1 2282   6.792   4.830   5.606
  461SOL    HW2 2283   6.950   4.863   5.583
  462SOL     OW 2284   3.221   3.665   4.299
  462SOL    HW1 2285   3.298   3.605   4.278
  462SOL    HW2 2286   3.147   3.612   4.340
  463SOL     OW 2287   6.118   6.900   2.575
  463SOL    HW1 2288   6.120   6.961   2.496
  463SOL    HW2 2289   6.037   6.920   2.630
  464SOL     OW 2290   3.549   6.270   6.072
  464SOL    HW1 2291   3.588   6.241   5.984
  464SOL    HW2 2292   3.464   6.218   6.089
  465SOL     OW 2293   1.440   1.894   0.815
  465SOL    HW1 2294   1.392   1.959   0.873
  465SOL    HW2 2295   1.386   1.810   0.807
  466SOL     OW 2296   3.442   6.397   4.711
  466SOL    HW1 2297   3.348   6.418   4.736
  466SOL    HW2 2298   3.495   6.377   4.793
  467SOL     OW 2299   0.537   1.852   2.930
  467SOL    HW1 2300   0.526   1.950   2.948
  467SOL    HW2 2301   0.619   1.820   2.977
  468SOL     OW 2302   4.527   0.102   6.482
  468SOL    HW1 2303   4.560   0.050   6.402
  468SOL    HW2 2304   4.597   0.101   6.553
  469SOL     OW 2305   2.947   4.415   5.490
  469SOL    HW1 2306   2.901   4.491   5.443
  469SOL    HW2 2307   2.887   4.335   5.492
  470SOL     OW 2308   2.529   5.418   3.278
  470SOL    HW1 2309   2.489   5.455   3.194
  470SOL    HW2 2310   2.515   5.319   3.280
  471SOL     OW 2311   2.706   2.382   3.790
  471SOL    HW1 2312   2.633   2.354   3.729
  471SOL    HW2 2313   2.795   2.356   3.751
  472SOL     OW 2314   5.947   4.473   6.370
  472SOL    HW1 2315   5.922   4.453   6.275
  472SOL    HW2 2316   6.046   4.482   6.378
  473SOL     OW 2317   6.796   2.714   2.660
  473SOL    HW1 2318   6.757   2.743   2.747
  473SOL    HW2 2319   6.772   2.618   2.643
  474SOL     OW 2320   6.517   5.992   4.662
  474SOL    HW1 2321   6.453   5.939   4.607
  474SOL    HW2 2322   6.588   5.931   4.699
  475SOL     OW 2323   5.552   2.237   0.292
  475SOL    HW1 2324   5.503   2.301   0.234
  475SOL    HW2 2325   5.640   2.215   0.251
  476SOL     OW 2326   0.690   4.233   2.360
  476SOL    HW1 2327   0.719   4.149   2.314
  476SOL    HW2 2328   0.623   4.280   2.303
  477SOL     OW 2329   2.798   5.979   3.925
  477SOL    HW1 2330   2.745   5.904   3.885
  477SOL    HW2 2331   2.869   6.008   3.861
  478SOL     OW 2332   4.629   5.680   2.724
  478SOL    HW1 2333   4.591   5.592   2.698
  478SOL    HW2 2334   4.589   5.709   2.811
  479SOL     OW 2335   4.157   3.506   4.197
  479SOL    HW1 2336   4.145   3.506   4.097
  479SOL    HW2 2337   4.143   3.598   4.232
  480SOL     OW 2338   1.029   6.693   2.751
  480SOL    HW1 2339   0.943   6.647   2.770
  480SOL    HW2 2340   1.104   6.627   2.756
  481SOL     OW 2341   0.662   5.929   0.933
  481SOL    HW1 2342   0.752   5.968   0.913
  481SOL    HW2 2343   0.666   5.876   1.017
  482SOL     OW 2344   5.632   4.204   2.686
  482SOL    HW1 2345   5.730   4.223   2.677
  482SOL    HW2 2346   5.581   4.276   2.640
  483SOL     OW 2347   5.927   2.124   2.832
  483SOL    HW1 2348   5.889   2.195   2.773
  483SOL    HW2 2349   5.897   2.138   2.926
  484SOL     OW 2350   2.031   4.362   4.608
  484SOL    HW1 2351   2.063   4.436   4.667
  484SOL    HW2 2352   2.097   4.287   4.610
  485SOL     OW 2353   5.794   3.535   2.502
  485SOL    HW1 2354   5.810   3.459   2.439
  485SOL    HW2 2355   5.721   3.510   2.567
  486SOL     OW 2356   6.073   6.984   6.476
  486SOL    HW1 2357   6.143   7.018   6.414
  486SOL    HW2 2358   6.084   0.002   6.566
  487SOL     OW 2359   0.203   6.472   3.466
  487SOL    HW1 2360   0.260   6.550   3.443
  487SOL    HW2 2361   0.240   6.428   3.549
  488SOL     OW 2362   1.986   6.859   3.302
  488SOL    HW1 2363   1.911   6.828   3.243
  488SOL    HW2 2364   1.969   6.829   3.396
  489SOL     OW 2365   6.897   6.096   4.607
  489SOL    HW1 2366   6.827   6.025   4.609
  489SOL    HW2 2367   6.864   6.176   4.658
  490SOL     OW 2368   1.722   5.489   5.983
  490SOL    HW1 2369   1.800   5.505   6.043
  490SOL    HW2 2370   1.673   5.407   6.012
  491SOL     OW 2371   0.087   3.022   0.301
  491SOL    HW1 2372   0.065   2.954   0.371
  491SOL    HW2 2373   0.084   2.979   0.211
  492SOL     OW 2374   1.319   1.503   5.701
  492SOL    HW1 2375   1.274   1.414   5.693
  492SOL    HW2 2376   1.328   1.527   5.798
  493SOL     OW 2377   2.527   6.636   5.077
  493SOL    HW1 2378   2.578   6.556   5.108
  493SOL    HW2 2379   2.587   6.697   5.025
  494SOL     OW 2380   2.290   0.440   5.568
  494SOL    HW1 2381   2.380   0.431   5.610
  494SOL    HW2 2382   2.253   0.531   5.586
  495SOL     OW 2383   4.354   6.304   5.735
  495SOL    HW1 2384   4.256   6.316   5.721
  495SOL    HW2 2385   4.373   6.208   5.757
  496SOL     OW 2386   6.185   2.250   2.788
  496SOL    HW1 2387   6.213   2.303   2.868
  496SOL    HW2 2388   6.107   2.192   2.812
  497SOL     OW 2389   3.533   1.010   6.219
  497SOL    HW1 2390   3.447   1.008   6.167
  497SOL    HW2 2391   3.605   1.049   6.162
  498SOL     OW 2392   0.284   5.720   1.979
  498SOL    HW1 2393   0.258   5.806   2.023
  498SOL    HW2 2394   0.207   5.685   1.925
  499SOL     OW 2395   3.335   4.802   6.426
  499SOL    HW1 2396   3.409   4.851   6.380
  499SOL    HW2 2397   3.374   4.733   6.487
  500SOL     OW 2398   5.556   2.488   6.526
  500SOL    HW1 2399   5.481   2.545   6.559
  500SOL    HW2 2400   5.640   2.510   6.576
  501SOL     OW 2401   1.532   6.859   2.876
  501SOL    HW1 2402   1.509   6.894   2.785
  501SOL    HW2 2403   1.530   6.759   2.875
  502SOL     OW 2404   2.029   4.677   5.720
  502SOL    HW1 2405   2.113   4.622   5.717
  502SOL    HW2 2406   2.046   4.761   5.772
  503SOL     OW 2407   3.378   4.414   6.751
  503SOL    HW1 2408   3.297   4.364   6.720
  503SOL    HW2 2409   3.460   4.361   6.728
  504SOL     OW 2410   6.667   6.136   1.959
  504SOL    HW1 2411   6.625   6.209   1.905
  504SOL    HW2 2412   6.683   6.169   2.052
  505SOL     OW 2413   4.570   6.861   5.096
  505SOL    HW1 2414   4.497   6.888   5.158
  505SOL    HW2 2415   4.564   6.763   5.078
  506SOL     OW 2416   3.003   5.588   2.993
  506SOL    HW1 2417   3.089   5.583   3.045
  506SOL    HW2 2418   2.960   5.677   3.009
  507SOL     OW 2419   4.223   1.104   1.950
  507SOL    HW1 2420   4.180   1.026   1.995
  507SOL    HW2 2421   4.198   1.105   1.853
  508SOL     OW 2422   6.913   3.928   4.193
  508SOL    HW1 2423   6.985   3.886   4.249
  508SOL    HW2 2424   6.858   3.857   4.150
  509SOL     OW 2425   4.809   0.561   6.750
  509SOL    HW1 2426   4.900   0.595   6.776
  509SOL    HW2 2427   4.803   0.553   6.651
  510SOL     OW 2428   6.387   4.543   6.161
  510SOL    HW1 2429   6.291   4.530   6.134
  510SOL    HW2 2430   6.425   4.456   6.193
  511SOL     OW 2431   1.540   1.635   6.950
  511SOL    HW1 2432   1.556   1.638   0.024
  511SOL    HW2 2433   1.446   1.606   6.933
  512SOL     OW 2434   5.337   2.651   0.019
  512SOL    HW1 2435   5.283   2.628   6.963
  512SOL    HW2 2436   5.362   2.568   0.068
  513SOL     OW 2437   5.476   0.472   2.332
  513SOL    HW1 2438   5.536   0.471   2.252
  513SOL    HW2 2439   5.403   0.539   2.317
  514SOL     OW 2440   0.106   6.659   4.323
  514SOL    HW1 2441   0.120   6.692   4.230
  514SOL    HW2 2442   0.050   6.576   4.321
  515SOL     OW 2443   2.714   0.547   6.321
  515SOL    HW1 2444   2.734   0.499   6.235
  515SOL    HW2 2445   2.782   0.619   6.336
  516SOL     OW 2446   2.586   4.230   1.359
  516SOL    HW1 2447   2.558   4.321   1.329
  516SOL    HW2 2448   2.672   4.205   1.316
  517SOL     OW 2449   2.974   5.352   2.642
  517SOL    HW1 2450   2.885   5.396   2.656
  517SOL    HW2 2451   2.964   5.253   2.644
  518SOL     OW 2452   2.122   3.394   3.631
  518SOL    HW1 2453   2.117   3.360   3.726
  518SOL    HW2 2454   2.038   3.369   3.582
  519SOL     OW 2455   6.609   6.490   3.860
  519SOL    HW1 2456   6.513   6.519   3.868
  519SOL    HW2 2457   6.622   6.405   3.910
  520SOL     OW 2458   1.122   3.359   0.154
  520SOL    HW1 2459   1.203   3.397   0.108
  520SOL    HW2 2460   1.061   3.319   0.086
  521SOL     OW 2461   4.798   5.111   4.489
  521SOL    HW1 2462   4.806   5.025   4.539
  521SOL    HW2 2463   4.707   5.151   4.506
  522SOL     OW 2464   4.337   3.809   1.433
  522SOL    HW1 2465   4.355   3.832   1.529
  522SOL    HW2 2466   4.339   3.709   1.422
  523SOL     OW 2467   0.232   6.319   1.658
  523SOL    HW1 2468   0.307   6.262   1.625
  523SOL    HW2 2469   0.163   6.327   1.586
  524SOL     OW 2470   0.529   2.994   2.099
  524SOL    HW1 2471   0.520   2.936   2.018
  524SOL    HW2 2472   0.603   2.958   2.156
  525SOL     OW 2473   0.975   3.034   6.847
  525SOL    HW1 2474   1.036   2.962   6.879
  525SOL    HW2 2475   1.007   3.122   6.882
  526SOL     OW 2476   3.673   6.853   4.472
  526SOL    HW1 2477   3.704   6.816   4.560
  526SOL    HW2 2478   3.654   6.950   4.482
  527SOL     OW 2479   1.419   1.892   6.931
  527SOL    HW1 2480   1.328   1.923   6.960
  527SOL    HW2 2481   1.425   1.793   6.941
  528SOL     OW 2482   0.030   3.791   3.938
  528SOL    HW1 2483   0.045   3.887   3.960
  528SOL    HW2 2484   6.973   3.782   3.882
  529SOL     OW 2485   3.022   0.236   5.465
  529SOL    HW1 2486   2.971   0.279   5.391
  529SOL    HW2 2487   2.972   0.156   5.499
  530SOL     OW 2488   3.640   3.317   1.942
  530SOL    HW1 2489   3.586   3.392   1.905
  530SOL    HW2 2490   3.580   3.250   1.985
  531SOL     OW 2491   2.613   0.794   2.669
  531SOL    HW1 2492   2.672   0.874   2.661
  531SOL    HW2 2493   2.599   0.771   2.765
  532SOL     OW 2494   2.310   3.398   0.349
  532SOL    HW1 2495   2.350   3.313   0.383
  532SOL    HW2 2496   2.216   3.380   0.318
  533SOL     OW 2497   4.783   0.055   3.678
  533SOL    HW1 2498   4.873   0.014   3.695
  533SOL    HW2 2499   4.791   0.121   3.603
  534SOL     OW 2500   0.950   5.744   1.316
  534SOL    HW1 2501   0.931   5.838   1.346
  534SOL    HW2 2502   0.989   5.692   1.391
  535SOL     OW 2503   6.186   4.237   3.235
  535SOL    HW1 2504   6.245   4.224   3.156
  535SOL    HW2 2505   6.101   4.186   3.222
  536SOL     OW 2506   6.764   6.150   3.218
  536SOL    HW1 2507   6.726   6.184   3.304
  536SOL    HW2 2508   6.844   6.094   3.238
  537SOL     OW 2509   4.007   6.815   4.296
  537SOL    HW1 2510   3.930   6.823   4.233
  537SOL    HW2 2511   3.985   6.749   4.368
  538SOL     OW 2512   1.904   4.992   5.478
  538SOL    HW1 2513   1.911   5.090   5.495
  538SOL    HW2 2514   1.848   4.950   5.549
  539SOL     OW 2515   1.393   5.570   1.445
  539SOL    HW1 2516   1.346   5.509   1.508
  539SOL    HW2 2517   1.490   5.577   1.470
  540SOL     OW 2518   1.952   1.386   4.024
  540SOL    HW1 2519   1.892   1.316   4.064
  540SOL    HW2 2520   1.896   1.459   3.984
  541SOL     OW 2521   4.150   5.952   3.655
  541SOL    HW1 2522   4.058   5.926   3.683
  541SOL    HW2 2523   4.164   6.050   3.673
  542SOL     OW 2524   3.750   5.659   6.703
  542SOL    HW1 2525   3.703   5.746   6.720
  542SOL    HW2 2526   3.690   5.584   6.732
  543SOL     OW 2527   5.745   3.697   4.135
  543SOL    HW1 2528   5.660   3.658   4.101
  543SOL    HW2 2529   5.790   3.748   4.062
  544SOL     OW 2530   0.928   4.728   6.936
  544SOL    HW1 2531   0.839   4.772   6.945
  544SOL    HW2 2532   1.000   4.792   6.964
  545SOL     OW 2533   5.440   1.464   1.202
  545SOL    HW1 2534   5.539   1.468   1.192
  545SOL    HW2 2535   5.414   1.500   1.292
  546SOL     OW 2536   0.143   4.456   2.127
  546SOL    HW1 2537   0.070   4.518   2.159
  546SOL    HW2 2538   0.132   4.440   2.029
  547SOL     OW 2539   3.496   2.148   0.415
  547SOL    HW1 2540   3.465   2.099   0.334
  547SOL    HW2 2541   3.590   2.179   0.402
  548SOL     OW 2542   3.477   3.304   0.584
  548SOL    HW1 2543   3.416   3.225   0.571
  548SOL    HW2 2544   3.481   3.327   0.681
  549SOL     OW 2545   5.225   2.431   0.768
  549SOL    HW1 2546   5.134   2.438   0.727
  549SOL    HW2 2547   5.227   2.352   0.829
  550SOL     OW 2548   6.824   4.326   3.361
  550SOL    HW1 2549   6.756   4.306   3.431
  550SOL    HW2 2550   6.883   4.247   3.348
  551SOL     OW 2551   6.742   1.023   0.906
  551SOL    HW1 2552   6.729   0.925   0.921
  551SOL    HW2 2553   6.838   1.046   0.920
  552SOL     OW 2554   5.157   5.258   5.062
  552SOL    HW1 2555   5.092   5.232   5.133
  552SOL    HW2 2556   5.108   5.297   4.984
  553SOL     OW 2557   3.316   0.602   4.357
  553SOL    HW1 2558   3.376   0.663   4.305
  553SOL    HW2 2559   3.284   0.529   4.297
  554SOL     OW 2560   5.843   5.586   0.149
  554SOL    HW1 2561   5.811   5.497   0.180
  554SOL    HW2 2562   5.780   5.657   0.180
  555SOL     OW 2563   3.485   5.820   5.419
  555SOL    HW1 2564   3.470   5.867   5.507
  555SOL    HW2 2565   3.583   5.816   5.400
  556SOL     OW 2566   5.291   1.778   4.472
  556SOL    HW1 2567   5.296   1.731   4.560
  556SOL    HW2 2568   5.317   1.715   4.399
  557SOL     OW 2569   6.833   4.666   6.291
  557SOL    HW1 2570   6.757   4.629   6.344
  557SOL    HW2 2571   6.861   4.598   6.222
  558SOL     OW 2572   3.980   3.925   3.489
  558SOL    HW1 2573   4.037   3.849   3.459
  558SOL    HW2 2574   3.954   3.980   3.410
  559SOL     OW 2575   6.199   5.684   5.858
  559SOL    HW1 2576   6.226   5.600   5.907
  559SOL    HW2 2577   6.126   5.663   5.793
  560SOL     OW 2578   6.707   2.976   3.962
  560SOL    HW1 2579   6.607   2.975   3.965
  560SOL    HW2 2580   6.741   2.893   3.918
  561SOL     OW 2581   6.845   3.294   6.412
  561SOL    HW1 2582   6.913   3.355   6.370
  561SOL    HW2 2583   6.848   3.304   6.512
  562SOL     OW 2584   5.002   6.950   5.706
  562SOL    HW1 2585   5.024   6.903   5.621
  562SOL    HW2 2586   5.023   0.022   5.698
  563SOL     OW 2587   1.662   1.846   4.174
  563SOL    HW1 2588   1.744   1.867   4.120
  563SOL    HW2 2589   1.581   1.864   4.118
  564SOL     OW 2590   0.113   1.367   6.867
  564SOL    HW1 2591   0.062   1.282   6.857
  564SOL    HW2 2592   0.057   1.443   6.836
  565SOL     OW 2593   3.020   3.108   3.595
  565SOL    HW1 2594   3.044   3.074   3.505
  565SOL    HW2 2595   3.100   3.104   3.655
  566SOL     OW 2596   2.476   4.895   2.894
  566SOL    HW1 2597   2.455   4.879   2.798
  566SOL    HW2 2598   2.572   4.873   2.911
  567SOL     OW 2599   2.642   2.726   0.406
  567SOL    HW1 2600   2.643   2.751   0.502
  567SOL    HW2 2601   2.641   2.626   0.398
  568SOL     OW 2602   5.484   6.884   0.786
  568SOL    HW1 2603   5.396   6.911   0.748
  568SOL    HW2 2604   5.525   6.962   0.834
  569SOL     OW 2605   1.241   2.533   0.559
  569SOL    HW1 2606   1.169   2.501   0.620
  569SOL    HW2 2607   1.279   2.619   0.593
  570SOL     OW 2608   3.134   0.217   6.104
  570SOL    HW1 2609   3.234   0.214   6.106
  570SOL    HW2 2610   3.104   0.311   6.086
  571SOL     OW 2611   2.680   4.997   3.632
  571SOL    HW1 2612   2.604   4.951   3.587
  571SOL    HW2 2613   2.645   5.061   3.700
  572SOL     OW 2614   1.922   5.798   4.775
  572SOL    HW1 2615   1.913   5.767   4.681
  572SOL    HW2 2616   2.008   5.763   4.814
  573SOL     OW 2617   6.389   1.503   5.512
  573SOL    HW1 2618   6.329   1.423   5.515
  573SOL    HW2 2619   6.339   1.583   5.546
  574SOL     OW 2620   3.427   0.997   5.359
  574SOL    HW1 2621   3.460   0.906   5.337
  574SOL    HW2 2622   3.499   1.049   5.406
  575SOL     OW 2623   4.458   2.931   1.016
  575SOL    HW1 2624   4.493   3.020   1.047
  575SOL    HW2 2625   4.405   2.889   1.090
  576SOL     OW 2626   1.915   3.010   2.835
  576SOL    HW1 2627   1.988   3.050   2.779
  576SOL    HW2 2628   1.887   3.075   2.905
  577SOL     OW 2629   0.950   0.621   2.546
  577SOL    HW1 2630   0.927   0.705   2.497
  577SOL    HW2 2631   0.873   0.557   2.541
  578SOL     OW 2632   1.601   5.566   0.035
  578SOL    HW1 2633   1.680   5.504   0.026
  578SOL    HW2 2634   1.526   5.533   7.002
  579SOL     OW 2635   2.070   4.804   2.456
  579SOL    HW1 2636   2.004   4.730   2.449
  579SOL    HW2 2637   2.158   4.768   2.488
  580SOL     OW 2638   4.602   5.111   5.226
  580SOL    HW1 2639   4.602   5.169   5.307
  580SOL    HW2 2640   4.520   5.054   5.226
  581SOL     OW 2641   0.673   3.425   3.782
  581SOL    HW1 2642   0.719   3.341   3.754
  581SOL    HW2 2643   0.735   3.481   3.836
  582SOL     OW 2644   4.633   5.510   3.615
  582SOL    HW1 2645   4.703   5.564   3.662
  582SOL    HW2 2646   4.676   5.430   3.573
  583SOL     OW 2647   3.197   5.330   5.420
  583SOL    HW1 2648   3.190   5.237   5.385
  583SOL    HW2 2649   3.109   5.376   5.411
  584SOL     OW 2650   3.290   6.673   6.213
  584SOL    HW1 2651   3.315   6.764   6.180
  584SOL    HW2 2652   3.362   6.608   6.189
  585SOL     OW 2653   4.133   0.245   1.248
  585SOL    HW1 2654   4.116   0.301   1.167
  585SOL    HW2 2655   4.143   0.149   1.221
  586SOL     OW 2656   3.773   0.350   1.020
  586SOL    HW1 2657   3.747   0.421   0.954
  586SOL    HW2 2658   3.784   0.391   1.111
  587SOL     OW 2659   5.561   2.348   2.313
  587SOL    HW1 2660   5.536   2.317   2.222
  587SOL    HW2 2661   5.492   2.414   2.345
  588SOL     OW 2662   1.594   5.233   1.150
  588SOL    HW1 2663   1.604   5.135   1.167
  588SOL    HW2 2664   1.676   5.267   1.103
  589SOL     OW 2665   3.118   5.722   1.354
  589SOL    HW1 2666   3.138   5.809   1.399
  589SOL    HW2 2667   3.125   5.647   1.420
  590SOL     OW 2668   5.352   1.354   0.835
  590SOL    HW1 2669   5.304   1.296   0.768
  590SOL    HW2 2670   5.370   1.301   0.918
  591SOL     OW 2671   4.473   5.910   3.562
  591SOL    HW1 2672   4.416   5.975   3.511
  591SOL    HW2 2673   4.437   5.901   3.655
  592SOL     OW 2674   4.873   0.764   3.567
  592SOL    HW1 2675   4.931   0.823   3.510
  592SOL    HW2 2676   4.788   0.812   3.590
  593SOL     OW 2677   4.142   1.875   4.786
  593SOL    HW1 2678   4.186   1.887   4.875
  593SOL    HW2 2679   4.122   1.964   4.746
  594SOL     OW 2680   6.008   1.577   0.750
  594SOL    HW1 2681   5.979   1.483   0.731
  594SOL    HW2 2682   6.005   1.630   0.665
  595SOL     OW 2683   5.269   6.168   3.306
  595SOL    HW1 2684   5.270   6.239   3.376
  595SOL    HW2 2685   5.356   6.119   3.306
  596SOL     OW 2686   0.066   5.072   3.576
  596SOL    HW1 2687   0.017   5.010   3.515
  596SOL    HW2 2688   0.156   5.033   3.597
  597SOL     OW 2689   2.760   0.337   6.083
  597SOL    HW1 2690   2.671   0.306   6.049
  597SOL    HW2 2691   2.830   0.271   6.055
  598SOL     OW 2692   3.119   4.086   4.734
  598SOL    HW1 2693   3.095   4.089   4.831
  598SOL    HW2 2694   3.143   3.993   4.708
  599SOL     OW 2695   2.066   6.465   1.863
  599SOL    HW1 2696   2.113   6.519   1.793
  599SOL    HW2 2697   2.110   6.480   1.951
  600SOL     OW 2698   0.289   3.490   5.760
  600SOL    HW1 2699   0.256   3.584   5.746
  600SOL    HW2 2700   0.217   3.435   5.802
  601SOL     OW 2701   1.541   0.862   5.135
  601SOL    HW1 2702   1.535   0.959   5.109
  601SOL    HW2 2703   1.626   0.823   5.098
  602SOL     OW 2704   2.902   0.513   5.841
  602SOL    HW1 2705   2.818   0.490   5.890
  602SOL    HW2 2706   2.918   0.612   5.846
  603SOL     OW 2707   1.586   1.580   5.408
  603SOL    HW1 2708   1.619   1.617   5.321
  603SOL    HW2 2709   1.663   1.561   5.469
  604SOL     OW 2710   0.522   2.579   1.833
  604SOL    HW1 2711   0.505   2.495   1.783
  604SOL    HW2 2712   0.487   2.657   1.781
  605SOL     OW 2713   6.964   4.980   2.272
  605SOL    HW1 2714   6.963   5.016   2.178
  605SOL    HW2 2715   0.030   4.992   2.312
  606SOL     OW 2716   4.375   6.919   5.312
  606SOL    HW1 2717   4.366   6.868   5.397
  606SOL    HW2 2718   4.286   6.958   5.286
  607SOL     OW 2719   0.493   4.956   5.516
  607SOL    HW1 2720   0.478   4.986   5.422
  607SOL    HW2 2721   0.434   5.009   5.578
  608SOL     OW 2722   3.537   0.003   6.912
  608SOL    HW1 2723   3.461   6.990   6.859
  608SOL    HW2 2724   3.526   7.003   7.008
  609SOL     OW 2725   3.648   2.542   1.711
  609SOL    HW1 2726   3.654   2.633   1.752
  609SOL    HW2 2727   3.643   2.473   1.782
  610SOL     OW 2728   4.086   2.219   0.314
  610SOL    HW1 2729   4.098   2.315   0.290
  610SOL    HW2 2730   4.155   2.191   0.380
  611SOL     OW 2731   3.976   0.012   3.011
  611SOL    HW1 2732   4.044   6.990   3.068
  611SOL    HW2 2733   4.022   0.083   2.958
  612SOL     OW 2734   2.969   5.080   5.084
  612SOL    HW1 2735   2.964   5.126   5.173
  612SOL    HW2 2736   2.911   4.999   5.086
  613SOL     OW 2737   5.401   5.149   4.918
  613SOL    HW1 2738   5.371   5.176   5.010
  613SOL    HW2 2739   5.359   5.062   4.893
  614SOL     OW 2740   5.068   4.750   4.907
  614SOL    HW1 2741   5.124   4.671   4.883
  614SOL    HW2 2742   4.971   4.725   4.902
  615SOL     OW 2743   6.871   3.719   0.784
  615SOL    HW1 2744   6.824   3.644   0.736
  615SOL    HW2 2745   6.936   3.681   0.849
  616SOL     OW 2746   6.282   2.667   2.805
  616SOL    HW1 2747   6.252   2.607   2.880
  616SOL    HW2 2748   6.215   2.740   2.791
  617SOL     OW 2749   1.578   4.775   6.730
  617SOL    HW1 2750   1.590   4.789   6.632
  617SOL    HW2 2751   1.637   4.838   6.781
  618SOL     OW 2752   1.914   2.358   1.539
  618SOL    HW1 2753   1.873   2.367   1.448
  618SOL    HW2 2754   1.913   2.447   1.585
  619SOL     OW 2755   1.841   2.115   0.847
  619SOL    HW1 2756   1.898   2.187   0.808
  619SOL    HW2 2757   1.900   2.042   0.883
  620SOL     OW 2758   4.315   1.705   0.393
  620SOL    HW1 2759   4.315   1.767   0.314
  620SOL    HW2 2760   4.226   1.711   0.439
  621SOL     OW 2761   5.874   5.096   6.574
  621SOL    HW1 2762   5.805   5.125   6.509
  621SOL    HW2 2763   5.887   5.167   6.643
  622SOL     OW 2764   1.642   1.107   0.133
  622SOL    HW1 2765   1.716   1.167   0.165
  622SOL    HW2 2766   1.571   1.163   0.089
  623SOL     OW 2767   0.482   6.245   5.572
  623SOL    HW1 2768   0.535   6.176   5.523
  623SOL    HW2 2769   0.541   6.288   5.641
  624SOL     OW 2770   0.757   2.947   2.251
  624SOL    HW1 2771   0.723   3.020   2.310
  624SOL    HW2 2772   0.755   2.860   2.300
  625SOL     OW 2773   3.162   2.188   1.436
  625SOL    HW1 2774   3.200   2.115   1.492
  625SOL    HW2 2775   3.100   2.244   1.491
  626SOL     OW 2776   2.101   5.853   3.639
  626SOL    HW1 2777   2.094   5.879   3.542
  626SOL    HW2 2778   2.121   5.756   3.645
  627SOL     OW 2779   5.134   0.177   0.591
  627SOL    HW1 2780   5.061   0.244   0.583
  627SOL    HW2 2781   5.185   0.193   0.676
  628SOL     OW 2782   4.733   4.909   4.932
  628SOL    HW1 2783   4.676   4.985   4.961
  628SOL    HW2 2784   4.829   4.933   4.941
  629SOL     OW 2785   0.465   0.221   1.220
  629SOL    HW1 2786   0.430   0.314   1.229
  629SOL    HW2 2787   0.440   0.168   1.302
  630SOL     OW 2788   5.462   2.606   2.140
  630SOL    HW1 2789   5.468   2.506   2.143
  630SOL    HW2 2790   5.465   2.638   2.046
  631SOL     OW 2791   3.163   0.474   5.086
  631SOL    HW1 2792   3.144   0.547   5.152
  631SOL    HW2 2793   3.217   0.403   5.129
  632SOL     OW 2794   2.257   1.292   0.429
  632SOL    HW1 2795   2.329   1.231   0.396
  632SOL    HW2 2796   2.193   1.240   0.486
  633SOL     OW 2797   3.175   5.405   0.173
  633SOL    HW1 2798   3.079   5.404   0.201
  633SOL    HW2 2799   3.208   5.500   0.171
  634SOL     OW 2800   4.277   4.832   1.817
  634SOL    HW1 2801   4.272   4.752   1.757
  634SOL    HW2 2802   4.242   4.808   1.907
  635SOL     OW 2803   4.556   6.571   3.304
  635SOL    HW1 2804   4.467   6.568   3.349
  635SOL    HW2 2805   4.628   6.568   3.372
  636SOL     OW 2806   5.077   5.612   6.626
  636SOL    HW1 2807   5.120   5.536   6.676
  636SOL    HW2 2808   5.107   5.699   6.666
  637SOL     OW 2809   5.559   4.912   2.107
  637SOL    HW1 2810   5.466   4.943   2.088
  637SOL    HW2 2811   5.564   4.878   2.201
  638SOL     OW 2812   5.095   1.150   2.213
  638SOL    HW1 2813   5.042   1.235   2.217
  638SOL    HW2 2814   5.166   1.159   2.142
  639SOL     OW 2815   4.959   5.192   2.387
  639SOL    HW1 2816   5.054   5.162   2.379
  639SOL    HW2 2817   4.931   5.235   2.301
  640SOL     OW 2818   2.470   4.347   5.632
  640SOL    HW1 2819   2.420   4.273   5.586
  640SOL    HW2 2820   2.544   4.379   5.573
  641SOL     OW 2821   0.680   5.569   4.431
  641SOL    HW1 2822   0.723   5.560   4.521
  641SOL    HW2 2823   0.590   5.526   4.433
  642SOL     OW 2824   0.228   3.950   4.051
  642SOL    HW1 2825   0.195   3.929   4.143
  642SOL    HW2 2826   0.284   3.874   4.017
  643SOL     OW 2827   6.098   5.559   4.600
  643SOL    HW1 2828   6.083   5.474   4.551
  643SOL    HW2 2829   6.010   5.601   4.622
  644SOL     OW 2830   0.642   6.166   2.698
  644SOL    HW1 2831   0.601   6.233   2.760
  644SOL    HW2 2832   0.609   6.183   2.605
  645SOL     OW 2833   5.000   2.517   4.648
  645SOL    HW1 2834   4.953   2.540   4.563
  645SOL    HW2 2835   4.940   2.463   4.706
  646SOL     OW 2836   1.810   1.909   3.356
  646SOL    HW1 2837   1.815   1.996   3.307
  646SOL    HW2 2838   1.727   1.860   3.329
  647SOL     OW 2839   6.042   2.939   6.504
  647SOL    HW1 2840   6.090   2.987   6.430
  647SOL    HW2 2841   5.944   2.944   6.488
  648SOL     OW 2842   5.940   3.905   2.771
  648SOL    HW1 2843   5.927   3.979   2.837
  648SOL    HW2 2844   5.990   3.830   2.814
  649SOL     OW 2845   4.243   4.190   0.511
  649SOL    HW1 2846   4.338   4.178   0.481
  649SOL    HW2 2847   4.237   4.174   0.609
  650SOL     OW 2848   4.697   4.582   0.532
  650SOL    HW1 2849   4.692   4.495   0.582
  650SOL    HW2 2850   4.735   4.566   0.441
  651SOL     OW 2851   0.203   6.126   0.714
  651SOL    HW1 2852   0.143   6.047   0.721
  651SOL    HW2 2853   0.205   6.174   0.802
  652SOL     OW 2854   4.893   6.721   3.508
  652SOL    HW1 2855   4.865   6.768   3.424
  652SOL    HW2 2856   4.842   6.757   3.586
  653SOL     OW 2857   3.568   5.148   5.251
  653SOL    HW1 2858   3.589   5.102   5.338
  653SOL    HW2 2859   3.591   5.087   5.175
  654SOL     OW 2860   0.073   4.773   6.170
  654SOL    HW1 2861   7.015   4.725   6.140
  654SOL    HW2 2862   0.047   4.855   6.220
  655SOL     OW 2863   0.871   6.958   1.983
  655SOL    HW1 2864   0.961   6.993   1.955
  655SOL    HW2 2865   0.837   7.014   2.058
  656SOL     OW 2866   2.189   6.117   1.771
  656SOL    HW1 2867   2.231   6.181   1.707
  656SOL    HW2 2868   2.255   6.092   1.842
  657SOL     OW 2869   2.265   1.986   1.517
  657SOL    HW1 2870   2.232   1.894   1.537
  657SOL    HW2 2871   2.200   2.054   1.553
  658SOL     OW 2872   3.344   3.196   6.966
  658SOL    HW1 2873   3.414   3.267   6.971
  658SOL    HW2 2874   3.325   3.161   0.033
  659SOL     OW 2875   3.054   6.136   6.292
  659SOL    HW1 2876   3.060   6.224   6.339
  659SOL    HW2 2877   3.089   6.144   6.199
  660SOL     OW 2878   4.046   5.735   1.807
  660SOL    HW1 2879   4.070   5.755   1.712
  660SOL    HW2 2880   3.946   5.739   1.817
  661SOL     OW 2881   4.061   5.891   3.392
  661SOL    HW1 2882   4.005   5.963   3.351
  661SOL    HW2 2883   4.057   5.898   3.491
  662SOL     OW 2884   3.488   0.731   5.345
  662SOL    HW1 2885   3.536   0.684   5.271
  662SOL    HW2 2886   3.437   0.665   5.400
  663SOL     OW 2887   2.196   3.689   5.628
  663SOL    HW1 2888   2.125   3.644   5.574
  663SOL    HW2 2889   2.192   3.658   5.723
  664SOL     OW 2890   6.875   6.364   6.210
  664SOL    HW1 2891   6.799   6.404   6.158
  664SOL    HW2 2892   6.884   6.413   6.297
  665SOL     OW 2893   3.647   5.276   2.831
  665SOL    HW1 2894   3.676   5.339   2.902
  665SOL    HW2 2895   3.549   5.259   2.839
  666SOL     OW 2896   4.634   0.628   2.114
  666SOL    HW1 2897   4.606   0.542   2.071
  666SOL    HW2 2898   4.589   0.705   2.068
  667SOL     OW 2899   0.933   5.378   1.826
  667SOL    HW1 2900   1.001   5.313   1.861
  667SOL    HW2 2901   0.878   5.334   1.755
  668SOL     OW 2902   5.215   5.958   5.798
  668SOL    HW1 2903   5.270   5.979   5.879
  668SOL    HW2 2904   5.188   5.861   5.800
  669SOL     OW 2905   5.922   1.211   3.267
  669SOL    HW1 2906   5.851   1.272   3.304
  669SOL    HW2 2907   5.895   1.179   3.177
  670SOL     OW 2908   2.765   1.676   2.253
  670SOL    HW1 2909   2.685   1.620   2.233
  670SOL    HW2 2910   2.738   1.772   2.259
  671SOL     OW 2911   3.486   5.844   1.345
  671SOL    HW1 2912   3.442   5.912   1.404
  671SOL    HW2 2913   3.479   5.873   1.250
  672SOL     OW 2914   6.645   5.262   1.759
  672SOL    HW1 2915   6.604   5.326   1.825
  672SOL    HW2 2916   6.663   5.175   1.805
  673SOL     OW 2917   5.851   0.270   1.111
  673SOL    HW1 2918   5.918   0.212   1.157
  673SOL    HW2 2919   5.775   0.289   1.173
  674SOL     OW 2920   0.679   1.466   4.997
  674SOL    HW1 2921   0.686   1.465   5.097
  674SOL    HW2 2922   0.644   1.377   4.966
  675SOL     OW 2923   5.817   2.455   2.377
  675SOL    HW1 2924   5.841   2.518   2.304
  675SOL    HW2 2925   5.728   2.413   2.358
  676SOL     OW 2926   2.108   4.962   4.685
  676SOL    HW1 2927   2.042   4.887   4.679
  676SOL    HW2 2928   2.180   4.949   4.617
  677SOL     OW 2929   5.331   0.905   1.518
  677SOL    HW1 2930   5.332   0.816   1.565
  677SOL    HW2 2931   5.392   0.968   1.565
  678SOL     OW 2932   2.618   4.987   4.715
  678SOL    HW1 2933   2.647   4.892   4.720
  678SOL    HW2 2934   2.698   5.047   4.715
  679SOL     OW 2935   5.402   1.416   5.024
  679SOL    HW1 2936   5.363   1.431   4.933
  679SOL    HW2 2937   5.494   1.376   5.015
  680SOL     OW 2938   4.726   5.862   4.310
  680SOL    HW1 2939   4.759   5.922   4.383
  680SOL    HW2 2940   4.634   5.829   4.333
  681SOL     OW 2941   4.167   6.059   2.237
  681SOL    HW1 2942   4.136   6.062   2.142
  681SOL    HW2 2943   4.155   5.966   2.273
  682SOL     OW 2944   6.595   1.149   1.717
  682SOL    HW1 2945   6.643   1.168   1.631
  682SOL    HW2 2946   6.520   1.086   1.700
  683SOL     OW 2947   4.846   2.869   0.646
  683SOL    HW1 2948   4.791   2.878   0.563
  683SOL    HW2 2949   4.790   2.829   0.719
  684SOL     OW 2950   6.044   1.059   0.173
  684SOL    HW1 2951   6.053   0.964   0.146
  684SOL    HW2 2952   5.950   1.076   0.204
  685SOL     OW 2953   2.960   2.275   3.763
  685SOL    HW1 2954   3.046   2.307   3.724
  685SOL    HW2 2955   2.978   2.231   3.851
  686SOL     OW 2956   4.766   1.641   4.930
  686SOL    HW1 2957   4.714   1.583   4.868
  686SOL    HW2 2958   4.842   1.684   4.881
  687SOL     OW 2959   0.866   1.894   4.627
  687SOL    HW1 2960   0.962   1.923   4.624
  687SOL    HW2 2961   0.861   1.796   4.646
  688SOL     OW 2962   0.005   1.432   5.869
  688SOL    HW1 2963   0.043   1.465   5.782
  688SOL    HW2 2964   6.993   1.340   5.855
  689SOL     OW 2965   2.390   4.445   6.038
  689SOL    HW1 2966   2.375   4.394   5.954
  689SOL    HW2 2967   2.486   4.473   6.043
  690SOL     OW 2968   6.874   3.769   3.714
  690SOL    HW1 2969   6.884   3.748   3.617
  690SOL    HW2 2970   6.849   3.865   3.725
  691SOL     OW 2971   3.363   1.543   1.267
  691SOL    HW1 2972   3.366   1.444   1.253
  691SOL    HW2 2973   3.361   1.589   1.179
  692SOL     OW 2974   3.909   1.707   5.053
  692SOL    HW1 2975   3.955   1.668   5.133
  692SOL    HW2 2976   3.816   1.670   5.047
  693SOL     OW 2977   5.086   6.719   3.830
  693SOL    HW1 2978   5.053   6.812   3.811
  693SOL    HW2 2979   5.010   6.663   3.864
  694SOL     OW 2980   4.291   6.335   3.938
  694SOL    HW1 2981   4.386   6.366   3.947
  694SOL    HW2 2982   4.255   6.312   4.028
  695SOL     OW 2983   3.699   5.747   3.953
  695SOL    HW1 2984   3.770   5.738   4.022
  695SOL    HW2 2985   3.671   5.843   3.946
  696SOL     OW 2986   4.969   4.306   3.489
  696SOL    HW1 2987   4.965   4.367   3.569
  696SOL    HW2 2988   4.911   4.226   3.506
  697SOL     OW 2989   1.445   3.520   2.428
  697SOL    HW1 2990   1.488   3.599   2.471
  697SOL    HW2 2991   1.515   3.459   2.393
  698SOL     OW 2992   4.792   6.424   0.854
  698SOL    HW1 2993   4.701   6.423   0.897
  698SOL    HW2 2994   4.822   6.330   0.839
  699SOL     OW 2995   2.219   2.892   6.690
  699SOL    HW1 2996   2.210   2.969   6.626
  699SOL    HW2 2997   2.154   2.903   6.765
  700SOL     OW 2998   3.501   0.268   2.036
  700SOL    HW1 2999   3.414   0.219   2.032
  700SOL    HW2 3000   3.574   0.210   2.001
  701SOL     OW 3001   0.054   4.484   0.648
  701SOL    HW1 3002   0.103   4.399   0.668
  701SOL    HW2 3003   6.997   4.490   0.706
  702SOL     OW 3004   1.919   0.051   3.983
  702SOL    HW1 3005   1.958   0.072   3.893
  702SOL    HW2 3006   1.897   0.136   4.031
  703SOL     OW 3007   3.120   3.570   5.667
  703SOL    HW1 3008   3.210   3.530   5.687
  703SOL    HW2 3009   3.101   3.561   5.569
  704SOL     OW 3010   2.152   2.207   6.081
  704SOL    HW1 3011   2.163   2.305   6.097
  704SOL    HW2 3012   2.157   2.159   6.169
  705SOL     OW 3013   6.569   5.879   3.250
  705SOL    HW1 3014   6.568   5.877   3.150
  705SOL    HW2 3015   6.523   5.962   3.282
  706SOL     OW 3016   4.278   1.755   5.259
  706SOL    HW1 3017   4.346   1.742   5.332
  706SOL    HW2 3018   4.222   1.673   5.251
  707SOL     OW 3019   3.873   4.844   3.427
  707SOL    HW1 3020   3.954   4.853   3.369
  707SOL    HW2 3021   3.792   4.836   3.369
  708SOL     OW 3022   2.687   1.803   3.302
  708SOL    HW1 3023   2.732   1.731   3.250
  708SOL    HW2 3024   2.755   1.853   3.356
  709SOL     OW 3025   1.175   6.553   1.140
  709SOL    HW1 3026   1.245   6.571   1.072
  709SOL    HW2 3027   1.089   6.596   1.112
  710SOL     OW 3028   4.921   2.531   1.661
  710SOL    HW1 3029   4.982   2.498   1.733
  710SOL    HW2 3030   4.829   2.494   1.675
  711SOL     OW 3031   7.014   2.901   6.557
  711SOL    HW1 3032   6.980   2.821   6.507
  711SOL    HW2 3033   6.947   2.927   6.627
  712SOL     OW 3034   5.045   1.844   0.824
  712SOL    HW1 3035   5.130   1.808   0.784
  712SOL    HW2 3036   5.020   1.789   0.903
  713SOL     OW 3037   4.254   2.719   5.289
  713SOL    HW1 3038   4.194   2.792   5.258
  713SOL    HW2 3039   4.243   2.639   5.230
  714SOL     OW 3040   5.701   5.614   4.033
  714SOL    HW1 3041   5.774   5.554   4.066
  714SOL    HW2 3042   5.620   5.602   4.090
  715SOL     OW 3043   6.348   5.444   6.043
  715SOL    HW1 3044   6.423   5.400   6.092
  715SOL    HW2 3045   6.286   5.374   6.007
  716SOL     OW 3046   1.655   1.044   3.434
  716SOL    HW1 3047   1.593   1.121   3.448
  716SOL    HW2 3048   1.733   1.052   3.497
  717SOL     OW 3049   6.435   4.533   4.154
  717SOL    HW1 3050   6.459   4.516   4.249
  717SOL    HW2 3051   6.389   4.622   4.146
  718SOL     OW 3052   4.832   3.059   5.216
  718SOL    HW1 3053   4.905   2.993   5.195
  718SOL    HW2 3054   4.750   3.036   5.164
  719SOL     OW 3055   5.516   0.221   2.401
  719SOL    HW1 3056   5.525   0.166   2.318
  719SOL    HW2 3057   5.504   0.317   2.377
  720SOL     OW 3058   2.257   0.111   5.991
  720SOL    HW1 3059   2.231   0.205   6.015
  720SOL    HW2 3060   2.349   0.092   6.025
  721SOL     OW 3061   1.824   1.401   2.280
  721SOL    HW1 3062   1.882   1.481   2.264
  721SOL    HW2 3063   1.779   1.375   2.194
  722SOL     OW 3064   2.928   0.769   5.932
  722SOL    HW1 3065   3.002   0.836   5.918
  722SOL    HW2 3066   2.867   0.802   6.005
  723SOL     OW 3067   1.781   5.975   3.530
  723SOL    HW1 3068   1.741   5.926   3.453
  723SOL    HW2 3069   1.780   5.917   3.611
  724SOL     OW 3070   0.358   1.225   3.983
  724SOL    HW1 3071   0.314   1.294   3.926
  724SOL    HW2 3072   0.457   1.231   3.972
  725SOL     OW 3073   2.160   4.473   2.439
  725SOL    HW1 3074   2.233   4.523   2.486
  725SOL    HW2 3075   2.143   4.387   2.486
  726SOL     OW 3076   2.309   4.919   0.930
  726SOL    HW1 3077   2.334   4.828   0.965
  726SOL    HW2 3078   2.224   4.912   0.878
  727SOL     OW 3079   4.779   5.227   6.359
  727SOL    HW1 3080   4.761   5.211   6.456
  727SOL    HW2 3081   4.824   5.316   6.348
  728SOL     OW 3082   6.657   3.117   4.335
  728SOL    HW1 3083   6.600   3.135   4.415
  728SOL    HW2 3084   6.609   3.145   4.252
  729SOL     OW 3085   0.489   2.904   1.256
  729SOL    HW1 3086   0.500   2.870   1.349
  729SOL    HW2 3087   0.520   2.999   1.251
  730SOL     OW 3088   5.472   1.147   3.454
  730SOL    HW1 3089   5.472   1.202   3.370
  730SOL    HW2 3090   5.463   1.050   3.429
  731SOL     OW 3091   5.428   4.701   6.692
  731SOL    HW1 3092   5.436   4.618   6.746
  731SOL    HW2 3093   5.383   4.681   6.606
  732SOL     OW 3094   5.567   2.764   2.433
  732SOL    HW1 3095   5.552   2.793   2.338
  732SOL    HW2 3096   5.663   2.779   2.458
  733SOL     OW 3097   5.985   0.665   4.400
  733SOL    HW1 3098   5.931   0.724   4.339
  733SOL    HW2 3099   6.082   0.685   4.388
  734SOL     OW 3100   5.925   5.049   3.100
  734SOL    HW1 3101   6.015   5.041   3.057
  734SOL    HW2 3102   5.901   4.962   3.143
  735SOL     OW 3103   4.367   1.088   1.448
  735SOL    HW1 3104   4.332   1.176   1.479
  735SOL    HW2 3105   4.403   1.037   1.526
  736SOL     OW 3106   1.129   1.799   3.700
  736SOL    HW1 3107   1.160   1.745   3.622
  736SOL    HW2 3108   1.029   1.805   3.699
  737SOL     OW 3109   5.928   1.608   6.112
  737SOL    HW1 3110   5.888   1.689   6.154
  737SOL    HW2 3111   6.005   1.634   6.055
  738SOL     OW 3112   2.640   3.926   1.401
  738SOL    HW1 3113   2.730   3.937   1.443
  738SOL    HW2 3114   2.573   3.905   1.472
  739SOL     OW 3115   3.614   0.344   5.147
  739SOL    HW1 3116   3.616   0.433   5.101
  739SOL    HW2 3117   3.628   0.358   5.245
  740SOL     OW 3118   6.069   1.871   2.797
  740SOL    HW1 3119   6.027   1.796   2.747
  740SOL    HW2 3120   6.012   1.953   2.790
  741SOL     OW 3121   1.583   0.920   4.641
  741SOL    HW1 3122   1.605   1.007   4.596
  741SOL    HW2 3123   1.658   0.855   4.624
  742SOL     OW 3124   2.425   5.727   1.270
  742SOL    HW1 3125   2.358   5.776   1.326
  742SOL    HW2 3126   2.481   5.792   1.219
  743SOL     OW 3127   0.113   6.132   3.041
  743SOL    HW1 3128   0.194   6.132   2.982
  743SOL    HW2 3129   0.031   6.132   2.984
  744SOL     OW 3130   6.149   0.924   0.476
  744SOL    HW1 3131   6.194   0.956   0.560
  744SOL    HW2 3132   6.202   0.953   0.397
  745SOL     OW 3133   2.494   5.826   5.213
  745SOL    HW1 3134   2.440   5.747   5.242
  745SOL    HW2 3135   2.491   5.833   5.113
  746SOL     OW 3136   5.935   4.595   5.544
  746SOL    HW1 3137   5.895   4.509   5.577
  746SOL    HW2 3138   5.874   4.636   5.477
  747SOL     OW 3139   4.852   6.244   4.180
  747SOL    HW1 3140   4.835   6.295   4.264
  747SOL    HW2 3141   4.950   6.229   4.168
  748SOL     OW 3142   5.226   5.379   2.397
  748SOL    HW1 3143   5.129   5.402   2.395
  748SOL    HW2 3144   5.237   5.280   2.389
  749SOL     OW 3145   5.514   3.611   3.697
  749SOL    HW1 3146   5.584   3.596   3.767
  749SOL    HW2 3147   5.558   3.622   3.607
  750SOL     OW 3148   3.339   0.848   1.299
  750SOL    HW1 3149   3.256   0.812   1.258
  750SOL    HW2 3150   3.418   0.793   1.270
  751SOL     OW 3151   5.150   1.298   1.509
  751SOL    HW1 3152   5.230   1.256   1.466
  751SOL    HW2 3153   5.108   1.362   1.445
  752SOL     OW 3154   3.254   2.239   6.453
  752SOL    HW1 3155   3.327   2.204   6.512
  752SOL    HW2 3156   3.226   2.329   6.486
  753SOL     OW 3157   2.828   3.390   5.517
  753SOL    HW1 3158   2.746   3.349   5.477
  753SOL    HW2 3159   2.814   3.399   5.616
  754SOL     OW 3160   4.160   1.145   0.274
  754SOL    HW1 3161   4.224   1.107   0.206
  754SOL    HW2 3162   4.079   1.087   0.280
  755SOL     OW 3163   2.789   4.615   5.367
  755SOL    HW1 3164   2.699   4.572   5.359
  755SOL    HW2 3165   2.846   4.589   5.289
  756SOL     OW 3166   3.097   4.460   0.159
  756SOL    HW1 3167   3.123   4.545   0.204
  756SOL    HW2 3168   3.133   4.383   0.211
  757SOL     OW 3169   2.036   6.366   2.236
  757SOL    HW1 3170   2.062   6.450   2.189
  757SOL    HW2 3171   1.981   6.389   2.317
  758SOL     OW 3172   3.581   1.406   4.206
  758SOL    HW1 3173   3.481   1.408   4.210
  758SOL    HW2 3174   3.611   1.388   4.113
  759SOL     OW 3175   6.938   2.707   3.218
  759SOL    HW1 3176   6.888   2.788   3.188
  759SOL    HW2 3177   0.004   2.706   3.175
  760SOL     OW 3178   6.128   6.807   4.164
  760SOL    HW1 3179   6.112   6.888   4.221
  760SOL    HW2 3180   6.198   6.827   4.096
  761SOL     OW 3181   5.618   4.640   5.700
  761SOL    HW1 3182   5.689   4.699   5.661
  761SOL    HW2 3183   5.529   4.683   5.687
  762SOL     OW 3184   2.645   6.798   5.361
  762SOL    HW1 3185   2.637   6.873   5.427
  762SOL    HW2 3186   2.559   6.747   5.358
  763SOL     OW 3187   4.963   6.999   6.544
  763SOL    HW1 3188   4.893   7.006   6.615
  763SOL    HW2 3189   5.041   6.948   6.578
  764SOL     OW 3190   5.844   1.135   5.133
  764SOL    HW1 3191   5.869   1.127   5.037
  764SOL    HW2 3192   5.923   1.169   5.185
  765SOL     OW 3193   1.354   6.217   0.395
  765SOL    HW1 3194   1.338   6.158   0.475
  765SOL    HW2 3195   1.446   6.256   0.401
  766SOL     OW 3196   2.748   1.954   5.152
  766SOL    HW1 3197   2.719   1.999   5.236
  766SOL    HW2 3198   2.816   2.010   5.106
  767SOL     OW 3199   6.327   6.509   4.006
  767SOL    HW1 3200   6.389   6.496   4.083
  767SOL    HW2 3201   6.275   6.593   4.018
  768SOL     OW 3202   2.222   6.760   3.220
  768SOL    HW1 3203   2.126   6.786   3.224
  768SOL    HW2 3204   2.252   6.761   3.125
  769SOL     OW 3205   3.252   1.407   5.091
  769SOL    HW1 3206   3.198   1.488   5.114
  769SOL    HW2 3207   3.335   1.435   5.042
  770SOL     OW 3208   2.228   4.855   4.462
  770SOL    HW1 3209   2.299   4.878   4.396
  770SOL    HW2 3210   2.223   4.755   4.472
  771SOL     OW 3211   1.436   5.147   3.341
  771SOL    HW1 3212   1.502   5.088   3.294
  771SOL    HW2 3213   1.442   5.131   3.439
  772SOL     OW 3214   5.489   4.911   5.796
  772SOL    HW1 3215   5.562   4.891   5.731
  772SOL    HW2 3216   5.479   5.010   5.806
  773SOL     OW 3217   1.059   3.971   3.207
  773SOL    HW1 3218   1.104   3.953   3.295
  773SOL    HW2 3219   1.052   3.885   3.155
  774SOL     OW 3220   2.500   1.144   2.932
  774SOL    HW1 3221   2.479   1.217   2.867
  774SOL    HW2 3222   2.456   1.165   3.020
  775SOL     OW 3223   1.691   2.344   4.232
  775SOL    HW1 3224   1.741   2.296   4.303
  775SOL    HW2 3225   1.729   2.436   4.221
  776SOL     OW 3226   6.826   0.165   7.003
  776SOL    HW1 3227   6.922   0.187   6.985
  776SOL    HW2 3228   6.815   0.066   7.011
  777SOL     OW 3229   1.554   3.510   1.123
  777SOL    HW1 3230   1.548   3.417   1.087
  777SOL    HW2 3231   1.650   3.534   1.138
  778SOL     OW 3232   2.520   0.193   1.399
  778SOL    HW1 3233   2.455   0.263   1.430
  778SOL    HW2 3234   2.613   0.227   1.410
  779SOL     OW 3235   0.106   2.522   1.772
  779SOL    HW1 3236   0.140   2.603   1.821
  779SOL    HW2 3237   0.019   2.544   1.728
  780SOL     OW 3238   1.094   2.922   4.416
  780SOL    HW1 3239   1.038   2.847   4.380
  780SOL    HW2 3240   1.190   2.907   4.392
  781SOL     OW 3241   6.780   4.916   6.943
  781SOL    HW1 3242   6.776   4.891   0.015
  781SOL    HW2 3243   6.814   4.838   6.890
  782SOL     OW 3244   2.200   4.011   5.283
  782SOL    HW1 3245   2.263   4.027   5.207
  782SOL    HW2 3246   2.140   3.934   5.260
  783SOL     OW 3247   5.692   5.278   0.499
  783SOL    HW1 3248   5.732   5.368   0.520
  783SOL    HW2 3249   5.614   5.261   0.560
  784SOL     OW 3250   2.758   5.767   1.999
  784SOL    HW1 3251   2.689   5.752   1.928
  784SOL    HW2 3252   2.740   5.706   2.076
  785SOL     OW 3253   0.250   1.394   3.820
  785SOL    HW1 3254   0.210   1.438   3.901
  785SOL    HW2 3255   0.328   1.448   3.788
  786SOL     OW 3256   6.789   1.032   2.832
  786SOL    HW1 3257   6.885   1.009   2.848
  786SOL    HW2 3258   6.769   1.025   2.735
  787SOL     OW 3259   2.364   7.014   0.079
  787SOL    HW1 3260   2.332   0.032   0.164
  787SOL    HW2 3261   2.286   6.985   0.025
  788SOL     OW 3262   3.935   2.604   1.608
  788SOL    HW1 3263   4.021   2.554   1.617
  788SOL    HW2 3264   3.859   2.548   1.642
  789SOL     OW 3265   4.032   5.588   2.455
  789SOL    HW1 3266   4.003   5.496   2.482
  789SOL    HW2 3267   4.043   5.644   2.537
  790SOL     OW 3268   1.771   1.604   1.797
  790SOL    HW1 3269   1.824   1.575   1.717
  790SOL    HW2 3270   1.819   1.678   1.843
  791SOL     OW 3271   2.576   6.193   5.282
  791SOL    HW1 3272   2.643   6.124   5.310
  791SOL    HW2 3273   2.519   6.217   5.360
  792SOL     OW 3274   0.499   1.306   1.029
  792SOL    HW1 3275   0.405   1.307   0.993
  792SOL    HW2 3276   0.510   1.228   1.091
  793SOL     OW 3277   4.837   5.935   4.915
  793SOL    HW1 3278   4.922   5.935   4.967
  793SOL    HW2 3279   4.827   5.848   4.866
  794SOL     OW 3280   3.705   3.549   5.381
  794SOL    HW1 3281   3.621   3.547   5.326
  794SOL    HW2 3282   3.758   3.630   5.358
  795SOL     OW 3283   3.874   0.626   6.089
  795SOL    HW1 3284   3.859   0.704   6.150
  795SOL    HW2 3285   3.966   0.590   6.103
  796SOL     OW 3286   2.305   2.788   0.003
  796SOL    HW1 3287   2.274   2.704   6.984
  796SOL    HW2 3288   2.239   2.815   0.073
  797SOL     OW 3289   3.921   0.084   0.805
  797SOL    HW1 3290   3.940   0.137   0.723
  797SOL    HW2 3291   3.822   0.074   0.816
  798SOL     OW 3292   3.109   6.134   1.393
  798SOL    HW1 3293   3.131   6.054   1.449
  798SOL    HW2 3294   3.194   6.181   1.367
  799SOL     OW 3295   6.880   1.673   6.269
  799SOL    HW1 3296   6.902   1.644   6.176
  799SOL    HW2 3297   6.823   1.755   6.267
  800SOL     OW 3298   0.090   1.946   2.411
  800SOL    HW1 3299   0.186   1.938   2.436
  800SOL    HW2 3300   0.076   1.911   2.318
  801SOL     OW 3301   1.732   4.649   5.401
  801SOL    HW1 3302   1.807   4.686   5.346
  801SOL    HW2 3303   1.645   4.688   5.370
  802SOL     OW 3304   4.160   2.392   6.687
  802SOL    HW1 3305   4.174   2.476   6.635
  802SOL    HW2 3306   4.188   2.406   6.782
  803SOL     OW 3307   2.467   6.911   5.736
  803SOL    HW1 3308   2.463   6.897   5.835
  803SOL    HW2 3309   2.376   6.899   5.697
  804SOL     OW 3310   6.541   6.272   1.407
  804SOL    HW1 3311   6.616   6.323   1.449
  804SOL    HW2 3312   6.578   6.209   1.338
  805SOL     OW 3313   1.608   0.101   3.827
  805SOL    HW1 3314   1.676   0.174   3.821
  805SOL    HW2 3315   1.590   0.079   3.923
  806SOL     OW 3316   6.860   0.482   5.709
  806SOL    HW1 3317   6.952   0.444   5.705
  806SOL    HW2 3318   6.826   0.496   5.615
  807SOL     OW 3319   0.790   6.840   3.952
  807SOL    HW1 3320   0.806   6.759   4.009
  807SOL    HW2 3321   0.835   6.919   3.993
  808SOL     OW 3322   5.678   2.785   0.351
  808SOL    HW1 3323   5.629   2.860   0.396
  808SOL    HW2 3324   5.775   2.808   0.344
  809SOL     OW 3325   0.839   4.989   0.062
  809SOL    HW1 3326   0.771   4.969   7.016
  809SOL    HW2 3327   0.847   4.911   0.124
  810SOL     OW 3328   2.776   3.493   0.436
  810SOL    HW1 3329   2.716   3.464   0.362
  810SOL    HW2 3330   2.776   3.424   0.509
  811SOL     OW 3331   5.644   5.215   5.009
  811SOL    HW1 3332   5.695   5.279   4.952
  811SOL    HW2 3333   5.561   5.186   4.961
  812SOL     OW 3334   0.325   2.309   2.905
  812SOL    HW1 3335   0.284   2.387   2.952
  812SOL    HW2 3336   0.257   2.266   2.846
  813SOL     OW 3337   2.606   0.339   4.200
  813SOL    HW1 3338   2.690   0.285   4.185
  813SOL    HW2 3339   2.583   0.339   4.297
  814SOL     OW 3340   6.546   5.868   2.015
  814SOL    HW1 3341   6.472   5.828   1.961
  814SOL    HW2 3342   6.576   5.953   1.972
  815SOL     OW 3343   5.554   2.640   3.804
  815SOL    HW1 3344   5.493   2.561   3.811
  815SOL    HW2 3345   5.501   2.724   3.818
  816SOL     OW 3346   4.571   4.506   0.225
  816SOL    HW1 3347   4.481   4.550   0.222
  816SOL    HW2 3348   4.642   4.574   0.206
  817SOL     OW 3349   1.251   5.425   1.632
  817SOL    HW1 3350   1.186   5.400   1.703
  817SOL    HW2 3351   1.320   5.353   1.624
  818SOL     OW 3352   5.716   2.612   4.065
  818SOL    HW1 3353   5.757   2.619   3.974
  818SOL    HW2 3354   5.652   2.535   4.066
  819SOL     OW 3355   5.791   2.779   1.956
  819SOL    HW1 3356   5.841   2.714   1.900
  819SOL    HW2 3357   5.708   2.808   1.907
  820SOL     OW 3358   3.366   2.148   4.361
  820SOL    HW1 3359   3.271   2.146   4.329
  820SOL    HW2 3360   3.367   2.147   4.461
  821SOL     OW 3361   5.681   4.890   5.090
  821SOL    HW1 3362   5.775   4.860   5.069
  821SOL    HW2 3363   5.649   4.949   5.016
  822SOL     OW 3364   0.234   4.702   3.509
  822SOL    HW1 3365   0.181   4.648   3.444
  822SOL    HW2 3366   0.305   4.752   3.461
  823SOL     OW 3367   6.914   3.890   5.940
  823SOL    HW1 3368   6.974   3.933   5.872
  823SOL    HW2 3369   6.887   3.958   6.008
  824SOL     OW 3370   5.707   0.900   5.164
  824SOL    HW1 3371   5.778   0.831   5.174
  824SOL    HW2 3372   5.748   0.989   5.147
  825SOL     OW 3373   6.154   5.877   0.454
  825SOL    HW1 3374   6.097   5.958   0.445
  825SOL    HW2 3375   6.128   5.809   0.385
  826SOL     OW 3376   3.999   2.204   6.298
  826SOL    HW1 3377   3.946   2.216   6.382
  826SOL    HW2 3378   4.047   2.117   6.300
  827SOL     OW 3379   2.998   4.248   5.240
  827SOL    HW1 3380   2.917   4.196   5.269
  827SOL    HW2 3381   2.976   4.346   5.239
  828SOL     OW 3382   6.254   5.294   5.218
  828SOL    HW1 3383   6.287   5.373   5.268
  828SOL    HW2 3384   6.282   5.210   5.265
  829SOL     OW 3385   3.176   2.922   2.287
  829SOL    HW1 3386   3.176   2.992   2.359
  829SOL    HW2 3387   3.104   2.855   2.305
  830SOL     OW 3388   5.922   4.806   0.079
  830SOL    HW1 3389   5.851   4.859   0.126
  830SOL    HW2 3390   5.919   4.711   0.110
  831SOL     OW 3391   5.833   6.963   0.905
  831SOL    HW1 3392   5.766   7.012   0.961
  831SOL    HW2 3393   5.925   6.987   0.933
  832SOL     OW 3394   4.211   1.143   4.163
  832SOL    HW1 3395   4.141   1.094   4.214
  832SOL    HW2 3396   4.179   1.236   4.142
  833SOL     OW 3397   1.471   3.700   6.813
  833SOL    HW1 3398   1.425   3.652   6.738
  833SOL    HW2 3399   1.404   3.727   6.881
  834SOL     OW 3400   4.817   3.529   6.998
  834SOL    HW1 3401   4.777   3.460   0.032
  834SOL    HW2 3402   4.820   3.617   0.021
  835SOL     OW 3403   1.960   0.432   5.140
  835SOL    HW1 3404   1.931   0.391   5.053
  835SOL    HW2 3405   1.908   0.391   5.215
  836SOL     OW 3406   3.116   1.426   5.763
  836SOL    HW1 3407   3.030   1.434   5.713
  836SOL    HW2 3408   3.151   1.333   5.756
  837SOL     OW 3409   1.560   0.016   1.556
  837SOL    HW1 3410   1.552   0.064   1.469
  837SOL    HW2 3411   1.549   0.081   1.631
  838SOL     OW 3412   2.244   6.006   4.481
  838SOL    HW1 3413   2.205   5.924   4.441
  838SOL    HW2 3414   2.225   6.085   4.422
  839SOL     OW 3415   2.548   1.389   1.325
  839SOL    HW1 3416   2.566   1.466   1.386
  839SOL    HW2 3417   2.633   1.336   1.313
  840SOL     OW 3418   6.221   5.554   0.108
  840SOL    HW1 3419   6.177   5.628   0.160
  840SOL    HW2 3420   6.168   5.470   0.118
  841SOL     OW 3421   3.934   5.999   6.462
  841SOL    HW1 3422   3.931   6.023   6.559
  841SOL    HW2 3423   3.957   5.903   6.452
  842SOL     OW 3424   3.124   6.357   0.037
  842SOL    HW1 3425   3.046   6.356   0.101
  842SOL    HW2 3426   3.094   6.321   6.973
  843SOL     OW 3427   2.583   1.860   1.955
  843SOL    HW1 3428   2.522   1.918   1.901
  843SOL    HW2 3429   2.651   1.818   1.894
  844SOL     OW 3430   0.046   6.824   1.134
  844SOL    HW1 3431   0.123   6.887   1.144
  844SOL    HW2 3432   0.060   6.744   1.192
  845SOL     OW 3433   4.849   2.516   3.349
  845SOL    HW1 3434   4.756   2.552   3.356
  845SOL    HW2 3435   4.904   2.577   3.292
  846SOL     OW 3436   2.644   0.906   6.434
  846SOL    HW1 3437   2.709   0.839   6.471
  846SOL    HW2 3438   2.670   0.998   6.465
  847SOL     OW 3439   2.001   3.356   1.865
  847SOL    HW1 3440   2.079   3.394   1.915
  847SOL    HW2 3441   1.919   3.360   1.922
  848SOL     OW 3442   6.907   6.756   5.775
  848SOL    HW1 3443   6.869   6.665   5.760
  848SOL    HW2 3444   6.841   6.812   5.824
  849SOL     OW 3445   6.111   3.810   6.945
  849SOL    HW1 3446   6.087   3.736   6.882
  849SOL    HW2 3447   6.030   3.837   6.997
  850SOL     OW 3448   0.421   0.110   4.886
  850SOL    HW1 3449   0.425   0.107   4.986
  850SOL    HW2 3450   0.485   0.179   4.852
  851SOL     OW 3451   6.839   3.017   0.205
  851SOL    HW1 3452   6.939   3.021   0.210
  851SOL    HW2 3453   6.809   3.058   0.119
  852SOL     OW 3454   0.375   4.835   0.601
  852SOL    HW1 3455   0.318   4.903   0.555
  852SOL    HW2 3456   0.347   4.827   0.696
  853SOL     OW 3457   2.097   4.048   6.177
  853SOL    HW1 3458   2.069   4.140   6.204
  853SOL    HW2 3459   2.187   4.050   6.135
  854SOL     OW 3460   5.418   6.789   0.263
  854SOL    HW1 3461   5.477   6.727   0.211
  854SOL    HW2 3462   5.473   6.861   0.305
  855SOL     OW 3463   6.100   0.353   0.344
  855SOL    HW1 3464   6.127   0.361   0.440
  855SOL    HW2 3465   6.004   0.380   0.334
  856SOL     OW 3466   1.265   6.630   5.701
  856SOL    HW1 3467   1.197   6.558   5.690
  856SOL    HW2 3468   1.347   6.592   5.744
  857SOL     OW 3469   0.049   5.245   2.121
  857SOL    HW1 3470   0.055   5.275   2.216
  857SOL    HW2 3471   0.040   5.324   2.061
  858SOL     OW 3472   2.934   3.740   1.062
  858SOL    HW1 3473   3.000   3.776   1.128
  858SOL    HW2 3474   2.957   3.773   0.970
  859SOL     OW 3475   5.291   5.933   5.529
  859SOL    HW1 3476   5.255   5.972   5.614
  859SOL    HW2 3477   5.218   5.930   5.461
  860SOL     OW 3478   5.562   2.826   6.339
  860SOL    HW1 3479   5.598   2.845   6.430
  860SOL    HW2 3480   5.472   2.783   6.347
  861SOL     OW 3481   2.048   5.885   3.387
  861SOL    HW1 3482   2.098   5.842   3.312
  861SOL    HW2 3483   2.031   5.981   3.365
  862SOL     OW 3484   2.093   5.156   3.757
  862SOL    HW1 3485   2.181   5.112   3.745
  862SOL    HW2 3486   2.082   5.230   3.691
  863SOL     OW 3487   5.852   1.026   6.087
  863SOL    HW1 3488   5.813   1.074   6.007
  863SOL    HW2 3489   5.884   0.936   6.059
  864SOL     OW 3490   4.620   0.023   4.921
  864SOL    HW1 3491   4.583   6.970   4.973
  864SOL    HW2 3492   4.573   0.029   4.833
  865SOL     OW 3493   1.643   0.080   5.698
  865SOL    HW1 3494   1.640   0.053   5.602
  865SOL    HW2 3495   1.591   0.014   5.753
  866SOL     OW 3496   3.736   6.739   0.922
  866SOL    HW1 3497   3.812   6.778   0.870
  866SOL    HW2 3498   3.721   6.794   1.005
  867SOL     OW 3499   5.496   3.029   0.423
  867SOL    HW1 3500   5.542   3.066   0.504
  867SOL    HW2 3501   5.476   3.102   0.359
  868SOL     OW 3502   0.202   2.147   2.752
  868SOL    HW1 3503   0.158   2.062   2.782
  868SOL    HW2 3504   0.190   2.157   2.653
  869SOL     OW 3505   6.663   3.562   3.539
  869SOL    HW1 3506   6.741   3.521   3.491
  869SOL    HW2 3507   6.654   3.657   3.512
  870SOL     OW 3508   3.911   4.304   1.026
  870SOL    HW1 3509   3.975   4.272   0.956
  870SOL    HW2 3510   3.933   4.262   1.114
  871SOL     OW 3511   5.527   2.047   4.170
  871SOL    HW1 3512   5.492   2.021   4.080
  871SOL    HW2 3513   5.626   2.059   4.165
  872SOL     OW 3514   0.351   2.264   4.779
  872SOL    HW1 3515   0.280   2.280   4.848
  872SOL    HW2 3516   0.425   2.330   4.792
  873SOL     OW 3517   4.095   6.312   5.644
  873SOL    HW1 3518   4.054   6.226   5.614
  873SOL    HW2 3519   4.033   6.359   5.706
  874SOL     OW 3520   5.906   4.287   0.150
  874SOL    HW1 3521   5.920   4.377   0.191
  874SOL    HW2 3522   5.969   4.221   0.192
  875SOL     OW 3523   4.863   5.752   0.677
  875SOL    HW1 3524   4.854   5.680   0.607
  875SOL    HW2 3525   4.774   5.794   0.692
  876SOL     OW 3526   0.491   5.302   2.033
  876SOL    HW1 3527   0.431   5.234   1.990
  876SOL    HW2 3528   0.484   5.389   1.983
  877SOL     OW 3529   3.472   4.001   5.983
  877SOL    HW1 3530   3.386   4.048   5.966
  877SOL    HW2 3531   3.459   3.902   5.970
  878SOL     OW 3532   4.985   6.965   4.102
  878SOL    HW1 3533   5.030   6.927   4.021
  878SOL    HW2 3534   5.045   6.955   4.182
  879SOL     OW 3535   3.796   0.724   1.584
  879SOL    HW1 3536   3.832   0.745   1.675
  879SOL    HW2 3537   3.696   0.716   1.589
  880SOL     OW 3538   3.851   3.902   4.222
  880SOL    HW1 3539   3.786   3.828   4.240
  880SOL    HW2 3540   3.854   3.963   4.301
  881SOL     OW 3541   4.854   3.206   4.968
  881SOL    HW1 3542   4.886   3.289   4.924
  881SOL    HW2 3543   4.847   3.221   5.067
  882SOL     OW 3544   1.057   3.205   4.046
  882SOL    HW1 3545   0.958   3.190   4.046
  882SOL    HW2 3546   1.103   3.126   4.086
  883SOL     OW 3547   3.502   1.036   1.562
  883SOL    HW1 3548   3.427   1.039   1.628
  883SOL    HW2 3549   3.467   1.060   1.472
  884SOL     OW 3550   5.531   3.833   5.764
  884SOL    HW1 3551   5.470   3.759   5.792
  884SOL    HW2 3552   5.481   3.920   5.767
  885SOL     OW 3553   3.243   1.110   5.138
  885SOL    HW1 3554   3.300   1.107   5.220
  885SOL    HW2 3555   3.236   1.205   5.106
  886SOL     OW 3556   3.760   0.020   0.338
  886SOL    HW1 3557   3.679   6.997   0.372
  886SOL    HW2 3558   3.774   0.104   0.389
  887SOL     OW 3559   3.576   6.768   3.480
  887SOL    HW1 3560   3.516   6.694   3.511
  887SOL    HW2 3561   3.606   6.822   3.558
  888SOL     OW 3562   6.749   6.377   3.393
  888SOL    HW1 3563   6.788   6.405   3.305
  888SOL    HW2 3564   6.822   6.356   3.457
  889SOL     OW 3565   6.737   3.509   0.640
  889SOL    HW1 3566   6.810   3.454   0.679
  889SOL    HW2 3567   6.743   3.508   0.540
  890SOL     OW 3568   1.241   5.411   3.003
  890SOL    HW1 3569   1.324   5.378   3.047
  890SOL    HW2 3570   1.258   5.425   2.906
  891SOL     OW 3571   5.862   4.657   0.512
  891SOL    HW1 3572   5.940   4.599   0.538
  891SOL    HW2 3573   5.778   4.617   0.547
  892SOL     OW 3574   2.471   3.756   5.568
  892SOL    HW1 3575   2.375   3.741   5.541
  892SOL    HW2 3576   2.526   3.770   5.485
  893SOL     OW 3577   2.058   6.528   2.870
  893SOL    HW1 3578   1.999   6.470   2.925
  893SOL    HW2 3579   2.025   6.622   2.874
  894SOL     OW 3580   1.217   2.854   2.087
  894SOL    HW1 3581   1.129   2.818   2.055
  894SOL    HW2 3582   1.211   2.953   2.097
  895SOL     OW 3583   0.769   4.963   3.685
  895SOL    HW1 3584   0.808   5.049   3.651
  895SOL    HW2 3585   0.834   4.920   3.748
  896SOL     OW 3586   5.454   5.150   1.104
  896SOL    HW1 3587   5.425   5.077   1.042
  896SOL    HW2 3588   5.394   5.151   1.184
  897SOL     OW 3589   3.899   1.386   6.981
  897SOL    HW1 3590   3.822   1.353   0.012
  897SOL    HW2 3591   3.959   1.310   6.959
  898SOL     OW 3592   3.091   6.280   3.146
  898SOL    HW1 3593   3.090   6.328   3.058
  898SOL    HW2 3594   3.168   6.313   3.200
  899SOL     OW 3595   0.238   6.597   0.305
  899SOL    HW1 3596   0.280   6.527   0.246
  899SOL    HW2 3597   0.302   6.672   0.318
  900SOL     OW 3598   5.784   6.971   0.549
  900SOL    HW1 3599   5.876   6.991   0.516
  900SOL    HW2 3600   5.785   6.886   0.602
  901SOL     OW 3601   2.268   6.865   2.880
  901SOL    HW1 3602   2.271   6.805   2.800
  901SOL    HW2 3603   2.353   6.855   2.932
  902SOL     OW 3604   0.615   2.137   0.687
  902SOL    HW1 3605   0.558   2.195   0.629
  902SOL    HW2 3606   0.659   2.067   0.631
  903SOL     OW 3607   0.198   2.217   0.109
  903SOL    HW1 3608   0.140   2.139   0.083
  903SOL    HW2 3609   0.143   2.284   0.159
  904SOL     OW 3610   2.356   2.224   2.870
  904SOL    HW1 3611   2.278   2.163   2.854
  904SOL    HW2 3612   2.440   2.179   2.840
  905SOL     OW 3613   4.955   1.621   6.600
  905SOL    HW1 3614   4.950   1.700   6.539
  905SOL    HW2 3615   4.925   1.648   6.691
  906SOL     OW 3616   6.997   1.872   6.467
  906SOL    HW1 3617   6.982   1.949   6.404
  906SOL    HW2 3618   6.985   1.786   6.418
  907SOL     OW 3619   5.276   3.201   0.714
  907SOL    HW1 3620   5.336   3.164   0.785
  907SOL    HW2 3621   5.188   3.153   0.717
  908SOL     OW 3622   2.510   4.473   2.497
  908SOL    HW1 3623   2.597   4.522   2.504
  908SOL    HW2 3624   2.498   4.441   2.403
  909SOL     OW 3625   4.451   5.626   1.192
  909SOL    HW1 3626   4.550   5.612   1.191
  909SOL    HW2 3627   4.428   5.704   1.134
  910SOL     OW 3628   3.187   2.106   0.844
  910SOL    HW1 3629   3.173   2.173   0.917
  910SOL    HW2 3630   3.213   2.153   0.760
  911SOL     OW 3631   0.474   6.281   6.421
  911SOL    HW1 3632   0.381   6.299   6.456
  911SOL    HW2 3633   0.480   6.187   6.388
  912SOL     OW 3634   6.116   2.269   3.128
  912SOL    HW1 3635   6.022   2.236   3.118
  912SOL    HW2 3636   6.171   2.198   3.172
  913SOL     OW 3637   4.515   6.961   3.034
  913SOL    HW1 3638   4.569   0.016   3.063
  913SOL    HW2 3639   4.443   6.944   3.100
  914SOL     OW 3640   2.516   6.873   6.035
  914SOL    HW1 3641   2.450   6.853   6.108
  914SOL    HW2 3642   2.603   6.902   6.075
  915SOL     OW 3643   6.106   4.383   6.843
  915SOL    HW1 3644   6.083   4.287   6.828
  915SOL    HW2 3645   6.023   4.437   6.852
  916SOL     OW 3646   1.856   2.602   1.639
  916SOL    HW1 3647   1.910   2.683   1.662
  916SOL    HW2 3648   1.761   2.616   1.666
  917SOL     OW 3649   0.462   6.551   0.591
  917SOL    HW1 3650   0.396   6.476   0.597
  917SOL    HW2 3651   0.495   6.559   0.497
  918SOL     OW 3652   3.408   0.741   0.356
  918SOL    HW1 3653   3.469   0.685   0.300
  918SOL    HW2 3654   3.313   0.728   0.327
  919SOL     OW 3655   5.813   1.791   2.534
  919SOL    HW1 3656   5.759   1.708   2.519
  919SOL    HW2 3657   5.839   1.830   2.446
  920SOL     OW 3658   2.486   3.880   1.648
  920SOL    HW1 3659   2.415   3.810   1.635
  920SOL    HW2 3660   2.451   3.952   1.709
  921SOL     OW 3661   4.888   5.962   4.121
  921SOL    HW1 3662   4.849   5.887   4.175
  921SOL    HW2 3663   4.868   6.049   4.164
  922SOL     OW 3664   3.879   3.665   4.786
  922SOL    HW1 3665   3.929   3.650   4.701
  922SOL    HW2 3666   3.942   3.692   4.858
  923SOL     OW 3667   2.219   3.202   6.879
  923SOL    HW1 3668   2.213   3.278   6.815
  923SOL    HW2 3669   2.314   3.174   6.888
  924SOL     OW 3670   6.312   4.040   1.609
  924SOL    HW1 3671   6.411   4.026   1.615
  924SOL    HW2 3672   6.277   3.992   1.529
  925SOL     OW 3673   0.096   2.603   0.122
  925SOL    HW1 3674   0.186   2.592   0.081
  925SOL    HW2 3675   0.092   2.550   0.207
  926SOL     OW 3676   6.708   0.574   1.241
  926SOL    HW1 3677   6.739   0.543   1.151
  926SOL    HW2 3678   6.614   0.607   1.234
  927SOL     OW 3679   5.229   3.603   3.725
  927SOL    HW1 3680   5.327   3.582   3.727
  927SOL    HW2 3681   5.211   3.683   3.782
  928SOL     OW 3682   2.193   6.109   0.333
  928SOL    HW1 3683   2.246   6.193   0.344
  928SOL    HW2 3684   2.251   6.030   0.353
  929SOL     OW 3685   0.017   1.037   0.213
  929SOL    HW1 3686   0.040   1.128   0.181
  929SOL    HW2 3687   0.031   0.971   0.140
  930SOL     OW 3688   4.969   6.064   6.456
  930SOL    HW1 3689   5.053   6.039   6.505
  930SOL    HW2 3690   4.981   6.049   6.358
  931SOL     OW 3691   6.725   1.527   4.775
  931SOL    HW1 3692   6.723   1.434   4.811
  931SOL    HW2 3693   6.767   1.525   4.684
  932SOL     OW 3694   2.393   1.879   2.782
  932SOL    HW1 3695   2.422   1.827   2.702
  932SOL    HW2 3696   2.457   1.953   2.799
  933SOL     OW 3697   1.498   5.320   3.124
  933SOL    HW1 3698   1.561   5.396   3.142
  933SOL    HW2 3699   1.491   5.263   3.205
  934SOL     OW 3700   2.825   5.608   6.125
  934SOL    HW1 3701   2.883   5.576   6.200
  934SOL    HW2 3702   2.861   5.694   6.089
  935SOL     OW 3703   5.347   4.607   4.069
  935SOL    HW1 3704   5.446   4.605   4.083
  935SOL    HW2 3705   5.323   4.688   4.015
  936SOL     OW 3706   0.931   6.603   6.087
  936SOL    HW1 3707   0.987   6.662   6.029
  936SOL    HW2 3708   0.835   6.613   6.060
  937SOL     OW 3709   5.769   1.664   5.757
  937SOL    HW1 3710   5.792   1.719   5.837
  937SOL    HW2 3711   5.674   1.680   5.732
  938SOL     OW 3712   6.479   5.406   4.514
  938SOL    HW1 3713   6.546   5.335   4.494
  938SOL    HW2 3714   6.429   5.430   4.431
  939SOL     OW 3715   0.117   6.723   3.820
  939SOL    HW1 3716   0.193   6.666   3.790
  939SOL    HW2 3717   0.084   6.777   3.742
  940SOL     OW 3718   0.472   3.870   0.640
  940SOL    HW1 3719   0.535   3.848   0.566
  940SOL    HW2 3720   0.524   3.890   0.724
  941SOL     OW 3721   5.290   0.366   6.701
  941SOL    HW1 3722   5.299   0.294   6.633
  941SOL    HW2 3723   5.232   0.439   6.664
  942SOL     OW 3724   6.116   6.638   1.343
  942SOL    HW1 3725   6.102   6.599   1.252
  942SOL    HW2 3726   6.179   6.579   1.395
  943SOL     OW 3727   1.609   4.708   2.722
  943SOL    HW1 3728   1.575   4.614   2.720
  943SOL    HW2 3729   1.587   4.753   2.636
  944SOL     OW 3730   0.941   5.441   4.809
  944SOL    HW1 3731   0.864   5.388   4.845
  944SOL    HW2 3732   1.026   5.397   4.836
  945SOL     OW 3733   0.224   4.776   5.540
  945SOL    HW1 3734   0.198   4.821   5.625
  945SOL    HW2 3735   0.209   4.677   5.548
  946SOL     OW 3736   4.532   4.866   4.495
  946SOL    HW1 3737   4.530   4.925   4.414
  946SOL    HW2 3738   4.493   4.915   4.573
  947SOL     OW 3739   3.237   3.171   3.766
  947SOL    HW1 3740   3.192   3.120   3.840
  947SOL    HW2 3741   3.236   3.268   3.787
  948SOL     OW 3742   4.735   1.241   2.707
  948SOL    HW1 3743   4.721   1.142   2.717
  948SOL    HW2 3744   4.654   1.290   2.738
  949SOL     OW 3745   2.885   6.033   0.417
  949SOL    HW1 3746   2.976   6.073   0.420
  949SOL    HW2 3747   2.857   6.022   0.322
  950SOL     OW 3748   5.864   5.688   2.553
  950SOL    HW1 3749   5.808   5.770   2.567
  950SOL    HW2 3750   5.841   5.647   2.465
  951SOL     OW 3751   1.295   0.047   3.691
  951SOL    HW1 3752   1.386   0.088   3.687
  951SOL    HW2 3753   1.233   0.108   3.741
  952SOL     OW 3754   4.238   2.309   2.857
  952SOL    HW1 3755   4.324   2.281   2.815
  952SOL    HW2 3756   4.162   2.287   2.795
  953SOL     OW 3757   6.080   5.650   5.072
  953SOL    HW1 3758   6.078   5.563   5.022
  953SOL    HW2 3759   6.000   5.655   5.132
  954SOL     OW 3760   3.765   6.263   2.187
  954SOL    HW1 3761   3.666   6.259   2.177
  954SOL    HW2 3762   3.806   6.182   2.145
  955SOL     OW 3763   2.116   4.382   6.980
  955SOL    HW1 3764   2.074   4.328   6.907
  955SOL    HW2 3765   2.056   4.458   7.005
  956SOL     OW 3766   6.821   0.497   1.476
  956SOL    HW1 3767   6.795   0.523   1.383
  956SOL    HW2 3768   6.867   0.573   1.521
  957SOL     OW 3769   6.306   2.082   1.503
  957SOL    HW1 3770   6.256   2.096   1.589
  957SOL    HW2 3771   6.278   1.995   1.462
  958SOL     OW 3772   4.210   6.317   2.312
  958SOL    HW1 3773   4.180   6.360   2.226
  958SOL    HW2 3774   4.204   6.218   2.303
  959SOL     OW 3775   3.482   6.774   4.785
  959SOL    HW1 3776   3.399   6.828   4.800
  959SOL    HW2 3777   3.478   6.731   4.695
  960SOL     OW 3778   1.526   0.270   1.336
  960SOL    HW1 3779   1.491   0.361   1.313
  960SOL    HW2 3780   1.519   0.211   1.256
  961SOL     OW 3781   4.125   6.688   3.074
  961SOL    HW1 3782   4.071   6.635   3.139
  961SOL    HW2 3783   4.074   6.696   2.988
  962SOL     OW 3784   6.822   1.063   4.252
  962SOL    HW1 3785   6.774   1.111   4.179
  962SOL    HW2 3786   6.894   1.005   4.213
  963SOL     OW 3787   4.382   0.968   0.652
  963SOL    HW1 3788   4.286   0.943   0.641
  963SOL    HW2 3789   4.389   1.064   0.675
  964SOL     OW 3790   4.579   5.253   5.463
  964SOL    HW1 3791   4.556   5.202   5.545
  964SOL    HW2 3792   4.672   5.290   5.471
  965SOL     OW 3793   6.362   1.901   2.089
  965SOL    HW1 3794   6.367   1.836   2.013
  965SOL    HW2 3795   6.441   1.887   2.149
  966SOL     OW 3796   5.264   2.996   3.475
  966SOL    HW1 3797   5.177   2.963   3.510
  966SOL    HW2 3798   5.337   2.975   3.540
  967SOL     OW 3799   2.800   5.191   0.020
  967SOL    HW1 3800   2.867   5.120   7.022
  967SOL    HW2 3801   2.847   5.279   0.027
  968SOL     OW 3802   3.954   6.614   1.585
  968SOL    HW1 3803   3.992   6.701   1.617
  968SOL    HW2 3804   3.856   6.613   1.600
  969SOL     OW 3805   2.440   5.172   5.349
  969SOL    HW1 3806   2.453   5.265   5.383
  969SOL    HW2 3807   2.343   5.158   5.326
  970SOL     OW 3808   5.665   0.595   6.111
  970SOL    HW1 3809   5.646   0.498   6.127
  970SOL    HW2 3810   5.648   0.617   6.015
  971SOL     OW 3811   0.357   3.271   2.429
  971SOL    HW1 3812   0.327   3.362   2.403
  971SOL    HW2 3813   0.368   3.266   2.529
  972SOL     OW 3814   6.912   2.664   1.986
  972SOL    HW1 3815   6.999   2.707   1.963
  972SOL    HW2 3816   6.841   2.733   1.996
  973SOL     OW 3817   0.654   4.953   6.858
  973SOL    HW1 3818   0.727   4.972   6.792
  973SOL    HW2 3819   0.595   4.880   6.823
  974SOL     OW 3820   0.741   5.399   2.353
  974SOL    HW1 3821   0.778   5.385   2.261
  974SOL    HW2 3822   0.770   5.488   2.388
  975SOL     OW 3823   2.546   6.952   0.339
  975SOL    HW1 3824   2.590   6.974   0.426
  975SOL    HW2 3825   2.598   6.881   0.292
  976SOL     OW 3826   0.136   3.686   1.213
  976SOL    HW1 3827   0.233   3.664   1.222
  976SOL    HW2 3828   0.082   3.618   1.263
  977SOL     OW 3829   0.527   0.964   2.113
  977SOL    HW1 3830   0.509   1.024   2.035
  977SOL    HW2 3831   0.447   0.907   2.131
  978SOL     OW 3832   5.246   1.524   0.999
  978SOL    HW1 3833   5.314   1.528   1.072
  978SOL    HW2 3834   5.271   1.453   0.934
  979SOL     OW 3835   0.628   2.792   6.524
  979SOL    HW1 3836   0.549   2.799   6.585
  979SOL    HW2 3837   0.597   2.788   6.429
  980SOL     OW 3838   4.552   1.266   4.961
  980SOL    HW1 3839   4.542   1.228   5.053
  980SOL    HW2 3840   4.649   1.282   4.942
  981SOL     OW 3841   0.669   0.494   4.708
  981SOL    HW1 3842   0.666   0.533   4.800
  981SOL    HW2 3843   0.666   0.394   4.714
  982SOL     OW 3844   0.907   1.567   5.498
  982SOL    HW1 3845   0.944   1.633   5.564
  982SOL    HW2 3846   0.981   1.532   5.441
  983SOL     OW 3847   6.857   3.669   2.620
  983SOL    HW1 3848   6.913   3.588   2.603
  983SOL    HW2 3849   6.916   3.744   2.652
  984SOL     OW 3850   1.543   2.257   2.837
  984SOL    HW1 3851   1.532   2.258   2.936
  984SOL    HW2 3852   1.482   2.189   2.797
  985SOL     OW 3853   6.619   4.197   4.573
  985SOL    HW1 3854   6.656   4.105   4.557
  985SOL    HW2 3855   6.693   4.264   4.566
  986SOL     OW 3856   4.403   5.239   1.307
  986SOL    HW1 3857   4.401   5.148   1.349
  986SOL    HW2 3858   4.411   5.308   1.379
  987SOL     OW 3859   5.562   6.487   2.231
  987SOL    HW1 3860   5.646   6.537   2.250
  987SOL    HW2 3861   5.544   6.488   2.132
  988SOL     OW 3862   3.250   3.883   2.164
  988SOL    HW1 3863   3.301   3.883   2.078
  988SOL    HW2 3864   3.259   3.972   2.208
  989SOL     OW 3865   6.481   2.070   0.147
  989SOL    HW1 3866   6.414   2.029   0.209
  989SOL    HW2 3867   6.434   2.104   0.065
  990SOL     OW 3868   3.599   0.084   2.701
  990SOL    HW1 3869   3.582   0.077   2.799
  990SOL    HW2 3870   3.694   0.111   2.685
  991SOL     OW 3871   6.951   4.492   3.614
  991SOL    HW1 3872   6.916   4.437   3.690
  991SOL    HW2 3873   6.956   4.588   3.643
  992SOL     OW 3874   0.866   3.314   1.432
  992SOL    HW1 3875   0.795   3.286   1.497
  992SOL    HW2 3876   0.941   3.358   1.481
  993SOL     OW 3877   0.615   3.920   0.862
  993SOL    HW1 3878   0.641   4.011   0.893
  993SOL    HW2 3879   0.696   3.868   0.836
  994SOL     OW 3880   3.784   5.282   1.204
  994SOL    HW1 3881   3.800   5.198   1.153
  994SOL    HW2 3882   3.756   5.354   1.140
  995SOL     OW 3883   4.195   3.058   5.715
  995SOL    HW1 3884   4.145   2.971   5.714
  995SOL    HW2 3885   4.178   3.108   5.630
  996SOL     OW 3886   3.592   5.435   5.218
  996SOL    HW1 3887   3.501   5.477   5.218
  996SOL    HW2 3888   3.583   5.335   5.221
  997SOL     OW 3889   1.292   6.974   3.430
  997SOL    HW1 3890   1.269   7.021   3.515
  997SOL    HW2 3891   1.363   0.001   3.382
  998SOL     OW 3892   6.590   0.086   6.347
  998SOL    HW1 3893   6.657   0.153   6.316
  998SOL    HW2 3894   6.511   0.133   6.384
  999SOL     OW 3895   4.914   3.914   1.602
  999SOL    HW1 3896   4.889   3.841   1.665
  999SOL    HW2 3897   4.936   3.875   1.512
 1000SOL     OW 3898   4.248   1.340   1.575
 1000SOL    HW1 3899   4.258   1.401   1.654
 1000SOL    HW2 3900   4.201   1.256   1.604
 1001SOL     OW 3901   3.331   5.809   2.371
 1001SOL    HW1 3902   3.410   5.865   2.394
 1001SOL    HW2 3903   3.361   5.718   2.344
 1002SOL     OW 3904   5.424   2.025   1.230
 1002SOL    HW1 3905   5.365   1.997   1.154
 1002SOL    HW2 3906   5.504   1.965   1.233
 1003SOL     OW 3907   1.792   5.907   2.574
 1003SOL    HW1 3908   1.870   5.907   2.511
 1003SOL    HW2 3909   1.714   5.861   2.531
 1004SOL     OW 3910   6.758   1.237   2.430
 1004SOL    HW1 3911   6.796   1.322   2.468
 1004SOL    HW2 3912   6.712   1.256   2.344
 1005SOL     OW 3913   1.603   4.173   4.007
 1005SOL    HW1 3914   1.513   4.129   4.000
 1005SOL    HW2 3915   1.673   4.111   3.971
 1006SOL     OW 3916   2.167   4.125   0.460
 1006SOL    HW1 3917   2.221   4.042   0.446
 1006SOL    HW2 3918   2.202   4.197   0.401
 1007SOL     OW 3919   4.441   1.460   6.245
 1007SOL    HW1 3920   4.349   1.483   6.211
 1007SOL    HW2 3921   4.485   1.542   6.280
 1008SOL     OW 3922   0.183   3.573   5.280
 1008SOL    HW1 3923   0.119   3.648   5.293
 1008SOL    HW2 3924   0.147   3.490   5.325
 1009SOL     OW 3925   6.282   4.457   5.828
 1009SOL    HW1 3926   6.250   4.367   5.797
 1009SOL    HW2 3927   6.233   4.482   5.912
 1010SOL     OW 3928   2.968   2.594   1.343
 1010SOL    HW1 3929   2.953   2.670   1.281
 1010SOL    HW2 3930   2.938   2.509   1.300
 1011SOL     OW 3931   0.381   5.675   3.395
 1011SOL    HW1 3932   0.362   5.617   3.474
 1011SOL    HW2 3933   0.361   5.624   3.311
 1012SOL     OW 3934   6.808   6.805   2.549
 1012SOL    HW1 3935   6.774   6.899   2.555
 1012SOL    HW2 3936   6.892   6.797   2.603
 1013SOL     OW 3937   6.683   1.134   6.206
 1013SOL    HW1 3938   6.607   1.127   6.271
 1013SOL    HW2 3939   6.660   1.083   6.123
 1014SOL     OW 3940   0.870   3.857   4.666
 1014SOL    HW1 3941   0.945   3.867   4.731
 1014SOL    HW2 3942   0.904   3.815   4.582
 1015SOL     OW 3943   2.448   0.509   6.184
 1015SOL    HW1 3944   2.460   0.602   6.218
 1015SOL    HW2 3945   2.481   0.444   6.253
 1016SOL     OW 3946   4.303   4.772   1.418
 1016SOL    HW1 3947   4.205   4.752   1.413
 1016SOL    HW2 3948   4.350   4.699   1.468
 1017SOL     OW 3949   2.847   1.550   1.224
 1017SOL    HW1 3950   2.944   1.554   1.245
 1017SOL    HW2 3951   2.794   1.570   1.307
 1018SOL     OW 3952   0.039   4.770   3.691
 1018SOL    HW1 3953   0.106   4.741   3.623
 1018SOL    HW2 3954   0.083   4.779   3.780
 1019SOL     OW 3955   6.940   5.157   0.516
 1019SOL    HW1 3956   6.878   5.160   0.437
 1019SOL    HW2 3957   6.932   5.068   0.561
 1020SOL     OW 3958   6.103   1.000   1.284
 1020SOL    HW1 3959   6.142   1.091   1.273
 1020SOL    HW2 3960   6.168   0.931   1.253
 1021SOL     OW 3961   6.582   6.296   2.189
 1021SOL    HW1 3962   6.668   6.267   2.231
 1021SOL    HW2 3963   6.507   6.242   2.227
 1022SOL     OW 3964   2.620   5.767   6.026
 1022SOL    HW1 3965   2.667   5.838   5.973
 1022SOL    HW2 3966   2.666   5.754   6.113
 1023SOL     OW 3967   0.430   0.647   2.524
 1023SOL    HW1 3968   0.437   0.568   2.585
 1023SOL    HW2 3969   0.334   0.667   2.506
 1024SOL     OW 3970   0.759   1.811   4.208
 1024SOL    HW1 3971   0.730   1.760   4.127
 1024SOL    HW2 3972   0.679   1.837   4.262
 1025SOL     OW 3973   4.676   2.905   0.456
 1025SOL    HW1 3974   4.583   2.889   0.489
 1025SOL    HW2 3975   4.673   2.948   0.366
 1026SOL     OW 3976   2.655   2.572   1.658
 1026SOL    HW1 3977   2.736   2.630   1.656
 1026SOL    HW2 3978   2.674   2.490   1.711
 1027SOL     OW 3979   2.007   6.907   1.728
 1027SOL    HW1 3980   2.103   6.887   1.744
 1027SOL    HW2 3981   1.954   6.822   1.735
 1028SOL     OW 3982   1.205   6.397   3.047
 1028SOL    HW1 3983   1.251   6.423   2.962
 1028SOL    HW2 3984   1.162   6.478   3.088
 1029SOL     OW 3985   1.215   2.569   6.020
 1029SOL    HW1 3986   1.149   2.537   5.953
 1029SOL    HW2 3987   1.277   2.634   5.978
 1030SOL     OW 3988   3.526   3.158   1.588
 1030SOL    HW1 3989   3.555   3.084   1.528
 1030SOL    HW2 3990   3.573   3.151   1.676
 1031SOL     OW 3991   4.393   3.271   1.420
 1031SOL    HW1 3992   4.491   3.289   1.418
 1031SOL    HW2 3993   4.366   3.241   1.512
 1032SOL     OW 3994   2.120   1.315   5.460
 1032SOL    HW1 3995   2.214   1.331   5.489
 1032SOL    HW2 3996   2.082   1.400   5.424
 1033SOL     OW 3997   1.784   5.695   2.160
 1033SOL    HW1 3998   1.740   5.631   2.098
 1033SOL    HW2 3999   1.818   5.774   2.109
 1034SOL     OW 4000   1.641   6.110   4.423
 1034SOL    HW1 4001   1.668   6.177   4.492
 1034SOL    HW2 4002   1.721   6.057   4.395
 1035SOL     OW 4003   0.177   2.158   6.493
 1035SOL    HW1 4004   0.144   2.131   6.583
 1035SOL    HW2 4005   0.207   2.254   6.496
 1036SOL     OW 4006   3.947   1.108   1.492
 1036SOL    HW1 4007   3.856   1.071   1.510
 1036SOL    HW2 4008   3.942   1.177   1.420
 1037SOL     OW 4009   1.526   2.114   3.196
 1037SOL    HW1 4010   1.591   2.133   3.269
 1037SOL    HW2 4011   1.533   2.017   3.170
 1038SOL     OW 4012   1.646   0.927   5.780
 1038SOL    HW1 4013   1.734   0.968   5.754
 1038SOL    HW2 4014   1.608   0.876   5.703
 1039SOL     OW 4015   3.452   3.518   4.223
 1039SOL    HW1 4016   3.524   3.562   4.168
 1039SOL    HW2 4017   3.449   3.421   4.203
 1040SOL     OW 4018   5.283   0.997   2.374
 1040SOL    HW1 4019   5.193   1.019   2.337
 1040SOL    HW2 4020   5.276   0.988   2.474
 1041SOL     OW 4021   6.925   6.795   3.455
 1041SOL    HW1 4022   6.934   6.698   3.475
 1041SOL    HW2 4023   6.990   6.847   3.511
 1042SOL     OW 4024   4.592   5.014   3.068
 1042SOL    HW1 4025   4.608   5.105   3.107
 1042SOL    HW2 4026   4.498   5.008   3.034
 1043SOL     OW 4027   4.288   2.278   3.397
 1043SOL    HW1 4028   4.339   2.337   3.459
 1043SOL    HW2 4029   4.309   2.304   3.302
 1044SOL     OW 4030   6.019   5.711   1.460
 1044SOL    HW1 4031   6.087   5.637   1.464
 1044SOL    HW2 4032   5.982   5.717   1.367
 1045SOL     OW 4033   3.410   0.363   3.005
 1045SOL    HW1 4034   3.311   0.373   3.011
 1045SOL    HW2 4035   3.450   0.449   2.973
 1046SOL     OW 4036   1.679   1.588   0.691
 1046SOL    HW1 4037   1.704   1.624   0.781
 1046SOL    HW2 4038   1.622   1.655   0.643
 1047SOL     OW 4039   3.226   0.504   4.099
 1047SOL    HW1 4040   3.278   0.515   4.014
 1047SOL    HW2 4041   3.150   0.568   4.099
 1048SOL     OW 4042   3.476   5.457   2.580
 1048SOL    HW1 4043   3.539   5.511   2.636
 1048SOL    HW2 4044   3.388   5.450   2.627
 1049SOL     OW 4045   5.333   6.959   3.549
 1049SOL    HW1 4046   5.296   7.000   3.465
 1049SOL    HW2 4047   5.415   7.010   3.577
 1050SOL     OW 4048   3.889   5.853   2.662
 1050SOL    HW1 4049   3.966   5.790   2.668
 1050SOL    HW2 4050   3.915   5.932   2.607
 1051SOL     OW 4051   0.225   5.896   0.044
 1051SOL    HW1 4052   0.306   5.899   0.101
 1051SOL    HW2 4053   0.146   5.865   0.098
 1052SOL     OW 4054   5.153   0.968   5.024
 1052SOL    HW1 4055   5.211   1.035   5.070
 1052SOL    HW2 4056   5.209   0.889   4.998
 1053SOL     OW 4057   5.540   3.995   2.828
 1053SOL    HW1 4058   5.592   4.065   2.780
 1053SOL    HW2 4059   5.544   3.909   2.777
 1054SOL     OW 4060   3.180   3.150   0.751
 1054SOL    HW1 4061   3.250   3.098   0.702
 1054SOL    HW2 4062   3.143   3.093   0.825
 1055SOL     OW 4063   4.478   6.306   6.078
 1055SOL    HW1 4064   4.420   6.309   5.996
 1055SOL    HW2 4065   4.569   6.342   6.057
 1056SOL     OW 4066   0.688   3.795   0.450
 1056SOL    HW1 4067   0.646   3.745   0.375
 1056SOL    HW2 4068   0.785   3.771   0.456
 1057SOL     OW 4069   3.972   2.281   1.352
 1057SOL    HW1 4070   3.887   2.246   1.390
 1057SOL    HW2 4071   3.962   2.378   1.331
 1058SOL     OW 4072   4.651   2.737   3.410
 1058SOL    HW1 4073   4.692   2.820   3.371
 1058SOL    HW2 4074   4.700   2.711   3.493
 1059SOL     OW 4075   2.052   6.764   2.202
 1059SOL    HW1 4076   2.043   6.851   2.153
 1059SOL    HW2 4077   1.978   6.756   2.269
 1060SOL     OW 4078   0.160   5.131   4.292
 1060SOL    HW1 4079   0.150   5.202   4.362
 1060SOL    HW2 4080   0.071   5.089   4.275
 1061SOL     OW 4081   6.529   3.808   6.764
 1061SOL    HW1 4082   6.593   3.763   6.826
 1061SOL    HW2 4083   6.463   3.861   6.817
 1062SOL     OW 4084   3.858   6.114   5.362
 1062SOL    HW1 4085   3.803   6.124   5.279
 1062SOL    HW2 4086   3.950   6.149   5.345
 1063SOL     OW 4087   0.117   0.026   0.209
 1063SOL    HW1 4088   0.144   0.121   0.222
 1063SOL    HW2 4089   0.196   6.997   0.181
 1064SOL     OW 4090   0.547   4.342   1.670
 1064SOL    HW1 4091   0.540   4.307   1.764
 1064SOL    HW2 4092   0.519   4.438   1.669
 1065SOL     OW 4093   3.358   0.583   3.854
 1065SOL    HW1 4094   3.290   0.647   3.818
 1065SOL    HW2 4095   3.440   0.633   3.881
 1066SOL     OW 4096   4.827   0.002   2.402
 1066SOL    HW1 4097   4.733   6.997   2.419
 1066SOL    HW2 4098   4.832   0.102   2.404
 1067SOL     OW 4099   2.138   0.886   6.747
 1067SOL    HW1 4100   2.191   0.939   6.814
 1067SOL    HW2 4101   2.051   0.932   6.730
 1068SOL     OW 4102   5.744   4.028   1.102
 1068SOL    HW1 4103   5.729   4.123   1.075
 1068SOL    HW2 4104   5.826   4.023   1.160
 1069SOL     OW 4105   5.417   5.354   0.630
 1069SOL    HW1 4106   5.401   5.348   0.729
 1069SOL    HW2 4107   5.330   5.364   0.583
 1070SOL     OW 4108   2.413   6.933   2.485
 1070SOL    HW1 4109   2.433   6.993   2.408
 1070SOL    HW2 4110   2.371   6.849   2.452
 1071SOL     OW 4111   1.331   1.996   4.392
 1071SOL    HW1 4112   1.251   2.054   4.411
 1071SOL    HW2 4113   1.303   1.900   4.388
 1072SOL     OW 4114   2.452   0.984   1.868
 1072SOL    HW1 4115   2.546   0.951   1.866
 1072SOL    HW2 4116   2.423   1.009   1.776
 1073SOL     OW 4117   5.581   1.841   3.073
 1073SOL    HW1 4118   5.638   1.848   3.154
 1073SOL    HW2 4119   5.622   1.894   2.998
 1074SOL     OW 4120   2.711   4.941   2.016
 1074SOL    HW1 4121   2.746   4.893   1.936
 1074SOL    HW2 4122   2.754   4.905   2.099
 1075SOL     OW 4123   6.105   1.469   3.964
 1075SOL    HW1 4124   6.155   1.413   4.030
 1075SOL    HW2 4125   6.169   1.527   3.913
 1076SOL     OW 4126   0.996   2.747   5.691
 1076SOL    HW1 4127   1.020   2.842   5.710
 1076SOL    HW2 4128   0.898   2.734   5.704
 1077SOL     OW 4129   0.063   6.971   0.461
 1077SOL    HW1 4130   0.131   6.897   0.468
 1077SOL    HW2 4131   0.068   7.012   0.370
 1078SOL     OW 4132   6.120   0.326   3.173
 1078SOL    HW1 4133   6.090   0.311   3.267
 1078SOL    HW2 4134   6.220   0.317   3.169
 1079SOL     OW 4135   1.746   5.111   2.000
 1079SOL    HW1 4136   1.826   5.092   1.942
 1079SOL    HW2 4137   1.663   5.101   1.946
 1080SOL     OW 4138   2.529   5.691   4.547
 1080SOL    HW1 4139   2.574   5.771   4.508
 1080SOL    HW2 4140   2.541   5.613   4.487
 1081SOL     OW 4141   0.010   5.491   4.657
 1081SOL    HW1 4142   6.947   5.525   4.622
 1081SOL    HW2 4143   7.020   5.443   4.743
 1082SOL     OW 4144   5.799   2.020   5.675
 1082SOL    HW1 4145   5.897   2.003   5.687
 1082SOL    HW2 4146   5.776   2.111   5.711
 1083SOL     OW 4147   4.935   2.986   6.894
 1083SOL    HW1 4148   4.904   3.001   6.800
 1083SOL    HW2 4149   4.879   3.040   6.957
 1084SOL     OW 4150   6.752   6.775   6.500
 1084SOL    HW1 4151   6.819   6.756   6.428
 1084SOL    HW2 4152   6.708   6.690   6.529
 1085SOL     OW 4153   2.073   3.324   3.885
 1085SOL    HW1 4154   2.122   3.352   3.967
 1085SOL    HW2 4155   2.029   3.236   3.901
 1086SOL     OW 4156   6.556   5.376   6.532
 1086SOL    HW1 4157   6.596   5.419   6.451
 1086SOL    HW2 4158   6.525   5.447   6.595
 1087SOL     OW 4159   1.060   1.378   5.369
 1087SOL    HW1 4160   1.131   1.366   5.438
 1087SOL    HW2 4161   1.101   1.409   5.283
 1088SOL     OW 4162   0.250   5.117   3.257
 1088SOL    HW1 4163   0.226   5.196   3.313
 1088SOL    HW2 4164   0.313   5.058   3.307
 1089SOL     OW 4165   0.869   5.615   5.008
 1089SOL    HW1 4166   0.934   5.575   5.072
 1089SOL    HW2 4167   0.894   5.589   4.915
 1090SOL     OW 4168   4.656   2.228   3.262
 1090SOL    HW1 4169   4.621   2.257   3.351
 1090SOL    HW2 4170   4.721   2.152   3.276
 1091SOL     OW 4171   2.037   3.599   3.409
 1091SOL    HW1 4172   2.037   3.695   3.434
 1091SOL    HW2 4173   2.108   3.551   3.460
 1092SOL     OW 4174   0.804   5.152   0.349
 1092SOL    HW1 4175   0.894   5.129   0.386
 1092SOL    HW2 4176   0.813   5.229   0.285
 1093SOL     OW 4177   2.591   6.717   1.454
 1093SOL    HW1 4178   2.602   6.742   1.358
 1093SOL    HW2 4179   2.592   6.800   1.511
 1094SOL     OW 4180   0.515   6.856   2.620
 1094SOL    HW1 4181   0.471   6.885   2.705
 1094SOL    HW2 4182   0.579   6.927   2.589
 1095SOL     OW 4183   0.596   1.987   6.931
 1095SOL    HW1 4184   0.690   2.015   6.911
 1095SOL    HW2 4185   0.541   2.068   6.949
 1096SOL     OW 4186   3.605   4.385   1.278
 1096SOL    HW1 4187   3.647   4.476   1.286
 1096SOL    HW2 4188   3.509   4.395   1.252
 1097SOL     OW 4189   2.123   5.213   2.921
 1097SOL    HW1 4190   2.045   5.273   2.941
 1097SOL    HW2 4191   2.092   5.134   2.868
 1098SOL     OW 4192   6.061   4.151   6.722
 1098SOL    HW1 4193   6.132   4.086   6.696
 1098SOL    HW2 4194   5.973   4.104   6.728
 1099SOL     OW 4195   4.400   1.116   6.703
 1099SOL    HW1 4196   4.307   1.154   6.707
 1099SOL    HW2 4197   4.437   1.109   6.796
 1100SOL     OW 4198   3.866   1.130   4.016
 1100SOL    HW1 4199   3.900   1.189   3.943
 1100SOL    HW2 4200   3.810   1.057   3.977
 1101SOL     OW 4201   5.261   4.209   5.014
 1101SOL    HW1 4202   5.285   4.192   5.110
 1101SOL    HW2 4203   5.256   4.308   4.998
 1102SOL     OW 4204   2.833   1.471   4.508
 1102SOL    HW1 4205   2.756   1.411   4.487
 1102SOL    HW2 4206   2.879   1.439   4.591
 1103SOL     OW 4207   2.217   1.533   0.076
 1103SOL    HW1 4208   2.183   1.558   0.167
 1103SOL    HW2 4209   2.159   1.461   0.037
 1104SOL     OW 4210   1.734   4.070   3.780
 1104SOL    HW1 4211   1.671   4.101   3.708
 1104SOL    HW2 4212   1.795   4.146   3.805
 1105SOL     OW 4213   5.060   2.953   4.813
 1105SOL    HW1 4214   5.100   3.041   4.840
 1105SOL    HW2 4215   4.961   2.959   4.818
 1106SOL     OW 4216   0.278   1.386   0.774
 1106SOL    HW1 4217   0.256   1.288   0.778
 1106SOL    HW2 4218   0.231   1.428   0.696
 1107SOL     OW 4219   0.817   0.826   0.199
 1107SOL    HW1 4220   0.837   0.924   0.197
 1107SOL    HW2 4221   0.892   0.776   0.156
 1108SOL     OW 4222   3.824   6.575   4.808
 1108SOL    HW1 4223   3.756   6.643   4.835
 1108SOL    HW2 4224   3.825   6.500   4.875
 1109SOL     OW 4225   5.979   1.231   4.313
 1109SOL    HW1 4226   5.920   1.275   4.380
 1109SOL    HW2 4227   5.939   1.239   4.222
 1110SOL     OW 4228   3.754   0.857   3.747
 1110SOL    HW1 4229   3.845   0.869   3.707
 1110SOL    HW2 4230   3.762   0.843   3.846
 1111SOL     OW 4231   5.647   4.412   6.249
 1111SOL    HW1 4232   5.725   4.380   6.195
 1111SOL    HW2 4233   5.656   4.380   6.343
 1112SOL     OW 4234   6.584   0.423   3.386
 1112SOL    HW1 4235   6.639   0.384   3.459
 1112SOL    HW2 4236   6.530   0.499   3.422
 1113SOL     OW 4237   6.460   4.274   1.419
 1113SOL    HW1 4238   6.483   4.306   1.327
 1113SOL    HW2 4239   6.364   4.247   1.421
 1114SOL     OW 4240   3.335   2.055   6.207
 1114SOL    HW1 4241   3.248   2.054   6.157
 1114SOL    HW2 4242   3.329   2.120   6.282
 1115SOL     OW 4243   4.153   4.037   5.321
 1115SOL    HW1 4244   4.171   3.947   5.362
 1115SOL    HW2 4245   4.238   4.088   5.313
 1116SOL     OW 4246   5.999   0.012   0.058
 1116SOL    HW1 4247   5.939   6.975   0.007
 1116SOL    HW2 4248   5.944   0.072   0.116
 1117SOL     OW 4249   0.831   2.013   1.468
 1117SOL    HW1 4250   0.913   2.053   1.509
 1117SOL    HW2 4251   0.844   1.914   1.457
 1118SOL     OW 4252   2.285   5.384   0.197
 1118SOL    HW1 4253   2.274   5.483   0.206
 1118SOL    HW2 4254   2.357   5.352   0.259
 1119SOL     OW 4255   4.340   4.482   1.832
 1119SOL    HW1 4256   4.264   4.466   1.769
 1119SOL    HW2 4257   4.384   4.395   1.853
 1120SOL     OW 4258   6.062   5.894   1.111
 1120SOL    HW1 4259   6.107   5.837   1.043
 1120SOL    HW2 4260   6.125   5.964   1.144
 1121SOL     OW 4261   0.248   4.421   5.321
 1121SOL    HW1 4262   0.239   4.518   5.297
 1121SOL    HW2 4263   0.236   4.365   5.239
 1122SOL     OW 4264   6.332   3.011   1.843
 1122SOL    HW1 4265   6.335   3.041   1.748
 1122SOL    HW2 4266   6.305   2.915   1.847
 1123SOL     OW 4267   4.856   2.110   3.870
 1123SOL    HW1 4268   4.770   2.060   3.856
 1123SOL    HW2 4269   4.919   2.053   3.922
 1124SOL     OW 4270   0.901   3.601   6.016
 1124SOL    HW1 4271   0.869   3.694   5.999
 1124SOL    HW2 4272   0.961   3.572   5.942
 1125SOL     OW 4273   1.895   3.124   4.235
 1125SOL    HW1 4274   1.889   3.133   4.334
 1125SOL    HW2 4275   1.889   3.028   4.209
 1126SOL     OW 4276   5.470   6.079   5.384
 1126SOL    HW1 4277   5.399   6.034   5.439
 1126SOL    HW2 4278   5.428   6.124   5.305
 1127SOL     OW 4279   5.881   6.692   4.703
 1127SOL    HW1 4280   5.951   6.711   4.772
 1127SOL    HW2 4281   5.903   6.740   4.618
 1128SOL     OW 4282   6.145   1.571   4.817
 1128SOL    HW1 4283   6.114   1.501   4.883
 1128SOL    HW2 4284   6.228   1.615   4.852
 1129SOL     OW 4285   1.672   6.179   0.628
 1129SOL    HW1 4286   1.665   6.258   0.689
 1129SOL    HW2 4287   1.768   6.167   0.600
 1130SOL     OW 4288   2.153   5.225   1.801
 1130SOL    HW1 4289   2.173   5.248   1.706
 1130SOL    HW2 4290   2.062   5.184   1.807
 1131SOL     OW 4291   1.517   0.389   5.017
 1131SOL    HW1 4292   1.423   0.358   5.034
 1131SOL    HW2 4293   1.534   0.392   4.919
 1132SOL     OW 4294   4.242   0.428   2.951
 1132SOL    HW1 4295   4.196   0.506   2.994
 1132SOL    HW2 4296   4.173   0.369   2.908
 1133SOL     OW 4297   0.622   0.831   0.371
 1133SOL    HW1 4298   0.658   0.793   0.456
 1133SOL    HW2 4299   0.692   0.828   0.300
 1134SOL     OW 4300   5.525   0.086   2.165
 1134SOL    HW1 4301   5.618   0.050   2.171
 1134SOL    HW2 4302   5.477   0.040   2.090
 1135SOL     OW 4303   2.427   6.835   3.802
 1135SOL    HW1 4304   2.504   6.773   3.785
 1135SOL    HW2 4305   2.436   6.916   3.744
 1136SOL     OW 4306   3.444   4.954   3.018
 1136SOL    HW1 4307   3.451   4.929   2.921
 1136SOL    HW2 4308   3.354   4.929   3.052
 1137SOL     OW 4309   0.713   5.890   6.803
 1137SOL    HW1 4310   0.792   5.946   6.780
 1137SOL    HW2 4311   0.634   5.949   6.819
 1138SOL     OW 4312   1.259   1.890   5.050
 1138SOL    HW1 4313   1.315   1.914   4.971
 1138SOL    HW2 4314   1.317   1.849   5.121
 1139SOL     OW 4315   2.558   4.734   3.976
 1139SOL    HW1 4316   2.643   4.766   4.017
 1139SOL    HW2 4317   2.567   4.736   3.876
 1140SOL     OW 4318   2.376   0.131   2.685
 1140SOL    HW1 4319   2.346   0.047   2.641
 1140SOL    HW2 4320   2.442   0.178   2.627
 1141SOL     OW 4321   6.422   5.660   6.676
 1141SOL    HW1 4322   6.518   5.678   6.655
 1141SOL    HW2 4323   6.411   5.652   6.775
 1142SOL     OW 4324   2.611   0.056   3.330
 1142SOL    HW1 4325   2.608   0.098   3.421
 1142SOL    HW2 4326   2.581   0.123   3.262
 1143SOL     OW 4327   1.233   2.923   2.483
 1143SOL    HW1 4328   1.288   2.910   2.401
 1143SOL    HW2 4329   1.223   2.836   2.531
 1144SOL     OW 4330   5.483   4.323   2.914
 1144SOL    HW1 4331   5.530   4.392   2.969
 1144SOL    HW2 4332   5.550   4.258   2.878
 1145SOL     OW 4333   1.485   2.527   0.387
 1145SOL    HW1 4334   1.508   2.620   0.414
 1145SOL    HW2 4335   1.400   2.499   0.431
 1146SOL     OW 4336   0.654   1.943   1.662
 1146SOL    HW1 4337   0.623   2.019   1.720
 1146SOL    HW2 4338   0.711   1.979   1.588
 1147SOL     OW 4339   2.777   5.526   0.779
 1147SOL    HW1 4340   2.805   5.430   0.787
 1147SOL    HW2 4341   2.843   5.576   0.725
 1148SOL     OW 4342   3.952   6.346   1.250
 1148SOL    HW1 4343   3.956   6.335   1.349
 1148SOL    HW2 4344   3.867   6.392   1.224
 1149SOL     OW 4345   5.583   2.820   1.595
 1149SOL    HW1 4346   5.528   2.748   1.552
 1149SOL    HW2 4347   5.605   2.890   1.526
 1150SOL     OW 4348   0.510   4.098   0.242
 1150SOL    HW1 4349   0.554   4.064   0.325
 1150SOL    HW2 4350   0.534   4.038   0.165
 1151SOL     OW 4351   6.151   4.702   4.798
 1151SOL    HW1 4352   6.234   4.738   4.757
 1151SOL    HW2 4353   6.080   4.694   4.728
 1152SOL     OW 4354   4.683   6.096   6.187
 1152SOL    HW1 4355   4.713   6.000   6.186
 1152SOL    HW2 4356   4.603   6.105   6.245
 1153SOL     OW 4357   6.658   6.958   1.652
 1153SOL    HW1 4358   6.716   6.961   1.733
 1153SOL    HW2 4359   6.619   6.867   1.641
 1154SOL     OW 4360   0.643   4.155   1.006
 1154SOL    HW1 4361   0.700   4.236   1.016
 1154SOL    HW2 4362   0.615   4.123   1.097
 1155SOL     OW 4363   2.351   5.976   5.398
 1155SOL    HW1 4364   2.397   6.005   5.482
 1155SOL    HW2 4365   2.413   5.920   5.344
 1156SOL     OW 4366   4.538   1.990   4.921
 1156SOL    HW1 4367   4.448   1.948   4.927
 1156SOL    HW2 4368   4.605   1.922   4.891
 1157SOL     OW 4369   5.274   1.050   5.757
 1157SOL    HW1 4370   5.189   1.082   5.800
 1157SOL    HW2 4371   5.253   0.982   5.688
 1158SOL     OW 4372   6.532   6.252   4.433
 1158SOL    HW1 4373   6.541   6.167   4.381
 1158SOL    HW2 4374   6.447   6.250   4.486
 1159SOL     OW 4375   5.773   6.571   3.108
 1159SOL    HW1 4376   5.850   6.626   3.075
 1159SOL    HW2 4377   5.693   6.591   3.052
 1160SOL     OW 4378   4.087   5.602   2.047
 1160SOL    HW1 4379   4.111   5.665   1.973
 1160SOL    HW2 4380   3.988   5.597   2.057
 1161SOL     OW 4381   0.220   5.272   6.516
 1161SOL    HW1 4382   0.193   5.176   6.518
 1161SOL    HW2 4383   0.245   5.302   6.608
 1162SOL     OW 4384   2.315   2.671   5.603
 1162SOL    HW1 4385   2.258   2.741   5.559
 1162SOL    HW2 4386   2.287   2.580   5.572
 1163SOL     OW 4387   6.150   4.621   1.564
 1163SOL    HW1 4388   6.233   4.584   1.605
 1163SOL    HW2 4389   6.111   4.691   1.625
 1164SOL     OW 4390   5.247   2.717   5.397
 1164SOL    HW1 4391   5.332   2.761   5.367
 1164SOL    HW2 4392   5.189   2.783   5.444
 1165SOL     OW 4393   4.103   5.930   3.033
 1165SOL    HW1 4394   4.051   6.003   3.077
 1165SOL    HW2 4395   4.196   5.961   3.016
 1166SOL     OW 4396   2.092   5.785   6.652
 1166SOL    HW1 4397   2.094   5.696   6.698
 1166SOL    HW2 4398   2.093   5.858   6.720
 1167SOL     OW 4399   4.727   4.912   1.201
 1167SOL    HW1 4400   4.639   4.921   1.248
 1167SOL    HW2 4401   4.787   4.987   1.228
 1168SOL     OW 4402   6.552   2.668   1.405
 1168SOL    HW1 4403   6.566   2.596   1.473
 1168SOL    HW2 4404   6.541   2.626   1.315
 1169SOL     OW 4405   5.260   1.973   5.164
 1169SOL    HW1 4406   5.337   1.977   5.228
 1169SOL    HW2 4407   5.217   2.063   5.158
 1170SOL     OW 4408   5.649   0.083   2.918
 1170SOL    HW1 4409   5.625   0.086   2.821
 1170SOL    HW2 4410   5.584   0.138   2.970
 1171SOL     OW 4411   2.614   6.754   0.087
 1171SOL    HW1 4412   2.700   6.705   0.099
 1171SOL    HW2 4413   2.588   6.752   7.015
 1172SOL     OW 4414   5.204   4.296   1.155
 1172SOL    HW1 4415   5.178   4.280   1.250
 1172SOL    HW2 4416   5.205   4.395   1.137
 1173SOL     OW 4417   3.013   1.307   1.498
 1173SOL    HW1 4418   3.051   1.376   1.559
 1173SOL    HW2 4419   2.973   1.351   1.418
 1174SOL     OW 4420   3.513   4.132   1.961
 1174SOL    HW1 4421   3.532   4.125   2.059
 1174SOL    HW2 4422   3.444   4.065   1.936
 1175SOL     OW 4423   4.845   3.622   6.014
 1175SOL    HW1 4424   4.750   3.593   6.022
 1175SOL    HW2 4425   4.861   3.703   6.071
 1176SOL     OW 4426   5.152   3.534   6.657
 1176SOL    HW1 4427   5.057   3.550   6.684
 1176SOL    HW2 4428   5.193   3.620   6.626
 1177SOL     OW 4429   6.834   3.825   5.114
 1177SOL    HW1 4430   6.772   3.747   5.117
 1177SOL    HW2 4431   6.895   3.817   5.035
 1178SOL     OW 4432   2.615   3.829   0.276
 1178SOL    HW1 4433   2.562   3.755   0.318
 1178SOL    HW2 4434   2.604   3.826   0.177
 1179SOL     OW 4435   2.486   5.754   0.290
 1179SOL    HW1 4436   2.394   5.754   0.250
 1179SOL    HW2 4437   2.508   5.846   0.323
 1180SOL     OW 4438   2.817   6.269   3.764
 1180SOL    HW1 4439   2.848   6.237   3.675
 1180SOL    HW2 4440   2.718   6.260   3.770
 1181SOL     OW 4441   0.224   5.204   6.088
 1181SOL    HW1 4442   0.213   5.289   6.140
 1181SOL    HW2 4443   0.321   5.181   6.083
 1182SOL     OW 4444   3.771   4.978   3.657
 1182SOL    HW1 4445   3.846   5.007   3.716
 1182SOL    HW2 4446   3.807   4.923   3.581
 1183SOL     OW 4447   1.994   3.842   6.932
 1183SOL    HW1 4448   2.042   3.759   6.960
 1183SOL    HW2 4449   2.059   3.918   6.925
 1184SOL     OW 4450   0.021   1.235   5.023
 1184SOL    HW1 4451   6.992   1.315   4.996
 1184SOL    HW2 4452   6.993   1.180   5.088
 1185SOL     OW 4453   0.397   1.927   0.623
 1185SOL    HW1 4454   0.464   1.977   0.679
 1185SOL    HW2 4455   0.309   1.927   0.670
 1186SOL     OW 4456   5.836   6.557   5.729
 1186SOL    HW1 4457   5.830   6.458   5.720
 1186SOL    HW2 4458   5.752   6.592   5.771
 1187SOL     OW 4459   6.280   6.710   6.843
 1187SOL    HW1 4460   6.233   6.767   6.910
 1187SOL    HW2 4461   6.345   6.650   6.891
 1188SOL     OW 4462   3.908   6.107   5.626
 1188SOL    HW1 4463   3.875   6.103   5.532
 1188SOL    HW2 4464   3.866   6.035   5.680
 1189SOL     OW 4465   6.325   2.374   1.866
 1189SOL    HW1 4466   6.352   2.440   1.936
 1189SOL    HW2 4467   6.403   2.317   1.841
 1190SOL     OW 4468   2.955   5.705   4.038
 1190SOL    HW1 4469   2.863   5.688   4.074
 1190SOL    HW2 4470   3.006   5.762   4.103
 1191SOL     OW 4471   4.661   5.219   3.968
 1191SOL    HW1 4472   4.663   5.121   3.990
 1191SOL    HW2 4473   4.566   5.249   3.960
 1192SOL     OW 4474   3.965   5.538   3.172
 1192SOL    HW1 4475   3.999   5.590   3.093
 1192SOL    HW2 4476   3.967   5.440   3.151
 1193SOL     OW 4477   6.271   3.164   5.416
 1193SOL    HW1 4478   6.198   3.122   5.470
 1193SOL    HW2 4479   6.359   3.146   5.459
 1194SOL     OW 4480   5.771   0.028   1.329
 1194SOL    HW1 4481   5.746   0.012   1.425
 1194SOL    HW2 4482   5.862   7.015   1.312
 1195SOL     OW 4483   6.927   4.203   0.737
 1195SOL    HW1 4484   6.898   4.147   0.659
 1195SOL    HW2 4485   6.849   4.253   0.773
 1196SOL     OW 4486   0.440   5.890   2.749
 1196SOL    HW1 4487   0.395   5.889   2.660
 1196SOL    HW2 4488   0.455   5.796   2.779
 1197SOL     OW 4489   4.517   0.803   5.267
 1197SOL    HW1 4490   4.450   0.866   5.227
 1197SOL    HW2 4491   4.483   0.768   5.354
 1198SOL     OW 4492   1.336   2.736   2.297
 1198SOL    HW1 4493   1.303   2.784   2.216
 1198SOL    HW2 4494   1.435   2.726   2.291
 1199SOL     OW 4495   4.045   4.186   1.553
 1199SOL    HW1 4496   4.140   4.167   1.579
 1199SOL    HW2 4497   4.001   4.100   1.524
 1200SOL     OW 4498   3.229   3.788   4.046
 1200SOL    HW1 4499   3.244   3.741   4.133
 1200SOL    HW2 4500   3.306   3.767   3.984
 1201SOL     OW 4501   0.963   0.994   4.122
 1201SOL    HW1 4502   0.968   0.908   4.173
 1201SOL    HW2 4503   0.956   0.974   4.024
 1202SOL     OW 4504   0.564   5.755   5.607
 1202SOL    HW1 4505   0.469   5.725   5.594
 1202SOL    HW2 4506   0.625   5.677   5.598
 1203SOL     OW 4507   5.977   6.167   6.954
 1203SOL    HW1 4508   5.880   6.177   6.976
 1203SOL    HW2 4509   6.008   6.077   6.983
 1204SOL     OW 4510   3.266   6.208   1.734
 1204SOL    HW1 4511   3.228   6.158   1.812
 1204SOL    HW2 4512   3.221   6.297   1.725
 1205SOL     OW 4513   4.739   3.672   1.213
 1205SOL    HW1 4514   4.643   3.645   1.203
 1205SOL    HW2 4515   4.776   3.695   1.123
 1206SOL     OW 4516   2.859   2.792   5.356
 1206SOL    HW1 4517   2.886   2.745   5.440
 1206SOL    HW2 4518   2.912   2.876   5.346
 1207SOL     OW 4519   1.987   6.130   1.173
 1207SOL    HW1 4520   1.970   6.162   1.080
 1207SOL    HW2 4521   2.072   6.076   1.175
 1208SOL     OW 4522   3.064   3.963   1.334
 1208SOL    HW1 4523   3.054   4.037   1.401
 1208SOL    HW2 4524   2.994   3.895   1.350
 1209SOL     OW 4525   4.941   1.253   4.645
 1209SOL    HW1 4526   5.008   1.208   4.704
 1209SOL    HW2 4527   4.986   1.322   4.590
 1210SOL     OW 4528   3.182   0.752   3.748
 1210SOL    HW1 4529   3.098   0.702   3.725
 1210SOL    HW2 4530   3.208   0.810   3.672
 1211SOL     OW 4531   1.041   3.740   1.845
 1211SOL    HW1 4532   0.958   3.795   1.834
 1211SOL    HW2 4533   1.085   3.729   1.756
 1212SOL     OW 4534   6.363   0.714   6.973
 1212SOL    HW1 4535   6.387   0.691   6.879
 1212SOL    HW2 4536   6.400   0.644   0.010
 1213SOL     OW 4537   6.767   2.019   0.515
 1213SOL    HW1 4538   6.826   2.010   0.435
 1213SOL    HW2 4539   6.814   2.071   0.586
 1214SOL     OW 4540   0.746   2.253   6.720
 1214SOL    HW1 4541   0.673   2.217   6.661
 1214SOL    HW2 4542   0.709   2.324   6.780
 1215SOL     OW 4543   1.002   4.689   3.653
 1215SOL    HW1 4544   1.099   4.663   3.663
 1215SOL    HW2 4545   0.948   4.607   3.632
 1216SOL     OW 4546   4.831   0.688   1.062
 1216SOL    HW1 4547   4.776   0.611   1.094
 1216SOL    HW2 4548   4.834   0.687   0.962
 1217SOL     OW 4549   2.192   4.641   0.160
 1217SOL    HW1 4550   2.119   4.627   0.093
 1217SOL    HW2 4551   2.184   4.732   0.199
 1218SOL     OW 4552   2.317   4.245   4.490
 1218SOL    HW1 4553   2.323   4.282   4.397
 1218SOL    HW2 4554   2.268   4.158   4.489
 1219SOL     OW 4555   5.858   6.150   1.596
 1219SOL    HW1 4556   5.813   6.234   1.625
 1219SOL    HW2 4557   5.860   6.084   1.671
 1220SOL     OW 4558   1.051   5.070   3.557
 1220SOL    HW1 4559   1.019   5.093   3.649
 1220SOL    HW2 4560   1.031   4.975   3.537
 1221SOL     OW 4561   6.032   3.565   5.908
 1221SOL    HW1 4562   5.954   3.528   5.958
 1221SOL    HW2 4563   6.000   3.604   5.821
 1222SOL     OW 4564   6.414   0.212   6.514
 1222SOL    HW1 4565   6.336   0.251   6.562
 1222SOL    HW2 4566   6.495   0.268   6.530
 1223SOL     OW 4567   4.072   0.575   0.884
 1223SOL    HW1 4568   4.097   0.655   0.940
 1223SOL    HW2 4569   3.973   0.567   0.878
 1224SOL     OW 4570   3.023   5.728   7.014
 1224SOL    HW1 4571   3.017   5.657   6.944
 1224SOL    HW2 4572   2.932   5.767   0.005
 1225SOL     OW 4573   3.416   3.616   6.710
 1225SOL    HW1 4574   3.493   3.637   6.769
 1225SOL    HW2 4575   3.334   3.601   6.765
 1226SOL     OW 4576   2.438   5.157   1.149
 1226SOL    HW1 4577   2.444   5.085   1.219
 1226SOL    HW2 4578   2.483   5.239   1.182
 1227SOL     OW 4579   6.300   4.021   0.191
 1227SOL    HW1 4580   6.362   4.099   0.182
 1227SOL    HW2 4581   6.205   4.053   0.189
 1228SOL     OW 4582   4.475   2.559   6.651
 1228SOL    HW1 4583   4.518   2.636   6.697
 1228SOL    HW2 4584   4.472   2.575   6.553
 1229SOL     OW 4585   3.879   5.342   6.349
 1229SOL    HW1 4586   3.935   5.374   6.426
 1229SOL    HW2 4587   3.909   5.387   6.265
 1230SOL     OW 4588   4.823   0.225   3.447
 1230SOL    HW1 4589   4.726   0.226   3.421
 1230SOL    HW2 4590   4.845   0.311   3.493
 1231SOL     OW 4591   1.514   3.546   4.350
 1231SOL    HW1 4592   1.568   3.597   4.417
 1231SOL    HW2 4593   1.562   3.462   4.325
 1232SOL     OW 4594   0.471   2.419   6.288
 1232SOL    HW1 4595   0.501   2.512   6.266
 1232SOL    HW2 4596   0.371   2.414   6.284
 1233SOL     OW 4597   1.113   3.457   4.143
 1233SOL    HW1 4598   1.104   3.361   4.119
 1233SOL    HW2 4599   1.044   3.510   4.093
 1234SOL     OW 4600   6.368   4.225   4.726
 1234SOL    HW1 4601   6.325   4.135   4.720
 1234SOL    HW2 4602   6.446   4.228   4.663
 1235SOL     OW 4603   6.994   5.561   2.178
 1235SOL    HW1 4604   0.063   5.557   2.213
 1235SOL    HW2 4605   6.949   5.643   2.212
 1236SOL     OW 4606   4.942   1.337   0.461
 1236SOL    HW1 4607   4.857   1.288   0.481
 1236SOL    HW2 4608   4.973   1.313   0.369
 1237SOL     OW 4609   2.357   4.786   5.885
 1237SOL    HW1 4610   2.423   4.713   5.865
 1237SOL    HW2 4611   2.283   4.749   5.941
 1238SOL     OW 4612   2.226   0.556   0.506
 1238SOL    HW1 4613   2.251   0.478   0.564
 1238SOL    HW2 4614   2.134   0.542   0.471
 1239SOL     OW 4615   6.976   6.751   6.367
 1239SOL    HW1 4616   6.996   6.839   6.408
 1239SOL    HW2 4617   0.015   6.734   6.291
 1240SOL     OW 4618   5.663   5.749   1.651
 1240SOL    HW1 4619   5.719   5.779   1.574
 1240SOL    HW2 4620   5.636   5.653   1.636
 1241SOL     OW 4621   6.249   4.184   4.035
 1241SOL    HW1 4622   6.278   4.202   4.129
 1241SOL    HW2 4623   6.190   4.104   4.032
 1242SOL     OW 4624   0.343   3.653   1.898
 1242SOL    HW1 4625   0.297   3.603   1.825
 1242SOL    HW2 4626   0.416   3.710   1.858
 1243SOL     OW 4627   0.747   6.658   5.077
 1243SOL    HW1 4628   0.718   6.621   4.989
 1243SOL    HW2 4629   0.732   6.590   5.148
 1244SOL     OW 4630   6.595   6.613   3.617
 1244SOL    HW1 4631   6.596   6.563   3.704
 1244SOL    HW2 4632   6.688   6.623   3.583
 1245SOL     OW 4633   5.271   4.058   6.383
 1245SOL    HW1 4634   5.284   4.050   6.284
 1245SOL    HW2 4635   5.348   4.108   6.423
 1246SOL     OW 4636   2.129   6.263   1.382
 1246SOL    HW1 4637   2.079   6.256   1.469
 1246SOL    HW2 4638   2.064   6.263   1.306
 1247SOL     OW 4639   2.781   0.229   6.679
 1247SOL    HW1 4640   2.750   0.172   6.755
 1247SOL    HW2 4641   2.841   0.175   6.620
 1248SOL     OW 4642   2.321   0.097   4.354
 1248SOL    HW1 4643   2.384   0.173   4.336
 1248SOL    HW2 4644   2.373   0.013   4.369
 1249SOL     OW 4645   5.952   2.303   2.123
 1249SOL    HW1 4646   5.880   2.373   2.120
 1249SOL    HW2 4647   6.039   2.346   2.147
 1250SOL     OW 4648   6.466   4.743   4.394
 1250SOL    HW1 4649   6.561   4.714   4.406
 1250SOL    HW2 4650   6.458   4.842   4.407
 1251SOL     OW 4651   2.900   6.722   4.416
 1251SOL    HW1 4652   2.890   6.676   4.328
 1251SOL    HW2 4653   2.893   6.821   4.403
 1252SOL     OW 4654   3.619   3.358   5.756
 1252SOL    HW1 4655   3.602   3.291   5.828
 1252SOL    HW2 4656   3.708   3.401   5.772
 1253SOL     OW 4657   3.297   5.087   1.413
 1253SOL    HW1 4658   3.317   5.109   1.509
 1253SOL    HW2 4659   3.290   5.172   1.361
 1254SOL     OW 4660   6.359   3.384   2.481
 1254SOL    HW1 4661   6.388   3.377   2.386
 1254SOL    HW2 4662   6.438   3.372   2.541
 1255SOL     OW 4663   6.646   1.850   4.529
 1255SOL    HW1 4664   6.717   1.848   4.459
 1255SOL    HW2 4665   6.597   1.763   4.528
 1256SOL     OW 4666   6.667   7.007   3.011
 1256SOL    HW1 4667   6.690   6.910   3.009
 1256SOL    HW2 4668   6.750   0.036   3.029
 1257SOL     OW 4669   6.410   7.014   3.508
 1257SOL    HW1 4670   6.373   6.921   3.506
 1257SOL    HW2 4671   6.508   7.011   3.527
 1258SOL     OW 4672   1.313   5.172   3.674
 1258SOL    HW1 4673   1.224   5.139   3.706
 1258SOL    HW2 4674   1.373   5.094   3.657
 1259SOL     OW 4675   3.658   2.111   4.343
 1259SOL    HW1 4676   3.697   2.109   4.435
 1259SOL    HW2 4677   3.570   2.158   4.345
 1260SOL     OW 4678   1.301   1.323   6.793
 1260SOL    HW1 4679   1.260   1.271   6.718
 1260SOL    HW2 4680   1.247   1.405   6.811
 1261SOL     OW 4681   6.929   5.789   6.389
 1261SOL    HW1 4682   6.896   5.838   6.308
 1261SOL    HW2 4683   6.900   5.837   6.471
 1262SOL     OW 4684   5.222   5.107   1.281
 1262SOL    HW1 4685   5.175   5.174   1.338
 1262SOL    HW2 4686   5.172   5.020   1.283
 1263SOL     OW 4687   0.481   0.876   2.380
 1263SOL    HW1 4688   0.484   0.784   2.418
 1263SOL    HW2 4689   0.391   0.892   2.338
 1264SOL     OW 4690   0.315   3.923   6.420
 1264SOL    HW1 4691   0.255   3.844   6.408
 1264SOL    HW2 4692   0.276   4.002   6.374
 1265SOL     OW 4693   6.321   5.010   4.220
 1265SOL    HW1 4694   6.294   5.019   4.316
 1265SOL    HW2 4695   6.274   5.081   4.166
 1266SOL     OW 4696   0.782   0.599   4.081
 1266SOL    HW1 4697   0.722   0.679   4.084
 1266SOL    HW2 4698   0.727   0.517   4.069
 1267SOL     OW 4699   4.774   1.116   1.673
 1267SOL    HW1 4700   4.806   1.034   1.719
 1267SOL    HW2 4701   4.830   1.134   1.592
 1268SOL     OW 4702   2.767   2.944   6.542
 1268SOL    HW1 4703   2.745   2.861   6.593
 1268SOL    HW2 4704   2.706   2.951   6.462
 1269SOL     OW 4705   5.786   2.831   3.628
 1269SOL    HW1 4706   5.710   2.781   3.585
 1269SOL    HW2 4707   5.749   2.898   3.692
 1270SOL     OW 4708   2.483   4.455   2.237
 1270SOL    HW1 4709   2.460   4.551   2.251
 1270SOL    HW2 4710   2.580   4.446   2.213
 1271SOL     OW 4711   3.559   1.253   1.971
 1271SOL    HW1 4712   3.506   1.302   1.902
 1271SOL    HW2 4713   3.497   1.205   2.033
 1272SOL     OW 4714   6.270   4.583   6.704
 1272SOL    HW1 4715   6.193   4.532   6.743
 1272SOL    HW2 4716   6.349   4.574   6.765
 1273SOL     OW 4717   1.492   3.725   5.288
 1273SOL    HW1 4718   1.428   3.673   5.345
 1273SOL    HW2 4719   1.506   3.677   5.202
 1274SOL     OW 4720   0.458   4.389   1.297
 1274SOL    HW1 4721   0.525   4.456   1.329
 1274SOL    HW2 4722   0.483   4.298   1.330
 1275SOL     OW 4723   3.214   0.569   3.420
 1275SOL    HW1 4724   3.309   0.543   3.431
 1275SOL    HW2 4725   3.207   0.668   3.413
 1276SOL     OW 4726   5.433   5.313   4.502
 1276SOL    HW1 4727   5.440   5.225   4.455
 1276SOL    HW2 4728   5.356   5.312   4.565
 1277SOL     OW 4729   1.526   5.148   0.404
 1277SOL    HW1 4730   1.555   5.221   0.343
 1277SOL    HW2 4731   1.603   5.087   0.422
 1278SOL     OW 4732   1.480   0.132   4.149
 1278SOL    HW1 4733   1.398   0.136   4.091
 1278SOL    HW2 4734   1.522   0.041   4.141
 1279SOL     OW 4735   2.333   4.033   5.987
 1279SOL    HW1 4736   2.415   3.983   6.015
 1279SOL    HW2 4737   2.300   3.999   5.899
 1280SOL     OW 4738   4.363   0.188   3.960
 1280SOL    HW1 4739   4.383   0.285   3.945
 1280SOL    HW2 4740   4.448   0.140   3.984
 1281SOL     OW 4741   2.966   5.635   3.598
 1281SOL    HW1 4742   3.049   5.667   3.646
 1281SOL    HW2 4743   2.904   5.713   3.585
 1282SOL     OW 4744   0.085   2.878   0.063
 1282SOL    HW1 4745   0.023   2.904   7.014
 1282SOL    HW2 4746   0.086   2.778   0.072
 1283SOL     OW 4747   6.440   3.839   5.773
 1283SOL    HW1 4748   6.447   3.837   5.673
 1283SOL    HW2 4749   6.372   3.772   5.803
 1284SOL     OW 4750   3.823   0.568   1.201
 1284SOL    HW1 4751   3.754   0.641   1.205
 1284SOL    HW2 4752   3.910   0.607   1.172
 1285SOL     OW 4753   4.250   1.403   5.334
 1285SOL    HW1 4754   4.215   1.378   5.424
 1285SOL    HW2 4755   4.349   1.418   5.341
 1286SOL     OW 4756   4.467   2.392   0.861
 1286SOL    HW1 4757   4.434   2.316   0.916
 1286SOL    HW2 4758   4.555   2.424   0.897
 1287SOL     OW 4759   5.039   4.785   5.184
 1287SOL    HW1 4760   5.063   4.780   5.087
 1287SOL    HW2 4761   4.983   4.867   5.201
 1288SOL     OW 4762   4.232   4.978   5.444
 1288SOL    HW1 4763   4.172   4.994   5.523
 1288SOL    HW2 4764   4.212   5.046   5.373
 1289SOL     OW 4765   0.059   0.627   2.039
 1289SOL    HW1 4766   0.032   0.629   1.943
 1289SOL    HW2 4767   0.040   0.716   2.081
 1290SOL     OW 4768   1.535   7.018   1.239
 1290SOL    HW1 4769   1.436   7.011   1.231
 1290SOL    HW2 4770   1.574   6.926   1.251
 1291SOL     OW 4771   6.651   4.944   4.375
 1291SOL    HW1 4772   6.642   4.979   4.282
 1291SOL    HW2 4773   6.704   4.860   4.374
 1292SOL     OW 4774   0.892   5.324   2.086
 1292SOL    HW1 4775   0.890   5.355   1.991
 1292SOL    HW2 4776   0.843   5.237   2.094
 1293SOL     OW 4777   2.582   2.149   0.334
 1293SOL    HW1 4778   2.605   2.074   0.395
 1293SOL    HW2 4779   2.494   2.130   0.290
 1294SOL     OW 4780   1.392   4.234   6.289
 1294SOL    HW1 4781   1.298   4.266   6.297
 1294SOL    HW2 4782   1.450   4.309   6.256
 1295SOL     OW 4783   0.394   3.641   1.258
 1295SOL    HW1 4784   0.407   3.630   1.357
 1295SOL    HW2 4785   0.463   3.587   1.209
 1296SOL     OW 4786   4.679   6.855   5.404
 1296SOL    HW1 4787   4.664   6.935   5.461
 1296SOL    HW2 4788   4.656   6.877   5.309
 1297SOL     OW 4789   1.041   6.293   1.613
 1297SOL    HW1 4790   1.036   6.306   1.514
 1297SOL    HW2 4791   1.026   6.381   1.658
 1298SOL     OW 4792   5.078   5.847   3.276
 1298SOL    HW1 4793   5.176   5.843   3.295
 1298SOL    HW2 4794   5.047   5.942   3.283
 1299SOL     OW 4795   1.978   2.697   3.946
 1299SOL    HW1 4796   1.986   2.718   3.849
 1299SOL    HW2 4797   1.963   2.599   3.957
 1300SOL     OW 4798   1.768   3.236   1.586
 1300SOL    HW1 4799   1.778   3.336   1.593
 1300SOL    HW2 4800   1.746   3.212   1.492
 1301SOL     OW 4801   0.792   6.732   1.855
 1301SOL    HW1 4802   0.773   6.770   1.764
 1301SOL    HW2 4803   0.818   6.805   1.917
 1302SOL     OW 4804   5.356   0.778   5.355
 1302SOL    HW1 4805   5.307   0.711   5.300
 1302SOL    HW2 4806   5.454   0.757   5.353
 1303SOL     OW 4807   4.205   0.825   2.019
 1303SOL    HW1 4808   4.128   0.855   2.076
 1303SOL    HW2 4809   4.228   0.731   2.042
 1304SOL     OW 4810   1.842   1.201   1.532
 1304SOL    HW1 4811   1.890   1.172   1.615
 1304SOL    HW2 4812   1.895   1.271   1.486
 1305SOL     OW 4813   5.860   4.341   6.117
 1305SOL    HW1 4814   5.944   4.289   6.104
 1305SOL    HW2 4815   5.853   4.411   6.045
 1306SOL     OW 4816   1.448   5.854   4.669
 1306SOL    HW1 4817   1.361   5.817   4.637
 1306SOL    HW2 4818   1.523   5.810   4.621
 1307SOL     OW 4819   2.097   3.561   4.091
 1307SOL    HW1 4820   2.099   3.659   4.073
 1307SOL    HW2 4821   2.106   3.544   4.189
 1308SOL     OW 4822   6.740   7.016   5.918
 1308SOL    HW1 4823   6.700   6.993   6.007
 1308SOL    HW2 4824   6.685   0.062   5.874
 1309SOL     OW 4825   5.372   4.606   5.443
 1309SOL    HW1 4826   5.379   4.600   5.343
 1309SOL    HW2 4827   5.345   4.698   5.469
 1310SOL     OW 4828   0.275   4.558   3.733
 1310SOL    HW1 4829   0.263   4.598   3.642
 1310SOL    HW2 4830   0.372   4.557   3.756
 1311SOL     OW 4831   6.561   6.011   6.409
 1311SOL    HW1 4832   6.642   6.024   6.467
 1311SOL    HW2 4833   6.522   5.921   6.427
 1312SOL     OW 4834   1.809   0.160   0.225
 1312SOL    HW1 4835   1.791   0.247   0.270
 1312SOL    HW2 4836   1.860   0.100   0.286
 1313SOL     OW 4837   6.762   5.238   2.475
 1313SOL    HW1 4838   6.712   5.177   2.414
 1313SOL    HW2 4839   6.773   5.194   2.565
 1314SOL     OW 4840   3.495   1.867   4.471
 1314SOL    HW1 4841   3.555   1.787   4.482
 1314SOL    HW2 4842   3.513   1.910   4.383
 1315SOL     OW 4843   6.887   0.823   3.640
 1315SOL    HW1 4844   6.878   0.775   3.553
 1315SOL    HW2 4845   6.858   0.919   3.629
 1316SOL     OW 4846   3.699   0.038   4.861
 1316SOL    HW1 4847   3.749   0.124   4.876
 1316SOL    HW2 4848   3.626   0.031   4.928
 1317SOL     OW 4849   1.506   4.196   5.316
 1317SOL    HW1 4850   1.463   4.242   5.393
 1317SOL    HW2 4851   1.547   4.110   5.347
 1318SOL     OW 4852   1.446   2.672   6.705
 1318SOL    HW1 4853   1.544   2.685   6.692
 1318SOL    HW2 4854   1.419   2.582   6.671
 1319SOL     OW 4855   0.242   5.629   6.815
 1319SOL    HW1 4856   0.332   5.621   6.859
 1319SOL    HW2 4857   0.212   5.538   6.784
 1320SOL     OW 4858   2.707   2.937   6.999
 1320SOL    HW1 4859   2.769   3.007   0.010
 1320SOL    HW2 4860   2.713   2.934   6.899
 1321SOL     OW 4861   4.703   2.583   6.433
 1321SOL    HW1 4862   4.656   2.539   6.509
 1321SOL    HW2 4863   4.791   2.538   6.417
 1322SOL     OW 4864   3.850   1.455   4.351
 1322SOL    HW1 4865   3.817   1.514   4.425
 1322SOL    HW2 4866   3.779   1.446   4.281
 1323SOL     OW 4867   3.285   6.085   0.537
 1323SOL    HW1 4868   3.327   6.056   0.623
 1323SOL    HW2 4869   3.327   6.035   0.461
 1324SOL     OW 4870   0.560   3.527   0.673
 1324SOL    HW1 4871   0.491   3.533   0.601
 1324SOL    HW2 4872   0.537   3.591   0.746
 1325SOL     OW 4873   3.989   5.971   4.990
 1325SOL    HW1 4874   3.894   6.000   4.980
 1325SOL    HW2 4875   4.028   6.013   5.072
 1326SOL     OW 4876   4.788   4.043   5.398
 1326SOL    HW1 4877   4.878   4.086   5.394
 1326SOL    HW2 4878   4.793   3.951   5.358
 1327SOL     OW 4879   0.509   6.536   1.218
 1327SOL    HW1 4880   0.462   6.604   1.274
 1327SOL    HW2 4881   0.526   6.572   1.127
 1328SOL     OW 4882   2.016   2.944   6.885
 1328SOL    HW1 4883   1.923   2.957   6.848
 1328SOL    HW2 4884   2.037   3.020   6.947
 1329SOL     OW 4885   6.914   2.158   3.009
 1329SOL    HW1 4886   6.937   2.184   3.103
 1329SOL    HW2 4887   6.987   2.100   2.971
 1330SOL     OW 4888   0.744   2.247   1.047
 1330SOL    HW1 4889   0.743   2.346   1.057
 1330SOL    HW2 4890   0.697   2.205   1.125
 1331SOL     OW 4891   4.721   2.750   2.651
 1331SOL    HW1 4892   4.683   2.697   2.727
 1331SOL    HW2 4893   4.735   2.845   2.680
 1332SOL     OW 4894   2.386   6.645   0.492
 1332SOL    HW1 4895   2.335   6.699   0.560
 1332SOL    HW2 4896   2.356   6.670   0.400
 1333SOL     OW 4897   2.872   3.598   3.398
 1333SOL    HW1 4898   2.857   3.548   3.312
 1333SOL    HW2 4899   2.940   3.550   3.453
 1334SOL     OW 4900   6.175   1.847   3.640
 1334SOL    HW1 4901   6.107   1.888   3.701
 1334SOL    HW2 4902   6.257   1.825   3.692
 1335SOL     OW 4903   2.059   2.064   1.844
 1335SOL    HW1 4904   2.085   2.114   1.761
 1335SOL    HW2 4905   2.096   2.111   1.924
 1336SOL     OW 4906   3.934   1.415   5.557
 1336SOL    HW1 4907   3.849   1.436   5.605
 1336SOL    HW2 4908   4.011   1.424   5.620
 1337SOL     OW 4909   6.902   1.731   3.007
 1337SOL    HW1 4910   6.915   1.632   3.019
 1337SOL    HW2 4911   6.820   1.748   2.953
 1338SOL     OW 4912   0.057   4.212   4.107
 1338SOL    HW1 4913   0.143   4.191   4.061
 1338SOL    HW2 4914   7.024   4.130   4.110
 1339SOL     OW 4915   6.904   0.805   0.357
 1339SOL    HW1 4916   6.830   0.824   0.421
 1339SOL    HW2 4917   6.868   0.807   0.263
 1340SOL     OW 4918   5.731   1.521   2.590
 1340SOL    HW1 4919   5.652   1.514   2.650
 1340SOL    HW2 4920   5.713   1.472   2.505
 1341SOL     OW 4921   3.975   6.152   0.242
 1341SOL    HW1 4922   3.896   6.200   0.279
 1341SOL    HW2 4923   4.040   6.217   0.203
 1342SOL     OW 4924   2.990   5.297   6.554
 1342SOL    HW1 4925   3.067   5.234   6.540
 1342SOL    HW2 4926   2.904   5.247   6.548
 1343SOL     OW 4927   5.350   5.171   2.894
 1343SOL    HW1 4928   5.252   5.152   2.904
 1343SOL    HW2 4929   5.402   5.117   2.960
 1344SOL     OW 4930   0.515   6.408   4.311
 1344SOL    HW1 4931   0.558   6.320   4.290
 1344SOL    HW2 4932   0.479   6.448   4.227
 1345SOL     OW 4933   0.654   4.693   2.141
 1345SOL    HW1 4934   0.748   4.687   2.107
 1345SOL    HW2 4935   0.653   4.682   2.240
 1346SOL     OW 4936   1.915   5.532   6.205
 1346SOL    HW1 4937   1.848   5.605   6.193
 1346SOL    HW2 4938   2.001   5.572   6.237
 1347SOL     OW 4939   0.943   6.748   6.956
 1347SOL    HW1 4940   0.946   6.847   6.949
 1347SOL    HW2 4941   0.881   6.712   6.886
 1348SOL     OW 4942   6.885   6.635   5.479
 1348SOL    HW1 4943   6.880   6.733   5.463
 1348SOL    HW2 4944   6.842   6.613   5.567
 1349SOL     OW 4945   5.167   2.473   4.221
 1349SOL    HW1 4946   5.259   2.507   4.239
 1349SOL    HW2 4947   5.143   2.404   4.288
 1350SOL     OW 4948   4.365   5.232   5.950
 1350SOL    HW1 4949   4.462   5.212   5.938
 1350SOL    HW2 4950   4.323   5.161   6.008
 1351SOL     OW 4951   5.928   2.600   4.236
 1351SOL    HW1 4952   5.837   2.583   4.198
 1351SOL    HW2 4953   5.965   2.684   4.196
 1352SOL     OW 4954   6.924   6.261   3.545
 1352SOL    HW1 4955   6.867   6.190   3.587
 1352SOL    HW2 4956   7.010   6.220   3.513
 1353SOL     OW 4957   1.216   1.740   0.415
 1353SOL    HW1 4958   1.126   1.755   0.374
 1353SOL    HW2 4959   1.209   1.667   0.484
 1354SOL     OW 4960   0.150   4.167   1.968
 1354SOL    HW1 4961   0.120   4.190   2.061
 1354SOL    HW2 4962   0.100   4.224   1.903
 1355SOL     OW 4963   5.926   3.534   4.253
 1355SOL    HW1 4964   5.902   3.507   4.347
 1355SOL    HW2 4965   5.862   3.604   4.221
 1356SOL     OW 4966   3.708   3.115   1.794
 1356SOL    HW1 4967   3.749   3.045   1.852
 1356SOL    HW2 4968   3.691   3.198   1.848
 1357SOL     OW 4969   0.040   4.495   6.365
 1357SOL    HW1 4970   6.984   4.553   6.348
 1357SOL    HW2 4971   0.013   4.416   6.420
 1358SOL     OW 4972   6.071   6.692   0.059
 1358SOL    HW1 4973   6.022   6.690   0.146
 1358SOL    HW2 4974   6.167   6.669   0.075
 1359SOL     OW 4975   6.274   4.822   2.169
 1359SOL    HW1 4976   6.231   4.740   2.206
 1359SOL    HW2 4977   6.271   4.819   2.069
 1360SOL     OW 4978   2.996   3.169   0.315
 1360SOL    HW1 4979   2.957   3.078   0.314
 1360SOL    HW2 4980   2.947   3.227   0.381
 1361SOL     OW 4981   6.827   4.349   4.576
 1361SOL    HW1 4982   6.910   4.338   4.522
 1361SOL    HW2 4983   6.850   4.348   4.673
 1362SOL     OW 4984   3.918   3.974   2.963
 1362SOL    HW1 4985   3.825   3.944   2.984
 1362SOL    HW2 4986   3.973   3.896   2.935
 1363SOL     OW 4987   0.460   5.414   4.470
 1363SOL    HW1 4988   0.403   5.373   4.541
 1363SOL    HW2 4989   0.402   5.445   4.394
 1364SOL     OW 4990   4.607   4.208   0.256
 1364SOL    HW1 4991   4.551   4.199   0.338
 1364SOL    HW2 4992   4.599   4.301   0.220
 1365SOL     OW 4993   0.562   4.334   6.426
 1365SOL    HW1 4994   0.597   4.329   6.333
 1365SOL    HW2 4995   0.633   4.305   6.490
 1366SOL     OW 4996   1.580   6.361   6.137
 1366SOL    HW1 4997   1.530   6.394   6.217
 1366SOL    HW2 4998   1.641   6.433   6.104
 1367SOL     OW 4999   2.025   0.617   2.370
 1367SOL    HW1 5000   1.967   0.691   2.335
 1367SOL    HW2 5001   2.017   0.538   2.310
 1368SOL     OW 5002   5.340   6.824   5.169
 1368SOL    HW1 5003   5.419   6.835   5.109
 1368SOL    HW2 5004   5.263   6.877   5.134
 1369SOL     OW 5005   1.904   6.361   2.995
 1369SOL    HW1 5006   1.880   6.369   3.092
 1369SOL    HW2 5007   1.820   6.361   2.941
 1370SOL     OW 5008   3.705   0.737   2.382
 1370SOL    HW1 5009   3.790   0.714   2.335
 1370SOL    HW2 5010   3.724   0.756   2.478
 1371SOL     OW 5011   4.678   1.151   4.598
 1371SOL    HW1 5012   4.767   1.196   4.613
 1371SOL    HW2 5013   4.657   1.152   4.500
 1372SOL     OW 5014   1.881   2.682   1.104
 1372SOL    HW1 5015   1.801   2.633   1.137
 1372SOL    HW2 5016   1.953   2.679   1.174
 1373SOL     OW 5017   6.497   4.618   0.580
 1373SOL    HW1 5018   6.589   4.586   0.604
 1373SOL    HW2 5019   6.452   4.552   0.520
 1374SOL     OW 5020   4.587   2.053   0.846
 1374SOL    HW1 5021   4.512   1.986   0.836
 1374SOL    HW2 5022   4.577   2.101   0.932
 1375SOL     OW 5023   6.770   5.158   6.312
 1375SOL    HW1 5024   6.743   5.251   6.288
 1375SOL    HW2 5025   6.765   5.147   6.412
 1376SOL     OW 5026   4.676   2.730   3.916
 1376SOL    HW1 5027   4.605   2.714   3.984
 1376SOL    HW2 5028   4.727   2.812   3.940
 1377SOL     OW 5029   0.306   4.319   6.400
 1377SOL    HW1 5030   0.405   4.324   6.414
 1377SOL    HW2 5031   0.278   4.393   6.339
 1378SOL     OW 5032   0.659   2.376   5.756
 1378SOL    HW1 5033   0.691   2.289   5.720
 1378SOL    HW2 5034   0.560   2.372   5.772
 1379SOL     OW 5035   3.446   6.255   2.748
 1379SOL    HW1 5036   3.381   6.237   2.821
 1379SOL    HW2 5037   3.500   6.172   2.729
 1380SOL     OW 5038   6.647   6.998   2.686
 1380SOL    HW1 5039   6.591   6.917   2.705
 1380SOL    HW2 5040   6.589   0.054   2.678
 1381SOL     OW 5041   5.119   2.683   0.274
 1381SOL    HW1 5042   5.105   2.696   0.176
 1381SOL    HW2 5043   5.156   2.766   0.314
 1382SOL     OW 5044   6.091   4.996   5.918
 1382SOL    HW1 5045   6.161   4.937   5.960
 1382SOL    HW2 5046   6.043   4.944   5.847
 1383SOL     OW 5047   0.650   1.549   0.330
 1383SOL    HW1 5048   0.660   1.476   0.262
 1383SOL    HW2 5049   0.703   1.526   0.411
 1384SOL     OW 5050   2.894   1.678   3.776
 1384SOL    HW1 5051   2.922   1.599   3.830
 1384SOL    HW2 5052   2.794   1.682   3.771
 1385SOL     OW 5053   6.402   2.626   3.128
 1385SOL    HW1 5054   6.414   2.597   3.223
 1385SOL    HW2 5055   6.453   2.564   3.068
 1386SOL     OW 5056   2.265   2.928   4.365
 1386SOL    HW1 5057   2.281   2.987   4.286
 1386SOL    HW2 5058   2.303   2.837   4.346
 1387SOL     OW 5059   3.684   0.089   4.573
 1387SOL    HW1 5060   3.700   0.082   4.672
 1387SOL    HW2 5061   3.597   0.135   4.557
 1388SOL     OW 5062   6.557   0.314   4.086
 1388SOL    HW1 5063   6.504   0.278   4.009
 1388SOL    HW2 5064   6.552   0.249   4.162
 1389SOL     OW 5065   6.842   0.231   4.179
 1389SOL    HW1 5066   6.764   0.292   4.167
 1389SOL    HW2 5067   6.887   0.250   4.266
 1390SOL     OW 5068   4.085   1.721   0.527
 1390SOL    HW1 5069   4.005   1.677   0.486
 1390SOL    HW2 5070   4.066   1.818   0.539
 1391SOL     OW 5071   6.056   0.873   5.525
 1391SOL    HW1 5072   5.960   0.880   5.498
 1391SOL    HW2 5073   6.062   0.858   5.624
 1392SOL     OW 5074   4.589   6.059   5.912
 1392SOL    HW1 5075   4.652   6.066   5.990
 1392SOL    HW2 5076   4.508   6.007   5.940
 1393SOL     OW 5077   6.529   1.821   6.478
 1393SOL    HW1 5078   6.488   1.732   6.498
 1393SOL    HW2 5079   6.527   1.877   6.561
 1394SOL     OW 5080   4.246   6.322   3.375
 1394SOL    HW1 5081   4.156   6.322   3.419
 1394SOL    HW2 5082   4.284   6.230   3.378
 1395SOL     OW 5083   0.795   4.512   3.042
 1395SOL    HW1 5084   0.855   4.466   2.976
 1395SOL    HW2 5085   0.810   4.610   3.037
 1396SOL     OW 5086   1.871   1.280   4.646
 1396SOL    HW1 5087   1.966   1.265   4.672
 1396SOL    HW2 5088   1.820   1.318   4.724
 1397SOL     OW 5089   0.394   5.409   4.969
 1397SOL    HW1 5090   0.387   5.507   4.983
 1397SOL    HW2 5091   0.490   5.384   4.954
 1398SOL     OW 5092   1.588   1.123   0.482
 1398SOL    HW1 5093   1.506   1.177   0.468
 1398SOL    HW2 5094   1.665   1.184   0.501
 1399SOL     OW 5095   3.955   6.905   0.526
 1399SOL    HW1 5096   3.921   6.964   0.452
 1399SOL    HW2 5097   3.880   6.879   0.586
 1400SOL     OW 5098   6.951   0.331   4.457
 1400SOL    HW1 5099   6.919   0.242   4.488
 1400SOL    HW2 5100   6.882   0.400   4.478
 1401SOL     OW 5101   5.257   0.491   4.322
 1401SOL    HW1 5102   5.264   0.471   4.224
 1401SOL    HW2 5103   5.348   0.503   4.360
 1402SOL     OW 5104   5.589   4.071   1.409
 1402SOL    HW1 5105   5.655   3.998   1.428
 1402SOL    HW2 5106   5.496   4.036   1.421
 1403SOL     OW 5107   3.815   3.472   0.013
 1403SOL    HW1 5108   3.892   3.532   7.015
 1403SOL    HW2 5109   3.799   3.475   0.111
 1404SOL     OW 5110   4.832   0.205   1.397
 1404SOL    HW1 5111   4.822   0.205   1.297
 1404SOL    HW2 5112   4.798   0.118   1.433
 1405SOL     OW 5113   1.966   3.554   0.960
 1405SOL    HW1 5114   2.056   3.534   1.000
 1405SOL    HW2 5115   1.950   3.652   0.961
 1406SOL     OW 5116   2.165   3.326   1.295
 1406SOL    HW1 5117   2.094   3.256   1.286
 1406SOL    HW2 5118   2.206   3.321   1.386
 1407SOL     OW 5119   0.941   3.446   1.890
 1407SOL    HW1 5120   1.031   3.435   1.931
 1407SOL    HW2 5121   0.945   3.513   1.817
 1408SOL     OW 5122   5.701   6.078   6.574
 1408SOL    HW1 5123   5.672   6.167   6.541
 1408SOL    HW2 5124   5.622   6.028   6.608
 1409SOL     OW 5125   0.019   0.895   6.058
 1409SOL    HW1 5126   0.033   0.807   6.013
 1409SOL    HW2 5127   0.015   0.881   6.157
 1410SOL     OW 5128   2.710   2.862   6.022
 1410SOL    HW1 5129   2.666   2.925   5.958
 1410SOL    HW2 5130   2.682   2.768   6.001
 1411SOL     OW 5131   4.073   5.666   0.318
 1411SOL    HW1 5132   4.173   5.664   0.310
 1411SOL    HW2 5133   4.047   5.725   0.394
 1412SOL     OW 5134   1.599   2.755   0.547
 1412SOL    HW1 5135   1.655   2.697   0.605
 1412SOL    HW2 5136   1.642   2.845   0.538
 1413SOL     OW 5137   2.104   1.574   5.004
 1413SOL    HW1 5138   2.157   1.492   4.982
 1413SOL    HW2 5139   2.007   1.550   5.015
 1414SOL     OW 5140   1.129   3.625   2.592
 1414SOL    HW1 5141   1.143   3.555   2.522
 1414SOL    HW2 5142   1.055   3.598   2.653
 1415SOL     OW 5143   2.433   2.308   4.370
 1415SOL    HW1 5144   2.454   2.213   4.392
 1415SOL    HW2 5145   2.376   2.312   4.288
 1416SOL     OW 5146   4.105   6.999   5.853
 1416SOL    HW1 5147   4.032   0.043   5.851
 1416SOL    HW2 5148   4.066   6.908   5.856
 1417SOL     OW 5149   3.017   3.030   6.486
 1417SOL    HW1 5150   3.063   2.984   6.409
 1417SOL    HW2 5151   2.930   2.985   6.504
 1418SOL     OW 5152   3.504   3.501   6.999
 1418SOL    HW1 5153   3.503   3.570   6.928
 1418SOL    HW2 5154   3.598   3.481   0.001
 1419SOL     OW 5155   1.939   4.897   3.705
 1419SOL    HW1 5156   1.990   4.979   3.730
 1419SOL    HW2 5157   1.945   4.830   3.779
 1420SOL     OW 5158   3.835   5.147   2.529
 1420SOL    HW1 5159   3.766   5.210   2.494
 1420SOL    HW2 5160   3.896   5.120   2.455
 1421SOL     OW 5161   0.807   4.786   5.240
 1421SOL    HW1 5162   0.796   4.686   5.239
 1421SOL    HW2 5163   0.801   4.819   5.334
 1422SOL     OW 5164   2.851   3.861   6.134
 1422SOL    HW1 5165   2.845   3.876   6.035
 1422SOL    HW2 5166   2.947   3.864   6.162
 1423SOL     OW 5167   4.100   1.122   5.002
 1423SOL    HW1 5168   4.130   1.216   5.016
 1423SOL    HW2 5169   4.079   1.108   4.905
 1424SOL     OW 5170   5.750   3.124   6.647
 1424SOL    HW1 5171   5.660   3.155   6.678
 1424SOL    HW2 5172   5.739   3.074   6.561
 1425SOL     OW 5173   3.600   6.004   4.337
 1425SOL    HW1 5174   3.509   5.990   4.297
 1425SOL    HW2 5175   3.608   5.951   4.421
 1426SOL     OW 5176   2.377   1.604   6.328
 1426SOL    HW1 5177   2.357   1.513   6.293
 1426SOL    HW2 5178   2.407   1.663   6.253
 1427SOL     OW 5179   1.194   1.173   3.234
 1427SOL    HW1 5180   1.163   1.220   3.317
 1427SOL    HW2 5181   1.167   1.226   3.153
 1428SOL     OW 5182   0.077   3.040   2.770
 1428SOL    HW1 5183   0.022   3.007   2.693
 1428SOL    HW2 5184   0.158   2.981   2.780
 1429SOL     OW 5185   6.078   1.706   0.510
 1429SOL    HW1 5186   6.149   1.645   0.472
 1429SOL    HW2 5187   6.048   1.769   0.439
 1430SOL     OW 5188   2.208   4.078   3.631
 1430SOL    HW1 5189   2.241   4.065   3.724
 1430SOL    HW2 5190   2.212   4.175   3.608
 1431SOL     OW 5191   2.662   1.278   6.079
 1431SOL    HW1 5192   2.602   1.200   6.097
 1431SOL    HW2 5193   2.614   1.363   6.099
 1432SOL     OW 5194   2.376   1.267   0.990
 1432SOL    HW1 5195   2.408   1.347   1.040
 1432SOL    HW2 5196   2.363   1.290   0.893
 1433SOL     OW 5197   2.936   0.393   4.377
 1433SOL    HW1 5198   2.882   0.348   4.448
 1433SOL    HW2 5199   2.899   0.484   4.359
 1434SOL     OW 5200   6.909   2.604   6.722
 1434SOL    HW1 5201   6.946   2.528   6.775
 1434SOL    HW2 5202   6.924   2.690   6.771
 1435SOL     OW 5203   0.286   0.196   3.565
 1435SOL    HW1 5204   0.217   0.235   3.504
 1435SOL    HW2 5205   0.242   0.169   3.651
 1436SOL     OW 5206   5.881   2.489   0.895
 1436SOL    HW1 5207   5.825   2.416   0.855
 1436SOL    HW2 5208   5.944   2.450   0.962
 1437SOL     OW 5209   4.350   1.806   6.281
 1437SOL    HW1 5210   4.397   1.884   6.322
 1437SOL    HW2 5211   4.251   1.818   6.290
 1438SOL     OW 5212   2.748   0.940   1.882
 1438SOL    HW1 5213   2.738   1.035   1.913
 1438SOL    HW2 5214   2.810   0.936   1.805
 1439SOL     OW 5215   6.868   5.577   6.798
 1439SOL    HW1 5216   6.796   5.511   6.818
 1439SOL    HW2 5217   6.946   5.531   6.755
 1440SOL     OW 5218   3.851   3.236   3.438
 1440SOL    HW1 5219   3.874   3.228   3.535
 1440SOL    HW2 5220   3.865   3.147   3.393
 1441SOL     OW 5221   6.996   2.979   4.303
 1441SOL    HW1 5222   6.913   2.924   4.299
 1441SOL    HW2 5223   0.006   2.980   4.397
 1442SOL     OW 5224   4.867   4.530   0.309
 1442SOL    HW1 5225   4.898   4.481   0.228
 1442SOL    HW2 5226   4.896   4.626   0.303
 1443SOL     OW 5227   0.570   1.312   3.497
 1443SOL    HW1 5228   0.644   1.319   3.563
 1443SOL    HW2 5229   0.502   1.383   3.514
 1444SOL     OW 5230   4.446   0.354   3.457
 1444SOL    HW1 5231   4.464   0.351   3.555
 1444SOL    HW2 5232   4.485   0.274   3.413
 1445SOL     OW 5233   0.249   2.345   1.432
 1445SOL    HW1 5234   0.328   2.394   1.395
 1445SOL    HW2 5235   0.275   2.251   1.454
 1446SOL     OW 5236   4.350   2.004   1.435
 1446SOL    HW1 5237   4.304   1.998   1.524
 1446SOL    HW2 5238   4.290   2.051   1.370
 1447SOL     OW 5239   6.644   1.010   5.184
 1447SOL    HW1 5240   6.554   1.000   5.141
 1447SOL    HW2 5241   6.656   1.105   5.214
 1448SOL     OW 5242   5.261   1.351   7.016
 1448SOL    HW1 5243   5.343   1.409   0.001
 1448SOL    HW2 5244   5.207   1.383   6.938
 1449SOL     OW 5245   4.886   6.602   0.674
 1449SOL    HW1 5246   4.854   6.540   0.746
 1449SOL    HW2 5247   4.982   6.582   0.654
 1450SOL     OW 5248   5.685   3.079   2.491
 1450SOL    HW1 5249   5.746   3.128   2.428
 1450SOL    HW2 5250   5.687   2.982   2.470
 1451SOL     OW 5251   1.893   6.752   2.864
 1451SOL    HW1 5252   1.889   6.848   2.891
 1451SOL    HW2 5253   1.867   6.744   2.767
 1452SOL     OW 5254   5.343   0.754   4.946
 1452SOL    HW1 5255   5.251   0.716   4.943
 1452SOL    HW2 5256   5.408   0.682   4.970
 1453SOL     OW 5257   4.971   4.256   4.924
 1453SOL    HW1 5258   4.962   4.348   4.964
 1453SOL    HW2 5259   5.034   4.259   4.847
 1454SOL     OW 5260   5.149   3.032   1.513
 1454SOL    HW1 5261   5.143   3.010   1.610
 1454SOL    HW2 5262   5.063   3.007   1.468
 1455SOL     OW 5263   1.029   0.844   1.908
 1455SOL    HW1 5264   1.027   0.943   1.926
 1455SOL    HW2 5265   1.087   0.827   1.828
 1456SOL     OW 5266   6.944   6.880   4.431
 1456SOL    HW1 5267   0.003   6.922   4.465
 1456SOL    HW2 5268   6.966   6.798   4.377
 1457SOL     OW 5269   1.622   0.727   3.720
 1457SOL    HW1 5270   1.559   0.655   3.748
 1457SOL    HW2 5271   1.595   0.814   3.763
 1458SOL     OW 5272   5.025   6.920   6.081
 1458SOL    HW1 5273   4.961   6.881   6.015
 1458SOL    HW2 5274   5.027   6.864   6.164
 1459SOL     OW 5275   2.752   6.096   6.803
 1459SOL    HW1 5276   2.690   6.025   6.835
 1459SOL    HW2 5277   2.805   6.062   6.725
 1460SOL     OW 5278   1.109   6.475   7.022
 1460SOL    HW1 5279   1.144   6.548   6.964
 1460SOL    HW2 5280   1.172   6.461   0.074
 1461SOL     OW 5281   5.815   4.520   3.137
 1461SOL    HW1 5282   5.769   4.431   3.133
 1461SOL    HW2 5283   5.905   4.508   3.178
 1462SOL     OW 5284   6.167   1.011   0.989
 1462SOL    HW1 5285   6.188   0.926   1.039
 1462SOL    HW2 5286   6.133   1.079   1.053
 1463SOL     OW 5287   1.013   0.400   5.012
 1463SOL    HW1 5288   0.969   0.331   5.070
 1463SOL    HW2 5289   1.111   0.403   5.032
 1464SOL     OW 5290   0.202   6.450   0.555
 1464SOL    HW1 5291   0.168   6.493   0.639
 1464SOL    HW2 5292   0.206   6.518   0.482
 1465SOL     OW 5293   0.289   0.243   4.022
 1465SOL    HW1 5294   0.283   0.324   3.965
 1465SOL    HW2 5295   0.292   0.161   3.964
 1466SOL     OW 5296   6.321   5.817   2.341
 1466SOL    HW1 5297   6.253   5.833   2.269
 1466SOL    HW2 5298   6.276   5.822   2.430
 1467SOL     OW 5299   1.130   1.277   3.466
 1467SOL    HW1 5300   1.108   1.193   3.516
 1467SOL    HW2 5301   1.109   1.356   3.522
 1468SOL     OW 5302   5.525   5.828   3.945
 1468SOL    HW1 5303   5.585   5.750   3.960
 1468SOL    HW2 5304   5.430   5.798   3.952
 1469SOL     OW 5305   0.619   0.181   2.697
 1469SOL    HW1 5306   0.660   0.138   2.778
 1469SOL    HW2 5307   0.520   0.192   2.712
 1470SOL     OW 5308   1.158   0.899   3.236
 1470SOL    HW1 5309   1.173   0.994   3.263
 1470SOL    HW2 5310   1.220   0.839   3.288
 1471SOL     OW 5311   0.269   0.543   0.557
 1471SOL    HW1 5312   0.270   0.452   0.599
 1471SOL    HW2 5313   0.181   0.557   0.511
 1472SOL     OW 5314   4.738   0.493   5.758
 1472SOL    HW1 5315   4.746   0.547   5.842
 1472SOL    HW2 5316   4.731   0.555   5.680
 1473SOL     OW 5317   6.280   5.634   2.736
 1473SOL    HW1 5318   6.378   5.624   2.722
 1473SOL    HW2 5319   6.258   5.621   2.833
 1474SOL     OW 5320   6.122   5.315   4.431
 1474SOL    HW1 5321   6.042   5.293   4.375
 1474SOL    HW2 5322   6.182   5.377   4.381
 1475SOL     OW 5323   6.894   0.350   2.740
 1475SOL    HW1 5324   6.822   0.340   2.809
 1475SOL    HW2 5325   6.983   0.349   2.785
 1476SOL     OW 5326   1.563   1.903   2.227
 1476SOL    HW1 5327   1.651   1.879   2.268
 1476SOL    HW2 5328   1.503   1.941   2.297
 1477SOL     OW 5329   3.034   0.048   5.003
 1477SOL    HW1 5330   3.088   0.063   5.086
 1477SOL    HW2 5331   2.938   0.031   5.027
 1478SOL     OW 5332   6.374   5.114   1.115
 1478SOL    HW1 5333   6.341   5.148   1.027
 1478SOL    HW2 5334   6.465   5.152   1.133
 1479SOL     OW 5335   2.074   4.543   0.394
 1479SOL    HW1 5336   2.086   4.580   0.486
 1479SOL    HW2 5337   2.120   4.601   0.328
 1480SOL     OW 5338   1.892   0.996   6.713
 1480SOL    HW1 5339   1.826   1.029   6.646
 1480SOL    HW2 5340   1.854   0.915   6.758
 1481SOL     OW 5341   6.045   1.991   5.831
 1481SOL    HW1 5342   5.970   2.008   5.894
 1481SOL    HW2 5343   6.120   2.054   5.850
 1482SOL     OW 5344   5.307   0.961   0.429
 1482SOL    HW1 5345   5.259   0.958   0.342
 1482SOL    HW2 5346   5.247   0.928   0.502
 1483SOL     OW 5347   6.614   2.947   0.344
 1483SOL    HW1 5348   6.649   2.872   0.400
 1483SOL    HW2 5349   6.690   2.990   0.296
 1484SOL     OW 5350   6.672   4.525   2.588
 1484SOL    HW1 5351   6.711   4.549   2.500
 1484SOL    HW2 5352   6.724   4.569   2.661
 1485SOL     OW 5353   5.506   3.010   3.342
 1485SOL    HW1 5354   5.577   3.074   3.371
 1485SOL    HW2 5355   5.417   3.043   3.373
 1486SOL     OW 5356   4.957   2.459   3.070
 1486SOL    HW1 5357   4.981   2.519   2.993
 1486SOL    HW2 5358   4.860   2.439   3.068
 1487SOL     OW 5359   5.773   1.179   5.892
 1487SOL    HW1 5360   5.768   1.254   5.959
 1487SOL    HW2 5361   5.692   1.182   5.834
 1488SOL     OW 5362   4.828   0.750   3.240
 1488SOL    HW1 5363   4.859   0.804   3.318
 1488SOL    HW2 5364   4.904   0.692   3.208
 1489SOL     OW 5365   4.072   4.845   4.846
 1489SOL    HW1 5366   4.134   4.919   4.821
 1489SOL    HW2 5367   3.994   4.843   4.783
 1490SOL     OW 5368   0.857   1.374   0.466
 1490SOL    HW1 5369   0.922   1.416   0.402
 1490SOL    HW2 5370   0.852   1.428   0.550
 1491SOL     OW 5371   0.062   3.651   3.424
 1491SOL    HW1 5372   0.131   3.706   3.470
 1491SOL    HW2 5373   0.107   3.581   3.368
 1492SOL     OW 5374   5.057   2.207   1.455
 1492SOL    HW1 5375   5.109   2.154   1.388
 1492SOL    HW2 5376   5.064   2.164   1.545
 1493SOL     OW 5377   4.275   0.245   5.310
 1493SOL    HW1 5378   4.260   0.323   5.249
 1493SOL    HW2 5379   4.251   0.160   5.263
 1494SOL     OW 5380   3.750   2.514   6.023
 1494SOL    HW1 5381   3.665   2.482   5.981
 1494SOL    HW2 5382   3.753   2.614   6.020
 1495SOL     OW 5383   0.756   3.348   3.031
 1495SOL    HW1 5384   0.777   3.331   3.127
 1495SOL    HW2 5385   0.835   3.327   2.974
 1496SOL     OW 5386   6.501   0.316   2.317
 1496SOL    HW1 5387   6.551   0.386   2.368
 1496SOL    HW2 5388   6.521   0.325   2.220
 1497SOL     OW 5389   6.769   5.422   4.058
 1497SOL    HW1 5390   6.835   5.445   3.987
 1497SOL    HW2 5391   6.816   5.390   4.139
 1498SOL     OW 5392   2.282   4.682   6.353
 1498SOL    HW1 5393   2.367   4.653   6.398
 1498SOL    HW2 5394   2.266   4.779   6.374
 1499SOL     OW 5395   1.035   3.402   5.008
 1499SOL    HW1 5396   1.024   3.302   5.015
 1499SOL    HW2 5397   0.945   3.446   5.012
 1500SOL     OW 5398   5.501   0.230   0.388
 1500SOL    HW1 5399   5.507   0.290   0.309
 1500SOL    HW2 5400   5.534   0.279   0.469
 1501SOL     OW 5401   4.164   7.022   6.626
 1501SOL    HW1 5402   4.107   0.038   6.697
 1501SOL    HW2 5403   4.216   6.945   6.664
 1502SOL     OW 5404   6.340   6.603   0.088
 1502SOL    HW1 5405   6.364   6.598   0.185
 1502SOL    HW2 5406   6.419   6.578   0.033
 1503SOL     OW 5407   2.446   3.034   0.015
 1503SOL    HW1 5408   2.374   2.971   7.009
 1503SOL    HW2 5409   2.534   2.988   0.011
 1504SOL     OW 5410   2.900   7.011   4.602
 1504SOL    HW1 5411   2.866   6.940   4.664
 1504SOL    HW2 5412   2.997   6.996   4.585
 1505SOL     OW 5413   5.525   6.957   5.391
 1505SOL    HW1 5414   5.471   6.904   5.325
 1505SOL    HW2 5415   5.594   6.898   5.433
 1506SOL     OW 5416   0.882   5.408   3.672
 1506SOL    HW1 5417   0.874   5.437   3.577
 1506SOL    HW2 5418   0.791   5.387   3.708
 1507SOL     OW 5419   1.837   1.822   5.009
 1507SOL    HW1 5420   1.826   1.861   4.917
 1507SOL    HW2 5421   1.909   1.872   5.057
 1508SOL     OW 5422   4.194   6.992   0.654
 1508SOL    HW1 5423   4.101   6.996   0.617
 1508SOL    HW2 5424   4.223   0.059   0.683
 1509SOL     OW 5425   4.492   3.215   6.364
 1509SOL    HW1 5426   4.545   3.160   6.299
 1509SOL    HW2 5427   4.437   3.282   6.315
 1510SOL     OW 5428   0.257   2.225   4.497
 1510SOL    HW1 5429   0.266   2.236   4.596
 1510SOL    HW2 5430   0.163   2.247   4.469
 1511SOL     OW 5431   2.595   1.597   6.845
 1511SOL    HW1 5432   2.688   1.634   6.835
 1511SOL    HW2 5433   2.594   1.529   6.918
 1512SOL     OW 5434   6.923   0.207   1.548
 1512SOL    HW1 5435   6.861   0.256   1.609
 1512SOL    HW2 5436   6.997   0.269   1.520
 1513SOL     OW 5437   3.570   0.047   4.144
 1513SOL    HW1 5438   3.471   0.055   4.127
 1513SOL    HW2 5439   3.606   0.136   4.169
 1514SOL     OW 5440   5.778   1.727   5.277
 1514SOL    HW1 5441   5.737   1.762   5.361
 1514SOL    HW2 5442   5.856   1.668   5.299
 1515SOL     OW 5443   0.555   4.115   5.398
 1515SOL    HW1 5444   0.543   4.205   5.356
 1515SOL    HW2 5445   0.534   4.043   5.332
 1516SOL     OW 5446   0.751   1.755   0.816
 1516SOL    HW1 5447   0.704   1.699   0.884
 1516SOL    HW2 5448   0.769   1.845   0.853
 1517SOL     OW 5449   4.080   5.617   3.666
 1517SOL    HW1 5450   4.134   5.534   3.650
 1517SOL    HW2 5451   4.010   5.626   3.595
 1518SOL     OW 5452   6.714   4.340   0.242
 1518SOL    HW1 5453   6.623   4.316   0.208
 1518SOL    HW2 5454   6.753   4.262   0.291
 1519SOL     OW 5455   6.558   4.757   0.962
 1519SOL    HW1 5456   6.645   4.732   0.919
 1519SOL    HW2 5457   6.574   4.781   1.058
 1520SOL     OW 5458   2.113   3.472   2.471
 1520SOL    HW1 5459   2.142   3.522   2.389
 1520SOL    HW2 5460   2.110   3.374   2.451
 1521SOL     OW 5461   1.353   3.353   7.004
 1521SOL    HW1 5462   1.437   3.378   6.956
 1521SOL    HW2 5463   1.365   3.264   0.023
 1522SOL     OW 5464   6.293   1.862   6.292
 1522SOL    HW1 5465   6.363   1.896   6.354
 1522SOL    HW2 5466   6.337   1.809   6.219
 1523SOL     OW 5467   6.138   2.839   0.649
 1523SOL    HW1 5468   6.125   2.799   0.740
 1523SOL    HW2 5469   6.219   2.799   0.607
 1524SOL     OW 5470   0.153   1.524   1.578
 1524SOL    HW1 5471   0.244   1.483   1.565
 1524SOL    HW2 5472   0.103   1.471   1.647
 1525SOL     OW 5473   3.948   1.756   5.802
 1525SOL    HW1 5474   4.002   1.671   5.800
 1525SOL    HW2 5475   3.852   1.734   5.786
 1526SOL     OW 5476   0.255   1.685   1.365
 1526SOL    HW1 5477   0.211   1.649   1.448
 1526SOL    HW2 5478   0.216   1.639   1.285
 1527SOL     OW 5479   3.413   1.539   4.910
 1527SOL    HW1 5480   3.470   1.473   4.863
 1527SOL    HW2 5481   3.451   1.631   4.898
 1528SOL     OW 5482   4.593   6.575   2.804
 1528SOL    HW1 5483   4.551   6.647   2.859
 1528SOL    HW2 5484   4.614   6.497   2.863
 1529SOL     OW 5485   4.056   0.995   5.999
 1529SOL    HW1 5486   4.068   0.990   5.900
 1529SOL    HW2 5487   3.975   0.943   6.025
 1530SOL     OW 5488   2.942   6.573   2.057
 1530SOL    HW1 5489   2.949   6.667   2.091
 1530SOL    HW2 5490   2.899   6.516   2.127
 1531SOL     OW 5491   6.855   0.399   3.860
 1531SOL    HW1 5492   6.893   0.415   3.769
 1531SOL    HW2 5493   6.790   0.323   3.856
 1532SOL     OW 5494   3.356   2.282   5.385
 1532SOL    HW1 5495   3.322   2.311   5.295
 1532SOL    HW2 5496   3.281   2.241   5.437
 1533SOL     OW 5497   6.449   3.676   0.100
 1533SOL    HW1 5498   6.445   3.618   0.018
 1533SOL    HW2 5499   6.469   3.770   0.072
 1534SOL     OW 5500   1.233   5.745   0.231
 1534SOL    HW1 5501   1.222   5.843   0.247
 1534SOL    HW2 5502   1.331   5.722   0.232
 1535SOL     OW 5503   5.383   4.707   4.449
 1535SOL    HW1 5504   5.442   4.644   4.499
 1535SOL    HW2 5505   5.431   4.741   4.369
 1536SOL     OW 5506   2.236   5.751   4.328
 1536SOL    HW1 5507   2.296   5.743   4.248
 1536SOL    HW2 5508   2.260   5.681   4.395
 1537SOL     OW 5509   2.297   5.797   3.910
 1537SOL    HW1 5510   2.215   5.745   3.885
 1537SOL    HW2 5511   2.333   5.844   3.829
 1538SOL     OW 5512   2.373   4.622   6.680
 1538SOL    HW1 5513   2.454   4.585   6.634
 1538SOL    HW2 5514   2.398   4.651   6.772
 1539SOL     OW 5515   3.539   4.456   1.703
 1539SOL    HW1 5516   3.625   4.415   1.674
 1539SOL    HW2 5517   3.556   4.529   1.770
 1540SOL     OW 5518   0.801   0.152   4.508
 1540SOL    HW1 5519   0.703   0.146   4.524
 1540SOL    HW2 5520   0.849   0.088   4.569
 1541SOL     OW 5521   4.259   2.850   1.206
 1541SOL    HW1 5522   4.215   2.772   1.161
 1541SOL    HW2 5523   4.252   2.838   1.305
 1542SOL     OW 5524   0.656   5.877   1.236
 1542SOL    HW1 5525   0.626   5.969   1.262
 1542SOL    HW2 5526   0.672   5.823   1.319
 1543SOL     OW 5527   3.200   3.439   3.804
 1543SOL    HW1 5528   3.205   3.517   3.741
 1543SOL    HW2 5529   3.104   3.424   3.829
 1544SOL     OW 5530   3.005   3.828   2.484
 1544SOL    HW1 5531   2.989   3.882   2.567
 1544SOL    HW2 5532   2.968   3.878   2.406
 1545SOL     OW 5533   6.395   0.989   5.058
 1545SOL    HW1 5534   6.338   1.044   5.120
 1545SOL    HW2 5535   6.344   0.908   5.030
 1546SOL     OW 5536   6.485   6.787   6.412
 1546SOL    HW1 5537   6.581   6.810   6.428
 1546SOL    HW2 5538   6.434   6.870   6.389
 1547SOL     OW 5539   2.990   4.822   2.898
 1547SOL    HW1 5540   3.047   4.824   2.816
 1547SOL    HW2 5541   3.047   4.834   2.979
 1548SOL     OW 5542   3.988   4.702   5.264
 1548SOL    HW1 5543   4.064   4.665   5.318
 1548SOL    HW2 5544   3.907   4.646   5.278
 1549SOL     OW 5545   6.867   2.333   1.472
 1549SOL    HW1 5546   6.896   2.280   1.551
 1549SOL    HW2 5547   6.822   2.417   1.502
 1550SOL     OW 5548   2.118   6.284   5.145
 1550SOL    HW1 5549   2.020   6.279   5.160
 1550SOL    HW2 5550   2.139   6.364   5.088
 1551SOL     OW 5551   1.525   3.007   1.084
 1551SOL    HW1 5552   1.437   3.051   1.102
 1551SOL    HW2 5553   1.577   3.001   1.169
 1552SOL     OW 5554   1.553   0.620   1.441
 1552SOL    HW1 5555   1.582   0.524   1.444
 1552SOL    HW2 5556   1.506   0.638   1.355
 1553SOL     OW 5557   5.937   1.934   7.020
 1553SOL    HW1 5558   5.998   1.906   0.070
 1553SOL    HW2 5559   5.882   1.855   6.991
 1554SOL     OW 5560   4.382   2.387   3.137
 1554SOL    HW1 5561   4.335   2.433   3.061
 1554SOL    HW2 5562   4.412   2.296   3.108
 1555SOL     OW 5563   4.916   1.312   4.933
 1555SOL    HW1 5564   4.951   1.347   5.020
 1555SOL    HW2 5565   4.973   1.345   4.858
 1556SOL     OW 5566   3.619   0.388   0.698
 1556SOL    HW1 5567   3.557   0.411   0.623
 1556SOL    HW2 5568   3.597   0.297   0.733
 1557SOL     OW 5569   1.969   2.373   1.229
 1557SOL    HW1 5570   1.979   2.394   1.132
 1557SOL    HW2 5571   2.047   2.410   1.280
 1558SOL     OW 5572   6.485   3.140   5.595
 1558SOL    HW1 5573   6.526   3.172   5.681
 1558SOL    HW2 5574   6.421   3.066   5.614
 1559SOL     OW 5575   1.303   4.053   2.807
 1559SOL    HW1 5576   1.222   4.094   2.848
 1559SOL    HW2 5577   1.277   3.995   2.731
 1560SOL     OW 5578   3.794   1.264   0.530
 1560SOL    HW1 5579   3.845   1.283   0.446
 1560SOL    HW2 5580   3.702   1.302   0.521
 1561SOL     OW 5581   5.692   6.285   1.952
 1561SOL    HW1 5582   5.678   6.327   1.863
 1561SOL    HW2 5583   5.783   6.309   1.986
 1562SOL     OW 5584   2.984   0.136   2.122
 1562SOL    HW1 5585   2.978   0.104   2.216
 1562SOL    HW2 5586   2.931   0.075   2.062
 1563SOL     OW 5587   3.221   2.140   4.747
 1563SOL    HW1 5588   3.318   2.125   4.728
 1563SOL    HW2 5589   3.212   2.201   4.826
 1564SOL     OW 5590   1.189   2.028   2.291
 1564SOL    HW1 5591   1.135   1.944   2.281
 1564SOL    HW2 5592   1.258   2.032   2.219
 1565SOL     OW 5593   3.547   6.343   3.905
 1565SOL    HW1 5594   3.635   6.309   3.937
 1565SOL    HW2 5595   3.521   6.424   3.957
 1566SOL     OW 5596   5.102   4.743   3.827
 1566SOL    HW1 5597   5.195   4.782   3.821
 1566SOL    HW2 5598   5.066   4.731   3.734
 1567SOL     OW 5599   5.811   5.970   6.234
 1567SOL    HW1 5600   5.845   5.940   6.323
 1567SOL    HW2 5601   5.776   6.064   6.242
 1568SOL     OW 5602   2.076   6.383   3.309
 1568SOL    HW1 5603   2.063   6.285   3.324
 1568SOL    HW2 5604   1.991   6.422   3.272
 1569SOL     OW 5605   3.110   0.057   2.833
 1569SOL    HW1 5606   3.202   0.069   2.871
 1569SOL    HW2 5607   3.051   0.016   2.903
 1570SOL     OW 5608   3.113   0.093   6.992
 1570SOL    HW1 5609   3.155   0.034   0.036
 1570SOL    HW2 5610   3.037   0.044   6.948
 1571SOL     OW 5611   1.036   2.630   3.700
 1571SOL    HW1 5612   1.025   2.644   3.799
 1571SOL    HW2 5613   1.101   2.696   3.664
 1572SOL     OW 5614   1.954   5.059   1.825
 1572SOL    HW1 5615   1.921   5.004   1.749
 1572SOL    HW2 5616   2.011   5.002   1.884
 1573SOL     OW 5617   4.762   5.555   1.532
 1573SOL    HW1 5618   4.678   5.586   1.577
 1573SOL    HW2 5619   4.794   5.470   1.576
 1574SOL     OW 5620   6.300   3.318   2.002
 1574SOL    HW1 5621   6.359   3.299   2.080
 1574SOL    HW2 5622   6.226   3.379   2.030
 1575SOL     OW 5623   1.234   1.089   1.622
 1575SOL    HW1 5624   1.157   1.135   1.666
 1575SOL    HW2 5625   1.314   1.091   1.683
 1576SOL     OW 5626   0.362   6.396   2.262
 1576SOL    HW1 5627   0.350   6.431   2.170
 1576SOL    HW2 5628   0.305   6.314   2.275
 1577SOL     OW 5629   3.033   0.526   6.502
 1577SOL    HW1 5630   2.982   0.470   6.437
 1577SOL    HW2 5631   3.008   0.500   6.595
 1578SOL     OW 5632   4.134   0.894   0.585
 1578SOL    HW1 5633   4.058   0.950   0.552
 1578SOL    HW2 5634   4.112   0.797   0.571
 1579SOL     OW 5635   1.361   2.819   1.792
 1579SOL    HW1 5636   1.262   2.822   1.805
 1579SOL    HW2 5637   1.406   2.842   1.878
 1580SOL     OW 5638   2.930   3.761   3.095
 1580SOL    HW1 5639   3.030   3.759   3.106
 1580SOL    HW2 5640   2.889   3.797   3.179
 1581SOL     OW 5641   0.140   4.092   6.310
 1581SOL    HW1 5642   0.097   4.107   6.221
 1581SOL    HW2 5643   0.209   4.163   6.325
 1582SOL     OW 5644   4.427   6.311   5.447
 1582SOL    HW1 5645   4.521   6.285   5.466
 1582SOL    HW2 5646   4.376   6.316   5.533
 1583SOL     OW 5647   0.809   5.931   4.818
 1583SOL    HW1 5648   0.752   5.914   4.898
 1583SOL    HW2 5649   0.905   5.942   4.848
 1584SOL     OW 5650   0.984   5.674   6.569
 1584SOL    HW1 5651   1.013   5.756   6.519
 1584SOL    HW2 5652   0.885   5.666   6.564
 1585SOL     OW 5653   4.002   1.000   3.377
 1585SOL    HW1 5654   4.021   0.969   3.470
 1585SOL    HW2 5655   4.064   1.074   3.352
 1586SOL     OW 5656   2.780   5.421   3.940
 1586SOL    HW1 5657   2.798   5.345   4.003
 1586SOL    HW2 5658   2.849   5.492   3.953
 1587SOL     OW 5659   1.694   6.427   5.692
 1587SOL    HW1 5660   1.700   6.347   5.752
 1587SOL    HW2 5661   1.777   6.481   5.700
 1588SOL     OW 5662   4.823   0.577   2.292
 1588SOL    HW1 5663   4.740   0.597   2.240
 1588SOL    HW2 5664   4.880   0.659   2.296
 1589SOL     OW 5665   6.270   3.850   2.602
 1589SOL    HW1 5666   6.213   3.919   2.648
 1589SOL    HW2 5667   6.237   3.759   2.627
 1590SOL     OW 5668   5.442   1.896   3.313
 1590SOL    HW1 5669   5.402   1.969   3.258
 1590SOL    HW2 5670   5.477   1.824   3.253
 1591SOL     OW 5671   0.398   6.136   1.514
 1591SOL    HW1 5672   0.345   6.051   1.508
 1591SOL    HW2 5673   0.435   6.159   1.424
 1592SOL     OW 5674   1.446   4.124   6.958
 1592SOL    HW1 5675   1.407   4.205   7.002
 1592SOL    HW2 5676   1.409   4.042   7.002
 1593SOL     OW 5677   1.165   0.340   6.352
 1593SOL    HW1 5678   1.177   0.340   6.451
 1593SOL    HW2 5679   1.102   0.268   6.325
 1594SOL     OW 5680   0.043   0.399   2.175
 1594SOL    HW1 5681   0.058   0.482   2.122
 1594SOL    HW2 5682   0.092   0.323   2.133
 1595SOL     OW 5683   1.727   4.155   6.841
 1595SOL    HW1 5684   1.635   4.116   6.850
 1595SOL    HW2 5685   1.765   4.171   6.932
 1596SOL     OW 5686   6.006   4.195   2.868
 1596SOL    HW1 5687   6.044   4.148   2.788
 1596SOL    HW2 5688   6.035   4.290   2.867
 1597SOL     OW 5689   2.997   5.334   1.087
 1597SOL    HW1 5690   2.960   5.256   1.036
 1597SOL    HW2 5691   3.091   5.314   1.113
 1598SOL     OW 5692   1.840   5.500   6.489
 1598SOL    HW1 5693   1.806   5.416   6.447
 1598SOL    HW2 5694   1.810   5.579   6.434
 1599SOL     OW 5695   3.738   5.254   4.047
 1599SOL    HW1 5696   3.748   5.332   4.110
 1599SOL    HW2 5697   3.827   5.210   4.035
 1600SOL     OW 5698   3.506   0.605   2.940
 1600SOL    HW1 5699   3.472   0.695   2.915
 1600SOL    HW2 5700   3.570   0.573   2.869
 1601SOL     OW 5701   6.217   6.401   4.274
 1601SOL    HW1 5702   6.307   6.407   4.230
 1601SOL    HW2 5703   6.230   6.381   4.371
 1602SOL     OW 5704   4.724   5.373   4.206
 1602SOL    HW1 5705   4.809   5.423   4.191
 1602SOL    HW2 5706   4.707   5.311   4.129
 1603SOL     OW 5707   2.902   5.848   4.536
 1603SOL    HW1 5708   2.919   5.859   4.634
 1603SOL    HW2 5709   2.953   5.769   4.502
 1604SOL     OW 5710   4.034   4.804   2.090
 1604SOL    HW1 5711   4.095   4.730   2.118
 1604SOL    HW2 5712   3.973   4.829   2.165
 1605SOL     OW 5713   5.778   5.421   1.759
 1605SOL    HW1 5714   5.863   5.398   1.712
 1605SOL    HW2 5715   5.707   5.440   1.691
 1606SOL     OW 5716   4.104   5.892   4.005
 1606SOL    HW1 5717   4.200   5.881   3.979
 1606SOL    HW2 5718   4.065   5.804   4.029
 1607SOL     OW 5719   4.243   6.964   2.390
 1607SOL    HW1 5720   4.259   7.016   2.473
 1607SOL    HW2 5721   4.304   6.885   2.387
 1608SOL     OW 5722   6.864   1.079   3.537
 1608SOL    HW1 5723   6.909   1.123   3.459
 1608SOL    HW2 5724   6.766   1.071   3.518
 1609SOL     OW 5725   3.036   6.239   0.576
 1609SOL    HW1 5726   3.121   6.189   0.559
 1609SOL    HW2 5727   3.010   6.229   0.672
 1610SOL     OW 5728   4.114   6.490   0.350
 1610SOL    HW1 5729   4.132   6.586   0.371
 1610SOL    HW2 5730   4.028   6.482   0.299
 1611SOL     OW 5731   1.349   4.081   1.169
 1611SOL    HW1 5732   1.448   4.072   1.153
 1611SOL    HW2 5733   1.331   4.076   1.267
 1612SOL     OW 5734   2.773   5.512   1.061
 1612SOL    HW1 5735   2.857   5.457   1.060
 1612SOL    HW2 5736   2.775   5.577   0.984
 1613SOL     OW 5737   0.917   5.947   2.453
 1613SOL    HW1 5738   0.894   5.926   2.548
 1613SOL    HW2 5739   0.844   6.001   2.412
 1614SOL     OW 5740   5.839   2.136   5.955
 1614SOL    HW1 5741   5.823   2.187   5.870
 1614SOL    HW2 5742   5.811   2.193   6.033
 1615SOL     OW 5743   0.424   5.285   6.867
 1615SOL    HW1 5744   0.443   5.199   6.914
 1615SOL    HW2 5745   0.504   5.312   6.813
 1616SOL     OW 5746   3.648   0.612   5.134
 1616SOL    HW1 5747   3.730   0.617   5.193
 1616SOL    HW2 5748   3.654   0.682   5.063
 1617SOL     OW 5749   5.049   7.004   3.720
 1617SOL    HW1 5750   5.136   6.987   3.767
 1617SOL    HW2 5751   5.062   6.996   3.621
 1618SOL     OW 5752   1.983   6.106   2.261
 1618SOL    HW1 5753   1.976   6.064   2.171
 1618SOL    HW2 5754   2.005   6.203   2.252
 1619SOL     OW 5755   1.085   5.088   0.175
 1619SOL    HW1 5756   1.036   5.025   0.115
 1619SOL    HW2 5757   1.177   5.053   0.192
 1620SOL     OW 5758   2.912   5.091   1.006
 1620SOL    HW1 5759   2.977   5.050   1.070
 1620SOL    HW2 5760   2.820   5.055   1.024
 1621SOL     OW 5761   5.781   6.166   1.163
 1621SOL    HW1 5762   5.725   6.153   1.081
 1621SOL    HW2 5763   5.751   6.102   1.234
 1622SOL     OW 5764   0.612   4.109   6.041
 1622SOL    HW1 5765   0.613   4.201   6.081
 1622SOL    HW2 5766   0.550   4.108   5.963
 1623SOL     OW 5767   0.861   2.334   4.658
 1623SOL    HW1 5768   0.804   2.255   4.682
 1623SOL    HW2 5769   0.956   2.313   4.680
 1624SOL     OW 5770   3.401   1.155   0.552
 1624SOL    HW1 5771   3.450   1.241   0.533
 1624SOL    HW2 5772   3.316   1.176   0.601
 1625SOL     OW 5773   2.079   5.224   0.092
 1625SOL    HW1 5774   2.035   5.167   0.163
 1625SOL    HW2 5775   2.150   5.281   0.134
 1626SOL     OW 5776   3.083   2.023   2.583
 1626SOL    HW1 5777   3.128   2.064   2.663
 1626SOL    HW2 5778   3.097   2.081   2.503
 1627SOL     OW 5779   5.149   2.781   4.509
 1627SOL    HW1 5780   5.226   2.725   4.540
 1627SOL    HW2 5781   5.064   2.729   4.521
 1628SOL     OW 5782   5.236   5.844   6.699
 1628SOL    HW1 5783   5.205   5.938   6.692
 1628SOL    HW2 5784   5.333   5.842   6.720
 1629SOL     OW 5785   3.178   2.126   3.465
 1629SOL    HW1 5786   3.114   2.187   3.419
 1629SOL    HW2 5787   3.167   2.033   3.429
 1630SOL     OW 5788   0.348   3.860   6.919
 1630SOL    HW1 5789   0.351   3.902   6.828
 1630SOL    HW2 5790   0.258   3.818   6.932
 1631SOL     OW 5791   6.730   3.373   1.191
 1631SOL    HW1 5792   6.651   3.429   1.165
 1631SOL    HW2 5793   6.788   3.424   1.254
 1632SOL     OW 5794   5.488   4.417   2.578
 1632SOL    HW1 5795   5.436   4.404   2.494
 1632SOL    HW2 5796   5.439   4.478   2.640
 1633SOL     OW 5797   4.831   4.047   3.984
 1633SOL    HW1 5798   4.773   4.084   4.056
 1633SOL    HW2 5799   4.886   3.972   4.020
 1634SOL     OW 5800   3.987   0.587   4.595
 1634SOL    HW1 5801   4.075   0.622   4.627
 1634SOL    HW2 5802   3.969   0.498   4.636
 1635SOL     OW 5803   3.546   4.948   6.136
 1635SOL    HW1 5804   3.598   5.021   6.092
 1635SOL    HW2 5805   3.607   4.895   6.196
 1636SOL     OW 5806   4.016   6.097   1.127
 1636SOL    HW1 5807   4.011   6.187   1.169
 1636SOL    HW2 5808   4.019   6.106   1.027
 1637SOL     OW 5809   6.911   6.870   3.183
 1637SOL    HW1 5810   6.875   6.841   3.272
 1637SOL    HW2 5811   6.918   6.791   3.122
 1638SOL     OW 5812   0.237   3.249   1.329
 1638SOL    HW1 5813   0.187   3.165   1.348
 1638SOL    HW2 5814   0.210   3.285   1.239
 1639SOL     OW 5815   6.767   3.835   1.407
 1639SOL    HW1 5816   6.737   3.795   1.320
 1639SOL    HW2 5817   6.801   3.763   1.467
 1640SOL     OW 5818   6.064   0.117   1.247
 1640SOL    HW1 5819   6.160   0.143   1.259
 1640SOL    HW2 5820   6.059   0.020   1.223
 1641SOL     OW 5821   6.881   2.056   3.614
 1641SOL    HW1 5822   6.817   2.019   3.545
 1641SOL    HW2 5823   6.832   2.069   3.700
 1642SOL     OW 5824   6.636   2.744   6.558
 1642SOL    HW1 5825   6.550   2.721   6.602
 1642SOL    HW2 5826   6.698   2.665   6.561
 1643SOL     OW 5827   3.234   4.858   3.715
 1643SOL    HW1 5828   3.185   4.858   3.627
 1643SOL    HW2 5829   3.325   4.896   3.702
 1644SOL     OW 5830   6.185   2.816   0.182
 1644SOL    HW1 5831   6.115   2.814   0.111
 1644SOL    HW2 5832   6.143   2.829   0.271
 1645SOL     OW 5833   2.511   0.275   5.977
 1645SOL    HW1 5834   2.459   0.356   6.004
 1645SOL    HW2 5835   2.502   0.261   5.878
 1646SOL     OW 5836   1.619   5.695   6.321
 1646SOL    HW1 5837   1.557   5.753   6.373
 1646SOL    HW2 5838   1.654   5.745   6.242
 1647SOL     OW 5839   5.741   2.921   3.915
 1647SOL    HW1 5840   5.650   2.897   3.950
 1647SOL    HW2 5841   5.753   3.020   3.918
 1648SOL     OW 5842   4.760   6.054   0.320
 1648SOL    HW1 5843   4.859   6.045   0.334
 1648SOL    HW2 5844   4.741   6.060   0.222
 1649SOL     OW 5845   3.237   0.386   3.683
 1649SOL    HW1 5846   3.149   0.429   3.661
 1649SOL    HW2 5847   3.297   0.453   3.727
 1650SOL     OW 5848   1.762   4.966   6.083
 1650SOL    HW1 5849   1.732   4.985   6.177
 1650SOL    HW2 5850   1.736   5.042   6.024
 1651SOL     OW 5851   0.294   2.724   3.632
 1651SOL    HW1 5852   0.345   2.640   3.653
 1651SOL    HW2 5853   0.208   2.700   3.587
 1652SOL     OW 5854   0.957   3.082   1.864
 1652SOL    HW1 5855   0.975   3.001   1.808
 1652SOL    HW2 5856   0.952   3.162   1.805
 1653SOL     OW 5857   0.244   5.579   2.249
 1653SOL    HW1 5858   0.321   5.521   2.276
 1653SOL    HW2 5859   0.262   5.618   2.159
 1654SOL     OW 5860   1.071   2.852   1.689
 1654SOL    HW1 5861   1.147   2.909   1.658
 1654SOL    HW2 5862   0.998   2.853   1.620
 1655SOL     OW 5863   0.027   1.415   4.280
 1655SOL    HW1 5864   0.116   1.460   4.271
 1655SOL    HW2 5865   0.029   1.353   4.358
 1656SOL     OW 5866   2.410   5.658   4.122
 1656SOL    HW1 5867   2.361   5.696   4.044
 1656SOL    HW2 5868   2.423   5.560   4.109
 1657SOL     OW 5869   0.056   0.839   5.193
 1657SOL    HW1 5870   7.014   0.779   5.150
 1657SOL    HW2 5871   0.009   0.920   5.229
 1658SOL     OW 5872   0.042   0.258   0.395
 1658SOL    HW1 5873   0.071   0.233   0.488
 1658SOL    HW2 5874   0.115   0.308   0.349
 1659SOL     OW 5875   4.056   0.144   0.116
 1659SOL    HW1 5876   4.001   0.063   0.133
 1659SOL    HW2 5877   4.141   0.139   0.170
 1660SOL     OW 5878   1.650   6.634   2.159
 1660SOL    HW1 5879   1.659   6.545   2.115
 1660SOL    HW2 5880   1.728   6.649   2.220
 1661SOL     OW 5881   2.723   4.633   2.568
 1661SOL    HW1 5882   2.816   4.601   2.548
 1661SOL    HW2 5883   2.686   4.679   2.487
 1662SOL     OW 5884   6.913   1.194   5.694
 1662SOL    HW1 5885   6.997   1.150   5.665
 1662SOL    HW2 5886   6.836   1.156   5.644
 1663SOL     OW 5887   5.217   5.087   2.408
 1663SOL    HW1 5888   5.174   5.000   2.383
 1663SOL    HW2 5889   5.268   5.076   2.493
 1664SOL     OW 5890   1.203   0.619   5.304
 1664SOL    HW1 5891   1.130   0.682   5.275
 1664SOL    HW2 5892   1.163   0.530   5.325
 1665SOL     OW 5893   1.439   3.227   1.510
 1665SOL    HW1 5894   1.388   3.166   1.571
 1665SOL    HW2 5895   1.491   3.172   1.444
 1666SOL     OW 5896   5.367   6.441   6.541
 1666SOL    HW1 5897   5.414   6.508   6.484
 1666SOL    HW2 5898   5.271   6.437   6.515
 1667SOL     OW 5899   6.799   6.898   1.194
 1667SOL    HW1 5900   6.894   6.897   1.163
 1667SOL    HW2 5901   6.793   6.946   1.282
 1668SOL     OW 5902   5.566   5.098   3.740
 1668SOL    HW1 5903   5.635   5.040   3.783
 1668SOL    HW2 5904   5.611   5.176   3.696
 1669SOL     OW 5905   0.142   4.390   5.661
 1669SOL    HW1 5906   0.234   4.428   5.651
 1669SOL    HW2 5907   0.135   4.307   5.606
 1670SOL     OW 5908   1.495   4.846   5.830
 1670SOL    HW1 5909   1.445   4.885   5.907
 1670SOL    HW2 5910   1.556   4.773   5.862
 1671SOL     OW 5911   5.403   1.605   2.721
 1671SOL    HW1 5912   5.317   1.563   2.751
 1671SOL    HW2 5913   5.394   1.704   2.725
 1672SOL     OW 5914   0.966   3.590   0.126
 1672SOL    HW1 5915   1.003   3.520   0.188
 1672SOL    HW2 5916   0.888   3.552   0.076
 1673SOL     OW 5917   2.186   1.865   4.695
 1673SOL    HW1 5918   2.115   1.799   4.720
 1673SOL    HW2 5919   2.270   1.816   4.672
 1674SOL     OW 5920   5.907   2.632   2.190
 1674SOL    HW1 5921   6.006   2.642   2.184
 1674SOL    HW2 5922   5.862   2.694   2.126
 1675SOL     OW 5923   4.619   0.388   1.393
 1675SOL    HW1 5924   4.694   0.324   1.408
 1675SOL    HW2 5925   4.536   0.337   1.370
 1676SOL     OW 5926   2.230   2.418   2.556
 1676SOL    HW1 5927   2.203   2.428   2.460
 1676SOL    HW2 5928   2.234   2.321   2.580
 1677SOL     OW 5929   3.645   4.119   2.919
 1677SOL    HW1 5930   3.694   4.090   2.837
 1677SOL    HW2 5931   3.711   4.145   2.990
 1678SOL     OW 5932   0.658   6.369   1.369
 1678SOL    HW1 5933   0.704   6.416   1.444
 1678SOL    HW2 5934   0.602   6.434   1.318
 1679SOL     OW 5935   1.763   1.185   5.108
 1679SOL    HW1 5936   1.857   1.200   5.141
 1679SOL    HW2 5937   1.764   1.117   5.035
 1680SOL     OW 5938   5.126   3.041   4.534
 1680SOL    HW1 5939   5.032   3.067   4.511
 1680SOL    HW2 5940   5.130   2.943   4.550
 1681SOL     OW 5941   1.727   5.639   4.915
 1681SOL    HW1 5942   1.791   5.699   4.868
 1681SOL    HW2 5943   1.645   5.690   4.940
 1682SOL     OW 5944   2.763   0.905   6.152
 1682SOL    HW1 5945   2.710   0.876   6.232
 1682SOL    HW2 5946   2.701   0.920   6.075
 1683SOL     OW 5947   5.460   5.869   2.909
 1683SOL    HW1 5948   5.488   5.959   2.941
 1683SOL    HW2 5949   5.486   5.800   2.977
 1684SOL     OW 5950   1.111   4.572   1.927
 1684SOL    HW1 5951   1.112   4.478   1.891
 1684SOL    HW2 5952   1.053   4.575   2.009
 1685SOL     OW 5953   1.949   1.886   5.636
 1685SOL    HW1 5954   1.916   1.811   5.693
 1685SOL    HW2 5955   1.963   1.967   5.692
 1686SOL     OW 5956   4.078   5.617   3.941
 1686SOL    HW1 5957   4.062   5.628   3.843
 1686SOL    HW2 5958   4.173   5.590   3.956
 1687SOL     OW 5959   0.060   4.375   1.800
 1687SOL    HW1 5960   0.088   4.329   1.715
 1687SOL    HW2 5961   0.110   4.461   1.809
 1688SOL     OW 5962   1.865   2.168   3.231
 1688SOL    HW1 5963   1.906   2.181   3.141
 1688SOL    HW2 5964   1.792   2.235   3.245
 1689SOL     OW 5965   6.631   1.372   2.185
 1689SOL    HW1 5966   6.534   1.356   2.204
 1689SOL    HW2 5967   6.645   1.377   2.086
 1690SOL     OW 5968   1.372   3.559   4.090
 1690SOL    HW1 5969   1.408   3.596   4.176
 1690SOL    HW2 5970   1.278   3.530   4.103
 1691SOL     OW 5971   4.894   3.666   4.262
 1691SOL    HW1 5972   4.936   3.603   4.328
 1691SOL    HW2 5973   4.859   3.614   4.184
 1692SOL     OW 5974   5.599   5.176   1.442
 1692SOL    HW1 5975   5.685   5.219   1.467
 1692SOL    HW2 5976   5.609   5.127   1.356
 1693SOL     OW 5977   0.253   1.825   4.740
 1693SOL    HW1 5978   0.188   1.899   4.722
 1693SOL    HW2 5979   0.203   1.739   4.748
 1694SOL     OW 5980   6.461   0.940   4.408
 1694SOL    HW1 5981   6.557   0.942   4.436
 1694SOL    HW2 5982   6.418   1.029   4.428
 1695SOL     OW 5983   3.679   0.659   6.823
 1695SOL    HW1 5984   3.765   0.622   6.858
 1695SOL    HW2 5985   3.604   0.598   6.845
 1696SOL     OW 5986   3.998   5.505   0.788
 1696SOL    HW1 5987   4.080   5.537   0.740
 1696SOL    HW2 5988   3.917   5.524   0.732
 1697SOL     OW 5989   5.765   2.272   0.697
 1697SOL    HW1 5990   5.842   2.209   0.689
 1697SOL    HW2 5991   5.690   2.228   0.747
 1698SOL     OW 5992   3.737   1.059   1.688
 1698SOL    HW1 5993   3.764   0.983   1.746
 1698SOL    HW2 5994   3.645   1.044   1.653
 1699SOL     OW 5995   2.454   1.864   6.110
 1699SOL    HW1 5996   2.459   1.962   6.096
 1699SOL    HW2 5997   2.540   1.831   6.151
 1700SOL     OW 5998   5.648   3.197   3.929
 1700SOL    HW1 5999   5.613   3.179   4.021
 1700SOL    HW2 6000   5.744   3.227   3.935
 1701SOL     OW 6001   6.512   5.184   4.746
 1701SOL    HW1 6002   6.479   5.270   4.705
 1701SOL    HW2 6003   6.455   5.160   4.825
 1702SOL     OW 6004   1.515   0.906   6.029
 1702SOL    HW1 6005   1.555   0.921   5.939
 1702SOL    HW2 6006   1.578   0.940   6.100
 1703SOL     OW 6007   3.788   1.693   6.175
 1703SOL    HW1 6008   3.866   1.674   6.235
 1703SOL    HW2 6009   3.791   1.631   6.096
 1704SOL     OW 6010   1.619   1.550   0.181
 1704SOL    HW1 6011   1.635   1.597   0.268
 1704SOL    HW2 6012   1.691   1.481   0.167
 1705SOL     OW 6013   4.109   2.213   1.957
 1705SOL    HW1 6014   4.067   2.233   2.045
 1705SOL    HW2 6015   4.038   2.211   1.886
 1706SOL     OW 6016   4.035   1.539   0.873
 1706SOL    HW1 6017   4.122   1.525   0.825
 1706SOL    HW2 6018   4.021   1.637   0.886
 1707SOL     OW 6019   4.898   2.009   2.990
 1707SOL    HW1 6020   4.908   1.958   2.905
 1707SOL    HW2 6021   4.876   2.105   2.969
 1708SOL     OW 6022   3.817   5.491   2.114
 1708SOL    HW1 6023   3.888   5.430   2.148
 1708SOL    HW2 6024   3.786   5.460   2.024
 1709SOL     OW 6025   4.517   6.421   1.152
 1709SOL    HW1 6026   4.493   6.452   1.060
 1709SOL    HW2 6027   4.549   6.498   1.206
 1710SOL     OW 6028   4.107   5.173   3.349
 1710SOL    HW1 6029   4.036   5.187   3.418
 1710SOL    HW2 6030   4.150   5.084   3.363
 1711SOL     OW 6031   2.729   5.001   5.761
 1711SOL    HW1 6032   2.821   4.965   5.779
 1711SOL    HW2 6033   2.727   5.041   5.669
 1712SOL     OW 6034   0.399   2.489   5.141
 1712SOL    HW1 6035   0.437   2.405   5.102
 1712SOL    HW2 6036   0.474   2.550   5.167
 1713SOL     OW 6037   3.810   1.066   2.942
 1713SOL    HW1 6038   3.885   1.094   3.002
 1713SOL    HW2 6039   3.723   1.076   2.990
 1714SOL     OW 6040   3.143   2.213   6.737
 1714SOL    HW1 6041   3.161   2.212   6.639
 1714SOL    HW2 6042   3.230   2.214   6.786
 1715SOL     OW 6043   1.931   5.927   2.039
 1715SOL    HW1 6044   1.932   6.017   1.995
 1715SOL    HW2 6045   1.916   5.856   1.970
 1716SOL     OW 6046   4.699   0.496   3.969
 1716SOL    HW1 6047   4.734   0.403   3.962
 1716SOL    HW2 6048   4.769   0.561   3.938
 1717SOL     OW 6049   3.762   5.853   5.420
 1717SOL    HW1 6050   3.776   5.774   5.360
 1717SOL    HW2 6051   3.809   5.933   5.381
 1718SOL     OW 6052   2.219   2.143   2.485
 1718SOL    HW1 6053   2.145   2.093   2.530
 1718SOL    HW2 6054   2.295   2.080   2.466
 1719SOL     OW 6055   1.684   4.524   1.387
 1719SOL    HW1 6056   1.653   4.543   1.481
 1719SOL    HW2 6057   1.688   4.610   1.336
 1720SOL     OW 6058   7.017   2.918   6.088
 1720SOL    HW1 6059   6.969   2.889   6.170
 1720SOL    HW2 6060   0.089   2.893   6.095
 1721SOL     OW 6061   1.551   0.404   2.339
 1721SOL    HW1 6062   1.568   0.316   2.295
 1721SOL    HW2 6063   1.459   0.404   2.379
 1722SOL     OW 6064   3.153   1.950   3.073
 1722SOL    HW1 6065   3.227   2.016   3.056
 1722SOL    HW2 6066   3.116   1.918   2.986
 1723SOL     OW 6067   4.703   2.111   0.193
 1723SOL    HW1 6068   4.726   2.073   0.283
 1723SOL    HW2 6069   4.650   2.044   0.142
 1724SOL     OW 6070   6.243   2.277   1.314
 1724SOL    HW1 6071   6.307   2.315   1.247
 1724SOL    HW2 6072   6.292   2.214   1.374
 1725SOL     OW 6073   2.018   4.315   6.509
 1725SOL    HW1 6074   1.925   4.316   6.545
 1725SOL    HW2 6075   2.036   4.400   6.461
 1726SOL     OW 6076   5.856   4.324   3.407
 1726SOL    HW1 6077   5.853   4.236   3.359
 1726SOL    HW2 6078   5.914   4.315   3.488
 1727SOL     OW 6079   3.839   3.500   3.704
 1727SOL    HW1 6080   3.746   3.488   3.670
 1727SOL    HW2 6081   3.842   3.580   3.764
 1728SOL     OW 6082   5.150   4.544   5.804
 1728SOL    HW1 6083   5.219   4.576   5.869
 1728SOL    HW2 6084   5.194   4.489   5.733
 1729SOL     OW 6085   1.388   4.018   2.106
 1729SOL    HW1 6086   1.290   4.008   2.086
 1729SOL    HW2 6087   1.421   3.935   2.150
 1730SOL     OW 6088   2.503   5.883   4.958
 1730SOL    HW1 6089   2.456   5.969   4.940
 1730SOL    HW2 6090   2.578   5.871   4.893
 1731SOL     OW 6091   5.379   4.898   3.835
 1731SOL    HW1 6092   5.433   4.973   3.795
 1731SOL    HW2 6093   5.384   4.904   3.935
 1732SOL     OW 6094   2.215   4.288   5.867
 1732SOL    HW1 6095   2.260   4.207   5.904
 1732SOL    HW2 6096   2.116   4.273   5.864
 1733SOL     OW 6097   2.738   4.014   7.020
 1733SOL    HW1 6098   2.670   4.061   0.052
 1733SOL    HW2 6099   2.698   3.995   6.930
 1734SOL     OW 6100   6.558   2.927   1.042
 1734SOL    HW1 6101   6.527   3.002   0.984
 1734SOL    HW2 6102   6.503   2.846   1.025
 1735SOL     OW 6103   4.447   5.380   0.253
 1735SOL    HW1 6104   4.543   5.360   0.272
 1735SOL    HW2 6105   4.434   5.389   0.154
 1736SOL     OW 6106   4.209   3.798   1.723
 1736SOL    HW1 6107   4.124   3.824   1.768
 1736SOL    HW2 6108   4.204   3.702   1.694
 1737SOL     OW 6109   5.520   0.573   4.228
 1737SOL    HW1 6110   5.571   0.653   4.260
 1737SOL    HW2 6111   5.443   0.603   4.173
 1738SOL     OW 6112   2.037   3.941   4.270
 1738SOL    HW1 6113   1.964   3.987   4.321
 1738SOL    HW2 6114   2.074   3.866   4.326
 1739SOL     OW 6115   5.726   0.012   3.315
 1739SOL    HW1 6116   5.757   0.027   3.409
 1739SOL    HW2 6117   5.677   6.950   3.310
 1740SOL     OW 6118   6.909   1.973   4.898
 1740SOL    HW1 6119   6.852   2.017   4.967
 1740SOL    HW2 6120   6.936   2.040   4.830
 1741SOL     OW 6121   1.633   2.005   3.808
 1741SOL    HW1 6122   1.563   1.971   3.744
 1741SOL    HW2 6123   1.588   2.038   3.891
 1742SOL     OW 6124   5.884   0.340   5.816
 1742SOL    HW1 6125   5.979   0.367   5.802
 1742SOL    HW2 6126   5.875   0.294   5.904
 1743SOL     OW 6127   1.348   1.668   3.071
 1743SOL    HW1 6128   1.398   1.683   2.985
 1743SOL    HW2 6129   1.255   1.637   3.050
 1744SOL     OW 6130   5.361   2.295   3.533
 1744SOL    HW1 6131   5.317   2.371   3.486
 1744SOL    HW2 6132   5.449   2.275   3.488
 1745SOL     OW 6133   6.137   6.282   0.849
 1745SOL    HW1 6134   6.055   6.290   0.791
 1745SOL    HW2 6135   6.111   6.300   0.944
 1746SOL     OW 6136   1.764   3.837   3.983
 1746SOL    HW1 6137   1.797   3.887   3.903
 1746SOL    HW2 6138   1.673   3.801   3.964
 1747SOL     OW 6139   3.783   1.637   2.166
 1747SOL    HW1 6140   3.802   1.607   2.259
 1747SOL    HW2 6141   3.849   1.707   2.139
 1748SOL     OW 6142   6.829   1.493   4.512
 1748SOL    HW1 6143   6.812   1.499   4.414
 1748SOL    HW2 6144   6.927   1.493   4.530
 1749SOL     OW 6145   3.013   5.978   0.976
 1749SOL    HW1 6146   2.981   5.983   1.070
 1749SOL    HW2 6147   2.947   5.927   0.920
 1750SOL     OW 6148   4.381   0.466   5.154
 1750SOL    HW1 6149   4.306   0.527   5.179
 1750SOL    HW2 6150   4.458   0.483   5.215
 1751SOL     OW 6151   6.289   2.743   5.108
 1751SOL    HW1 6152   6.333   2.664   5.151
 1751SOL    HW2 6153   6.209   2.712   5.056
 1752SOL     OW 6154   6.647   1.268   1.284
 1752SOL    HW1 6155   6.604   1.238   1.200
 1752SOL    HW2 6156   6.654   1.192   1.348
 1753SOL     OW 6157   6.935   1.484   1.377
 1753SOL    HW1 6158   6.858   1.477   1.441
 1753SOL    HW2 6159   7.020   1.489   1.429
 1754SOL     OW 6160   3.142   6.030   5.786
 1754SOL    HW1 6161   3.193   6.100   5.837
 1754SOL    HW2 6162   3.159   5.941   5.828
 1755SOL     OW 6163   6.595   6.833   4.796
 1755SOL    HW1 6164   6.625   6.801   4.706
 1755SOL    HW2 6165   6.571   6.754   4.852
 1756SOL     OW 6166   5.230   0.303   6.120
 1756SOL    HW1 6167   5.156   0.308   6.053
 1756SOL    HW2 6168   5.232   0.213   6.162
 1757SOL     OW 6169   2.504   5.144   4.041
 1757SOL    HW1 6170   2.420   5.089   4.040
 1757SOL    HW2 6171   2.580   5.089   4.076
 1758SOL     OW 6172   1.999   6.711   5.332
 1758SOL    HW1 6173   1.933   6.731   5.405
 1758SOL    HW2 6174   2.067   6.646   5.366
 1759SOL     OW 6175   1.282   5.700   6.182
 1759SOL    HW1 6176   1.358   5.669   6.125
 1759SOL    HW2 6177   1.240   5.621   6.227
 1760SOL     OW 6178   6.286   0.523   4.579
 1760SOL    HW1 6179   6.327   0.453   4.521
 1760SOL    HW2 6180   6.340   0.607   4.574
 1761SOL     OW 6181   6.930   1.875   1.144
 1761SOL    HW1 6182   6.943   1.893   1.242
 1761SOL    HW2 6183   6.990   1.934   1.091
 1762SOL     OW 6184   0.675   1.503   5.316
 1762SOL    HW1 6185   0.635   1.439   5.381
 1762SOL    HW2 6186   0.767   1.527   5.346
 1763SOL     OW 6187   1.262   4.017   5.066
 1763SOL    HW1 6188   1.264   3.992   5.163
 1763SOL    HW2 6189   1.248   3.936   5.010
 1764SOL     OW 6190   1.414   4.293   1.940
 1764SOL    HW1 6191   1.501   4.266   1.898
 1764SOL    HW2 6192   1.392   4.230   2.015
 1765SOL     OW 6193   4.818   2.851   1.784
 1765SOL    HW1 6194   4.781   2.899   1.863
 1765SOL    HW2 6195   4.885   2.909   1.738
 1766SOL     OW 6196   4.482   4.620   3.801
 1766SOL    HW1 6197   4.424   4.641   3.879
 1766SOL    HW2 6198   4.548   4.549   3.826
 1767SOL     OW 6199   6.886   5.807   2.239
 1767SOL    HW1 6200   6.794   5.790   2.271
 1767SOL    HW2 6201   6.950   5.801   2.316
 1768SOL     OW 6202   4.608   5.965   1.747
 1768SOL    HW1 6203   4.606   6.043   1.809
 1768SOL    HW2 6204   4.644   5.994   1.658
 1769SOL     OW 6205   6.240   0.747   6.582
 1769SOL    HW1 6206   6.228   0.649   6.599
 1769SOL    HW2 6207   6.150   0.790   6.571
 1770SOL     OW 6208   1.349   4.670   5.678
 1770SOL    HW1 6209   1.373   4.745   5.741
 1770SOL    HW2 6210   1.362   4.582   5.723
 1771SOL     OW 6211   0.838   3.994   6.939
 1771SOL    HW1 6212   0.880   4.038   6.859
 1771SOL    HW2 6213   0.893   3.915   6.965
 1772SOL     OW 6214   3.264   5.179   3.965
 1772SOL    HW1 6215   3.199   5.255   3.968
 1772SOL    HW2 6216   3.222   5.098   4.006
 1773SOL     OW 6217   1.059   0.337   4.752
 1773SOL    HW1 6218   1.010   0.415   4.712
 1773SOL    HW2 6219   1.049   0.339   4.851
 1774SOL     OW 6220   5.874   6.687   1.478
 1774SOL    HW1 6221   5.962   6.661   1.437
 1774SOL    HW2 6222   5.840   6.769   1.432
 1775SOL     OW 6223   1.600   5.362   6.768
 1775SOL    HW1 6224   1.690   5.405   6.764
 1775SOL    HW2 6225   1.548   5.387   6.686
 1776SOL     OW 6226   4.807   1.154   5.319
 1776SOL    HW1 6227   4.860   1.239   5.309
 1776SOL    HW2 6228   4.822   1.116   5.410
 1777SOL     OW 6229   4.495   6.679   6.704
 1777SOL    HW1 6230   4.404   6.720   6.702
 1777SOL    HW2 6231   4.564   6.750   6.689
 1778SOL     OW 6232   5.589   1.279   4.193
 1778SOL    HW1 6233   5.592   1.262   4.094
 1778SOL    HW2 6234   5.650   1.355   4.216
 1779SOL     OW 6235   5.108   0.282   4.828
 1779SOL    HW1 6236   5.154   0.225   4.760
 1779SOL    HW2 6237   5.112   0.378   4.800
 1780SOL     OW 6238   1.347   4.911   5.000
 1780SOL    HW1 6239   1.279   4.942   4.933
 1780SOL    HW2 6240   1.392   4.829   4.966
 1781SOL     OW 6241   4.578   0.031   4.069
 1781SOL    HW1 6242   4.558   6.960   4.090
 1781SOL    HW2 6243   4.622   0.074   4.147
 1782SOL     OW 6244   1.655   1.835   2.651
 1782SOL    HW1 6245   1.680   1.916   2.703
 1782SOL    HW2 6246   1.724   1.818   2.581
 1783SOL     OW 6247   2.272   3.562   5.863
 1783SOL    HW1 6248   2.361   3.595   5.832
 1783SOL    HW2 6249   2.248   3.606   5.949
 1784SOL     OW 6250   2.534   0.434   1.013
 1784SOL    HW1 6251   2.572   0.343   0.994
 1784SOL    HW2 6252   2.435   0.433   0.998
 1785SOL     OW 6253   0.721   6.551   4.400
 1785SOL    HW1 6254   0.688   6.631   4.450
 1785SOL    HW2 6255   0.645   6.489   4.382
 1786SOL     OW 6256   2.059   5.689   0.849
 1786SOL    HW1 6257   2.059   5.675   0.948
 1786SOL    HW2 6258   2.030   5.604   0.804
 1787SOL     OW 6259   1.742   2.784   5.594
 1787SOL    HW1 6260   1.815   2.835   5.639
 1787SOL    HW2 6261   1.754   2.789   5.494
 1788SOL     OW 6262   4.501   4.091   0.512
 1788SOL    HW1 6263   4.447   4.011   0.538
 1788SOL    HW2 6264   4.593   4.083   0.552
 1789SOL     OW 6265   6.455   3.559   1.648
 1789SOL    HW1 6266   6.453   3.621   1.727
 1789SOL    HW2 6267   6.544   3.514   1.643
 1790SOL     OW 6268   3.053   2.007   4.437
 1790SOL    HW1 6269   3.060   2.085   4.374
 1790SOL    HW2 6270   2.978   2.022   4.500
 1791SOL     OW 6271   6.466   0.661   3.730
 1791SOL    HW1 6272   6.537   0.612   3.782
 1791SOL    HW2 6273   6.445   0.611   3.646
 1792SOL     OW 6274   6.832   2.610   5.341
 1792SOL    HW1 6275   6.913   2.561   5.374
 1792SOL    HW2 6276   6.779   2.643   5.419
 1793SOL     OW 6277   0.181   1.351   5.205
 1793SOL    HW1 6278   0.237   1.409   5.146
 1793SOL    HW2 6279   0.138   1.280   5.150
 1794SOL     OW 6280   6.766   0.233   6.208
 1794SOL    HW1 6281   6.862   0.230   6.180
 1794SOL    HW2 6282   6.708   0.246   6.128
 1795SOL     OW 6283   5.903   4.545   0.264
 1795SOL    HW1 6284   5.889   4.599   0.346
 1795SOL    HW2 6285   6.001   4.535   0.247
 1796SOL     OW 6286   1.442   7.021   5.075
 1796SOL    HW1 6287   1.533   0.038   5.071
 1796SOL    HW2 6288   1.415   6.992   4.983
 1797SOL     OW 6289   2.404   6.279   4.707
 1797SOL    HW1 6290   2.345   6.201   4.731
 1797SOL    HW2 6291   2.477   6.287   4.776
 1798SOL     OW 6292   3.484   3.685   4.681
 1798SOL    HW1 6293   3.438   3.597   4.672
 1798SOL    HW2 6294   3.455   3.745   4.606
 1799SOL     OW 6295   3.262   0.601   6.624
 1799SOL    HW1 6296   3.235   0.596   6.721
 1799SOL    HW2 6297   3.182   0.585   6.567
 1800SOL     OW 6298   5.231   4.104   3.786
 1800SOL    HW1 6299   5.245   4.102   3.687
 1800SOL    HW2 6300   5.168   4.178   3.810
 1801SOL     OW 6301   1.290   1.446   2.204
 1801SOL    HW1 6302   1.385   1.459   2.233
 1801SOL    HW2 6303   1.265   1.519   2.140
 1802SOL     OW 6304   6.263   4.599   3.526
 1802SOL    HW1 6305   6.249   4.681   3.581
 1802SOL    HW2 6306   6.345   4.611   3.470
 1803SOL     OW 6307   0.059   6.173   2.644
 1803SOL    HW1 6308   0.037   6.099   2.708
 1803SOL    HW2 6309   0.111   6.244   2.691
 1804SOL     OW 6310   3.153   3.865   6.105
 1804SOL    HW1 6311   3.212   3.849   6.184
 1804SOL    HW2 6312   3.127   3.777   6.065
 1805SOL     OW 6313   0.267   6.666   6.352
 1805SOL    HW1 6314   0.316   6.603   6.413
 1805SOL    HW2 6315   0.221   6.614   6.280
 1806SOL     OW 6316   6.887   2.624   2.371
 1806SOL    HW1 6317   6.964   2.593   2.427
 1806SOL    HW2 6318   6.892   2.724   2.359
 1807SOL     OW 6319   6.572   4.008   1.605
 1807SOL    HW1 6320   6.614   3.964   1.526
 1807SOL    HW2 6321   6.574   4.107   1.594
 1808SOL     OW 6322   4.795   2.581   5.576
 1808SOL    HW1 6323   4.710   2.538   5.544
 1808SOL    HW2 6324   4.861   2.583   5.501
 1809SOL     OW 6325   3.781   2.050   5.228
 1809SOL    HW1 6326   3.848   2.097   5.286
 1809SOL    HW2 6327   3.817   2.044   5.135
 1810SOL     OW 6328   0.303   7.021   3.910
 1810SOL    HW1 6329   0.394   7.007   3.948
 1810SOL    HW2 6330   0.236   6.973   3.968
 1811SOL     OW 6331   3.978   5.026   2.317
 1811SOL    HW1 6332   3.898   4.989   2.271
 1811SOL    HW2 6333   4.030   5.083   2.254
 1812SOL     OW 6334   4.344   0.199   6.225
 1812SOL    HW1 6335   4.393   0.117   6.253
 1812SOL    HW2 6336   4.257   0.204   6.275
 1813SOL     OW 6337   4.750   4.854   2.922
 1813SOL    HW1 6338   4.701   4.914   2.984
 1813SOL    HW2 6339   4.718   4.869   2.828
 1814SOL     OW 6340   0.608   6.594   0.348
 1814SOL    HW1 6341   0.694   6.552   0.377
 1814SOL    HW2 6342   0.601   6.590   0.249
 1815SOL     OW 6343   5.819   5.890   2.112
 1815SOL    HW1 6344   5.885   5.825   2.148
 1815SOL    HW2 6345   5.864   5.979   2.099
 1816SOL     OW 6346   4.158   6.019   5.493
 1816SOL    HW1 6347   4.242   6.041   5.544
 1816SOL    HW2 6348   4.079   6.030   5.554
 1817SOL     OW 6349   2.532   1.488   3.048
 1817SOL    HW1 6350   2.522   1.416   3.116
 1817SOL    HW2 6351   2.442   1.515   3.013
 1818SOL     OW 6352   1.986   6.581   0.083
 1818SOL    HW1 6353   2.001   6.532   7.021
 1818SOL    HW2 6354   2.023   6.527   0.159
 1819SOL     OW 6355   1.314   4.707   2.945
 1819SOL    HW1 6356   1.274   4.755   2.868
 1819SOL    HW2 6357   1.334   4.773   3.018
 1820SOL     OW 6358   4.300   6.864   3.164
 1820SOL    HW1 6359   4.257   6.934   3.221
 1820SOL    HW2 6360   4.229   6.804   3.126
 1821SOL     OW 6361   3.821   1.006   2.314
 1821SOL    HW1 6362   3.780   1.090   2.349
 1821SOL    HW2 6363   3.755   0.932   2.318
 1822SOL     OW 6364   0.779   3.288   2.256
 1822SOL    HW1 6365   0.752   3.296   2.160
 1822SOL    HW2 6366   0.710   3.235   2.305
 1823SOL     OW 6367   3.659   6.530   2.550
 1823SOL    HW1 6368   3.709   6.540   2.464
 1823SOL    HW2 6369   3.572   6.483   2.533
 1824SOL     OW 6370   4.228   3.998   0.879
 1824SOL    HW1 6371   4.144   4.046   0.901
 1824SOL    HW2 6372   4.288   3.998   0.959
 1825SOL     OW 6373   1.873   2.218   5.073
 1825SOL    HW1 6374   1.895   2.208   4.976
 1825SOL    HW2 6375   1.774   2.212   5.085
 1826SOL     OW 6376   3.454   2.044   1.843
 1826SOL    HW1 6377   3.536   2.046   1.900
 1826SOL    HW2 6378   3.471   2.092   1.758
 1827SOL     OW 6379   5.489   4.664   0.515
 1827SOL    HW1 6380   5.472   4.756   0.552
 1827SOL    HW2 6381   5.536   4.609   0.583
 1828SOL     OW 6382   1.393   3.503   5.861
 1828SOL    HW1 6383   1.465   3.451   5.905
 1828SOL    HW2 6384   1.429   3.547   5.779
 1829SOL     OW 6385   3.629   0.650   3.977
 1829SOL    HW1 6386   3.685   0.679   4.055
 1829SOL    HW2 6387   3.689   0.626   3.901
 1830SOL     OW 6388   5.728   0.004   4.745
 1830SOL    HW1 6389   5.687   6.938   4.755
 1830SOL    HW2 6390   5.681   0.069   4.804
 1831SOL     OW 6391   5.059   4.983   2.813
 1831SOL    HW1 6392   5.109   5.028   2.738
 1831SOL    HW2 6393   5.004   5.051   2.861
 1832SOL     OW 6394   2.400   3.630   0.706
 1832SOL    HW1 6395   2.417   3.625   0.608
 1832SOL    HW2 6396   2.310   3.669   0.723
 1833SOL     OW 6397   5.042   0.356   1.875
 1833SOL    HW1 6398   5.059   0.273   1.821
 1833SOL    HW2 6399   5.077   0.344   1.967
 1834SOL     OW 6400   2.368   2.399   0.189
 1834SOL    HW1 6401   2.272   2.378   0.208
 1834SOL    HW2 6402   2.402   2.339   0.117
 1835SOL     OW 6403   0.130   5.049   1.339
 1835SOL    HW1 6404   0.188   5.068   1.419
 1835SOL    HW2 6405   0.185   5.003   1.269
 1836SOL     OW 6406   5.807   1.518   1.866
 1836SOL    HW1 6407   5.869   1.472   1.802
 1836SOL    HW2 6408   5.839   1.612   1.881
 1837SOL     OW 6409   2.843   1.175   6.232
 1837SOL    HW1 6410   2.841   1.084   6.190
 1837SOL    HW2 6411   2.783   1.236   6.181
 1838SOL     OW 6412   5.969   1.145   0.535
 1838SOL    HW1 6413   5.961   1.161   0.633
 1838SOL    HW2 6414   6.035   1.072   0.518
 1839SOL     OW 6415   5.969   1.642   0.109
 1839SOL    HW1 6416   6.049   1.648   0.048
 1839SOL    HW2 6417   5.966   1.552   0.152
 1840SOL     OW 6418   4.306   0.130   2.886
 1840SOL    HW1 6419   4.324   0.226   2.909
 1840SOL    HW2 6420   4.369   0.071   2.937
 1841SOL     OW 6421   2.208   0.351   2.370
 1841SOL    HW1 6422   2.240   0.272   2.317
 1841SOL    HW2 6423   2.283   0.418   2.377
 1842SOL     OW 6424   2.069   4.985   0.597
 1842SOL    HW1 6425   2.055   4.963   0.694
 1842SOL    HW2 6426   2.147   4.933   0.562
 1843SOL     OW 6427   3.293   1.303   4.639
 1843SOL    HW1 6428   3.256   1.335   4.726
 1843SOL    HW2 6429   3.301   1.379   4.575
 1844SOL     OW 6430   4.666   1.715   6.307
 1844SOL    HW1 6431   4.664   1.714   6.407
 1844SOL    HW2 6432   4.637   1.805   6.274
 1845SOL     OW 6433   2.120   1.257   3.083
 1845SOL    HW1 6434   2.074   1.171   3.061
 1845SOL    HW2 6435   2.219   1.241   3.091
 1846SOL     OW 6436   4.503   1.059   3.123
 1846SOL    HW1 6437   4.498   0.991   3.196
 1846SOL    HW2 6438   4.498   1.014   3.034
 1847SOL     OW 6439   2.038   0.177   4.257
 1847SOL    HW1 6440   2.111   0.222   4.205
 1847SOL    HW2 6441   2.078   0.104   4.312
 1848SOL     OW 6442   2.014   5.697   4.209
 1848SOL    HW1 6443   2.092   5.746   4.250
 1848SOL    HW2 6444   2.048   5.622   4.153
 1849SOL     OW 6445   4.500   2.490   2.624
 1849SOL    HW1 6446   4.527   2.520   2.715
 1849SOL    HW2 6447   4.560   2.532   2.556
 1850SOL     OW 6448   5.470   2.329   2.065
 1850SOL    HW1 6449   5.510   2.286   1.983
 1850SOL    HW2 6450   5.374   2.304   2.072
 1851SOL     OW 6451   7.022   3.191   6.066
 1851SOL    HW1 6452   0.008   3.091   6.074
 1851SOL    HW2 6453   6.929   3.212   6.036
 1852SOL     OW 6454   1.692   4.812   2.149
 1852SOL    HW1 6455   1.762   4.751   2.112
 1852SOL    HW2 6456   1.735   4.892   2.190
 1853SOL     OW 6457   0.388   2.839   4.502
 1853SOL    HW1 6458   0.452   2.884   4.441
 1853SOL    HW2 6459   0.355   2.904   4.571
 1854SOL     OW 6460   0.626   5.885   2.964
 1854SOL    HW1 6461   0.550   5.928   2.916
 1854SOL    HW2 6462   0.712   5.921   2.929
 1855SOL     OW 6463   4.925   3.437   4.806
 1855SOL    HW1 6464   4.891   3.486   4.886
 1855SOL    HW2 6465   4.866   3.456   4.728
 1856SOL     OW 6466   4.027   3.644   7.021
 1856SOL    HW1 6467   4.105   3.676   6.967
 1856SOL    HW2 6468   4.010   3.708   0.072
 1857SOL     OW 6469   5.104   0.978   0.206
 1857SOL    HW1 6470   5.098   1.076   0.187
 1857SOL    HW2 6471   5.013   0.941   0.225
 1858SOL     OW 6472   4.441   2.503   4.387
 1858SOL    HW1 6473   4.489   2.569   4.444
 1858SOL    HW2 6474   4.504   2.433   4.356
 1859SOL     OW 6475   6.109   2.102   4.886
 1859SOL    HW1 6476   6.013   2.076   4.882
 1859SOL    HW2 6477   6.130   2.163   4.809
 1860SOL     OW 6478   1.034   1.721   5.073
 1860SOL    HW1 6479   0.940   1.749   5.053
 1860SOL    HW2 6480   1.093   1.801   5.070
 1861SOL     OW 6481   6.690   0.915   3.038
 1861SOL    HW1 6482   6.607   0.962   3.068
 1861SOL    HW2 6483   6.734   0.969   2.967
 1862SOL     OW 6484   1.845   6.169   6.796
 1862SOL    HW1 6485   1.770   6.199   6.737
 1862SOL    HW2 6486   1.819   6.186   6.892
 1863SOL     OW 6487   0.415   3.306   1.510
 1863SOL    HW1 6488   0.442   3.397   1.481
 1863SOL    HW2 6489   0.347   3.269   1.447
 1864SOL     OW 6490   3.105   6.006   3.385
 1864SOL    HW1 6491   3.159   6.035   3.465
 1864SOL    HW2 6492   3.124   5.910   3.365
 1865SOL     OW 6493   4.784   1.324   6.744
 1865SOL    HW1 6494   4.845   1.330   6.665
 1865SOL    HW2 6495   4.707   1.263   6.723
 1866SOL     OW 6496   0.602   4.246   3.850
 1866SOL    HW1 6497   0.607   4.346   3.843
 1866SOL    HW2 6498   0.661   4.215   3.924
 1867SOL     OW 6499   2.836   2.047   1.359
 1867SOL    HW1 6500   2.830   2.039   1.458
 1867SOL    HW2 6501   2.746   2.068   1.322
 1868SOL     OW 6502   5.347   4.303   5.262
 1868SOL    HW1 6503   5.300   4.360   5.329
 1868SOL    HW2 6504   5.440   4.285   5.292
 1869SOL     OW 6505   4.495   2.151   4.157
 1869SOL    HW1 6506   4.454   2.063   4.178
 1869SOL    HW2 6507   4.442   2.197   4.087
 1870SOL     OW 6508   1.530   4.386   4.145
 1870SOL    HW1 6509   1.500   4.358   4.236
 1870SOL    HW2 6510   1.558   4.305   4.093
 1871SOL     OW 6511   0.882   6.615   0.448
 1871SOL    HW1 6512   0.944   6.538   0.459
 1871SOL    HW2 6513   0.895   6.655   0.357
 1872SOL     OW 6514   3.226   1.942   0.531
 1872SOL    HW1 6515   3.141   1.983   0.501
 1872SOL    HW2 6516   3.274   2.004   0.593
 1873SOL     OW 6517   6.452   0.929   0.070
 1873SOL    HW1 6518   6.404   0.861   0.015
 1873SOL    HW2 6519   6.504   0.990   0.010
 1874SOL     OW 6520   1.239   6.507   6.221
 1874SOL    HW1 6521   1.174   6.573   6.259
 1874SOL    HW2 6522   1.194   6.451   6.152
 1875SOL     OW 6523   6.401   5.594   6.946
 1875SOL    HW1 6524   6.476   5.543   6.989
 1875SOL    HW2 6525   6.325   5.601   7.010
 1876SOL     OW 6526   5.538   6.604   6.412
 1876SOL    HW1 6527   5.556   6.695   6.449
 1876SOL    HW2 6528   5.625   6.561   6.386
 1877SOL     OW 6529   0.385   1.167   2.497
 1877SOL    HW1 6530   0.361   1.131   2.407
 1877SOL    HW2 6531   0.474   1.132   2.525
 1878SOL     OW 6532   0.504   4.676   3.329
 1878SOL    HW1 6533   0.529   4.581   3.310
 1878SOL    HW2 6534   0.547   4.705   3.415
 1879SOL     OW 6535   3.387   5.730   5.141
 1879SOL    HW1 6536   3.344   5.649   5.182
 1879SOL    HW2 6537   3.414   5.793   5.213
 1880SOL     OW 6538   0.029   1.945   3.382
 1880SOL    HW1 6539   0.044   2.032   3.335
 1880SOL    HW2 6540   0.000   1.963   3.476
 1881SOL     OW 6541   0.880   2.408   3.878
 1881SOL    HW1 6542   0.941   2.371   3.808
 1881SOL    HW2 6543   0.840   2.333   3.931
 1882SOL     OW 6544   1.340   6.232   6.984
 1882SOL    HW1 6545   1.268   6.177   0.003
 1882SOL    HW2 6546   1.353   6.317   0.010
 1883SOL     OW 6547   1.273   3.660   3.141
 1883SOL    HW1 6548   1.351   3.653   3.079
 1883SOL    HW2 6549   1.189   3.673   3.088
 1884SOL     OW 6550   2.921   1.049   0.483
 1884SOL    HW1 6551   2.871   1.126   0.445
 1884SOL    HW2 6552   2.996   1.025   0.421
 1885SOL     OW 6553   0.185   2.782   0.849
 1885SOL    HW1 6554   0.260   2.717   0.835
 1885SOL    HW2 6555   0.222   2.867   0.886
 1886SOL     OW 6556   2.132   1.961   6.766
 1886SOL    HW1 6557   2.204   1.921   6.710
 1886SOL    HW2 6558   2.128   1.914   6.854
 1887SOL     OW 6559   0.739   5.821   5.322
 1887SOL    HW1 6560   0.809   5.825   5.393
 1887SOL    HW2 6561   0.687   5.736   5.332
 1888SOL     OW 6562   2.216   1.881   6.247
 1888SOL    HW1 6563   2.228   1.970   6.290
 1888SOL    HW2 6564   2.293   1.864   6.185
 1889SOL     OW 6565   4.150   2.799   0.113
 1889SOL    HW1 6566   4.148   2.741   0.194
 1889SOL    HW2 6567   4.125   2.745   0.032
 1890SOL     OW 6568   0.416   5.651   6.333
 1890SOL    HW1 6569   0.507   5.624   6.301
 1890SOL    HW2 6570   0.361   5.570   6.351
 1891SOL     OW 6571   5.305   3.484   5.347
 1891SOL    HW1 6572   5.261   3.564   5.389
 1891SOL    HW2 6573   5.359   3.513   5.268
 1892SOL     OW 6574   3.907   5.563   1.467
 1892SOL    HW1 6575   3.819   5.596   1.432
 1892SOL    HW2 6576   3.937   5.484   1.413
 1893SOL     OW 6577   3.906   2.009   3.597
 1893SOL    HW1 6578   3.930   1.916   3.624
 1893SOL    HW2 6579   3.911   2.069   3.677
 1894SOL     OW 6580   4.492   3.855   1.678
 1894SOL    HW1 6581   4.525   3.778   1.624
 1894SOL    HW2 6582   4.402   3.834   1.716
 1895SOL     OW 6583   6.483   0.880   2.535
 1895SOL    HW1 6584   6.407   0.942   2.515
 1895SOL    HW2 6585   6.561   0.932   2.570
 1896SOL     OW 6586   6.283   1.735   4.460
 1896SOL    HW1 6587   6.278   1.686   4.547
 1896SOL    HW2 6588   6.333   1.680   4.393
 1897SOL     OW 6589   6.119   5.072   3.499
 1897SOL    HW1 6590   6.166   5.147   3.451
 1897SOL    HW2 6591   6.128   5.085   3.598
 1898SOL     OW 6592   5.541   5.716   0.979
 1898SOL    HW1 6593   5.553   5.787   0.910
 1898SOL    HW2 6594   5.457   5.735   1.032
 1899SOL     OW 6595   0.438   3.031   3.141
 1899SOL    HW1 6596   0.480   2.960   3.198
 1899SOL    HW2 6597   0.342   3.042   3.166
 1900SOL     OW 6598   1.419   6.280   5.915
 1900SOL    HW1 6599   1.347   6.216   5.940
 1900SOL    HW2 6600   1.475   6.300   5.995
 1901SOL     OW 6601   1.656   0.313   0.038
 1901SOL    HW1 6602   1.704   0.247   0.096
 1901SOL    HW2 6603   1.566   0.332   0.077
 1902SOL     OW 6604   0.765   3.176   4.103
 1902SOL    HW1 6605   0.742   3.125   4.020
 1902SOL    HW2 6606   0.682   3.189   4.157
 1903SOL     OW 6607   6.454   4.150   3.067
 1903SOL    HW1 6608   6.547   4.135   3.100
 1903SOL    HW2 6609   6.422   4.067   3.020
 1904SOL     OW 6610   0.283   0.342   4.272
 1904SOL    HW1 6611   0.297   0.437   4.244
 1904SOL    HW2 6612   0.286   0.283   4.191
 1905SOL     OW 6613   0.004   2.408   4.039
 1905SOL    HW1 6614   0.007   2.417   4.139
 1905SOL    HW2 6615   0.082   2.456   3.999
 1906SOL     OW 6616   2.116   6.668   6.034
 1906SOL    HW1 6617   2.173   6.748   6.056
 1906SOL    HW2 6618   2.175   6.588   6.021
 1907SOL     OW 6619   3.025   6.660   3.114
 1907SOL    HW1 6620   3.049   6.571   3.074
 1907SOL    HW2 6621   3.094   6.728   3.090
 1908SOL     OW 6622   4.399   1.377   5.925
 1908SOL    HW1 6623   4.478   1.330   5.963
 1908SOL    HW2 6624   4.423   1.419   5.838
 1909SOL     OW 6625   2.173   4.558   4.754
 1909SOL    HW1 6626   2.158   4.511   4.842
 1909SOL    HW2 6627   2.246   4.625   4.764
 1910SOL     OW 6628   5.067   2.211   6.255
 1910SOL    HW1 6629   5.145   2.149   6.265
 1910SOL    HW2 6630   5.001   2.172   6.190
 1911SOL     OW 6631   6.418   2.300   5.098
 1911SOL    HW1 6632   6.440   2.214   5.144
 1911SOL    HW2 6633   6.420   2.375   5.164
 1912SOL     OW 6634   3.115   6.989   2.333
 1912SOL    HW1 6635   3.115   0.001   2.426
 1912SOL    HW2 6636   3.209   6.983   2.299
 1913SOL     OW 6637   1.893   5.870   5.172
 1913SOL    HW1 6638   1.921   5.785   5.216
 1913SOL    HW2 6639   1.849   5.850   5.085
 1914SOL     OW 6640   2.802   2.640   6.240
 1914SOL    HW1 6641   2.803   2.740   6.237
 1914SOL    HW2 6642   2.708   2.608   6.254
 1915SOL     OW 6643   4.139   0.554   6.060
 1915SOL    HW1 6644   4.205   0.607   6.007
 1915SOL    HW2 6645   4.152   0.456   6.040
 1916SOL     OW 6646   3.779   5.747   1.888
 1916SOL    HW1 6647   3.682   5.739   1.864
 1916SOL    HW2 6648   3.788   5.755   1.988
 1917SOL     OW 6649   2.961   3.840   4.438
 1917SOL    HW1 6650   2.877   3.884   4.407
 1917SOL    HW2 6651   3.038   3.903   4.429
 1918SOL     OW 6652   5.707   6.246   5.978
 1918SOL    HW1 6653   5.718   6.278   5.884
 1918SOL    HW2 6654   5.791   6.265   6.030
 1919SOL     OW 6655   0.916   6.196   2.240
 1919SOL    HW1 6656   0.840   6.144   2.277
 1919SOL    HW2 6657   0.937   6.164   2.147
 1920SOL     OW 6658   0.517   5.330   3.501
 1920SOL    HW1 6659   0.570   5.253   3.464
 1920SOL    HW2 6660   0.552   5.354   3.592
 1921SOL     OW 6661   1.427   6.111   6.673
 1921SOL    HW1 6662   1.396   6.179   6.607
 1921SOL    HW2 6663   1.405   6.143   6.766
 1922SOL     OW 6664   3.871   3.163   1.583
 1922SOL    HW1 6665   3.816   3.209   1.513
 1922SOL    HW2 6666   3.816   3.149   1.665
 1923SOL     OW 6667   2.415   1.123   1.258
 1923SOL    HW1 6668   2.341   1.060   1.283
 1923SOL    HW2 6669   2.383   1.185   1.187
 1924SOL     OW 6670   6.570   4.642   1.801
 1924SOL    HW1 6671   6.487   4.690   1.827
 1924SOL    HW2 6672   6.577   4.637   1.702
 1925SOL     OW 6673   3.307   3.970   1.882
 1925SOL    HW1 6674   3.279   3.929   1.795
 1925SOL    HW2 6675   3.226   3.990   1.937
 1926SOL     OW 6676   1.342   0.083   4.488
 1926SOL    HW1 6677   1.355   0.128   4.400
 1926SOL    HW2 6678   1.382   7.016   4.485
 1927SOL     OW 6679   4.174   3.738   6.802
 1927SOL    HW1 6680   4.237   3.803   6.759
 1927SOL    HW2 6681   4.217   3.648   6.805
 1928SOL     OW 6682   6.874   3.479   5.797
 1928SOL    HW1 6683   6.792   3.511   5.843
 1928SOL    HW2 6684   6.851   3.403   5.737
 1929SOL     OW 6685   1.381   6.250   1.459
 1929SOL    HW1 6686   1.305   6.310   1.435
 1929SOL    HW2 6687   1.459   6.306   1.489
 1930SOL     OW 6688   6.305   4.371   6.499
 1930SOL    HW1 6689   6.286   4.448   6.559
 1930SOL    HW2 6690   6.360   4.303   6.549
 1931SOL     OW 6691   0.324   3.638   3.141
 1931SOL    HW1 6692   0.275   3.564   3.187
 1931SOL    HW2 6693   0.263   3.717   3.131
 1932SOL     OW 6694   4.977   3.806   2.110
 1932SOL    HW1 6695   4.946   3.900   2.122
 1932SOL    HW2 6696   5.027   3.776   2.192
 1933SOL     OW 6697   3.236   4.220   0.678
 1933SOL    HW1 6698   3.313   4.207   0.740
 1933SOL    HW2 6699   3.163   4.268   0.727
 1934SOL     OW 6700   0.824   7.022   5.561
 1934SOL    HW1 6701   0.805   0.094   5.582
 1934SOL    HW2 6702   0.774   6.964   5.625
 1935SOL     OW 6703   2.196   6.967   4.146
 1935SOL    HW1 6704   2.237   7.009   4.227
 1935SOL    HW2 6705   2.114   7.017   4.120
 1936SOL     OW 6706   5.531   5.979   4.780
 1936SOL    HW1 6707   5.617   5.989   4.831
 1936SOL    HW2 6708   5.483   6.067   4.780
 1937SOL     OW 6709   4.104   6.890   1.559
 1937SOL    HW1 6710   4.174   6.936   1.614
 1937SOL    HW2 6711   4.014   6.925   1.585
 1938SOL     OW 6712   3.669   1.240   3.645
 1938SOL    HW1 6713   3.586   1.291   3.625
 1938SOL    HW2 6714   3.652   1.177   3.721
 1939SOL     OW 6715   1.525   0.983   3.848
 1939SOL    HW1 6716   1.520   1.078   3.819
 1939SOL    HW2 6717   1.469   0.969   3.929
 1940SOL     OW 6718   5.509   5.599   0.054
 1940SOL    HW1 6719   5.509   5.499   0.051
 1940SOL    HW2 6720   5.566   5.631   0.129
 1941SOL     OW 6721   5.985   4.101   3.126
 1941SOL    HW1 6722   5.986   4.133   3.032
 1941SOL    HW2 6723   6.003   4.002   3.128
 1942SOL     OW 6724   5.966   5.673   2.189
 1942SOL    HW1 6725   6.043   5.737   2.187
 1942SOL    HW2 6726   5.985   5.599   2.252
 1943SOL     OW 6727   2.693   5.368   2.716
 1943SOL    HW1 6728   2.737   5.452   2.746
 1943SOL    HW2 6729   2.711   5.295   2.783
 1944SOL     OW 6730   5.641   1.768   6.521
 1944SOL    HW1 6731   5.609   1.809   6.436
 1944SOL    HW2 6732   5.595   1.680   6.535
 1945SOL     OW 6733   4.679   5.274   3.176
 1945SOL    HW1 6734   4.779   5.275   3.166
 1945SOL    HW2 6735   4.640   5.354   3.131
 1946SOL     OW 6736   1.470   0.212   1.057
 1946SOL    HW1 6737   1.440   0.300   1.093
 1946SOL    HW2 6738   1.393   0.166   1.013
 1947SOL     OW 6739   5.793   6.450   4.727
 1947SOL    HW1 6740   5.812   6.547   4.717
 1947SOL    HW2 6741   5.714   6.425   4.671
 1948SOL     OW 6742   0.113   5.170   4.673
 1948SOL    HW1 6743   0.044   5.200   4.739
 1948SOL    HW2 6744   0.111   5.230   4.593
 1949SOL     OW 6745   4.394   4.491   6.175
 1949SOL    HW1 6746   4.339   4.407   6.165
 1949SOL    HW2 6747   4.462   4.495   6.102
 1950SOL     OW 6748   3.884   3.746   6.332
 1950SOL    HW1 6749   3.795   3.776   6.298
 1950SOL    HW2 6750   3.871   3.684   6.409
 1951SOL     OW 6751   5.347   2.049   6.938
 1951SOL    HW1 6752   5.411   2.102   6.881
 1951SOL    HW2 6753   5.345   2.088   0.006
 1952SOL     OW 6754   3.614   1.774   0.741
 1952SOL    HW1 6755   3.565   1.823   0.813
 1952SOL    HW2 6756   3.632   1.835   0.664
 1953SOL     OW 6757   6.871   2.186   6.636
 1953SOL    HW1 6758   6.824   2.164   6.550
 1953SOL    HW2 6759   6.806   2.226   6.700
 1954SOL     OW 6760   5.423   1.970   3.577
 1954SOL    HW1 6761   5.324   1.980   3.590
 1954SOL    HW2 6762   5.442   1.951   3.481
 1955SOL     OW 6763   1.515   0.133   2.237
 1955SOL    HW1 6764   1.476   0.189   2.164
 1955SOL    HW2 6765   1.540   0.043   2.201
 1956SOL     OW 6766   4.974   6.157   2.997
 1956SOL    HW1 6767   5.001   6.061   2.988
 1956SOL    HW2 6768   4.875   6.162   3.007
 1957SOL     OW 6769   0.158   5.976   4.741
 1957SOL    HW1 6770   0.202   6.062   4.767
 1957SOL    HW2 6771   0.059   5.988   4.738
 1958SOL     OW 6772   5.611   3.482   4.956
 1958SOL    HW1 6773   5.688   3.541   4.931
 1958SOL    HW2 6774   5.560   3.459   4.873
 1959SOL     OW 6775   0.727   2.714   5.722
 1959SOL    HW1 6776   0.688   2.759   5.641
 1959SOL    HW2 6777   0.672   2.633   5.744
 1960SOL     OW 6778   6.400   4.825   0.747
 1960SOL    HW1 6779   6.440   4.778   0.669
 1960SOL    HW2 6780   6.439   4.790   0.832
 1961SOL     OW 6781   5.888   4.848   4.208
 1961SOL    HW1 6782   5.956   4.840   4.280
 1961SOL    HW2 6783   5.805   4.890   4.244
 1962SOL     OW 6784   1.518   6.253   3.731
 1962SOL    HW1 6785   1.538   6.267   3.828
 1962SOL    HW2 6786   1.604   6.243   3.680
 1963SOL     OW 6787   0.617   0.470   2.027
 1963SOL    HW1 6788   0.649   0.538   1.961
 1963SOL    HW2 6789   0.642   0.500   2.120
 1964SOL     OW 6790   4.711   2.749   1.543
 1964SOL    HW1 6791   4.611   2.756   1.554
 1964SOL    HW2 6792   4.755   2.778   1.628
 1965SOL     OW 6793   0.473   3.536   2.552
 1965SOL    HW1 6794   0.525   3.490   2.624
 1965SOL    HW2 6795   0.528   3.538   2.468
 1966SOL     OW 6796   0.327   4.987   4.538
 1966SOL    HW1 6797   0.258   4.958   4.605
 1966SOL    HW2 6798   0.281   5.032   4.462
 1967SOL     OW 6799   5.036   2.748   5.900
 1967SOL    HW1 6800   4.965   2.721   5.965
 1967SOL    HW2 6801   4.994   2.801   5.826
 1968SOL     OW 6802   2.590   5.879   6.846
 1968SOL    HW1 6803   2.491   5.887   6.854
 1968SOL    HW2 6804   2.612   5.800   6.788
 1969SOL     OW 6805   6.790   2.459   1.812
 1969SOL    HW1 6806   6.848   2.534   1.846
 1969SOL    HW2 6807   6.818   2.374   1.856
 1970SOL     OW 6808   1.612   0.521   5.891
 1970SOL    HW1 6809   1.696   0.520   5.837
 1970SOL    HW2 6810   1.551   0.448   5.859
 1971SOL     OW 6811   6.754   0.037   6.582
 1971SOL    HW1 6812   6.749   6.964   6.599
 1971SOL    HW2 6813   6.684   0.063   6.515
 1972SOL     OW 6814   0.637   3.458   3.501
 1972SOL    HW1 6815   0.652   3.487   3.595
 1972SOL    HW2 6816   0.564   3.390   3.498
 1973SOL     OW 6817   3.628   2.800   1.770
 1973SOL    HW1 6818   3.635   2.857   1.688
 1973SOL    HW2 6819   3.540   2.816   1.814
 1974SOL     OW 6820   5.973   6.257   4.247
 1974SOL    HW1 6821   6.058   6.308   4.262
 1974SOL    HW2 6822   5.927   6.243   4.335
 1975SOL     OW 6823   1.938   0.722   4.039
 1975SOL    HW1 6824   1.927   0.637   4.091
 1975SOL    HW2 6825   1.944   0.701   3.942
 1976SOL     OW 6826   0.280   6.027   0.393
 1976SOL    HW1 6827   0.333   5.948   0.423
 1976SOL    HW2 6828   0.331   6.077   0.323
 1977SOL     OW 6829   0.895   2.886   3.793
 1977SOL    HW1 6830   0.843   2.801   3.785
 1977SOL    HW2 6831   0.835   2.958   3.828
 1978SOL     OW 6832   0.945   1.663   4.408
 1978SOL    HW1 6833   0.921   1.635   4.501
 1978SOL    HW2 6834   0.874   1.723   4.372
 1979SOL     OW 6835   6.833   4.538   5.311
 1979SOL    HW1 6836   6.841   4.529   5.411
 1979SOL    HW2 6837   6.741   4.510   5.283
 1980SOL     OW 6838   3.434   0.448   0.503
 1980SOL    HW1 6839   3.369   0.496   0.563
 1980SOL    HW2 6840   3.458   0.508   0.426
 1981SOL     OW 6841   5.400   2.329   2.672
 1981SOL    HW1 6842   5.383   2.381   2.588
 1981SOL    HW2 6843   5.319   2.334   2.731
 1982SOL     OW 6844   5.973   5.373   5.144
 1982SOL    HW1 6845   5.927   5.284   5.142
 1982SOL    HW2 6846   6.071   5.360   5.152
 1983SOL     OW 6847   1.479   2.529   3.223
 1983SOL    HW1 6848   1.489   2.542   3.124
 1983SOL    HW2 6849   1.547   2.463   3.255
 1984SOL     OW 6850   4.394   2.084   6.317
 1984SOL    HW1 6851   4.318   2.046   6.264
 1984SOL    HW2 6852   4.392   2.184   6.310
 1985SOL     OW 6853   0.917   1.529   2.277
 1985SOL    HW1 6854   0.990   1.477   2.321
 1985SOL    HW2 6855   0.918   1.512   2.178
 1986SOL     OW 6856   1.166   1.772   6.684
 1986SOL    HW1 6857   1.101   1.839   6.647
 1986SOL    HW2 6858   1.233   1.748   6.613
 1987SOL     OW 6859   2.928   3.050   1.799
 1987SOL    HW1 6860   2.982   2.966   1.803
 1987SOL    HW2 6861   2.990   3.129   1.796
 1988SOL     OW 6862   4.813   4.315   0.117
 1988SOL    HW1 6863   4.901   4.319   0.164
 1988SOL    HW2 6864   4.761   4.236   0.149
 1989SOL     OW 6865   2.151   0.575   4.578
 1989SOL    HW1 6866   2.181   0.670   4.581
 1989SOL    HW2 6867   2.168   0.538   4.486
 1990SOL     OW 6868   3.132   0.375   1.806
 1990SOL    HW1 6869   3.147   0.369   1.904
 1990SOL    HW2 6870   3.179   0.300   1.760
 1991SOL     OW 6871   3.761   5.208   5.574
 1991SOL    HW1 6872   3.783   5.274   5.502
 1991SOL    HW2 6873   3.677   5.159   5.551
 1992SOL     OW 6874   3.166   0.075   5.228
 1992SOL    HW1 6875   3.118   0.130   5.297
 1992SOL    HW2 6876   3.262   0.105   5.223
 1993SOL     OW 6877   3.434   3.674   5.377
 1993SOL    HW1 6878   3.346   3.666   5.331
 1993SOL    HW2 6879   3.453   3.771   5.395
 1994SOL     OW 6880   0.355   2.064   2.189
 1994SOL    HW1 6881   0.434   2.126   2.191
 1994SOL    HW2 6882   0.387   1.970   2.171
 1995SOL     OW 6883   6.473   2.082   2.427
 1995SOL    HW1 6884   6.494   2.084   2.329
 1995SOL    HW2 6885   6.389   2.134   2.444
 1996SOL     OW 6886   3.313   2.798   0.866
 1996SOL    HW1 6887   3.412   2.795   0.880
 1996SOL    HW2 6888   3.271   2.717   0.906
 1997SOL     OW 6889   5.957   1.154   4.864
 1997SOL    HW1 6890   6.050   1.127   4.843
 1997SOL    HW2 6891   5.894   1.113   4.798
 1998SOL     OW 6892   2.819   3.893   6.607
 1998SOL    HW1 6893   2.810   3.991   6.624
 1998SOL    HW2 6894   2.760   3.867   6.531
 1999SOL     OW 6895   2.462   0.466   2.277
 1999SOL    HW1 6896   2.532   0.416   2.227
 1999SOL    HW2 6897   2.504   0.539   2.330
 2000SOL     OW 6898   4.184   1.382   5.061
 2000SOL    HW1 6899   4.213   1.407   5.154
 2000SOL    HW2 6900   4.179   1.464   5.005
 2001SOL     OW 6901   3.520   2.253   1.654
 2001SOL    HW1 6902   3.584   2.289   1.722
 2001SOL    HW2 6903   3.437   2.308   1.652
 2002SOL     OW 6904   1.551   6.082   6.203
 2002SOL    HW1 6905   1.474   6.107   6.261
 2002SOL    HW2 6906   1.569   6.156   6.138
 2003SOL     OW 6907   4.787   0.206   3.936
 2003SOL    HW1 6908   4.754   0.196   4.030
 2003SOL    HW2 6909   4.782   0.118   3.890
 2004SOL     OW 6910   4.297   0.971   4.424
 2004SOL    HW1 6911   4.214   1.014   4.460
 2004SOL    HW2 6912   4.272   0.898   4.361
 2005SOL     OW 6913   1.416   5.444   6.593
 2005SOL    HW1 6914   1.316   5.455   6.593
 2005SOL    HW2 6915   1.446   5.420   6.501
 2006SOL     OW 6916   4.947   4.443   3.750
 2006SOL    HW1 6917   4.983   4.369   3.807
 2006SOL    HW2 6918   4.867   4.483   3.796
 2007SOL     OW 6919   4.948   5.278   0.020
 2007SOL    HW1 6920   4.962   5.199   0.080
 2007SOL    HW2 6921   5.010   5.351   0.047
 2008SOL     OW 6922   0.327   5.574   3.636
 2008SOL    HW1 6923   0.362   5.482   3.656
 2008SOL    HW2 6924   0.280   5.610   3.717
 2009SOL     OW 6925   6.455   0.697   1.637
 2009SOL    HW1 6926   6.551   0.707   1.665
 2009SOL    HW2 6927   6.395   0.729   1.710
 2010SOL     OW 6928   1.768   1.171   1.173
 2010SOL    HW1 6929   1.735   1.153   1.080
 2010SOL    HW2 6930   1.722   1.109   1.237
 2011SOL     OW 6931   6.847   2.526   5.071
 2011SOL    HW1 6932   6.839   2.557   5.166
 2011SOL    HW2 6933   6.842   2.605   5.010
 2012SOL     OW 6934   0.997   3.535   1.599
 2012SOL    HW1 6935   0.901   3.554   1.578
 2012SOL    HW2 6936   1.053   3.549   1.518
 2013SOL     OW 6937   5.290   1.564   2.456
 2013SOL    HW1 6938   5.316   1.572   2.552
 2013SOL    HW2 6939   5.260   1.470   2.437
 2014SOL     OW 6940   1.025   5.950   3.228
 2014SOL    HW1 6941   1.038   5.984   3.135
 2014SOL    HW2 6942   1.114   5.925   3.268
 2015SOL     OW 6943   3.378   1.259   6.942
 2015SOL    HW1 6944   3.402   1.341   6.890
 2015SOL    HW2 6945   3.410   1.178   6.893
 2016SOL     OW 6946   0.669   5.406   4.714
 2016SOL    HW1 6947   0.637   5.394   4.620
 2016SOL    HW2 6948   0.671   5.504   4.736
 2017SOL     OW 6949   3.287   6.790   3.572
 2017SOL    HW1 6950   3.353   6.716   3.561
 2017SOL    HW2 6951   3.332   6.870   3.613
 2018SOL     OW 6952   0.118   5.657   5.749
 2018SOL    HW1 6953   0.070   5.575   5.718
 2018SOL    HW2 6954   0.124   5.657   5.849
 2019SOL     OW 6955   5.368   2.779   1.124
 2019SOL    HW1 6956   5.460   2.745   1.142
 2019SOL    HW2 6957   5.317   2.710   1.072
 2020SOL     OW 6958   1.280   5.123   5.184
 2020SOL    HW1 6959   1.303   5.060   5.110
 2020SOL    HW2 6960   1.186   5.105   5.215
 2021SOL     OW 6961   1.958   0.343   2.878
 2021SOL    HW1 6962   1.987   0.371   2.787
 2021SOL    HW2 6963   1.900   0.415   2.918
 2022SOL     OW 6964   1.806   3.723   1.989
 2022SOL    HW1 6965   1.717   3.753   1.955
 2022SOL    HW2 6966   1.815   3.749   2.086
 2023SOL     OW 6967   0.117   1.732   0.106
 2023SOL    HW1 6968   0.028   1.772   0.084
 2023SOL    HW2 6969   0.110   1.682   0.193
 2024SOL     OW 6970   0.041   1.013   2.851
 2024SOL    HW1 6971   0.099   0.972   2.922
 2024SOL    HW2 6972   0.098   1.042   2.774
 2025SOL     OW 6973   1.785   2.201   1.732
 2025SOL    HW1 6974   1.834   2.262   1.669
 2025SOL    HW2 6975   1.802   2.229   1.826
 2026SOL     OW 6976   1.908   2.120   6.125
 2026SOL    HW1 6977   2.000   2.149   6.099
 2026SOL    HW2 6978   1.913   2.055   6.201
 2027SOL     OW 6979   0.752   0.932   1.833
 2027SOL    HW1 6980   0.839   0.887   1.850
 2027SOL    HW2 6981   0.768   1.019   1.786
 2028SOL     OW 6982   3.565   1.392   0.540
 2028SOL    HW1 6983   3.526   1.459   0.477
 2028SOL    HW2 6984   3.598   1.439   0.621
 2029SOL     OW 6985   0.776   0.300   6.639
 2029SOL    HW1 6986   0.694   0.311   6.695
 2029SOL    HW2 6987   0.828   0.386   6.640
 2030SOL     OW 6988   1.671   2.368   3.382
 2030SOL    HW1 6989   1.642   2.289   3.435
 2030SOL    HW2 6990   1.687   2.446   3.443
 2031SOL     OW 6991   5.610   6.031   1.867
 2031SOL    HW1 6992   5.673   6.100   1.904
 2031SOL    HW2 6993   5.517   6.053   1.897
 2032SOL     OW 6994   5.283   6.072   0.951
 2032SOL    HW1 6995   5.259   6.040   0.860
 2032SOL    HW2 6996   5.265   6.170   0.957
 2033SOL     OW 6997   4.284   4.631   6.394
 2033SOL    HW1 6998   4.290   4.582   6.481
 2033SOL    HW2 6999   4.332   4.579   6.324
 2034SOL     OW 7000   1.809   6.239   3.680
 2034SOL    HW1 7001   1.832   6.148   3.647
 2034SOL    HW2 7002   1.892   6.295   3.685
 2035SOL     OW 7003   6.914   2.364   2.603
 2035SOL    HW1 7004   6.928   2.284   2.545
 2035SOL    HW2 7005   6.973   2.439   2.572
 2036SOL     OW 7006   0.309   5.854   1.539
 2036SOL    HW1 7007   0.401   5.855   1.579
 2036SOL    HW2 7008   0.241   5.852   1.613
 2037SOL     OW 7009   6.618   2.513   6.156
 2037SOL    HW1 7010   6.527   2.502   6.196
 2037SOL    HW2 7011   6.660   2.424   6.142
 2038SOL     OW 7012   0.763   1.942   6.676
 2038SOL    HW1 7013   0.755   1.844   6.663
 2038SOL    HW2 7014   0.673   1.985   6.667
 2039SOL     OW 7015   0.402   6.024   3.160
 2039SOL    HW1 7016   0.487   6.046   3.207
 2039SOL    HW2 7017   0.408   6.051   3.064
 2040SOL     OW 7018   3.711   2.979   4.548
 2040SOL    HW1 7019   3.692   2.920   4.469
 2040SOL    HW2 7020   3.754   3.063   4.517
 2041SOL     OW 7021   6.149   5.529   6.675
 2041SOL    HW1 7022   6.228   5.582   6.708
 2041SOL    HW2 7023   6.163   5.506   6.578
 2042SOL     OW 7024   5.939   5.378   0.384
 2042SOL    HW1 7025   5.862   5.316   0.366
 2042SOL    HW2 7026   6.024   5.325   0.388
 2043SOL     OW 7027   6.554   5.340   1.991
 2043SOL    HW1 7028   6.635   5.308   2.040
 2043SOL    HW2 7029   6.530   5.432   2.023
 2044SOL     OW 7030   5.481   0.358   1.697
 2044SOL    HW1 7031   5.554   0.320   1.754
 2044SOL    HW2 7032   5.414   0.405   1.754
 2045SOL     OW 7033   1.394   4.394   5.495
 2045SOL    HW1 7034   1.301   4.385   5.461
 2045SOL    HW2 7035   1.426   4.487   5.480
 2046SOL     OW 7036   6.548   0.768   4.205
 2046SOL    HW1 7037   6.645   0.742   4.216
 2046SOL    HW2 7038   6.528   0.844   4.266
 2047SOL     OW 7039   4.366   1.910   0.885
 2047SOL    HW1 7040   4.340   1.814   0.893
 2047SOL    HW2 7041   4.389   1.945   0.976
 2048SOL     OW 7042   3.565   6.480   0.068
 2048SOL    HW1 7043   3.560   6.392   0.113
 2048SOL    HW2 7044   3.597   6.468   6.998
 2049SOL     OW 7045   4.873   2.550   6.831
 2049SOL    HW1 7046   4.804   2.480   6.853
 2049SOL    HW2 7047   4.831   2.622   6.776
 2050SOL     OW 7048   6.062   2.935   3.610
 2050SOL    HW1 7049   5.968   2.902   3.621
 2050SOL    HW2 7050   6.123   2.884   3.670
 2051SOL     OW 7051   7.011   4.768   6.456
 2051SOL    HW1 7052   6.960   4.717   6.386
 2051SOL    HW2 7053   6.962   4.853   6.475
 2052SOL     OW 7054   0.613   2.984   6.779
 2052SOL    HW1 7055   0.527   2.977   6.727
 2052SOL    HW2 7056   0.670   3.055   6.739
 2053SOL     OW 7057   6.360   0.728   0.893
 2053SOL    HW1 7058   6.360   0.792   0.816
 2053SOL    HW2 7059   6.297   0.653   0.874
 2054SOL     OW 7060   5.650   3.264   1.132
 2054SOL    HW1 7061   5.571   3.264   1.193
 2054SOL    HW2 7062   5.621   3.293   1.040
 2055SOL     OW 7063   5.659   3.072   2.902
 2055SOL    HW1 7064   5.592   3.027   2.962
 2055SOL    HW2 7065   5.732   3.112   2.958
 2056SOL     OW 7066   1.854   1.783   2.452
 2056SOL    HW1 7067   1.890   1.776   2.359
 2056SOL    HW2 7068   1.835   1.692   2.488
 2057SOL     OW 7069   5.771   2.320   3.784
 2057SOL    HW1 7070   5.720   2.335   3.699
 2057SOL    HW2 7071   5.792   2.408   3.827
 2058SOL     OW 7072   1.067   1.540   3.034
 2058SOL    HW1 7073   1.065   1.441   3.017
 2058SOL    HW2 7074   1.060   1.588   2.946
 2059SOL     OW 7075   2.043   6.734   6.748
 2059SOL    HW1 7076   2.021   6.819   6.797
 2059SOL    HW2 7077   2.142   6.726   6.737
 2060SOL     OW 7078   6.771   4.351   0.920
 2060SOL    HW1 7079   6.824   4.296   0.985
 2060SOL    HW2 7080   6.771   4.446   0.950
 2061SOL     OW 7081   0.380   1.412   2.782
 2061SOL    HW1 7082   0.312   1.342   2.801
 2061SOL    HW2 7083   0.335   1.502   2.777
 2062SOL     OW 7084   5.265   0.431   3.191
 2062SOL    HW1 7085   5.195   0.360   3.182
 2062SOL    HW2 7086   5.353   0.396   3.159
 2063SOL     OW 7087   0.521   0.745   6.996
 2063SOL    HW1 7088   0.530   0.664   6.938
 2063SOL    HW2 7089   0.444   0.800   6.964
 2064SOL     OW 7090   1.043   1.945   6.002
 2064SOL    HW1 7091   1.064   1.934   5.905
 2064SOL    HW2 7092   1.127   1.943   6.056
 2065SOL     OW 7093   6.028   4.016   1.951
 2065SOL    HW1 7094   5.939   3.970   1.944
 2065SOL    HW2 7095   6.017   4.113   1.929
 2066SOL     OW 7096   0.951   5.377   3.984
 2066SOL    HW1 7097   0.907   5.467   3.980
 2066SOL    HW2 7098   1.033   5.378   3.928
 2067SOL     OW 7099   0.146   6.593   0.774
 2067SOL    HW1 7100   0.189   6.531   0.840
 2067SOL    HW2 7101   0.046   6.588   0.784
 2068SOL     OW 7102   1.587   1.300   5.299
 2068SOL    HW1 7103   1.637   1.268   5.219
 2068SOL    HW2 7104   1.551   1.392   5.281
 2069SOL     OW 7105   0.288   2.726   3.266
 2069SOL    HW1 7106   0.237   2.714   3.352
 2069SOL    HW2 7107   0.386   2.722   3.286
 2070SOL     OW 7108   1.772   6.808   2.609
 2070SOL    HW1 7109   1.691   6.862   2.587
 2070SOL    HW2 7110   1.853   6.866   2.600
 2071SOL     OW 7111   0.282   6.245   4.782
 2071SOL    HW1 7112   0.321   6.310   4.718
 2071SOL    HW2 7113   0.354   6.210   4.842
 2072SOL     OW 7114   4.107   6.091   1.636
 2072SOL    HW1 7115   4.205   6.112   1.628
 2072SOL    HW2 7116   4.087   6.006   1.587
 2073SOL     OW 7117   3.997   6.661   4.544
 2073SOL    HW1 7118   3.917   6.700   4.590
 2073SOL    HW2 7119   4.080   6.685   4.594
 2074SOL     OW 7120   0.532   2.113   6.586
 2074SOL    HW1 7121   0.511   2.140   6.492
 2074SOL    HW2 7122   0.463   2.150   6.648
 2075SOL     OW 7123   5.214   2.739   1.372
 2075SOL    HW1 7124   5.141   2.801   1.344
 2075SOL    HW2 7125   5.298   2.761   1.322
 2076SOL     OW 7126   5.123   6.327   7.022
 2076SOL    HW1 7127   5.140   6.381   0.080
 2076SOL    HW2 7128   5.180   6.361   6.947
 2077SOL     OW 7129   5.188   2.721   1.898
 2077SOL    HW1 7130   5.198   2.742   1.995
 2077SOL    HW2 7131   5.186   2.622   1.885
 2078SOL     OW 7132   2.543   6.223   6.239
 2078SOL    HW1 7133   2.618   6.205   6.176
 2078SOL    HW2 7134   2.495   6.137   6.260
 2079SOL     OW 7135   5.718   1.390   3.315
 2079SOL    HW1 7136   5.664   1.331   3.376
 2079SOL    HW2 7137   5.675   1.392   3.225
 2080SOL     OW 7138   2.401   1.257   4.864
 2080SOL    HW1 7139   2.319   1.246   4.921
 2080SOL    HW2 7140   2.416   1.355   4.845
 2081SOL     OW 7141   1.492   5.775   4.936
 2081SOL    HW1 7142   1.465   5.857   4.987
 2081SOL    HW2 7143   1.450   5.778   4.845
 2082SOL     OW 7144   5.947   0.443   2.248
 2082SOL    HW1 7145   5.879   0.396   2.304
 2082SOL    HW2 7146   6.004   0.501   2.306
 2083SOL     OW 7147   4.163   4.175   6.480
 2083SOL    HW1 7148   4.118   4.096   6.521
 2083SOL    HW2 7149   4.242   4.145   6.427
 2084SOL     OW 7150   6.834   3.535   3.836
 2084SOL    HW1 7151   6.836   3.620   3.783
 2084SOL    HW2 7152   6.754   3.535   3.896
 2085SOL     OW 7153   5.368   0.856   6.970
 2085SOL    HW1 7154   5.366   0.952   6.943
 2085SOL    HW2 7155   5.275   0.818   6.963
 2086SOL     OW 7156   2.896   5.895   6.033
 2086SOL    HW1 7157   2.883   5.975   6.091
 2086SOL    HW2 7158   2.915   5.924   5.939
 2087SOL     OW 7159   4.599   6.677   1.748
 2087SOL    HW1 7160   4.658   6.644   1.821
 2087SOL    HW2 7161   4.542   6.752   1.782
 2088SOL     OW 7162   2.928   5.106   0.610
 2088SOL    HW1 7163   2.927   5.182   0.676
 2088SOL    HW2 7164   2.950   5.142   0.519
 2089SOL     OW 7165   4.001   1.581   0.130
 2089SOL    HW1 7166   4.100   1.570   0.134
 2089SOL    HW2 7167   3.966   1.538   0.047
 2090SOL     OW 7168   4.034   3.315   4.666
 2090SOL    HW1 7169   4.098   3.326   4.589
 2090SOL    HW2 7170   4.058   3.379   4.739
 2091SOL     OW 7171   0.214   6.395   6.991
 2091SOL    HW1 7172   0.134   6.402   0.026
 2091SOL    HW2 7173   0.297   6.389   0.023
 2092SOL     OW 7174   5.056   5.714   0.863
 2092SOL    HW1 7175   4.986   5.699   0.794
 2092SOL    HW2 7176   5.146   5.717   0.819
 2093SOL     OW 7177   1.820   2.127   1.235
 2093SOL    HW1 7178   1.845   2.224   1.232
 2093SOL    HW2 7179   1.875   2.080   1.304
 2094SOL     OW 7180   5.960   1.710   1.596
 2094SOL    HW1 7181   5.953   1.614   1.568
 2094SOL    HW2 7182   5.947   1.716   1.695
 2095SOL     OW 7183   5.989   0.358   3.726
 2095SOL    HW1 7184   5.890   0.373   3.721
 2095SOL    HW2 7185   6.022   0.385   3.816
 2096SOL     OW 7186   4.829   3.853   2.739
 2096SOL    HW1 7187   4.787   3.940   2.715
 2096SOL    HW2 7188   4.813   3.833   2.836
 2097SOL     OW 7189   1.316   2.883   6.900
 2097SOL    HW1 7190   1.242   2.874   6.966
 2097SOL    HW2 7191   1.338   2.794   6.861
 2098SOL     OW 7192   3.687   5.406   3.384
 2098SOL    HW1 7193   3.738   5.409   3.298
 2098SOL    HW2 7194   3.589   5.408   3.364
 2099SOL     OW 7195   2.212   2.342   5.011
 2099SOL    HW1 7196   2.173   2.343   5.103
 2099SOL    HW2 7197   2.139   2.337   4.944
 2100SOL     OW 7198   3.673   3.996   6.204
 2100SOL    HW1 7199   3.605   4.025   6.137
 2100SOL    HW2 7200   3.630   3.987   6.293
 2101SOL     OW 7201   1.534   6.323   2.430
 2101SOL    HW1 7202   1.440   6.301   2.403
 2101SOL    HW2 7203   1.595   6.249   2.402
 2102SOL     OW 7204   0.678   5.139   1.930
 2102SOL    HW1 7205   0.606   5.187   1.980
 2102SOL    HW2 7206   0.730   5.082   1.993
 2103SOL     OW 7207   3.086   3.907   6.677
 2103SOL    HW1 7208   3.122   3.815   6.662
 2103SOL    HW2 7209   2.987   3.906   6.664
 2104SOL     OW 7210   1.151   3.404   6.571
 2104SOL    HW1 7211   1.152   3.326   6.634
 2104SOL    HW2 7212   1.241   3.448   6.572
 2105SOL     OW 7213   5.747   5.221   3.996
 2105SOL    HW1 7214   5.722   5.153   3.927
 2105SOL    HW2 7215   5.821   5.279   3.961
 2106SOL     OW 7216   4.212   4.869   0.180
 2106SOL    HW1 7217   4.171   4.959   0.163
 2106SOL    HW2 7218   4.298   4.881   0.230
 2107SOL     OW 7219   4.131   2.802   5.642
 2107SOL    HW1 7220   4.100   2.708   5.653
 2107SOL    HW2 7221   4.230   2.803   5.626
 2108SOL     OW 7222   6.774   6.546   5.710
 2108SOL    HW1 7223   6.683   6.545   5.751
 2108SOL    HW2 7224   6.824   6.464   5.739
 2109SOL     OW 7225   5.303   6.452   3.527
 2109SOL    HW1 7226   5.399   6.443   3.501
 2109SOL    HW2 7227   5.283   6.548   3.548
 2110SOL     OW 7228   3.064   3.638   5.959
 2110SOL    HW1 7229   3.066   3.641   5.859
 2110SOL    HW2 7230   2.994   3.574   5.989
 2111SOL     OW 7231   0.286   1.668   6.937
 2111SOL    HW1 7232   0.209   1.694   6.995
 2111SOL    HW2 7233   0.256   1.663   6.841
 2112SOL     OW 7234   4.385   1.888   1.170
 2112SOL    HW1 7235   4.329   1.919   1.247
 2112SOL    HW2 7236   4.352   1.799   1.138
 2113SOL     OW 7237   1.092   0.179   3.828
 2113SOL    HW1 7238   1.070   0.139   3.917
 2113SOL    HW2 7239   1.016   0.166   3.765
 2114SOL     OW 7240   1.726   2.707   0.273
 2114SOL    HW1 7241   1.788   2.630   0.257
 2114SOL    HW2 7242   1.663   2.684   0.347
 2115SOL     OW 7243   2.047   4.596   3.073
 2115SOL    HW1 7244   2.110   4.572   2.999
 2115SOL    HW2 7245   2.080   4.559   3.159
 2116SOL     OW 7246   0.106   4.736   3.214
 2116SOL    HW1 7247   0.092   4.655   3.271
 2116SOL    HW2 7248   0.068   4.816   3.260
 2117SOL     OW 7249   0.248   4.889   1.146
 2117SOL    HW1 7250   0.316   4.824   1.111
 2117SOL    HW2 7251   0.219   4.949   1.071
 2118SOL     OW 7252   0.188   3.589   2.344
 2118SOL    HW1 7253   0.252   3.648   2.394
 2118SOL    HW2 7254   0.169   3.629   2.254
 2119SOL     OW 7255   2.362   5.501   0.947
 2119SOL    HW1 7256   2.458   5.522   0.965
 2119SOL    HW2 7257   2.311   5.501   1.033
 2120SOL     OW 7258   6.769   5.384   3.540
 2120SOL    HW1 7259   6.753   5.424   3.450
 2120SOL    HW2 7260   6.697   5.414   3.603
 2121SOL     OW 7261   1.019   4.510   5.869
 2121SOL    HW1 7262   1.080   4.444   5.824
 2121SOL    HW2 7263   1.024   4.598   5.821
 2122SOL     OW 7264   5.879   4.332   5.643
 2122SOL    HW1 7265   5.932   4.303   5.563
 2122SOL    HW2 7266   5.783   4.306   5.631
 2123SOL     OW 7267   0.198   4.444   2.529
 2123SOL    HW1 7268   0.099   4.436   2.540
 2123SOL    HW2 7269   0.243   4.422   2.615
 2124SOL     OW 7270   2.314   1.063   1.606
 2124SOL    HW1 7271   2.307   1.153   1.563
 2124SOL    HW2 7272   2.223   1.030   1.629
 2125SOL     OW 7273   1.526   0.091   0.470
 2125SOL    HW1 7274   1.475   0.052   0.546
 2125SOL    HW2 7275   1.566   0.018   0.415
 2126SOL     OW 7276   3.132   0.769   1.132
 2126SOL    HW1 7277   3.117   0.675   1.103
 2126SOL    HW2 7278   3.043   0.816   1.138
 2127SOL     OW 7279   6.148   3.314   4.569
 2127SOL    HW1 7280   6.204   3.297   4.488
 2127SOL    HW2 7281   6.083   3.388   4.549
 2128SOL     OW 7282   6.909   3.754   4.743
 2128SOL    HW1 7283   6.972   3.778   4.816
 2128SOL    HW2 7284   6.872   3.837   4.701
 2129SOL     OW 7285   4.452   2.962   5.314
 2129SOL    HW1 7286   4.371   2.911   5.285
 2129SOL    HW2 7287   4.488   2.924   5.399
 2130SOL     OW 7288   4.887   0.075   3.043
 2130SOL    HW1 7289   4.916   7.015   3.088
 2130SOL    HW2 7290   4.881   0.060   2.944
 2131SOL     OW 7291   6.855   0.809   1.245
 2131SOL    HW1 7292   6.950   0.828   1.222
 2131SOL    HW2 7293   6.837   0.711   1.230
 2132SOL     OW 7294   4.427   2.551   1.480
 2132SOL    HW1 7295   4.420   2.531   1.382
 2132SOL    HW2 7296   4.453   2.468   1.529
 2133SOL     OW 7297   2.811   3.045   5.680
 2133SOL    HW1 7298   2.802   3.035   5.581
 2133SOL    HW2 7299   2.903   3.019   5.708
 2134SOL     OW 7300   0.505   2.325   0.846
 2134SOL    HW1 7301   0.522   2.239   0.799
 2134SOL    HW2 7302   0.593   2.372   0.861
 2135SOL     OW 7303   0.987   4.248   4.657
 2135SOL    HW1 7304   1.067   4.237   4.715
 2135SOL    HW2 7305   0.970   4.164   4.606
 2136SOL     OW 7306   2.365   4.926   2.626
 2136SOL    HW1 7307   2.379   4.981   2.544
 2136SOL    HW2 7308   2.298   4.972   2.685
 2137SOL     OW 7309   2.886   5.065   5.482
 2137SOL    HW1 7310   2.901   5.164   5.492
 2137SOL    HW2 7311   2.963   5.025   5.432
 2138SOL     OW 7312   5.930   0.184   2.637
 2138SOL    HW1 7313   5.890   0.095   2.660
 2138SOL    HW2 7314   5.993   0.173   2.560
 2139SOL     OW 7315   3.867   0.571   4.315
 2139SOL    HW1 7316   3.920   0.656   4.312
 2139SOL    HW2 7317   3.924   0.498   4.353
 2140SOL     OW 7318   3.013   6.254   4.160
 2140SOL    HW1 7319   2.967   6.338   4.190
 2140SOL    HW2 7320   2.990   6.179   4.222
 2141SOL     OW 7321   6.451   3.040   2.098
 2141SOL    HW1 7322   6.393   2.985   2.159
 2141SOL    HW2 7323   6.416   3.034   2.004
 2142SOL     OW 7324   0.278   1.720   3.514
 2142SOL    HW1 7325   0.316   1.703   3.424
 2142SOL    HW2 7326   0.286   1.818   3.536
 2143SOL     OW 7327   2.042   4.964   0.885
 2143SOL    HW1 7328   2.036   4.873   0.927
 2143SOL    HW2 7329   2.046   5.034   0.955
 2144SOL     OW 7330   0.757   5.138   4.604
 2144SOL    HW1 7331   0.717   5.066   4.661
 2144SOL    HW2 7332   0.807   5.202   4.662
 2145SOL     OW 7333   4.230   6.804   4.107
 2145SOL    HW1 7334   4.228   6.734   4.036
 2145SOL    HW2 7335   4.156   6.787   4.173
 2146SOL     OW 7336   2.165   2.141   1.046
 2146SOL    HW1 7337   2.216   2.112   1.126
 2146SOL    HW2 7338   2.104   2.068   1.016
 2147SOL     OW 7339   6.495   1.477   6.684
 2147SOL    HW1 7340   6.536   1.387   6.668
 2147SOL    HW2 7341   6.404   1.479   6.644
 2148SOL     OW 7342   6.776   3.416   6.729
 2148SOL    HW1 7343   6.813   3.432   6.820
 2148SOL    HW2 7344   6.699   3.478   6.712
 2149SOL     OW 7345   1.717   1.455   1.157
 2149SOL    HW1 7346   1.622   1.484   1.165
 2149SOL    HW2 7347   1.729   1.366   1.201
 2150SOL     OW 7348   2.809   1.988   1.627
 2150SOL    HW1 7349   2.781   1.911   1.684
 2150SOL    HW2 7350   2.877   2.043   1.674
 2151SOL     OW 7351   0.975   6.519   6.718
 2151SOL    HW1 7352   0.899   6.584   6.716
 2151SOL    HW2 7353   0.956   6.447   6.785
 2152SOL     OW 7354   4.184   4.869   2.399
 2152SOL    HW1 7355   4.264   4.900   2.347
 2152SOL    HW2 7356   4.103   4.919   2.367
 2153SOL     OW 7357   5.195   1.677   2.036
 2153SOL    HW1 7358   5.235   1.634   1.955
 2153SOL    HW2 7359   5.101   1.644   2.049
 2154SOL     OW 7360   2.471   0.122   4.072
 2154SOL    HW1 7361   2.531   0.167   4.138
 2154SOL    HW2 7362   2.525   0.092   3.993
 2155SOL     OW 7363   4.114   6.797   1.097
 2155SOL    HW1 7364   4.096   6.732   1.170
 2155SOL    HW2 7365   4.096   6.754   1.008
 2156SOL     OW 7366   6.894   0.067   4.799
 2156SOL    HW1 7367   6.839   0.047   4.880
 2156SOL    HW2 7368   6.985   0.099   4.828
 2157SOL     OW 7369   4.943   5.873   3.865
 2157SOL    HW1 7370   4.924   5.908   3.957
 2157SOL    HW2 7371   4.920   5.942   3.797
 2158SOL     OW 7372   3.763   5.507   0.659
 2158SOL    HW1 7373   3.752   5.442   0.585
 2158SOL    HW2 7374   3.673   5.532   0.696
 2159SOL     OW 7375   1.654   0.441   5.275
 2159SOL    HW1 7376   1.627   0.446   5.179
 2159SOL    HW2 7377   1.634   0.529   5.320
 2160SOL     OW 7378   5.338   4.982   6.406
 2160SOL    HW1 7379   5.376   4.910   6.349
 2160SOL    HW2 7380   5.239   4.987   6.392
 2161SOL     OW 7381   6.506   4.121   1.940
 2161SOL    HW1 7382   6.533   4.051   2.005
 2161SOL    HW2 7383   6.541   4.099   1.850
 2162SOL     OW 7384   2.515   6.867   3.028
 2162SOL    HW1 7385   2.563   6.913   2.953
 2162SOL    HW2 7386   2.563   6.885   3.114
 2163SOL     OW 7387   1.743   4.225   0.836
 2163SOL    HW1 7388   1.728   4.293   0.764
 2163SOL    HW2 7389   1.714   4.135   0.803
 2164SOL     OW 7390   2.537   2.322   6.800
 2164SOL    HW1 7391   2.461   2.349   6.740
 2164SOL    HW2 7392   2.554   2.395   6.866
 2165SOL     OW 7393   0.724   2.150   3.953
 2165SOL    HW1 7394   0.636   2.115   3.921
 2165SOL    HW2 7395   0.711   2.195   4.042
 2166SOL     OW 7396   0.584   3.529   4.693
 2166SOL    HW1 7397   0.598   3.450   4.635
 2166SOL    HW2 7398   0.614   3.612   4.646
 2167SOL     OW 7399   0.160   3.194   3.965
 2167SOL    HW1 7400   0.072   3.233   3.991
 2167SOL    HW2 7401   0.148   3.131   3.888
 2168SOL     OW 7402   1.017   1.624   2.779
 2168SOL    HW1 7403   1.047   1.719   2.772
 2168SOL    HW2 7404   0.951   1.603   2.707
 2169SOL     OW 7405   0.174   0.573   0.992
 2169SOL    HW1 7406   0.231   0.597   0.913
 2169SOL    HW2 7407   0.220   0.501   1.045
 2170SOL     OW 7408   6.814   4.033   4.834
 2170SOL    HW1 7409   6.768   4.036   4.746
 2170SOL    HW2 7410   6.767   3.968   4.894
 2171SOL     OW 7411   0.807   5.318   1.585
 2171SOL    HW1 7412   0.780   5.391   1.522
 2171SOL    HW2 7413   0.876   5.261   1.542
 2172SOL     OW 7414   2.080   2.099   5.837
 2172SOL    HW1 7415   1.988   2.114   5.872
 2172SOL    HW2 7416   2.146   2.148   5.893
 2173SOL     OW 7417   4.476   0.387   5.766
 2173SOL    HW1 7418   4.574   0.404   5.755
 2173SOL    HW2 7419   4.435   0.372   5.676
 2174SOL     OW 7420   6.677   6.457   5.169
 2174SOL    HW1 7421   6.649   6.441   5.263
 2174SOL    HW2 7422   6.777   6.467   5.165
 2175SOL     OW 7423   1.547   2.951   4.852
 2175SOL    HW1 7424   1.647   2.946   4.856
 2175SOL    HW2 7425   1.515   2.911   4.766
 2176SOL     OW 7426   5.074   1.447   1.298
 2176SOL    HW1 7427   5.131   1.485   1.225
 2176SOL    HW2 7428   4.983   1.487   1.295
 2177SOL     OW 7429   6.613   0.545   2.363
 2177SOL    HW1 7430   6.677   0.566   2.289
 2177SOL    HW2 7431   6.527   0.595   2.348
 2178SOL     OW 7432   1.100   1.387   2.421
 2178SOL    HW1 7433   1.128   1.423   2.510
 2178SOL    HW2 7434   1.172   1.404   2.354
 2179SOL     OW 7435   2.046   3.140   6.322
 2179SOL    HW1 7436   1.982   3.172   6.252
 2179SOL    HW2 7437   2.104   3.069   6.284
 2180SOL     OW 7438   1.528   3.039   2.380
 2180SOL    HW1 7439   1.501   2.943   2.367
 2180SOL    HW2 7440   1.548   3.055   2.476
 2181SOL     OW 7441   4.491   5.023   4.282
 2181SOL    HW1 7442   4.567   5.030   4.218
 2181SOL    HW2 7443   4.430   5.102   4.272
 2182SOL     OW 7444   1.028   5.059   3.837
 2182SOL    HW1 7445   1.100   4.991   3.846
 2182SOL    HW2 7446   1.003   5.093   3.928
 2183SOL     OW 7447   2.512   4.091   0.176
 2183SOL    HW1 7448   2.422   4.052   0.157
 2183SOL    HW2 7449   2.524   4.102   0.274
 2184SOL     OW 7450   4.177   6.895   6.368
 2184SOL    HW1 7451   4.270   6.922   6.344
 2184SOL    HW2 7452   4.148   6.946   6.449
 2185SOL     OW 7453   1.147   1.237   6.580
 2185SOL    HW1 7454   1.069   1.299   6.582
 2185SOL    HW2 7455   1.170   1.215   6.485
 2186SOL     OW 7456   6.082   6.029   6.440
 2186SOL    HW1 7457   6.112   6.071   6.526
 2186SOL    HW2 7458   6.157   6.031   6.374
 2187SOL     OW 7459   6.884   6.509   2.444
 2187SOL    HW1 7460   6.821   6.476   2.515
 2187SOL    HW2 7461   6.831   6.539   2.364
 2188SOL     OW 7462   1.705   5.192   5.805
 2188SOL    HW1 7463   1.716   5.243   5.720
 2188SOL    HW2 7464   1.787   5.204   5.862
 2189SOL     OW 7465   1.720   0.305   1.878
 2189SOL    HW1 7466   1.671   0.371   1.821
 2189SOL    HW2 7467   1.757   0.232   1.820
 2190SOL     OW 7468   6.914   3.053   1.738
 2190SOL    HW1 7469   6.964   2.991   1.677
 2190SOL    HW2 7470   6.820   3.064   1.706
 2191SOL     OW 7471   2.664   1.331   5.661
 2191SOL    HW1 7472   2.756   1.345   5.624
 2191SOL    HW2 7473   2.613   1.417   5.657
 2192SOL     OW 7474   5.199   0.255   2.940
 2192SOL    HW1 7475   5.135   0.309   2.994
 2192SOL    HW2 7476   5.151   0.215   2.862
 2193SOL     OW 7477   6.977   0.362   6.412
 2193SOL    HW1 7478   7.023   0.373   6.500
 2193SOL    HW2 7479   6.973   0.265   6.387
 2194SOL     OW 7480   1.519   3.967   6.289
 2194SOL    HW1 7481   1.463   4.050   6.286
 2194SOL    HW2 7482   1.614   3.992   6.304
 2195SOL     OW 7483   0.079   6.558   5.315
 2195SOL    HW1 7484   0.007   6.571   5.382
 2195SOL    HW2 7485   0.157   6.616   5.338
 2196SOL     OW 7486   2.966   6.429   4.754
 2196SOL    HW1 7487   3.013   6.489   4.690
 2196SOL    HW2 7488   2.871   6.457   4.765
 2197SOL     OW 7489   3.034   3.467   6.480
 2197SOL    HW1 7490   2.993   3.387   6.435
 2197SOL    HW2 7491   2.988   3.483   6.567
 2198SOL     OW 7492   6.332   0.170   1.253
 2198SOL    HW1 7493   6.404   0.227   1.293
 2198SOL    HW2 7494   6.353   0.154   1.156
 2199SOL     OW 7495   5.251   0.157   4.635
 2199SOL    HW1 7496   5.212   0.073   4.672
 2199SOL    HW2 7497   5.342   0.139   4.598
 2200SOL     OW 7498   2.388   1.658   3.701
 2200SOL    HW1 7499   2.390   1.655   3.601
 2200SOL    HW2 7500   2.354   1.746   3.732
 2201SOL     OW 7501   6.395   2.663   2.542
 2201SOL    HW1 7502   6.428   2.757   2.529
 2201SOL    HW2 7503   6.360   2.654   2.635
 2202SOL     OW 7504   3.404   5.822   2.032
 2202SOL    HW1 7505   3.320   5.854   2.075
 2202SOL    HW2 7506   3.442   5.745   2.085
 2203SOL     OW 7507   2.895   3.274   1.277
 2203SOL    HW1 7508   2.875   3.355   1.332
 2203SOL    HW2 7509   2.920   3.198   1.337
 2204SOL     OW 7510   4.219   2.542   0.856
 2204SOL    HW1 7511   4.188   2.548   0.951
 2204SOL    HW2 7512   4.310   2.501   0.853
 2205SOL     OW 7513   1.272   0.026   0.220
 2205SOL    HW1 7514   1.308   7.013   0.135
 2205SOL    HW2 7515   1.321   0.110   0.243
 2206SOL     OW 7516   2.519   4.594   5.761
 2206SOL    HW1 7517   2.528   4.495   5.746
 2206SOL    HW2 7518   2.586   4.642   5.704
 2207SOL     OW 7519   3.434   4.499   0.006
 2207SOL    HW1 7520   3.428   4.412   0.054
 2207SOL    HW2 7521   3.450   4.481   6.933
 2208SOL     OW 7522   1.005   5.093   2.789
 2208SOL    HW1 7523   0.908   5.078   2.770
 2208SOL    HW2 7524   1.015   5.140   2.877
 2209SOL     OW 7525   2.563   6.851   4.838
 2209SOL    HW1 7526   2.609   6.795   4.768
 2209SOL    HW2 7527   2.471   6.874   4.807
 2210SOL     OW 7528   6.657   5.375   2.865
 2210SOL    HW1 7529   6.687   5.432   2.789
 2210SOL    HW2 7530   6.561   5.349   2.852
 2211SOL     OW 7531   6.684   0.869   0.475
 2211SOL    HW1 7532   6.621   0.793   0.461
 2211SOL    HW2 7533   6.644   0.934   0.540
 2212SOL     OW 7534   1.545   5.775   0.247
 2212SOL    HW1 7535   1.531   5.721   0.331
 2212SOL    HW2 7536   1.570   5.714   0.172
 2213SOL     OW 7537   4.006   2.564   5.656
 2213SOL    HW1 7538   3.926   2.579   5.598
 2213SOL    HW2 7539   3.987   2.488   5.719
 2214SOL     OW 7540   3.108   3.351   4.991
 2214SOL    HW1 7541   3.081   3.435   4.944
 2214SOL    HW2 7542   3.034   3.322   5.051
 2215SOL     OW 7543   6.009   0.890   6.592
 2215SOL    HW1 7544   5.972   0.907   6.683
 2215SOL    HW2 7545   5.935   0.893   6.525
 2216SOL     OW 7546   0.238   6.973   5.846
 2216SOL    HW1 7547   0.305   0.021   5.827
 2216SOL    HW2 7548   0.277   6.909   5.913
 2217SOL     OW 7549   4.724   0.344   2.832
 2217SOL    HW1 7550   4.657   0.417   2.822
 2217SOL    HW2 7551   4.790   0.349   2.758
 2218SOL     OW 7552   6.795   5.154   0.245
 2218SOL    HW1 7553   6.836   5.226   0.189
 2218SOL    HW2 7554   6.811   5.065   0.203
 2219SOL     OW 7555   5.999   1.787   0.934
 2219SOL    HW1 7556   6.018   1.704   0.883
 2219SOL    HW2 7557   6.053   1.788   1.018
 2220SOL     OW 7558   1.739   5.576   5.721
 2220SOL    HW1 7559   1.683   5.638   5.666
 2220SOL    HW2 7560   1.696   5.562   5.810
 2221SOL     OW 7561   6.438   1.354   4.968
 2221SOL    HW1 7562   6.438   1.343   5.067
 2221SOL    HW2 7563   6.406   1.445   4.944
 2222SOL     OW 7564   6.160   0.513   0.878
 2222SOL    HW1 7565   6.165   0.444   0.805
 2222SOL    HW2 7566   6.193   0.474   0.963
 2223SOL     OW 7567   5.795   0.910   6.419
 2223SOL    HW1 7568   5.838   0.926   6.331
 2223SOL    HW2 7569   5.725   0.839   6.410
 2224SOL     OW 7570   6.136   3.681   1.338
 2224SOL    HW1 7571   6.157   3.598   1.390
 2224SOL    HW2 7572   6.087   3.656   1.254
 2225SOL     OW 7573   6.351   6.739   3.525
 2225SOL    HW1 7574   6.266   6.738   3.577
 2225SOL    HW2 7575   6.424   6.700   3.580
 2226SOL     OW 7576   3.547   5.368   1.294
 2226SOL    HW1 7577   3.495   5.335   1.216
 2226SOL    HW2 7578   3.644   5.349   1.280
 2227SOL     OW 7579   5.407   2.453   1.240
 2227SOL    HW1 7580   5.406   2.397   1.323
 2227SOL    HW2 7581   5.315   2.458   1.201
 2228SOL     OW 7582   3.816   4.885   0.193
 2228SOL    HW1 7583   3.839   4.898   0.096
 2228SOL    HW2 7584   3.723   4.918   0.210
 2229SOL     OW 7585   3.853   3.064   5.308
 2229SOL    HW1 7586   3.789   2.992   5.281
 2229SOL    HW2 7587   3.812   3.153   5.286
 2230SOL     OW 7588   5.238   6.671   0.867
 2230SOL    HW1 7589   5.147   6.690   0.906
 2230SOL    HW2 7590   5.308   6.716   0.923
 2231SOL     OW 7591   0.019   0.556   0.432
 2231SOL    HW1 7592   0.002   0.472   0.381
 2231SOL    HW2 7593   6.996   0.632   0.387
 2232SOL     OW 7594   1.390   1.363   4.959
 2232SOL    HW1 7595   1.373   1.364   4.860
 2232SOL    HW2 7596   1.424   1.273   4.985
 2233SOL     OW 7597   2.590   2.824   0.667
 2233SOL    HW1 7598   2.620   2.772   0.747
 2233SOL    HW2 7599   2.551   2.911   0.696
 2234SOL     OW 7600   3.522   1.399   1.066
 2234SOL    HW1 7601   3.558   1.420   0.976
 2234SOL    HW2 7602   3.470   1.313   1.062
 2235SOL     OW 7603   2.527   6.981   1.570
 2235SOL    HW1 7604   2.529   0.033   1.505
 2235SOL    HW2 7605   2.457   6.998   1.639
 2236SOL     OW 7606   1.738   3.737   6.009
 2236SOL    HW1 7607   1.795   3.714   5.930
 2236SOL    HW2 7608   1.693   3.826   5.993
 2237SOL     OW 7609   5.909   4.365   4.233
 2237SOL    HW1 7610   5.939   4.320   4.149
 2237SOL    HW2 7611   5.987   4.411   4.275
 2238SOL     OW 7612   4.694   5.327   2.580
 2238SOL    HW1 7613   4.701   5.354   2.484
 2238SOL    HW2 7614   4.736   5.238   2.593
 2239SOL     OW 7615   4.622   5.975   3.928
 2239SOL    HW1 7616   4.562   5.940   3.856
 2239SOL    HW2 7617   4.639   5.902   3.994
 2240SOL     OW 7618   3.350   5.151   2.636
 2240SOL    HW1 7619   3.432   5.124   2.585
 2240SOL    HW2 7620   3.298   5.218   2.582
 2241SOL     OW 7621   6.782   6.561   2.180
 2241SOL    HW1 7622   6.870   6.530   2.142
 2241SOL    HW2 7623   6.718   6.578   2.106
 2242SOL     OW 7624   4.868   3.227   2.284
 2242SOL    HW1 7625   4.791   3.199   2.227
 2242SOL    HW2 7626   4.900   3.317   2.254
 2243SOL     OW 7627   1.628   6.801   6.882
 2243SOL    HW1 7628   1.528   6.809   6.889
 2243SOL    HW2 7629   1.671   6.862   6.949
 2244SOL     OW 7630   2.863   6.960   1.928
 2244SOL    HW1 7631   2.914   6.913   1.856
 2244SOL    HW2 7632   2.797   6.898   1.969
 2245SOL     OW 7633   0.922   1.776   1.414
 2245SOL    HW1 7634   0.892   1.688   1.377
 2245SOL    HW2 7635   0.952   1.835   1.340
 2246SOL     OW 7636   2.324   0.736   4.289
 2246SOL    HW1 7637   2.382   0.765   4.366
 2246SOL    HW2 7638   2.313   0.637   4.291
 2247SOL     OW 7639   2.983   3.182   2.990
 2247SOL    HW1 7640   3.028   3.110   3.043
 2247SOL    HW2 7641   2.963   3.260   3.048
 2248SOL     OW 7642   6.585   3.877   4.820
 2248SOL    HW1 7643   6.551   3.786   4.797
 2248SOL    HW2 7644   6.523   3.919   4.887
 2249SOL     OW 7645   5.627   6.637   3.760
 2249SOL    HW1 7646   5.625   6.537   3.763
 2249SOL    HW2 7647   5.536   6.672   3.740
 2250SOL     OW 7648   2.949   3.843   4.926
 2250SOL    HW1 7649   3.023   3.908   4.943
 2250SOL    HW2 7650   2.892   3.877   4.851
 2251SOL     OW 7651   5.563   6.947   6.564
 2251SOL    HW1 7652   5.523   6.883   6.629
 2251SOL    HW2 7653   5.637   6.902   6.514
 2252SOL     OW 7654   4.966   1.567   2.951
 2252SOL    HW1 7655   4.876   1.599   2.922
 2252SOL    HW2 7656   4.994   1.617   3.033
 2253SOL     OW 7657   0.269   3.260   6.960
 2253SOL    HW1 7658   0.350   3.202   6.971
 2253SOL    HW2 7659   0.221   3.269   0.022
 2254SOL     OW 7660   3.662   2.872   4.031
 2254SOL    HW1 7661   3.578   2.925   4.017
 2254SOL    HW2 7662   3.735   2.911   3.975
 2255SOL     OW 7663   3.887   3.423   5.891
 2255SOL    HW1 7664   3.915   3.449   5.799
 2255SOL    HW2 7665   3.957   3.452   5.957
 2256SOL     OW 7666   5.543   6.162   2.155
 2256SOL    HW1 7667   5.613   6.213   2.106
 2256SOL    HW2 7668   5.458   6.215   2.157
 2257SOL     OW 7669   0.853   1.633   4.681
 2257SOL    HW1 7670   0.915   1.581   4.740
 2257SOL    HW2 7671   0.765   1.586   4.677
 2258SOL     OW 7672   1.452   5.498   5.013
 2258SOL    HW1 7673   1.454   5.584   4.962
 2258SOL    HW2 7674   1.425   5.424   4.952
 2259SOL     OW 7675   5.472   2.894   5.397
 2259SOL    HW1 7676   5.564   2.870   5.427
 2259SOL    HW2 7677   5.438   2.972   5.450
 2260SOL     OW 7678   0.259   3.928   1.338
 2260SOL    HW1 7679   0.205   3.850   1.306
 2260SOL    HW2 7680   0.229   4.011   1.290
 2261SOL     OW 7681   6.371   5.131   0.595
 2261SOL    HW1 7682   6.325   5.058   0.545
 2261SOL    HW2 7683   6.320   5.152   0.678
 2262SOL     OW 7684   6.084   0.168   2.883
 2262SOL    HW1 7685   6.028   0.091   2.916
 2262SOL    HW2 7686   6.044   0.254   2.915
 2263SOL     OW 7687   2.779   5.822   7.022
 2263SOL    HW1 7688   2.701   5.845   6.964
 2263SOL    HW2 7689   2.749   5.762   0.071
 2264SOL     OW 7690   3.271   5.710   6.454
 2264SOL    HW1 7691   3.306   5.656   6.377
 2264SOL    HW2 7692   3.179   5.678   6.477
 2265SOL     OW 7693   1.853   0.802   4.578
 2265SOL    HW1 7694   1.812   0.756   4.499
 2265SOL    HW2 7695   1.941   0.840   4.552
 2266SOL     OW 7696   5.320   1.518   6.558
 2266SOL    HW1 7697   5.328   1.590   6.626
 2266SOL    HW2 7698   5.274   1.439   6.599
 2267SOL     OW 7699   5.144   3.441   5.063
 2267SOL    HW1 7700   5.168   3.537   5.078
 2267SOL    HW2 7701   5.045   3.430   5.073
 2268SOL     OW 7702   6.040   4.082   6.060
 2268SOL    HW1 7703   6.107   4.120   5.997
 2268SOL    HW2 7704   6.087   4.036   6.136
 2269SOL     OW 7705   0.589   4.249   5.648
 2269SOL    HW1 7706   0.685   4.267   5.668
 2269SOL    HW2 7707   0.582   4.180   5.575
 2270SOL     OW 7708   3.937   2.584   6.336
 2270SOL    HW1 7709   3.989   2.550   6.258
 2270SOL    HW2 7710   3.847   2.540   6.337
 2271SOL     OW 7711   5.673   4.537   0.102
 2271SOL    HW1 7712   5.717   4.509   0.016
 2271SOL    HW2 7713   5.741   4.537   0.175
 2272SOL     OW 7714   5.600   1.316   0.156
 2272SOL    HW1 7715   5.684   1.276   0.193
 2272SOL    HW2 7716   5.619   1.407   0.121
 2273SOL     OW 7717   1.530   1.510   2.317
 2273SOL    HW1 7718   1.559   1.514   2.413
 2273SOL    HW2 7719   1.608   1.486   2.259
 2274SOL     OW 7720   0.819   1.088   5.827
 2274SOL    HW1 7721   0.893   1.153   5.841
 2274SOL    HW2 7722   0.825   1.015   5.895
 2275SOL     OW 7723   6.162   6.814   3.718
 2275SOL    HW1 7724   6.141   6.893   3.776
 2275SOL    HW2 7725   6.145   6.730   3.769
 2276SOL     OW 7726   2.505   5.483   1.758
 2276SOL    HW1 7727   2.565   5.449   1.686
 2276SOL    HW2 7728   2.501   5.416   1.832
 2277SOL     OW 7729   3.490   4.103   4.126
 2277SOL    HW1 7730   3.578   4.104   4.078
 2277SOL    HW2 7731   3.418   4.075   4.063
 2278SOL     OW 7732   5.932   3.491   4.557
 2278SOL    HW1 7733   5.839   3.455   4.563
 2278SOL    HW2 7734   5.942   3.569   4.618
 2279SOL     OW 7735   6.245   0.100   5.320
 2279SOL    HW1 7736   6.307   0.066   5.249
 2279SOL    HW2 7737   6.158   0.126   5.279
 2280SOL     OW 7738   6.857   0.087   4.520
 2280SOL    HW1 7739   6.868   7.020   4.479
 2280SOL    HW2 7740   6.863   0.080   4.619
 2281SOL     OW 7741   3.549   0.723   2.167
 2281SOL    HW1 7742   3.596   0.750   2.251
 2281SOL    HW2 7743   3.610   0.667   2.112
 2282SOL     OW 7744   5.739   6.752   5.488
 2282SOL    HW1 7745   5.836   6.747   5.466
 2282SOL    HW2 7746   5.704   6.660   5.505
 2283SOL     OW 7747   1.483   0.031   1.969
 2283SOL    HW1 7748   1.461   0.129   1.975
 2283SOL    HW2 7749   1.438   7.017   1.889
 2284SOL     OW 7750   1.463   3.015   6.695
 2284SOL    HW1 7751   1.409   2.975   6.769
 2284SOL    HW2 7752   1.405   3.031   6.615
 2285SOL     OW 7753   1.341   2.841   0.623
 2285SOL    HW1 7754   1.429   2.797   0.606
 2285SOL    HW2 7755   1.352   2.915   0.690
 2286SOL     OW 7756   6.007   0.019   3.310
 2286SOL    HW1 7757   5.908   0.029   3.322
 2286SOL    HW2 7758   6.051   0.014   3.399
 2287SOL     OW 7759   2.281   0.291   4.106
 2287SOL    HW1 7760   2.301   0.369   4.046
 2287SOL    HW2 7761   2.342   0.216   4.084
 2288SOL     OW 7762   6.059   5.367   3.410
 2288SOL    HW1 7763   5.967   5.352   3.373
 2288SOL    HW2 7764   6.076   5.466   3.415
 2289SOL     OW 7765   0.388   5.080   0.856
 2289SOL    HW1 7766   0.296   5.112   0.878
 2289SOL    HW2 7767   0.423   5.131   0.777
 2290SOL     OW 7768   0.844   3.418   0.720
 2290SOL    HW1 7769   0.761   3.457   0.680
 2290SOL    HW2 7770   0.820   3.337   0.774
 2291SOL     OW 7771   1.872   2.507   5.866
 2291SOL    HW1 7772   1.825   2.595   5.864
 2291SOL    HW2 7773   1.851   2.456   5.783
 2292SOL     OW 7774   1.195   1.723   4.477
 2292SOL    HW1 7775   1.106   1.691   4.446
 2292SOL    HW2 7776   1.183   1.788   4.552
 2293SOL     OW 7777   5.032   6.764   1.036
 2293SOL    HW1 7778   5.081   6.779   1.123
 2293SOL    HW2 7779   4.978   6.845   1.014
 2294SOL     OW 7780   3.197   0.621   6.886
 2294SOL    HW1 7781   3.125   0.616   6.955
 2294SOL    HW2 7782   3.279   0.574   6.920
 2295SOL     OW 7783   0.333   2.052   2.455
 2295SOL    HW1 7784   0.309   2.091   2.366
 2295SOL    HW2 7785   0.391   2.116   2.505
 2296SOL     OW 7786   3.775   5.279   0.413
 2296SOL    HW1 7787   3.869   5.265   0.383
 2296SOL    HW2 7788   3.757   5.225   0.495
 2297SOL     OW 7789   3.606   4.271   5.042
 2297SOL    HW1 7790   3.561   4.272   5.131
 2297SOL    HW2 7791   3.568   4.343   4.984
 2298SOL     OW 7792   4.063   2.996   1.860
 2298SOL    HW1 7793   4.117   2.924   1.904
 2298SOL    HW2 7794   3.967   2.983   1.884
 2299SOL     OW 7795   4.800   6.611   6.399
 2299SOL    HW1 7796   4.719   6.653   6.356
 2299SOL    HW2 7797   4.781   6.515   6.417
 2300SOL     OW 7798   2.755   4.756   1.811
 2300SOL    HW1 7799   2.819   4.707   1.871
 2300SOL    HW2 7800   2.767   4.725   1.717
 2301SOL     OW 7801   3.185   2.998   3.115
 2301SOL    HW1 7802   3.186   2.932   3.190
 2301SOL    HW2 7803   3.276   3.037   3.103
 2302SOL     OW 7804   3.554   0.037   1.470
 2302SOL    HW1 7805   3.620   0.036   1.394
 2302SOL    HW2 7806   3.554   0.128   1.512
 2303SOL     OW 7807   1.888   3.276   6.589
 2303SOL    HW1 7808   1.921   3.370   6.599
 2303SOL    HW2 7809   1.942   3.230   6.519
 2304SOL     OW 7810   3.839   0.079   3.801
 2304SOL    HW1 7811   3.896   0.096   3.881
 2304SOL    HW2 7812   3.785   0.160   3.781
 2305SOL     OW 7813   2.892   6.497   2.729
 2305SOL    HW1 7814   2.974   6.511   2.674
 2305SOL    HW2 7815   2.875   6.399   2.739
 2306SOL     OW 7816   2.520   4.966   1.641
 2306SOL    HW1 7817   2.612   4.934   1.620
 2306SOL    HW2 7818   2.455   4.891   1.630
 2307SOL     OW 7819   1.104   3.786   2.932
 2307SOL    HW1 7820   1.020   3.841   2.934
 2307SOL    HW2 7821   1.169   3.828   2.869
 2308SOL     OW 7822   1.308   6.750   0.234
 2308SOL    HW1 7823   1.286   6.838   0.192
 2308SOL    HW2 7824   1.355   6.693   0.167
 2309SOL     OW 7825   3.019   6.816   6.659
 2309SOL    HW1 7826   2.991   6.727   6.694
 2309SOL    HW2 7827   3.043   6.808   6.562
 2310SOL     OW 7828   5.403   6.493   1.214
 2310SOL    HW1 7829   5.495   6.496   1.251
 2310SOL    HW2 7830   5.359   6.582   1.226
 2311SOL     OW 7831   2.432   6.049   1.932
 2311SOL    HW1 7832   2.461   6.110   1.858
 2311SOL    HW2 7833   2.503   6.044   2.002
 2312SOL     OW 7834   3.391   6.093   3.983
 2312SOL    HW1 7835   3.439   6.019   3.935
 2312SOL    HW2 7836   3.447   6.176   3.980
 2313SOL     OW 7837   5.331   5.390   1.672
 2313SOL    HW1 7838   5.360   5.377   1.767
 2313SOL    HW2 7839   5.242   5.435   1.670
 2314SOL     OW 7840   5.973   0.719   4.866
 2314SOL    HW1 7841   5.965   0.797   4.804
 2314SOL    HW2 7842   5.984   0.635   4.813
 2315SOL     OW 7843   5.174   3.723   5.397
 2315SOL    HW1 7844   5.248   3.790   5.381
 2315SOL    HW2 7845   5.127   3.705   5.311
 2316SOL     OW 7846   3.369   0.502   4.611
 2316SOL    HW1 7847   3.375   0.526   4.514
 2316SOL    HW2 7848   3.274   0.488   4.637
 2317SOL     OW 7849   6.172   6.165   3.322
 2317SOL    HW1 7850   6.154   6.228   3.247
 2317SOL    HW2 7851   6.106   6.181   3.396
 2318SOL     OW 7852   2.377   2.819   4.740
 2318SOL    HW1 7853   2.419   2.767   4.665
 2318SOL    HW2 7854   2.340   2.905   4.703
 2319SOL     OW 7855   3.220   5.451   4.575
 2319SOL    HW1 7856   3.144   5.399   4.537
 2319SOL    HW2 7857   3.305   5.424   4.530
 2320SOL     OW 7858   1.199   2.868   4.688
 2320SOL    HW1 7859   1.197   2.965   4.664
 2320SOL    HW2 7860   1.159   2.815   4.613
 2321SOL     OW 7861   1.936   5.042   0.256
 2321SOL    HW1 7862   1.927   4.957   0.205
 2321SOL    HW2 7863   1.846   5.081   0.272
 2322SOL     OW 7864   1.976   4.062   3.248
 2322SOL    HW1 7865   2.067   4.020   3.253
 2322SOL    HW2 7866   1.926   4.043   3.333
 2323SOL     OW 7867   3.376   4.714   1.695
 2323SOL    HW1 7868   3.462   4.699   1.745
 2323SOL    HW2 7869   3.379   4.663   1.609
 2324SOL     OW 7870   6.400   5.817   0.183
 2324SOL    HW1 7871   6.424   5.722   0.200
 2324SOL    HW2 7872   6.451   5.877   0.245
 2325SOL     OW 7873   1.059   4.351   1.480
 2325SOL    HW1 7874   1.084   4.264   1.522
 2325SOL    HW2 7875   0.992   4.398   1.538
 2326SOL     OW 7876   2.538   6.020   6.601
 2326SOL    HW1 7877   2.513   6.097   6.541
 2326SOL    HW2 7878   2.580   6.056   6.685
 2327SOL     OW 7879   6.607   1.693   3.666
 2327SOL    HW1 7880   6.597   1.596   3.688
 2327SOL    HW2 7881   6.663   1.702   3.583
 2328SOL     OW 7882   1.494   1.393   2.883
 2328SOL    HW1 7883   1.448   1.307   2.904
 2328SOL    HW2 7884   1.575   1.402   2.942
 2329SOL     OW 7885   1.521   4.402   4.895
 2329SOL    HW1 7886   1.594   4.396   4.827
 2329SOL    HW2 7887   1.560   4.389   4.986
 2330SOL     OW 7888   0.411   3.145   1.744
 2330SOL    HW1 7889   0.312   3.158   1.754
 2330SOL    HW2 7890   0.446   3.211   1.678
 2331SOL     OW 7891   4.155   5.368   6.825
 2331SOL    HW1 7892   4.172   5.380   6.923
 2331SOL    HW2 7893   4.240   5.380   6.774
 2332SOL     OW 7894   6.216   0.776   4.958
 2332SOL    HW1 7895   6.124   0.781   4.921
 2332SOL    HW2 7896   6.248   0.681   4.959
 2333SOL     OW 7897   6.951   4.299   2.610
 2333SOL    HW1 7898   6.930   4.370   2.677
 2333SOL    HW2 7899   6.882   4.300   2.538
 2334SOL     OW 7900   1.556   0.594   6.859
 2334SOL    HW1 7901   1.562   0.515   6.798
 2334SOL    HW2 7902   1.630   0.658   6.839
 2335SOL     OW 7903   6.632   1.327   4.266
 2335SOL    HW1 7904   6.585   1.311   4.179
 2335SOL    HW2 7905   6.694   1.405   4.257
 2336SOL     OW 7906   3.843   1.793   4.549
 2336SOL    HW1 7907   3.854   1.801   4.450
 2336SOL    HW2 7908   3.812   1.880   4.587
 2337SOL     OW 7909   4.333   0.541   1.596
 2337SOL    HW1 7910   4.283   0.591   1.667
 2337SOL    HW2 7911   4.388   0.605   1.542
 2338SOL     OW 7912   0.523   2.940   5.130
 2338SOL    HW1 7913   0.569   2.860   5.091
 2338SOL    HW2 7914   0.578   3.022   5.111
 2339SOL     OW 7915   2.938   3.382   3.592
 2339SOL    HW1 7916   2.913   3.433   3.675
 2339SOL    HW2 7917   2.979   3.295   3.617
 2340SOL     OW 7918   6.633   4.525   6.365
 2340SOL    HW1 7919   6.557   4.560   6.420
 2340SOL    HW2 7920   6.626   4.426   6.358
 2341SOL     OW 7921   3.403   4.969   2.018
 2341SOL    HW1 7922   3.444   5.006   1.934
 2341SOL    HW2 7923   3.466   4.903   2.059
 2342SOL     OW 7924   0.998   6.444   5.606
 2342SOL    HW1 7925   1.049   6.405   5.683
 2342SOL    HW2 7926   0.935   6.375   5.570
 2343SOL     OW 7927   1.900   5.582   3.105
 2343SOL    HW1 7928   1.890   5.676   3.074
 2343SOL    HW2 7929   1.910   5.580   3.205
 2344SOL     OW 7930   1.066   5.862   6.936
 2344SOL    HW1 7931   1.026   5.772   6.954
 2344SOL    HW2 7932   1.022   5.902   6.855
 2345SOL     OW 7933   3.299   5.494   5.243
 2345SOL    HW1 7934   3.228   5.461   5.180
 2345SOL    HW2 7935   3.290   5.447   5.330
 2346SOL     OW 7936   3.922   3.360   5.409
 2346SOL    HW1 7937   3.953   3.429   5.344
 2346SOL    HW2 7938   3.842   3.313   5.372
 2347SOL     OW 7939   3.351   2.280   1.050
 2347SOL    HW1 7940   3.410   2.250   0.975
 2347SOL    HW2 7941   3.313   2.200   1.096
 2348SOL     OW 7942   2.421   6.825   4.079
 2348SOL    HW1 7943   2.340   6.878   4.101
 2348SOL    HW2 7944   2.423   6.805   3.981
 2349SOL     OW 7945   0.596   4.627   5.939
 2349SOL    HW1 7946   0.571   4.668   5.851
 2349SOL    HW2 7947   0.513   4.611   5.992
 2350SOL     OW 7948   6.022   0.381   6.624
 2350SOL    HW1 7949   5.987   0.287   6.620
 2350SOL    HW2 7950   6.059   0.398   6.715
 2351SOL     OW 7951   2.823   5.233   4.112
 2351SOL    HW1 7952   2.754   5.170   4.150
 2351SOL    HW2 7953   2.878   5.185   4.044
 2352SOL     OW 7954   0.512   4.133   2.563
 2352SOL    HW1 7955   0.463   4.049   2.540
 2352SOL    HW2 7956   0.584   4.149   2.495
 2353SOL     OW 7957   3.451   4.831   5.700
 2353SOL    HW1 7958   3.387   4.801   5.771
 2353SOL    HW2 7959   3.412   4.907   5.649
 2354SOL     OW 7960   2.921   1.541   6.000
 2354SOL    HW1 7961   3.012   1.584   6.003
 2354SOL    HW2 7962   2.917   1.479   5.922
 2355SOL     OW 7963   1.975   5.769   0.179
 2355SOL    HW1 7964   1.901   5.748   0.115
 2355SOL    HW2 7965   1.936   5.799   0.266
 2356SOL     OW 7966   1.368   3.180   6.430
 2356SOL    HW1 7967   1.434   3.248   6.461
 2356SOL    HW2 7968   1.283   3.225   6.404
 2357SOL     OW 7969   4.646   0.176   3.067
 2357SOL    HW1 7970   4.734   0.128   3.069
 2357SOL    HW2 7971   4.657   0.265   3.024
 2358SOL     OW 7972   4.105   4.886   5.111
 2358SOL    HW1 7973   4.084   4.852   5.019
 2358SOL    HW2 7974   4.084   4.815   5.178
 2359SOL     OW 7975   6.489   0.044   5.675
 2359SOL    HW1 7976   6.563   0.111   5.666
 2359SOL    HW2 7977   6.512   6.987   5.622
 2360SOL     OW 7978   5.378   4.108   0.151
 2360SOL    HW1 7979   5.366   4.034   0.217
 2360SOL    HW2 7980   5.467   4.152   0.166
 2361SOL     OW 7981   2.687   1.002   5.288
 2361SOL    HW1 7982   2.783   1.023   5.270
 2361SOL    HW2 7983   2.680   0.918   5.343
 2362SOL     OW 7984   2.442   6.562   4.095
 2362SOL    HW1 7985   2.417   6.531   4.187
 2362SOL    HW2 7986   2.445   6.662   4.093
 2363SOL     OW 7987   4.507   2.512   5.149
 2363SOL    HW1 7988   4.549   2.515   5.058
 2363SOL    HW2 7989   4.467   2.601   5.170
 2364SOL     OW 7990   1.241   1.978   3.002
 2364SOL    HW1 7991   1.266   1.930   2.917
 2364SOL    HW2 7992   1.141   1.984   3.008
 2365SOL     OW 7993   6.040   2.625   6.638
 2365SOL    HW1 7994   5.971   2.555   6.617
 2365SOL    HW2 7995   6.051   2.685   6.559
 2366SOL     OW 7996   2.445   5.166   6.603
 2366SOL    HW1 7997   2.488   5.221   6.532
 2366SOL    HW2 7998   2.457   5.069   6.582
 2367SOL     OW 7999   2.380   4.167   0.626
 2367SOL    HW1 8000   2.291   4.187   0.585
 2367SOL    HW2 8001   2.445   4.143   0.554
 2368SOL     OW 8002   4.172   0.793   4.060
 2368SOL    HW1 8003   4.150   0.697   4.041
 2368SOL    HW2 8004   4.194   0.804   4.157
 2369SOL     OW 8005   1.756   1.722   5.752
 2369SOL    HW1 8006   1.725   1.627   5.752
 2369SOL    HW2 8007   1.682   1.781   5.784
 2370SOL     OW 8008   4.810   3.744   0.126
 2370SOL    HW1 8009   4.727   3.799   0.136
 2370SOL    HW2 8010   4.890   3.804   0.127
 2371SOL     OW 8011   0.122   6.932   2.467
 2371SOL    HW1 8012   0.203   6.880   2.495
 2371SOL    HW2 8013   0.042   6.897   2.514
 2372SOL     OW 8014   0.188   2.756   2.735
 2372SOL    HW1 8015   0.236   2.828   2.685
 2372SOL    HW2 8016   0.239   2.735   2.819
 2373SOL     OW 8017   0.537   1.726   6.889
 2373SOL    HW1 8018   0.548   1.821   6.916
 2373SOL    HW2 8019   0.442   1.698   6.901
 2374SOL     OW 8020   6.273   1.260   3.127
 2374SOL    HW1 8021   6.264   1.266   3.227
 2374SOL    HW2 8022   6.183   1.245   3.086
 2375SOL     OW 8023   2.851   6.732   4.770
 2375SOL    HW1 8024   2.893   6.720   4.860
 2375SOL    HW2 8025   2.794   6.652   4.749
 2376SOL     OW 8026   6.903   2.199   4.703
 2376SOL    HW1 8027   6.871   2.279   4.652
 2376SOL    HW2 8028   6.918   2.225   4.798
 2377SOL     OW 8029   3.166   4.088   2.986
 2377SOL    HW1 8030   3.182   4.050   3.077
 2377SOL    HW2 8031   3.124   4.179   2.995
 2378SOL     OW 8032   4.841   1.639   0.590
 2378SOL    HW1 8033   4.763   1.580   0.573
 2378SOL    HW2 8034   4.903   1.595   0.655
 2379SOL     OW 8035   5.716   1.777   6.935
 2379SOL    HW1 8036   5.662   1.702   6.972
 2379SOL    HW2 8037   5.659   1.836   6.878
 2380SOL     OW 8038   0.688   0.953   6.981
 2380SOL    HW1 8039   0.709   0.969   0.053
 2380SOL    HW2 8040   0.637   0.867   6.972
 2381SOL     OW 8041   2.086   4.085   4.659
 2381SOL    HW1 8042   2.146   4.136   4.721
 2381SOL    HW2 8043   2.064   3.996   4.700
 2382SOL     OW 8044   2.512   4.557   3.679
 2382SOL    HW1 8045   2.596   4.611   3.674
 2382SOL    HW2 8046   2.442   4.601   3.623
 2383SOL     OW 8047   5.149   6.557   1.562
 2383SOL    HW1 8048   5.104   6.591   1.644
 2383SOL    HW2 8049   5.233   6.610   1.546
 2384SOL     OW 8050   5.685   0.438   2.670
 2384SOL    HW1 8051   5.738   0.498   2.729
 2384SOL    HW2 8052   5.623   0.493   2.613
 2385SOL     OW 8053   1.263   6.770   1.340
 2385SOL    HW1 8054   1.361   6.768   1.362
 2385SOL    HW2 8055   1.240   6.691   1.283
 2386SOL     OW 8056   6.293   5.736   4.520
 2386SOL    HW1 8057   6.253   5.811   4.468
 2386SOL    HW2 8058   6.219   5.677   4.555
 2387SOL     OW 8059   1.403   1.989   3.483
 2387SOL    HW1 8060   1.373   1.937   3.563
 2387SOL    HW2 8061   1.382   1.938   3.400
 2388SOL     OW 8062   0.578   2.647   4.627
 2388SOL    HW1 8063   0.621   2.595   4.553
 2388SOL    HW2 8064   0.481   2.661   4.605
 2389SOL     OW 8065   4.898   3.658   2.946
 2389SOL    HW1 8066   4.965   3.588   2.921
 2389SOL    HW2 8067   4.945   3.736   2.986
 2390SOL     OW 8068   4.103   3.679   3.121
 2390SOL    HW1 8069   4.139   3.586   3.115
 2390SOL    HW2 8070   4.178   3.744   3.112
 2391SOL     OW 8071   4.919   4.571   5.971
 2391SOL    HW1 8072   5.012   4.562   5.934
 2391SOL    HW2 8073   4.921   4.634   6.049
 2392SOL     OW 8074   4.311   6.517   4.931
 2392SOL    HW1 8075   4.383   6.561   4.985
 2392SOL    HW2 8076   4.327   6.419   4.928
 2393SOL     OW 8077   5.696   3.638   5.963
 2393SOL    HW1 8078   5.736   3.724   5.931
 2393SOL    HW2 8079   5.611   3.621   5.914
 2394SOL     OW 8080   1.290   3.429   4.608
 2394SOL    HW1 8081   1.379   3.402   4.570
 2394SOL    HW2 8082   1.218   3.406   4.543
 2395SOL     OW 8083   5.488   2.478   6.224
 2395SOL    HW1 8084   5.461   2.470   6.320
 2395SOL    HW2 8085   5.506   2.574   6.201
 2396SOL     OW 8086   3.728   4.623   1.371
 2396SOL    HW1 8087   3.717   4.670   1.459
 2396SOL    HW2 8088   3.825   4.615   1.350
 2397SOL     OW 8089   0.233   4.425   6.671
 2397SOL    HW1 8090   0.213   4.366   6.592
 2397SOL    HW2 8091   0.260   4.369   6.749
 2398SOL     OW 8092   2.639   3.474   0.198
 2398SOL    HW1 8093   2.564   3.528   0.161
 2398SOL    HW2 8094   2.627   3.378   0.174
 2399SOL     OW 8095   4.636   1.672   2.049
 2399SOL    HW1 8096   4.575   1.744   2.082
 2399SOL    HW2 8097   4.587   1.612   1.987
 2400SOL     OW 8098   3.019   4.008   0.588
 2400SOL    HW1 8099   2.967   4.015   0.503
 2400SOL    HW2 8100   3.060   4.096   0.609
 2401SOL     OW 8101   4.101   5.706   6.272
 2401SOL    HW1 8102   4.038   5.723   6.196
 2401SOL    HW2 8103   4.049   5.682   6.354
 2402SOL     OW 8104   6.847   0.682   3.401
 2402SOL    HW1 8105   6.855   0.598   3.455
 2402SOL    HW2 8106   6.752   0.695   3.372
 2403SOL     OW 8107   2.274   2.517   6.917
 2403SOL    HW1 8108   2.268   2.460   6.835
 2403SOL    HW2 8109   2.369   2.540   6.935
 2404SOL     OW 8110   3.620   1.147   0.826
 2404SOL    HW1 8111   3.719   1.148   0.814
 2404SOL    HW2 8112   3.575   1.153   0.737
 2405SOL     OW 8113   3.884   3.318   2.727
 2405SOL    HW1 8114   3.799   3.284   2.768
 2405SOL    HW2 8115   3.890   3.417   2.743
 2406SOL     OW 8116   3.104   6.475   2.567
 2406SOL    HW1 8117   3.099   6.378   2.593
 2406SOL    HW2 8118   3.128   6.483   2.470
 2407SOL     OW 8119   5.706   1.681   2.104
 2407SOL    HW1 8120   5.647   1.714   2.030
 2407SOL    HW2 8121   5.764   1.607   2.070
 2408SOL     OW 8122   3.504   5.191   3.182
 2408SOL    HW1 8123   3.455   5.194   3.270
 2408SOL    HW2 8124   3.512   5.096   3.152
 2409SOL     OW 8125   1.901   4.606   2.041
 2409SOL    HW1 8126   1.824   4.548   2.015
 2409SOL    HW2 8127   1.969   4.551   2.090
 2410SOL     OW 8128   3.770   2.776   6.026
 2410SOL    HW1 8129   3.753   2.846   5.957
 2410SOL    HW2 8130   3.866   2.779   6.054
 2411SOL     OW 8131   3.718   5.633   5.021
 2411SOL    HW1 8132   3.787   5.580   5.070
 2411SOL    HW2 8133   3.627   5.604   5.047
 2412SOL     OW 8134   4.911   5.153   1.259
 2412SOL    HW1 8135   4.945   5.112   1.343
 2412SOL    HW2 8136   4.989   5.184   1.204
 2413SOL     OW 8137   6.062   2.697   0.904
 2413SOL    HW1 8138   6.065   2.712   1.003
 2413SOL    HW2 8139   5.990   2.631   0.882
 2414SOL     OW 8140   5.118   4.540   2.592
 2414SOL    HW1 8141   5.151   4.620   2.542
 2414SOL    HW2 8142   5.050   4.492   2.537
 2415SOL     OW 8143   0.107   0.141   2.589
 2415SOL    HW1 8144   0.023   0.153   2.642
 2415SOL    HW2 8145   0.101   0.057   2.536
 2416SOL     OW 8146   4.263   1.896   5.496
 2416SOL    HW1 8147   4.200   1.824   5.467
 2416SOL    HW2 8148   4.211   1.979   5.517
 2417SOL     OW 8149   3.451   2.916   5.805
 2417SOL    HW1 8150   3.521   2.885   5.741
 2417SOL    HW2 8151   3.483   2.999   5.851
 2418SOL     OW 8152   3.029   3.251   4.124
 2418SOL    HW1 8153   2.996   3.345   4.133
 2418SOL    HW2 8154   3.064   3.219   4.211
 2419SOL     OW 8155   0.266   6.932   4.793
 2419SOL    HW1 8156   0.245   6.876   4.873
 2419SOL    HW2 8157   0.327   7.006   4.819
 2420SOL     OW 8158   2.784   1.168   2.339
 2420SOL    HW1 8159   2.872   1.194   2.301
 2420SOL    HW2 8160   2.759   1.232   2.413
 2421SOL     OW 8161   2.552   2.063   4.829
 2421SOL    HW1 8162   2.494   2.056   4.911
 2421SOL    HW2 8163   2.629   2.124   4.847
 2422SOL     OW 8164   5.806   1.425   0.890
 2422SOL    HW1 8165   5.827   1.497   0.957
 2422SOL    HW2 8166   5.717   1.385   0.911
 2423SOL     OW 8167   1.349   6.293   2.760
 2423SOL    HW1 8168   1.366   6.378   2.710
 2423SOL    HW2 8169   1.258   6.258   2.736
 2424SOL     OW 8170   6.017   6.846   6.003
 2424SOL    HW1 8171   5.995   6.868   5.908
 2424SOL    HW2 8172   6.098   6.788   6.005
 2425SOL     OW 8173   5.467   0.764   3.667
 2425SOL    HW1 8174   5.439   0.669   3.681
 2425SOL    HW2 8175   5.555   0.779   3.712
 2426SOL     OW 8176   0.796   6.234   5.161
 2426SOL    HW1 8177   0.887   6.213   5.124
 2426SOL    HW2 8178   0.727   6.219   5.090
 2427SOL     OW 8179   5.747   6.315   5.674
 2427SOL    HW1 8180   5.660   6.266   5.677
 2427SOL    HW2 8181   5.810   6.269   5.612
 2428SOL     OW 8182   6.265   0.307   2.431
 2428SOL    HW1 8183   6.358   0.296   2.396
 2428SOL    HW2 8184   6.230   0.398   2.406
 2429SOL     OW 8185   5.222   5.567   3.507
 2429SOL    HW1 8186   5.134   5.604   3.538
 2429SOL    HW2 8187   5.260   5.508   3.578
 2430SOL     OW 8188   6.121   1.584   1.169
 2430SOL    HW1 8189   6.054   1.536   1.113
 2430SOL    HW2 8190   6.099   1.571   1.266
 2431SOL     OW 8191   4.282   0.843   2.379
 2431SOL    HW1 8192   4.313   0.937   2.390
 2431SOL    HW2 8193   4.361   0.781   2.385
 2432SOL     OW 8194   3.286   6.515   2.783
 2432SOL    HW1 8195   3.367   6.460   2.761
 2432SOL    HW2 8196   3.219   6.507   2.709
 2433SOL     OW 8197   3.764   1.025   1.186
 2433SOL    HW1 8198   3.702   1.097   1.218
 2433SOL    HW2 8199   3.848   1.066   1.152
 2434SOL     OW 8200   3.979   1.128   5.616
 2434SOL    HW1 8201   4.055   1.154   5.676
 2434SOL    HW2 8202   3.941   1.210   5.574
 2435SOL     OW 8203   4.648   4.453   6.922
 2435SOL    HW1 8204   4.719   4.488   6.861
 2435SOL    HW2 8205   4.690   4.396   6.993
 2436SOL     OW 8206   1.218   5.180   0.921
 2436SOL    HW1 8207   1.297   5.202   0.864
 2436SOL    HW2 8208   1.140   5.236   0.893
 2437SOL     OW 8209   5.085   6.380   6.573
 2437SOL    HW1 8210   5.045   6.467   6.599
 2437SOL    HW2 8211   5.067   6.363   6.476
 2438SOL     OW 8212   3.209   0.933   6.799
 2438SOL    HW1 8213   3.215   0.847   6.849
 2438SOL    HW2 8214   3.130   0.985   6.830
 2439SOL     OW 8215   1.741   4.314   6.621
 2439SOL    HW1 8216   1.744   4.253   6.700
 2439SOL    HW2 8217   1.714   4.405   6.649
 2440SOL     OW 8218   4.706   6.271   5.529
 2440SOL    HW1 8219   4.699   6.267   5.629
 2440SOL    HW2 8220   4.787   6.221   5.499
 2441SOL     OW 8221   0.622   1.013   0.706
 2441SOL    HW1 8222   0.677   1.081   0.753
 2441SOL    HW2 8223   0.538   0.995   0.759
 2442SOL     OW 8224   0.945   3.344   6.123
 2442SOL    HW1 8225   0.883   3.273   6.091
 2442SOL    HW2 8226   0.919   3.432   6.083
 2443SOL     OW 8227   4.085   5.172   6.103
 2443SOL    HW1 8228   4.057   5.263   6.133
 2443SOL    HW2 8229   4.175   5.151   6.141
 2444SOL     OW 8230   2.858   4.149   6.231
 2444SOL    HW1 8231   2.921   4.088   6.184
 2444SOL    HW2 8232   2.849   4.234   6.180
 2445SOL     OW 8233   6.905   1.307   1.173
 2445SOL    HW1 8234   6.813   1.268   1.173
 2445SOL    HW2 8235   6.915   1.367   1.253
 2446SOL     OW 8236   6.158   4.624   3.947
 2446SOL    HW1 8237   6.251   4.609   3.981
 2446SOL    HW2 8238   6.105   4.540   3.955
 2447SOL     OW 8239   2.338   2.530   0.878
 2447SOL    HW1 8240   2.241   2.537   0.901
 2447SOL    HW2 8241   2.356   2.575   0.791
 2448SOL     OW 8242   0.341   0.968   4.599
 2448SOL    HW1 8243   0.419   1.014   4.557
 2448SOL    HW2 8244   0.302   1.027   4.670
 2449SOL     OW 8245   6.950   4.756   0.488
 2449SOL    HW1 8246   6.884   4.684   0.507
 2449SOL    HW2 8247   0.007   4.717   0.444
 2450SOL     OW 8248   2.337   4.603   3.467
 2450SOL    HW1 8249   2.404   4.605   3.393
 2450SOL    HW2 8250   2.259   4.660   3.441
 2451SOL     OW 8251   1.534   1.253   3.776
 2451SOL    HW1 8252   1.570   1.260   3.683
 2451SOL    HW2 8253   1.581   1.317   3.835
 2452SOL     OW 8254   1.779   3.972   2.569
 2452SOL    HW1 8255   1.846   3.902   2.544
 2452SOL    HW2 8256   1.778   4.044   2.500
 2453SOL     OW 8257   6.425   4.695   1.379
 2453SOL    HW1 8258   6.424   4.735   1.471
 2453SOL    HW2 8259   6.415   4.596   1.386
 2454SOL     OW 8260   3.242   0.857   1.574
 2454SOL    HW1 8261   3.200   0.890   1.490
 2454SOL    HW2 8262   3.215   0.762   1.591
 2455SOL     OW 8263   5.030   6.212   0.537
 2455SOL    HW1 8264   4.966   6.268   0.485
 2455SOL    HW2 8265   5.124   6.244   0.520
 2456SOL     OW 8266   5.319   6.183   1.668
 2456SOL    HW1 8267   5.337   6.214   1.574
 2456SOL    HW2 8268   5.332   6.084   1.673
 2457SOL     OW 8269   5.457   6.618   0.680
 2457SOL    HW1 8270   5.422   6.699   0.726
 2457SOL    HW2 8271   5.473   6.546   0.747
 2458SOL     OW 8272   2.262   6.089   3.253
 2458SOL    HW1 8273   2.318   6.131   3.182
 2458SOL    HW2 8274   2.287   6.128   3.342
 2459SOL     OW 8275   1.934   6.691   0.801
 2459SOL    HW1 8276   1.912   6.670   0.705
 2459SOL    HW2 8277   1.958   6.787   0.810
 2460SOL     OW 8278   2.257   0.726   1.539
 2460SOL    HW1 8279   2.291   0.662   1.470
 2460SOL    HW2 8280   2.243   0.677   1.625
 2461SOL     OW 8281   6.109   0.868   1.978
 2461SOL    HW1 8282   6.043   0.794   1.992
 2461SOL    HW2 8283   6.083   0.948   2.032
 2462SOL     OW 8284   2.678   5.607   0.165
 2462SOL    HW1 8285   2.603   5.645   0.220
 2462SOL    HW2 8286   2.642   5.574   0.078
 2463SOL     OW 8287   6.465   2.270   4.292
 2463SOL    HW1 8288   6.409   2.237   4.368
 2463SOL    HW2 8289   6.479   2.369   4.302
 2464SOL     OW 8290   0.864   4.602   0.753
 2464SOL    HW1 8291   0.853   4.653   0.839
 2464SOL    HW2 8292   0.906   4.513   0.773
 2465SOL     OW 8293   0.110   5.935   1.727
 2465SOL    HW1 8294   0.159   6.010   1.772
 2465SOL    HW2 8295   0.024   5.969   1.688
 2466SOL     OW 8296   4.068   1.491   2.590
 2466SOL    HW1 8297   3.984   1.511   2.540
 2466SOL    HW2 8298   4.072   1.550   2.671
 2467SOL     OW 8299   6.166   1.677   5.962
 2467SOL    HW1 8300   6.263   1.698   5.971
 2467SOL    HW2 8301   6.135   1.697   5.869
 2468SOL     OW 8302   7.023   5.996   2.074
 2468SOL    HW1 8303   6.992   6.019   1.982
 2468SOL    HW2 8304   6.945   5.962   2.127
 2469SOL     OW 8305   3.210   4.071   5.838
 2469SOL    HW1 8306   3.113   4.057   5.818
 2469SOL    HW2 8307   3.263   3.998   5.795
 2470SOL     OW 8308   2.994   4.310   5.960
 2470SOL    HW1 8309   3.047   4.233   5.995
 2470SOL    HW2 8310   2.958   4.363   6.036
 2471SOL     OW 8311   0.835   6.487   1.534
 2471SOL    HW1 8312   0.872   6.578   1.514
 2471SOL    HW2 8313   0.806   6.483   1.630
 2472SOL     OW 8314   5.836   1.376   4.473
 2472SOL    HW1 8315   5.766   1.378   4.545
 2472SOL    HW2 8316   5.798   1.411   4.388
 2473SOL     OW 8317   1.587   4.845   4.684
 2473SOL    HW1 8318   1.634   4.902   4.751
 2473SOL    HW2 8319   1.535   4.773   4.731
 2474SOL     OW 8320   6.581   5.284   6.095
 2474SOL    HW1 8321   6.559   5.255   6.002
 2474SOL    HW2 8322   6.575   5.205   6.156
 2475SOL     OW 8323   4.118   2.441   0.608
 2475SOL    HW1 8324   4.210   2.413   0.582
 2475SOL    HW2 8325   4.121   2.494   0.692
 2476SOL     OW 8326   0.905   1.978   3.847
 2476SOL    HW1 8327   0.850   2.057   3.875
 2476SOL    HW2 8328   0.996   1.986   3.887
 2477SOL     OW 8329   6.079   6.265   1.452
 2477SOL    HW1 8330   5.979   6.262   1.452
 2477SOL    HW2 8331   6.115   6.188   1.503
 2478SOL     OW 8332   5.923   6.207   2.534
 2478SOL    HW1 8333   5.849   6.248   2.481
 2478SOL    HW2 8334   6.008   6.255   2.513
 2479SOL     OW 8335   0.434   2.793   1.496
 2479SOL    HW1 8336   0.467   2.800   1.590
 2479SOL    HW2 8337   0.474   2.713   1.453
 2480SOL     OW 8338   6.963   2.734   0.958
 2480SOL    HW1 8339   0.027   2.742   0.911
 2480SOL    HW2 8340   6.919   2.823   0.961
 2481SOL     OW 8341   3.623   5.823   0.954
 2481SOL    HW1 8342   3.707   5.784   0.992
 2481SOL    HW2 8343   3.641   5.913   0.915
 2482SOL     OW 8344   4.779   3.188   5.467
 2482SOL    HW1 8345   4.780   3.285   5.491
 2482SOL    HW2 8346   4.810   3.177   5.372
 2483SOL     OW 8347   1.646   0.680   0.641
 2483SOL    HW1 8348   1.693   0.737   0.573
 2483SOL    HW2 8349   1.714   0.627   0.692
 2484SOL     OW 8350   1.998   0.344   1.067
 2484SOL    HW1 8351   1.988   0.423   1.006
 2484SOL    HW2 8352   2.048   0.271   1.019
 2485SOL     OW 8353   6.343   5.091   2.199
 2485SOL    HW1 8354   6.313   4.996   2.213
 2485SOL    HW2 8355   6.404   5.096   2.121
 2486SOL     OW 8356   1.897   5.871   3.831
 2486SOL    HW1 8357   1.955   5.857   3.751
 2486SOL    HW2 8358   1.942   5.933   3.895
 2487SOL     OW 8359   4.327   6.337   0.306
 2487SOL    HW1 8360   4.273   6.409   0.349
 2487SOL    HW2 8361   4.310   6.250   0.353
 2488SOL     OW 8362   2.800   3.981   1.154
 2488SOL    HW1 8363   2.726   3.936   1.204
 2488SOL    HW2 8364   2.854   3.913   1.104
 2489SOL     OW 8365   2.199   5.897   5.076
 2489SOL    HW1 8366   2.275   5.960   5.094
 2489SOL    HW2 8367   2.116   5.933   5.118
 2490SOL     OW 8368   0.222   5.064   0.524
 2490SOL    HW1 8369   0.134   5.068   0.477
 2490SOL    HW2 8370   0.287   5.125   0.479
 2491SOL     OW 8371   2.658   5.633   2.462
 2491SOL    HW1 8372   2.642   5.557   2.525
 2491SOL    HW2 8373   2.756   5.654   2.460
 2492SOL     OW 8374   4.557   3.574   6.209
 2492SOL    HW1 8375   4.475   3.578   6.267
 2492SOL    HW2 8376   4.629   3.523   6.256
 2493SOL     OW 8377   5.504   0.818   2.761
 2493SOL    HW1 8378   5.508   0.758   2.681
 2493SOL    HW2 8379   5.556   0.776   2.836
 2494SOL     OW 8380   4.657   2.574   2.437
 2494SOL    HW1 8381   4.649   2.595   2.340
 2494SOL    HW2 8382   4.696   2.653   2.485
 2495SOL     OW 8383   5.036   1.343   5.170
 2495SOL    HW1 8384   5.114   1.280   5.174
 2495SOL    HW2 8385   5.063   1.431   5.208
 2496SOL     OW 8386   1.068   5.165   0.489
 2496SOL    HW1 8387   1.050   5.231   0.563
 2496SOL    HW2 8388   1.055   5.072   0.524
 2497SOL     OW 8389   6.694   1.658   0.825
 2497SOL    HW1 8390   6.683   1.685   0.729
 2497SOL    HW2 8391   6.701   1.739   0.882
 2498SOL     OW 8392   1.995   3.213   3.243
 2498SOL    HW1 8393   1.918   3.177   3.191
 2498SOL    HW2 8394   2.080   3.172   3.209
 2499SOL     OW 8395   5.769   0.745   4.560
 2499SOL    HW1 8396   5.696   0.772   4.497
 2499SOL    HW2 8397   5.851   0.722   4.509
 2500SOL     OW 8398   4.822   3.197   6.315
 2500SOL    HW1 8399   4.782   3.184   6.405
 2500SOL    HW2 8400   4.917   3.165   6.315
 2501SOL     OW 8401   5.835   4.462   6.903
 2501SOL    HW1 8402   5.799   4.375   6.871
 2501SOL    HW2 8403   5.806   4.535   6.841
 2502SOL     OW 8404   2.299   6.515   3.354
 2502SOL    HW1 8405   2.282   6.611   3.329
 2502SOL    HW2 8406   2.212   6.465   3.356
 2503SOL     OW 8407   3.718   5.693   5.848
 2503SOL    HW1 8408   3.716   5.662   5.943
 2503SOL    HW2 8409   3.725   5.613   5.788
 2504SOL     OW 8410   1.774   4.618   4.810
 2504SOL    HW1 8411   1.757   4.617   4.909
 2504SOL    HW2 8412   1.714   4.685   4.767
 2505SOL     OW 8413   3.782   5.484   4.243
 2505SOL    HW1 8414   3.821   5.415   4.303
 2505SOL    HW2 8415   3.722   5.544   4.296
 2506SOL     OW 8416   6.482   3.256   6.226
 2506SOL    HW1 8417   6.417   3.181   6.219
 2506SOL    HW2 8418   6.437   3.336   6.266
 2507SOL     OW 8419   6.456   5.562   0.277
 2507SOL    HW1 8420   6.451   5.521   0.368
 2507SOL    HW2 8421   6.377   5.534   0.223
 2508SOL     OW 8422   2.830   2.010   2.236
 2508SOL    HW1 8423   2.844   2.024   2.138
 2508SOL    HW2 8424   2.891   2.070   2.287
 2509SOL     OW 8425   5.820   2.818   2.477
 2509SOL    HW1 8426   5.891   2.768   2.526
 2509SOL    HW2 8427   5.859   2.865   2.398
 2510SOL     OW 8428   3.097   4.891   0.392
 2510SOL    HW1 8429   3.014   4.846   0.426
 2510SOL    HW2 8430   3.164   4.822   0.365
 2511SOL     OW 8431   1.249   0.912   5.232
 2511SOL    HW1 8432   1.262   0.893   5.135
 2511SOL    HW2 8433   1.315   0.860   5.286
 2512SOL     OW 8434   4.763   4.104   4.985
 2512SOL    HW1 8435   4.841   4.167   4.984
 2512SOL    HW2 8436   4.796   4.010   4.976
 2513SOL     OW 8437   1.354   2.498   6.528
 2513SOL    HW1 8438   1.335   2.427   6.460
 2513SOL    HW2 8439   1.307   2.582   6.502
 2514SOL     OW 8440   0.677   1.405   4.485
 2514SOL    HW1 8441   0.630   1.465   4.548
 2514SOL    HW2 8442   0.720   1.330   4.536
 2515SOL     OW 8443   1.602   6.343   0.424
 2515SOL    HW1 8444   1.624   6.278   0.497
 2515SOL    HW2 8445   1.671   6.338   0.352
 2516SOL     OW 8446   6.085   6.555   3.486
 2516SOL    HW1 8447   6.112   6.599   3.401
 2516SOL    HW2 8448   6.161   6.500   3.520
 2517SOL     OW 8449   2.646   4.388   6.359
 2517SOL    HW1 8450   2.672   4.379   6.263
 2517SOL    HW2 8451   2.726   4.417   6.412
 2518SOL     OW 8452   2.305   2.815   6.430
 2518SOL    HW1 8453   2.399   2.851   6.430
 2518SOL    HW2 8454   2.263   2.834   6.519
 2519SOL     OW 8455   4.918   4.628   4.615
 2519SOL    HW1 8456   4.976   4.660   4.541
 2519SOL    HW2 8457   4.910   4.528   4.610
 2520SOL     OW 8458   2.738   3.187   1.055
 2520SOL    HW1 8459   2.783   3.114   1.004
 2520SOL    HW2 8460   2.801   3.224   1.123
 2521SOL     OW 8461   0.111   6.876   5.624
 2521SOL    HW1 8462   0.030   6.848   5.676
 2521SOL    HW2 8463   0.178   6.917   5.685
 2522SOL     OW 8464   1.353   2.797   4.340
 2522SOL    HW1 8465   1.296   2.748   4.407
 2522SOL    HW2 8466   1.354   2.746   4.254
 2523SOL     OW 8467   6.942   3.483   0.365
 2523SOL    HW1 8468   6.983   3.561   0.412
 2523SOL    HW2 8469   6.930   3.408   0.430
 2524SOL     OW 8470   1.170   6.571   4.299
 2524SOL    HW1 8471   1.086   6.578   4.244
 2524SOL    HW2 8472   1.249   6.586   4.241
 2525SOL     OW 8473   1.045   4.514   4.547
 2525SOL    HW1 8474   1.137   4.538   4.516
 2525SOL    HW2 8475   1.041   4.417   4.568
 2526SOL     OW 8476   0.285   2.034   4.276
 2526SOL    HW1 8477   0.296   2.098   4.352
 2526SOL    HW2 8478   0.238   2.080   4.200
 2527SOL     OW 8479   5.717   6.521   4.968
 2527SOL    HW1 8480   5.778   6.478   4.902
 2527SOL    HW2 8481   5.652   6.454   5.003
 2528SOL     OW 8482   6.284   5.073   0.206
 2528SOL    HW1 8483   6.234   5.042   0.125
 2528SOL    HW2 8484   6.270   5.008   0.280
 2529SOL     OW 8485   4.781   6.006   4.530
 2529SOL    HW1 8486   4.835   6.047   4.603
 2529SOL    HW2 8487   4.684   6.009   4.555
 2530SOL     OW 8488   1.055   6.351   3.596
 2530SOL    HW1 8489   1.097   6.426   3.646
 2530SOL    HW2 8490   1.055   6.373   3.498
 2531SOL     OW 8491   4.910   0.956   5.145
 2531SOL    HW1 8492   5.003   0.964   5.108
 2531SOL    HW2 8493   4.891   1.033   5.205
 2532SOL     OW 8494   1.312   5.340   0.229
 2532SOL    HW1 8495   1.343   5.260   0.177
 2532SOL    HW2 8496   1.390   5.382   0.276
 2533SOL     OW 8497   5.144   0.167   5.279
 2533SOL    HW1 8498   5.119   0.103   5.206
 2533SOL    HW2 8499   5.228   0.216   5.254
 2534SOL     OW 8500   2.158   0.433   3.713
 2534SOL    HW1 8501   2.077   0.389   3.752
 2534SOL    HW2 8502   2.225   0.450   3.784
 2535SOL     OW 8503   1.646   1.423   3.973
 2535SOL    HW1 8504   1.647   1.499   3.908
 2535SOL    HW2 8505   1.558   1.421   4.020
 2536SOL     OW 8506   6.501   1.220   4.472
 2536SOL    HW1 8507   6.415   1.269   4.460
 2536SOL    HW2 8508   6.572   1.259   4.413
 2537SOL     OW 8509   4.446   5.950   1.076
 2537SOL    HW1 8510   4.451   5.903   0.988
 2537SOL    HW2 8511   4.402   6.038   1.065
 2538SOL     OW 8512   1.679   4.714   5.097
 2538SOL    HW1 8513   1.643   4.624   5.120
 2538SOL    HW2 8514   1.619   4.784   5.135
 2539SOL     OW 8515   4.111   7.005   5.303
 2539SOL    HW1 8516   4.064   6.917   5.293
 2539SOL    HW2 8517   4.107   0.030   5.216
 2540SOL     OW 8518   5.725   1.082   2.397
 2540SOL    HW1 8519   5.707   1.181   2.391
 2540SOL    HW2 8520   5.823   1.066   2.389
 2541SOL     OW 8521   1.311   6.969   5.420
 2541SOL    HW1 8522   1.376   6.963   5.496
 2541SOL    HW2 8523   1.218   6.971   5.457
 2542SOL     OW 8524   3.731   1.886   4.024
 2542SOL    HW1 8525   3.758   1.823   3.952
 2542SOL    HW2 8526   3.787   1.969   4.019
 2543SOL     OW 8527   1.107   0.625   2.765
 2543SOL    HW1 8528   1.055   0.640   2.681
 2543SOL    HW2 8529   1.059   0.668   2.842
 2544SOL     OW 8530   0.217   5.381   1.325
 2544SOL    HW1 8531   0.165   5.450   1.376
 2544SOL    HW2 8532   0.299   5.357   1.377
 2545SOL     OW 8533   1.620   1.683   1.426
 2545SOL    HW1 8534   1.711   1.659   1.459
 2545SOL    HW2 8535   1.623   1.774   1.383
 2546SOL     OW 8536   6.170   3.792   1.841
 2546SOL    HW1 8537   6.124   3.859   1.900
 2546SOL    HW2 8538   6.264   3.821   1.825
 2547SOL     OW 8539   5.613   4.209   0.401
 2547SOL    HW1 8540   5.609   4.212   0.301
 2547SOL    HW2 8541   5.572   4.124   0.434
 2548SOL     OW 8542   0.478   0.094   5.142
 2548SOL    HW1 8543   0.418   0.160   5.185
 2548SOL    HW2 8544   0.500   0.021   5.207
 2549SOL     OW 8545   1.978   2.404   2.135
 2549SOL    HW1 8546   1.926   2.391   2.219
 2549SOL    HW2 8547   1.967   2.499   2.104
 2550SOL     OW 8548   5.686   0.212   6.939
 2550SOL    HW1 8549   5.631   0.190   6.859
 2550SOL    HW2 8550   5.651   0.162   7.018
 2551SOL     OW 8551   3.565   5.579   6.983
 2551SOL    HW1 8552   3.536   5.535   0.043
 2551SOL    HW2 8553   3.537   5.524   6.904
 2552SOL     OW 8554   1.843   4.870   6.805
 2552SOL    HW1 8555   1.873   4.778   6.831
 2552SOL    HW2 8556   1.907   4.908   6.738
 2553SOL     OW 8557   3.617   2.026   6.324
 2553SOL    HW1 8558   3.690   1.994   6.263
 2553SOL    HW2 8559   3.530   2.026   6.274
 2554SOL     OW 8560   1.792   5.732   0.652
 2554SOL    HW1 8561   1.838   5.796   0.714
 2554SOL    HW2 8562   1.732   5.672   0.704
 2555SOL     OW 8563   6.187   6.592   6.070
 2555SOL    HW1 8564   6.156   6.497   6.069
 2555SOL    HW2 8565   6.243   6.609   6.152
 2556SOL     OW 8566   3.232   6.462   1.381
 2556SOL    HW1 8567   3.248   6.518   1.299
 2556SOL    HW2 8568   3.145   6.414   1.372
 2557SOL     OW 8569   3.386   0.927   0.101
 2557SOL    HW1 8570   3.404   0.879   0.016
 2557SOL    HW2 8571   3.463   0.917   0.163
 2558SOL     OW 8572   5.553   4.661   6.144
 2558SOL    HW1 8573   5.471   4.644   6.090
 2558SOL    HW2 8574   5.581   4.576   6.190
 2559SOL     OW 8575   0.202   3.325   3.038
 2559SOL    HW1 8576   0.166   3.417   3.018
 2559SOL    HW2 8577   0.301   3.325   3.027
 2560SOL     OW 8578   5.155   3.541   3.452
 2560SOL    HW1 8579   5.182   3.526   3.547
 2560SOL    HW2 8580   5.056   3.555   3.447
 2561SOL     OW 8581   3.269   1.089   4.471
 2561SOL    HW1 8582   3.344   1.030   4.498
 2561SOL    HW2 8583   3.269   1.172   4.526
 2562SOL     OW 8584   3.369   6.356   3.180
 2562SOL    HW1 8585   3.466   6.332   3.181
 2562SOL    HW2 8586   3.352   6.431   3.243
 2563SOL     OW 8587   2.633   1.375   6.990
 2563SOL    HW1 8588   2.716   1.376   0.021
 2563SOL    HW2 8589   2.562   1.323   0.013
 2564SOL     OW 8590   2.103   0.727   0.236
 2564SOL    HW1 8591   2.186   0.680   0.264
 2564SOL    HW2 8592   2.127   0.806   0.178
 2565SOL     OW 8593   0.505   1.454   6.632
 2565SOL    HW1 8594   0.584   1.392   6.624
 2565SOL    HW2 8595   0.476   1.458   6.728
 2566SOL     OW 8596   3.190   0.581   1.614
 2566SOL    HW1 8597   3.168   0.507   1.678
 2566SOL    HW2 8598   3.117   0.591   1.547
 2567SOL     OW 8599   1.208   0.403   0.490
 2567SOL    HW1 8600   1.266   0.408   0.572
 2567SOL    HW2 8601   1.178   0.495   0.465
 2568SOL     OW 8602   2.893   6.021   1.227
 2568SOL    HW1 8603   2.861   5.935   1.269
 2568SOL    HW2 8604   2.953   6.068   1.292
 2569SOL     OW 8605   2.010   1.298   1.325
 2569SOL    HW1 8606   1.943   1.244   1.275
 2569SOL    HW2 8607   2.050   1.366   1.264
 2570SOL     OW 8608   5.067   6.060   6.986
 2570SOL    HW1 8609   5.069   6.035   6.889
 2570SOL    HW2 8610   5.063   6.160   6.994
 2571SOL     OW 8611   3.547   2.980   3.532
 2571SOL    HW1 8612   3.645   2.968   3.544
 2571SOL    HW2 8613   3.506   3.010   3.617
 2572SOL     OW 8614   2.625   5.362   1.493
 2572SOL    HW1 8615   2.612   5.295   1.566
 2572SOL    HW2 8616   2.716   5.402   1.500
 2573SOL     OW 8617   6.936   2.144   4.277
 2573SOL    HW1 8618   7.022   2.094   4.266
 2573SOL    HW2 8619   6.953   2.227   4.329
 2574SOL     OW 8620   6.692   3.100   1.237
 2574SOL    HW1 8621   6.716   3.177   1.178
 2574SOL    HW2 8622   6.637   3.035   1.186
 2575SOL     OW 8623   5.152   3.792   0.589
 2575SOL    HW1 8624   5.192   3.847   0.662
 2575SOL    HW2 8625   5.217   3.786   0.513
 2576SOL     OW 8626   2.309   0.044   3.580
 2576SOL    HW1 8627   2.351   0.132   3.560
 2576SOL    HW2 8628   2.349   6.998   3.521
 2577SOL     OW 8629   3.822   0.641   3.453
 2577SOL    HW1 8630   3.791   0.551   3.423
 2577SOL    HW2 8631   3.786   0.711   3.392
 2578SOL     OW 8632   4.689   2.392   4.692
 2578SOL    HW1 8633   4.742   2.316   4.654
 2578SOL    HW2 8634   4.594   2.362   4.706
 2579SOL     OW 8635   0.531   1.755   6.354
 2579SOL    HW1 8636   0.519   1.730   6.450
 2579SOL    HW2 8637   0.450   1.805   6.322
 2580SOL     OW 8638   1.364   2.296   6.055
 2580SOL    HW1 8639   1.268   2.272   6.040
 2580SOL    HW2 8640   1.369   2.387   6.097
 2581SOL     OW 8641   5.518   5.755   1.934
 2581SOL    HW1 8642   5.491   5.806   2.016
 2581SOL    HW2 8643   5.451   5.683   1.916
 2582SOL     OW 8644   1.316   5.454   2.729
 2582SOL    HW1 8645   1.240   5.512   2.698
 2582SOL    HW2 8646   1.294   5.359   2.709
 2583SOL     OW 8647   0.833   0.477   1.094
 2583SOL    HW1 8648   0.813   0.443   1.186
 2583SOL    HW2 8649   0.798   0.412   1.026
 2584SOL     OW 8650   3.039   6.217   0.845
 2584SOL    HW1 8651   3.078   6.273   0.919
 2584SOL    HW2 8652   3.021   6.125   0.879
 2585SOL     OW 8653   3.089   6.679   0.889
 2585SOL    HW1 8654   3.179   6.722   0.898
 2585SOL    HW2 8655   3.056   6.652   0.979
 2586SOL     OW 8656   6.066   0.881   4.641
 2586SOL    HW1 8657   6.159   0.876   4.604
 2586SOL    HW2 8658   6.015   0.953   4.594
 2587SOL     OW 8659   6.122   0.263   4.512
 2587SOL    HW1 8660   6.054   0.245   4.582
 2587SOL    HW2 8661   6.208   0.291   4.555
 2588SOL     OW 8662   5.441   0.821   1.274
 2588SOL    HW1 8663   5.398   0.835   1.364
 2588SOL    HW2 8664   5.371   0.826   1.203
 2589SOL     OW 8665   6.681   0.250   5.628
 2589SOL    HW1 8666   6.669   0.333   5.574
 2589SOL    HW2 8667   6.779   0.231   5.638
 2590SOL     OW 8668   3.624   6.794   2.537
 2590SOL    HW1 8669   3.651   6.858   2.610
 2590SOL    HW2 8670   3.656   6.703   2.560
 2591SOL     OW 8671   4.965   6.538   1.306
 2591SOL    HW1 8672   4.946   6.509   1.212
 2591SOL    HW2 8673   4.991   6.459   1.361
 2592SOL     OW 8674   3.194   5.367   1.445
 2592SOL    HW1 8675   3.128   5.369   1.520
 2592SOL    HW2 8676   3.254   5.446   1.452
 2593SOL     OW 8677   3.442   6.755   2.841
 2593SOL    HW1 8678   3.381   6.813   2.788
 2593SOL    HW2 8679   3.399   6.666   2.855
 2594SOL     OW 8680   0.190   0.608   6.289
 2594SOL    HW1 8681   0.149   0.524   6.253
 2594SOL    HW2 8682   0.290   0.601   6.285
 2595SOL     OW 8683   6.671   3.149   5.258
 2595SOL    HW1 8684   6.760   3.108   5.239
 2595SOL    HW2 8685   6.624   3.169   5.172
 2596SOL     OW 8686   3.928   2.252   1.750
 2596SOL    HW1 8687   3.900   2.235   1.655
 2596SOL    HW2 8688   3.846   2.267   1.805
 2597SOL     OW 8689   2.830   2.957   0.899
 2597SOL    HW1 8690   2.838   2.993   0.806
 2597SOL    HW2 8691   2.768   2.878   0.898
 2598SOL     OW 8692   6.576   2.660   4.526
 2598SOL    HW1 8693   6.668   2.692   4.549
 2598SOL    HW2 8694   6.536   2.615   4.605
 2599SOL     OW 8695   3.624   6.149   5.856
 2599SOL    HW1 8696   3.688   6.089   5.807
 2599SOL    HW2 8697   3.531   6.131   5.825
 2600SOL     OW 8698   4.984   3.885   3.561
 2600SOL    HW1 8699   5.034   3.865   3.646
 2600SOL    HW2 8700   4.957   3.799   3.518
 2601SOL     OW 8701   3.000   2.696   5.857
 2601SOL    HW1 8702   2.932   2.739   5.916
 2601SOL    HW2 8703   3.091   2.718   5.890
 2602SOL     OW 8704   6.847   4.938   4.803
 2602SOL    HW1 8705   6.768   4.878   4.820
 2602SOL    HW2 8706   6.841   5.018   4.862
 2603SOL     OW 8707   2.329   2.491   1.844
 2603SOL    HW1 8708   2.361   2.422   1.909
 2603SOL    HW2 8709   2.366   2.580   1.869
 2604SOL     OW 8710   5.270   0.228   0.870
 2604SOL    HW1 8711   5.248   0.293   0.943
 2604SOL    HW2 8712   5.197   0.159   0.863
 2605SOL     OW 8713   4.423   4.686   3.537
 2605SOL    HW1 8714   4.457   4.645   3.621
 2605SOL    HW2 8715   4.325   4.702   3.544
 2606SOL     OW 8716   6.855   3.982   0.930
 2606SOL    HW1 8717   6.922   3.951   0.998
 2606SOL    HW2 8718   6.899   4.043   0.865
 2607SOL     OW 8719   1.602   1.606   4.302
 2607SOL    HW1 8720   1.683   1.568   4.347
 2607SOL    HW2 8721   1.631   1.676   4.236
 2608SOL     OW 8722   5.257   0.488   1.782
 2608SOL    HW1 8723   5.265   0.514   1.878
 2608SOL    HW2 8724   5.177   0.429   1.770
 2609SOL     OW 8725   0.715   2.790   2.482
 2609SOL    HW1 8726   0.809   2.816   2.503
 2609SOL    HW2 8727   0.705   2.691   2.490
 2610SOL     OW 8728   0.150   5.675   4.814
 2610SOL    HW1 8729   0.089   5.754   4.812
 2610SOL    HW2 8730   0.114   5.604   4.754
 2611SOL     OW 8731   5.540   6.414   0.853
 2611SOL    HW1 8732   5.610   6.344   0.837
 2611SOL    HW2 8733   5.470   6.378   0.914
 2612SOL     OW 8734   6.049   6.353   4.751
 2612SOL    HW1 8735   6.057   6.324   4.847
 2612SOL    HW2 8736   5.962   6.401   4.739
 2613SOL     OW 8737   3.790   6.594   2.303
 2613SOL    HW1 8738   3.837   6.532   2.240
 2613SOL    HW2 8739   3.774   6.682   2.257
 2614SOL     OW 8740   6.562   6.834   5.541
 2614SOL    HW1 8741   6.648   6.885   5.546
 2614SOL    HW2 8742   6.560   6.780   5.457
 2615SOL     OW 8743   5.471   5.522   4.182
 2615SOL    HW1 8744   5.382   5.551   4.216
 2615SOL    HW2 8745   5.467   5.425   4.158
 2616SOL     OW 8746   3.891   3.688   3.883
 2616SOL    HW1 8747   3.910   3.779   3.847
 2616SOL    HW2 8748   3.977   3.639   3.899
 2617SOL     OW 8749   3.499   4.845   1.096
 2617SOL    HW1 8750   3.566   4.845   1.021
 2617SOL    HW2 8751   3.547   4.854   1.183
 2618SOL     OW 8752   0.155   6.407   2.759
 2618SOL    HW1 8753   0.176   6.433   2.665
 2618SOL    HW2 8754   0.181   6.481   2.821
 2619SOL     OW 8755   4.398   1.741   2.408
 2619SOL    HW1 8756   4.420   1.656   2.360
 2619SOL    HW2 8757   4.299   1.757   2.405
 2620SOL     OW 8758   1.772   5.283   3.550
 2620SOL    HW1 8759   1.749   5.321   3.461
 2620SOL    HW2 8760   1.764   5.183   3.546
 2621SOL     OW 8761   0.635   5.704   3.196
 2621SOL    HW1 8762   0.639   5.778   3.128
 2621SOL    HW2 8763   0.559   5.722   3.260
 2622SOL     OW 8764   1.885   3.013   6.080
 2622SOL    HW1 8765   1.797   3.036   6.038
 2622SOL    HW2 8766   1.948   2.981   6.009
 2623SOL     OW 8767   3.715   1.178   4.290
 2623SOL    HW1 8768   3.758   1.138   4.209
 2623SOL    HW2 8769   3.671   1.264   4.265
 2624SOL     OW 8770   6.419   3.119   2.779
 2624SOL    HW1 8771   6.401   3.074   2.866
 2624SOL    HW2 8772   6.412   3.218   2.791
 2625SOL     OW 8773   1.827   3.200   5.885
 2625SOL    HW1 8774   1.826   3.202   5.785
 2625SOL    HW2 8775   1.750   3.145   5.918
 2626SOL     OW 8776   1.128   6.372   4.040
 2626SOL    HW1 8777   1.051   6.309   4.029
 2626SOL    HW2 8778   1.138   6.396   4.137
 2627SOL     OW 8779   0.220   1.143   4.817
 2627SOL    HW1 8780   0.155   1.209   4.854
 2627SOL    HW2 8781   0.224   1.064   4.877
 2628SOL     OW 8782   3.733   6.300   6.564
 2628SOL    HW1 8783   3.810   6.345   6.518
 2628SOL    HW2 8784   3.673   6.259   6.497
 2629SOL     OW 8785   3.725   3.837   1.737
 2629SOL    HW1 8786   3.789   3.791   1.799
 2629SOL    HW2 8787   3.763   3.926   1.711
 2630SOL     OW 8788   3.535   2.038   2.206
 2630SOL    HW1 8789   3.574   2.057   2.296
 2630SOL    HW2 8790   3.576   2.098   2.138
 2631SOL     OW 8791   5.157   6.868   4.317
 2631SOL    HW1 8792   5.092   6.803   4.356
 2631SOL    HW2 8793   5.197   6.830   4.234
 2632SOL     OW 8794   3.349   2.411   0.127
 2632SOL    HW1 8795   3.324   2.346   0.055
 2632SOL    HW2 8796   3.335   2.504   0.094
 2633SOL     OW 8797   5.853   2.402   6.456
 2633SOL    HW1 8798   5.756   2.425   6.444
 2633SOL    HW2 8799   5.865   2.356   6.545
 2634SOL     OW 8800   1.801   4.434   2.517
 2634SOL    HW1 8801   1.822   4.337   2.501
 2634SOL    HW2 8802   1.840   4.462   2.605
 2635SOL     OW 8803   5.334   6.464   4.683
 2635SOL    HW1 8804   5.315   6.552   4.727
 2635SOL    HW2 8805   5.402   6.477   4.611
 2636SOL     OW 8806   5.830   0.861   0.098
 2636SOL    HW1 8807   5.803   0.771   0.131
 2636SOL    HW2 8808   5.817   0.865   7.024
 2637SOL     OW 8809   6.582   0.743   3.330
 2637SOL    HW1 8810   6.636   0.824   3.306
 2637SOL    HW2 8811   6.569   0.686   3.248
 2638SOL     OW 8812   5.801   6.983   1.621
 2638SOL    HW1 8813   5.887   6.931   1.612
 2638SOL    HW2 8814   5.820   0.047   1.663
 2639SOL     OW 8815   6.130   6.754   2.151
 2639SOL    HW1 8816   6.101   6.674   2.099
 2639SOL    HW2 8817   6.100   6.837   2.105
 2640SOL     OW 8818   6.948   6.394   5.149
 2640SOL    HW1 8819   7.019   6.438   5.203
 2640SOL    HW2 8820   6.934   6.444   5.063
 2641SOL     OW 8821   5.696   3.211   0.266
 2641SOL    HW1 8822   5.603   3.230   0.297
 2641SOL    HW2 8823   5.762   3.244   0.334
 2642SOL     OW 8824   5.793   0.789   4.244
 2642SOL    HW1 8825   5.841   0.738   4.172
 2642SOL    HW2 8826   5.737   0.860   4.202
 2643SOL     OW 8827   6.827   5.566   2.693
 2643SOL    HW1 8828   6.912   5.584   2.742
 2643SOL    HW2 8829   6.846   5.513   2.611
 2644SOL     OW 8830   0.786   4.489   5.313
 2644SOL    HW1 8831   0.717   4.432   5.357
 2644SOL    HW2 8832   0.790   4.466   5.216
 2645SOL     OW 8833   4.837   0.181   5.122
 2645SOL    HW1 8834   4.792   0.148   5.039
 2645SOL    HW2 8835   4.925   0.134   5.133
 2646SOL     OW 8836   5.917   7.007   6.223
 2646SOL    HW1 8837   5.975   6.993   6.302
 2646SOL    HW2 8838   5.947   6.948   6.148
 2647SOL     OW 8839   4.839   0.699   0.783
 2647SOL    HW1 8840   4.794   0.620   0.743
 2647SOL    HW2 8841   4.938   0.691   0.771
 2648SOL     OW 8842   6.477   6.788   2.822
 2648SOL    HW1 8843   6.569   6.779   2.861
 2648SOL    HW2 8844   6.434   6.870   2.860
 2649SOL     OW 8845   3.775   1.525   5.976
 2649SOL    HW1 8846   3.692   1.497   6.024
 2649SOL    HW2 8847   3.800   1.455   5.909
 2650SOL     OW 8848   0.342   5.117   4.064
 2650SOL    HW1 8849   0.264   5.126   4.126
 2650SOL    HW2 8850   0.382   5.207   4.047
 2651SOL     OW 8851   0.930   1.286   1.080
 2651SOL    HW1 8852   0.943   1.371   1.132
 2651SOL    HW2 8853   1.004   1.277   1.013
 2652SOL     OW 8854   3.351   2.893   3.321
 2652SOL    HW1 8855   3.390   2.890   3.413
 2652SOL    HW2 8856   3.424   2.887   3.253
 2653SOL     OW 8857   5.223   6.921   5.890
 2653SOL    HW1 8858   5.142   6.932   5.832
 2653SOL    HW2 8859   5.195   6.919   5.986
 2654SOL     OW 8860   5.166   3.091   6.284
 2654SOL    HW1 8861   5.118   3.101   6.197
 2654SOL    HW2 8862   5.189   3.182   6.320
 2655SOL     OW 8863   3.698   5.353   4.499
 2655SOL    HW1 8864   3.664   5.441   4.533
 2655SOL    HW2 8865   3.628   5.309   4.443
 2656SOL     OW 8866   5.410   4.900   4.093
 2656SOL    HW1 8867   5.498   4.866   4.124
 2656SOL    HW2 8868   5.346   4.903   4.171
 2657SOL     OW 8869   2.441   3.812   6.207
 2657SOL    HW1 8870   2.501   3.889   6.185
 2657SOL    HW2 8871   2.437   3.801   6.306
 2658SOL     OW 8872   6.179   4.721   6.435
 2658SOL    HW1 8873   6.194   4.671   6.520
 2658SOL    HW2 8874   6.089   4.765   6.437
 2659SOL     OW 8875   6.653   2.394   4.847
 2659SOL    HW1 8876   6.710   2.456   4.902
 2659SOL    HW2 8877   6.653   2.303   4.888
 2660SOL     OW 8878   6.915   2.144   1.685
 2660SOL    HW1 8879   6.911   2.197   1.769
 2660SOL    HW2 8880   7.001   2.091   1.683
 2661SOL     OW 8881   2.722   6.428   1.155
 2661SOL    HW1 8882   2.724   6.377   1.241
 2661SOL    HW2 8883   2.684   6.370   1.083
 2662SOL     OW 8884   4.326   6.577   4.624
 2662SOL    HW1 8885   4.396   6.555   4.693
 2662SOL    HW2 8886   4.247   6.516   4.636
 2663SOL     OW 8887   2.204   4.507   1.629
 2663SOL    HW1 8888   2.159   4.418   1.615
 2663SOL    HW2 8889   2.238   4.513   1.723
 2664SOL     OW 8890   3.485   3.689   3.429
 2664SOL    HW1 8891   3.390   3.656   3.431
 2664SOL    HW2 8892   3.547   3.611   3.436
 2665SOL     OW 8893   3.524   1.571   4.404
 2665SOL    HW1 8894   3.569   1.529   4.326
 2665SOL    HW2 8895   3.426   1.551   4.401
 2666SOL     OW 8896   4.516   4.659   1.237
 2666SOL    HW1 8897   4.440   4.676   1.299
 2666SOL    HW2 8898   4.602   4.659   1.288
 2667SOL     OW 8899   1.312   6.159   4.909
 2667SOL    HW1 8900   1.333   6.252   4.939
 2667SOL    HW2 8901   1.397   6.115   4.877
 2668SOL     OW 8902   6.718   3.477   4.324
 2668SOL    HW1 8903   6.778   3.462   4.402
 2668SOL    HW2 8904   6.728   3.401   4.259
 2669SOL     OW 8905   3.720   4.787   5.607
 2669SOL    HW1 8906   3.632   4.787   5.654
 2669SOL    HW2 8907   3.743   4.694   5.580
 2670SOL     OW 8908   6.970   1.158   6.785
 2670SOL    HW1 8909   6.934   1.197   6.700
 2670SOL    HW2 8910   6.895   1.118   6.838
 2671SOL     OW 8911   2.150   3.607   6.937
 2671SOL    HW1 8912   2.142   3.514   6.901
 2671SOL    HW2 8913   2.238   3.646   6.911
 2672SOL     OW 8914   1.339   5.661   6.903
 2672SOL    HW1 8915   1.267   5.728   6.882
 2672SOL    HW2 8916   1.428   5.701   6.881
 2673SOL     OW 8917   5.260   2.724   3.865
 2673SOL    HW1 8918   5.210   2.669   3.797
 2673SOL    HW2 8919   5.291   2.809   3.823
 2674SOL     OW 8920   1.855   4.536   4.437
 2674SOL    HW1 8921   1.834   4.633   4.444
 2674SOL    HW2 8922   1.953   4.521   4.449
 2675SOL     OW 8923   1.197   4.332   5.766
 2675SOL    HW1 8924   1.270   4.368   5.708
 2675SOL    HW2 8925   1.232   4.255   5.819
 2676SOL     OW 8926   4.638   1.569   2.590
 2676SOL    HW1 8927   4.634   1.641   2.520
 2676SOL    HW2 8928   4.711   1.504   2.567
 2677SOL     OW 8929   2.754   4.944   1.483
 2677SOL    HW1 8930   2.802   5.028   1.458
 2677SOL    HW2 8931   2.817   4.883   1.532
 2678SOL     OW 8932   1.060   4.738   0.223
 2678SOL    HW1 8933   0.964   4.714   0.239
 2678SOL    HW2 8934   1.071   4.770   0.129
 2679SOL     OW 8935   3.917   5.220   0.798
 2679SOL    HW1 8936   3.979   5.299   0.801
 2679SOL    HW2 8937   3.872   5.209   0.887
 2680SOL     OW 8938   1.929   1.566   0.460
 2680SOL    HW1 8939   1.976   1.598   0.542
 2680SOL    HW2 8940   1.853   1.628   0.439
 2681SOL     OW 8941   1.707   3.791   4.249
 2681SOL    HW1 8942   1.611   3.797   4.223
 2681SOL    HW2 8943   1.765   3.817   4.172
 2682SOL     OW 8944   5.831   3.070   1.862
 2682SOL    HW1 8945   5.910   3.131   1.869
 2682SOL    HW2 8946   5.812   3.029   1.951
 2683SOL     OW 8947   0.957   4.913   1.256
 2683SOL    HW1 8948   0.935   5.009   1.238
 2683SOL    HW2 8949   0.943   4.893   1.353
 2684SOL     OW 8950   4.150   5.780   2.671
 2684SOL    HW1 8951   4.216   5.837   2.622
 2684SOL    HW2 8952   4.180   5.770   2.766
 2685SOL     OW 8953   6.583   0.135   4.346
 2685SOL    HW1 8954   6.670   0.097   4.378
 2685SOL    HW2 8955   6.521   0.060   4.321
 2686SOL     OW 8956   1.609   2.216   4.009
 2686SOL    HW1 8957   1.641   2.253   4.096
 2686SOL    HW2 8958   1.669   2.248   3.935
 2687SOL     OW 8959   4.086   5.009   2.989
 2687SOL    HW1 8960   4.019   5.030   2.917
 2687SOL    HW2 8961   4.178   5.007   2.949
 2688SOL     OW 8962   3.830   5.516   5.674
 2688SOL    HW1 8963   3.881   5.435   5.645
 2688SOL    HW2 8964   3.873   5.598   5.635
 2689SOL     OW 8965   1.383   1.798   4.020
 2689SOL    HW1 8966   1.372   1.871   4.087
 2689SOL    HW2 8967   1.334   1.821   3.936
 2690SOL     OW 8968   4.165   3.403   3.662
 2690SOL    HW1 8969   4.097   3.329   3.662
 2690SOL    HW2 8970   4.131   3.480   3.608
 2691SOL     OW 8971   1.935   5.697   1.849
 2691SOL    HW1 8972   1.969   5.612   1.890
 2691SOL    HW2 8973   1.844   5.680   1.810
 2692SOL     OW 8974   6.077   5.865   3.949
 2692SOL    HW1 8975   6.088   5.792   3.882
 2692SOL    HW2 8976   6.153   5.929   3.942
 2693SOL     OW 8977   2.252   4.824   3.064
 2693SOL    HW1 8978   2.197   4.767   3.003
 2693SOL    HW2 8979   2.341   4.841   3.022
 2694SOL     OW 8980   3.151   0.330   3.319
 2694SOL    HW1 8981   3.129   0.339   3.222
 2694SOL    HW2 8982   3.159   0.420   3.361
 2695SOL     OW 8983   4.847   1.872   2.412
 2695SOL    HW1 8984   4.889   1.925   2.485
 2695SOL    HW2 8985   4.897   1.786   2.399
 2696SOL     OW 8986   3.821   2.641   5.473
 2696SOL    HW1 8987   3.726   2.608   5.471
 2696SOL    HW2 8988   3.866   2.620   5.386
 2697SOL     OW 8989   4.190   2.113   3.794
 2697SOL    HW1 8990   4.225   2.024   3.823
 2697SOL    HW2 8991   4.164   2.110   3.698
 2698SOL     OW 8992   1.209   4.662   0.640
 2698SOL    HW1 8993   1.257   4.654   0.727
 2698SOL    HW2 8994   1.190   4.571   0.603
 2699SOL     OW 8995   3.465   5.383   0.113
 2699SOL    HW1 8996   3.371   5.354   0.094
 2699SOL    HW2 8997   3.528   5.321   0.066
 2700SOL     OW 8998   1.918   3.734   2.511
 2700SOL    HW1 8999   2.004   3.696   2.477
 2700SOL    HW2 9000   1.917   3.730   2.611
 2701SOL     OW 9001   3.904   0.297   6.361
 2701SOL    HW1 9002   4.001   0.321   6.363
 2701SOL    HW2 9003   3.887   0.236   6.284
 2702SOL     OW 9004   6.391   2.060   3.195
 2702SOL    HW1 9005   6.410   1.968   3.163
 2702SOL    HW2 9006   6.416   2.126   3.125
 2703SOL     OW 9007   2.710   1.001   3.041
 2703SOL    HW1 9008   2.797   1.012   2.993
 2703SOL    HW2 9009   2.642   1.064   3.003
 2704SOL     OW 9010   1.973   5.605   1.482
 2704SOL    HW1 9011   2.051   5.603   1.544
 2704SOL    HW2 9012   1.976   5.688   1.426
 2705SOL     OW 9013   6.861   5.284   4.342
 2705SOL    HW1 9014   6.894   5.193   4.317
 2705SOL    HW2 9015   6.788   5.275   4.410
 2706SOL     OW 9016   6.800   1.173   2.066
 2706SOL    HW1 9017   6.852   1.255   2.090
 2706SOL    HW2 9018   6.836   1.095   2.118
 2707SOL     OW 9019   1.940   0.298   6.477
 2707SOL    HW1 9020   1.951   0.244   6.560
 2707SOL    HW2 9021   1.854   0.274   6.432
 2708SOL     OW 9022   2.704   2.329   1.817
 2708SOL    HW1 9023   2.793   2.369   1.840
 2708SOL    HW2 9024   2.683   2.255   1.881
 2709SOL     OW 9025   4.996   6.497   1.026
 2709SOL    HW1 9026   5.000   6.596   1.018
 2709SOL    HW2 9027   4.945   6.460   0.948
 2710SOL     OW 9028   6.602   3.778   2.619
 2710SOL    HW1 9029   6.593   3.876   2.597
 2710SOL    HW2 9030   6.698   3.755   2.633
 2711SOL     OW 9031   1.786   0.156   2.731
 2711SOL    HW1 9032   1.733   0.216   2.671
 2711SOL    HW2 9033   1.858   0.209   2.775
 2712SOL     OW 9034   3.178   4.816   6.953
 2712SOL    HW1 9035   3.157   4.835   0.024
 2712SOL    HW2 9036   3.206   4.720   6.943
 2713SOL     OW 9037   1.722   2.530   4.663
 2713SOL    HW1 9038   1.813   2.489   4.669
 2713SOL    HW2 9039   1.661   2.469   4.612
 2714SOL     OW 9040   5.392   1.730   6.822
 2714SOL    HW1 9041   5.439   1.813   6.790
 2714SOL    HW2 9042   5.308   1.757   6.871
 2715SOL     OW 9043   6.028   0.720   0.313
 2715SOL    HW1 9044   6.056   0.692   0.221
 2715SOL    HW2 9045   6.100   0.775   0.354
 2716SOL     OW 9046   0.101   6.036   1.318
 2716SOL    HW1 9047   0.012   5.991   1.315
 2716SOL    HW2 9048   0.173   5.969   1.302
 2717SOL     OW 9049   0.926   5.816   2.003
 2717SOL    HW1 9050   0.839   5.782   2.039
 2717SOL    HW2 9051   0.957   5.757   1.928
 2718SOL     OW 9052   2.331   4.310   4.212
 2718SOL    HW1 9053   2.300   4.383   4.150
 2718SOL    HW2 9054   2.303   4.221   4.176
 2719SOL     OW 9055   4.376   5.060   2.140
 2719SOL    HW1 9056   4.284   5.094   2.159
 2719SOL    HW2 9057   4.381   4.963   2.167
 2720SOL     OW 9058   1.704   5.902   3.263
 2720SOL    HW1 9059   1.683   5.991   3.222
 2720SOL    HW2 9060   1.770   5.853   3.207
 2721SOL     OW 9061   2.494   0.587   4.906
 2721SOL    HW1 9062   2.430   0.513   4.886
 2721SOL    HW2 9063   2.532   0.575   4.998
 2722SOL     OW 9064   6.957   5.701   3.157
 2722SOL    HW1 9065   7.009   5.714   3.073
 2722SOL    HW2 9066   6.870   5.656   3.136
 2723SOL     OW 9067   2.136   0.961   5.535
 2723SOL    HW1 9068   2.227   0.994   5.560
 2723SOL    HW2 9069   2.123   0.973   5.436
 2724SOL     OW 9070   3.027   5.733   5.732
 2724SOL    HW1 9071   2.957   5.671   5.698
 2724SOL    HW2 9072   3.092   5.752   5.658
 2725SOL     OW 9073   5.349   4.773   3.332
 2725SOL    HW1 9074   5.386   4.693   3.285
 2725SOL    HW2 9075   5.424   4.826   3.370
 2726SOL     OW 9076   4.727   4.831   1.794
 2726SOL    HW1 9077   4.823   4.846   1.819
 2726SOL    HW2 9078   4.679   4.786   1.869
 2727SOL     OW 9079   0.880   4.756   3.055
 2727SOL    HW1 9080   0.978   4.759   3.035
 2727SOL    HW2 9081   0.844   4.849   3.061
 2728SOL     OW 9082   3.089   0.420   4.675
 2728SOL    HW1 9083   3.028   0.374   4.740
 2728SOL    HW2 9084   3.036   0.481   4.616
 2729SOL     OW 9085   6.731   6.079   2.250
 2729SOL    HW1 9086   6.698   5.984   2.251
 2729SOL    HW2 9087   6.824   6.083   2.285
 2730SOL     OW 9088   2.112   6.880   0.961
 2730SOL    HW1 9089   2.168   6.872   1.044
 2730SOL    HW2 9090   2.022   6.916   0.986
 2731SOL     OW 9091   2.665   3.643   1.543
 2731SOL    HW1 9092   2.608   3.713   1.586
 2731SOL    HW2 9093   2.607   3.579   1.493
 2732SOL     OW 9094   5.908   3.266   2.376
 2732SOL    HW1 9095   5.915   3.202   2.300
 2732SOL    HW2 9096   5.991   3.262   2.432
 2733SOL     OW 9097   0.980   6.549   5.276
 2733SOL    HW1 9098   1.048   6.477   5.293
 2733SOL    HW2 9099   0.891   6.507   5.259
 2734SOL     OW 9100   1.560   5.725   3.395
 2734SOL    HW1 9101   1.614   5.796   3.351
 2734SOL    HW2 9102   1.601   5.702   3.484
 2735SOL     OW 9103   0.346   3.873   2.750
 2735SOL    HW1 9104   0.310   3.948   2.805
 2735SOL    HW2 9105   0.445   3.884   2.738
 2736SOL     OW 9106   4.721   0.699   5.124
 2736SOL    HW1 9107   4.647   0.731   5.183
 2736SOL    HW2 9108   4.796   0.765   5.127
 2737SOL     OW 9109   3.292   3.246   6.066
 2737SOL    HW1 9110   3.196   3.268   6.046
 2737SOL    HW2 9111   3.349   3.272   5.988
 2738SOL     OW 9112   5.176   5.644   4.278
 2738SOL    HW1 9113   5.221   5.622   4.364
 2738SOL    HW2 9114   5.173   5.744   4.266
 2739SOL     OW 9115   5.764   4.076   0.802
 2739SOL    HW1 9116   5.697   4.001   0.805
 2739SOL    HW2 9117   5.728   4.155   0.852
 2740SOL     OW 9118   6.021   2.236   2.406
 2740SOL    HW1 9119   6.033   2.171   2.331
 2740SOL    HW2 9120   5.926   2.265   2.412
 2741SOL     OW 9121   0.147   1.794   5.701
 2741SOL    HW1 9122   0.133   1.695   5.697
 2741SOL    HW2 9123   0.061   1.841   5.685
 2742SOL     OW 9124   1.254   5.448   6.276
 2742SOL    HW1 9125   1.191   5.442   6.198
 2742SOL    HW2 9126   1.201   5.461   6.360
 2743SOL     OW 9127   5.894   5.716   1.230
 2743SOL    HW1 9128   5.935   5.627   1.209
 2743SOL    HW2 9129   5.953   5.789   1.195
 2744SOL     OW 9130   4.319   1.892   6.624
 2744SOL    HW1 9131   4.252   1.965   6.605
 2744SOL    HW2 9132   4.336   1.889   6.723
 2745SOL     OW 9133   1.932   6.132   0.567
 2745SOL    HW1 9134   1.972   6.056   0.619
 2745SOL    HW2 9135   1.967   6.129   0.473
 2746SOL     OW 9136   2.068   2.917   4.838
 2746SOL    HW1 9137   2.137   2.932   4.768
 2746SOL    HW2 9138   2.071   2.821   4.868
 2747SOL     OW 9139   5.347   5.026   5.194
 2747SOL    HW1 9140   5.341   4.930   5.164
 2747SOL    HW2 9141   5.442   5.050   5.211
 2748SOL     OW 9142   3.004   1.084   3.102
 2748SOL    HW1 9143   3.101   1.109   3.107
 2748SOL    HW2 9144   2.952   1.143   3.164
 2749SOL     OW 9145   5.590   4.759   4.237
 2749SOL    HW1 9146   5.607   4.694   4.162
 2749SOL    HW2 9147   5.645   4.734   4.316
 2750SOL     OW 9148   0.521   5.099   1.706
 2750SOL    HW1 9149   0.598   5.124   1.765
 2750SOL    HW2 9150   0.485   5.011   1.735
 2751SOL     OW 9151   1.656   6.883   0.664
 2751SOL    HW1 9152   1.714   6.811   0.627
 2751SOL    HW2 9153   1.563   6.848   0.676
 2752SOL     OW 9154   4.701   6.091   5.156
 2752SOL    HW1 9155   4.686   6.068   5.060
 2752SOL    HW2 9156   4.716   6.007   5.208
 2753SOL     OW 9157   3.078   5.448   6.144
 2753SOL    HW1 9158   3.073   5.538   6.100
 2753SOL    HW2 9159   3.109   5.381   6.077
 2754SOL     OW 9160   0.033   0.137   4.029
 2754SOL    HW1 9161   0.120   0.178   4.057
 2754SOL    HW2 9162   6.985   0.172   4.087
 2755SOL     OW 9163   2.665   6.661   3.444
 2755SOL    HW1 9164   2.757   6.675   3.407
 2755SOL    HW2 9165   2.597   6.683   3.374
 2756SOL     OW 9166   6.242   4.245   4.341
 2756SOL    HW1 9167   6.333   4.279   4.364
 2756SOL    HW2 9168   6.176   4.284   4.406
 2757SOL     OW 9169   3.452   1.794   6.465
 2757SOL    HW1 9170   3.455   1.708   6.414
 2757SOL    HW2 9171   3.514   1.860   6.423
 2758SOL     OW 9172   4.933   5.694   3.593
 2758SOL    HW1 9173   4.894   5.777   3.554
 2758SOL    HW2 9174   4.887   5.673   3.680
 2759SOL     OW 9175   3.401   4.592   5.530
 2759SOL    HW1 9176   3.331   4.529   5.563
 2759SOL    HW2 9177   3.415   4.665   5.597
 2760SOL     OW 9178   6.083   6.019   2.377
 2760SOL    HW1 9179   5.989   6.053   2.374
 2760SOL    HW2 9180   6.090   5.945   2.444
 2761SOL     OW 9181   0.871   4.464   3.629
 2761SOL    HW1 9182   0.784   4.422   3.657
 2761SOL    HW2 9183   0.889   4.443   3.533
 2762SOL     OW 9184   1.199   2.238   6.932
 2762SOL    HW1 9185   1.258   2.248   6.852
 2762SOL    HW2 9186   1.112   2.285   6.916
 2763SOL     OW 9187   5.085   1.660   5.866
 2763SOL    HW1 9188   5.156   1.684   5.932
 2763SOL    HW2 9189   5.052   1.743   5.820
 2764SOL     OW 9190   0.588   4.430   3.186
 2764SOL    HW1 9191   0.668   4.446   3.128
 2764SOL    HW2 9192   0.589   4.336   3.221
 2765SOL     OW 9193   6.562   0.352   0.264
 2765SOL    HW1 9194   6.570   0.266   0.213
 2765SOL    HW2 9195   6.524   0.333   0.355
 2766SOL     OW 9196   4.085   1.178   6.917
 2766SOL    HW1 9197   4.129   1.172   6.828
 2766SOL    HW2 9198   4.101   1.093   6.968
 2767SOL     OW 9199   5.907   5.819   6.447
 2767SOL    HW1 9200   5.941   5.905   6.484
 2767SOL    HW2 9201   5.913   5.748   6.518
 2768SOL     OW 9202   3.639   0.110   0.776
 2768SOL    HW1 9203   3.625   0.016   0.745
 2768SOL    HW2 9204   3.636   0.114   0.875
 2769SOL     OW 9205   2.031   3.926   5.931
 2769SOL    HW1 9206   2.056   3.983   6.010
 2769SOL    HW2 9207   2.104   3.930   5.862
 2770SOL     OW 9208   3.507   6.538   6.104
 2770SOL    HW1 9209   3.587   6.557   6.160
 2770SOL    HW2 9210   3.505   6.442   6.078
 2771SOL     OW 9211   5.383   6.542   4.133
 2771SOL    HW1 9212   5.418   6.467   4.076
 2771SOL    HW2 9213   5.284   6.533   4.141
 2772SOL     OW 9214   3.792   0.814   2.626
 2772SOL    HW1 9215   3.888   0.798   2.603
 2772SOL    HW2 9216   3.771   0.911   2.614
 2773SOL     OW 9217   0.230   3.258   4.466
 2773SOL    HW1 9218   0.147   3.298   4.505
 2773SOL    HW2 9219   0.209   3.218   4.377
 2774SOL     OW 9220   5.155   2.295   2.862
 2774SOL    HW1 9221   5.122   2.377   2.908
 2774SOL    HW2 9222   5.165   2.221   2.928
 2775SOL     OW 9223   0.085   3.630   4.140
 2775SOL    HW1 9224   0.059   3.667   4.051
 2775SOL    HW2 9225   0.054   3.535   4.148
 2776SOL     OW 9226   5.071   5.486   0.136
 2776SOL    HW1 9227   5.157   5.515   0.095
 2776SOL    HW2 9228   5.009   5.564   0.143
 2777SOL     OW 9229   2.632   2.066   5.631
 2777SOL    HW1 9230   2.541   2.040   5.598
 2777SOL    HW2 9231   2.642   2.039   5.727
 2778SOL     OW 9232   2.886   5.740   6.513
 2778SOL    HW1 9233   2.948   5.671   6.474
 2778SOL    HW2 9234   2.838   5.787   6.438
 2779SOL     OW 9235   5.731   6.366   1.693
 2779SOL    HW1 9236   5.785   6.449   1.680
 2779SOL    HW2 9237   5.640   6.379   1.652
 2780SOL     OW 9238   0.311   0.858   6.208
 2780SOL    HW1 9239   0.265   0.932   6.257
 2780SOL    HW2 9240   0.273   0.771   6.237
 2781SOL     OW 9241   6.782   0.783   2.414
 2781SOL    HW1 9242   6.838   0.715   2.461
 2781SOL    HW2 9243   6.722   0.738   2.348
 2782SOL     OW 9244   4.275   1.056   5.797
 2782SOL    HW1 9245   4.317   0.974   5.757
 2782SOL    HW2 9246   4.311   1.071   5.889
 2783SOL     OW 9247   6.272   3.393   1.382
 2783SOL    HW1 9248   6.363   3.420   1.413
 2783SOL    HW2 9249   6.223   3.351   1.457
 2784SOL     OW 9250   2.999   1.331   2.204
 2784SOL    HW1 9251   3.058   1.404   2.170
 2784SOL    HW2 9252   3.017   1.248   2.152
 2785SOL     OW 9253   4.805   2.550   1.374
 2785SOL    HW1 9254   4.905   2.552   1.382
 2785SOL    HW2 9255   4.765   2.614   1.440
 2786SOL     OW 9256   6.664   5.325   0.810
 2786SOL    HW1 9257   6.712   5.412   0.795
 2786SOL    HW2 9258   6.566   5.343   0.821
 2787SOL     OW 9259   6.134   5.869   6.210
 2787SOL    HW1 9260   6.044   5.861   6.252
 2787SOL    HW2 9261   6.157   5.783   6.164
 2788SOL     OW 9262   3.299   6.443   5.800
 2788SOL    HW1 9263   3.268   6.445   5.895
 2788SOL    HW2 9264   3.399   6.440   5.798
 2789SOL     OW 9265   1.433   2.920   3.454
 2789SOL    HW1 9266   1.357   2.982   3.433
 2789SOL    HW2 9267   1.447   2.917   3.553
 2790SOL     OW 9268   2.540   5.058   0.472
 2790SOL    HW1 9269   2.482   5.138   0.459
 2790SOL    HW2 9270   2.534   4.999   0.392
 2791SOL     OW 9271   0.026   4.172   2.233
 2791SOL    HW1 9272   0.005   4.075   2.221
 2791SOL    HW2 9273   0.078   4.185   2.318
 2792SOL     OW 9274   3.203   0.714   4.920
 2792SOL    HW1 9275   3.172   0.624   4.951
 2792SOL    HW2 9276   3.302   0.722   4.935
 2793SOL     OW 9277   3.908   4.116   1.223
 2793SOL    HW1 9278   3.852   4.143   1.301
 2793SOL    HW2 9279   3.965   4.038   1.248
 2794SOL     OW 9280   6.567   1.235   6.585
 2794SOL    HW1 9281   6.567   1.208   6.489
 2794SOL    HW2 9282   6.532   1.160   6.641
 2795SOL     OW 9283   0.352   4.591   1.062
 2795SOL    HW1 9284   0.354   4.491   1.050
 2795SOL    HW2 9285   0.285   4.630   0.999
 2796SOL     OW 9286   0.569   5.997   5.479
 2796SOL    HW1 9287   0.596   5.992   5.383
 2796SOL    HW2 9288   0.568   5.906   5.519
 2797SOL     OW 9289   5.777   5.961   4.907
 2797SOL    HW1 9290   5.837   5.980   4.829
 2797SOL    HW2 9291   5.808   6.013   4.987
 2798SOL     OW 9292   6.420   6.851   2.454
 2798SOL    HW1 9293   6.395   6.755   2.448
 2798SOL    HW2 9294   6.400   6.885   2.545
 2799SOL     OW 9295   4.805   5.686   5.499
 2799SOL    HW1 9296   4.851   5.740   5.570
 2799SOL    HW2 9297   4.782   5.745   5.422
 2800SOL     OW 9298   5.837   0.441   0.364
 2800SOL    HW1 9299   5.773   0.425   0.440
 2800SOL    HW2 9300   5.796   0.505   0.299
 2801SOL     OW 9301   0.482   5.101   6.182
 2801SOL    HW1 9302   0.422   5.029   6.216
 2801SOL    HW2 9303   0.576   5.085   6.212
 2802SOL     OW 9304   6.206   6.553   5.580
 2802SOL    HW1 9305   6.139   6.567   5.653
 2802SOL    HW2 9306   6.219   6.455   5.564
 2803SOL     OW 9307   3.386   2.977   6.170
 2803SOL    HW1 9308   3.342   3.064   6.194
 2803SOL    HW2 9309   3.433   2.987   6.083
 2804SOL     OW 9310   0.242   2.945   3.789
 2804SOL    HW1 9311   0.201   3.022   3.741
 2804SOL    HW2 9312   0.272   2.876   3.723
 2805SOL     OW 9313   4.753   3.487   1.760
 2805SOL    HW1 9314   4.832   3.429   1.742
 2805SOL    HW2 9315   4.671   3.431   1.766
 2806SOL     OW 9316   1.898   3.846   6.218
 2806SOL    HW1 9317   1.865   3.791   6.142
 2806SOL    HW2 9318   1.906   3.941   6.189
 2807SOL     OW 9319   3.142   0.404   2.981
 2807SOL    HW1 9320   3.150   0.500   2.955
 2807SOL    HW2 9321   3.062   0.364   2.936
 2808SOL     OW 9322   6.560   5.630   0.611
 2808SOL    HW1 9323   6.500   5.710   0.608
 2808SOL    HW2 9324   6.653   5.656   0.586
 2809SOL     OW 9325   5.554   4.668   1.926
 2809SOL    HW1 9326   5.554   4.751   1.983
 2809SOL    HW2 9327   5.550   4.694   1.830
 2810SOL     OW 9328   2.372   6.168   3.480
 2810SOL    HW1 9329   2.302   6.144   3.547
 2810SOL    HW2 9330   2.423   6.247   3.512
 2811SOL     OW 9331   0.906   0.394   2.237
 2811SOL    HW1 9332   0.822   0.444   2.257
 2811SOL    HW2 9333   0.955   0.376   2.323
 2812SOL     OW 9334   0.287   3.008   0.979
 2812SOL    HW1 9335   0.350   2.995   0.902
 2812SOL    HW2 9336   0.286   3.105   1.004
 2813SOL     OW 9337   0.705   1.828   1.186
 2813SOL    HW1 9338   0.714   1.729   1.186
 2813SOL    HW2 9339   0.795   1.871   1.196
 2814SOL     OW 9340   2.411   4.215   6.813
 2814SOL    HW1 9341   2.378   4.252   6.727
 2814SOL    HW2 9342   2.429   4.289   6.877
 2815SOL     OW 9343   0.224   6.187   5.173
 2815SOL    HW1 9344   0.179   6.173   5.261
 2815SOL    HW2 9345   0.160   6.170   5.099
 2816SOL     OW 9346   6.655   6.217   5.696
 2816SOL    HW1 9347   6.739   6.165   5.698
 2816SOL    HW2 9348   6.636   6.255   5.787
 2817SOL     OW 9349   4.008   0.313   1.864
 2817SOL    HW1 9350   3.986   0.405   1.897
 2817SOL    HW2 9351   3.928   0.273   1.819
 2818SOL     OW 9352   1.953   0.956   1.381
 2818SOL    HW1 9353   1.868   1.010   1.376
 2818SOL    HW2 9354   1.991   0.963   1.473
 2819SOL     OW 9355   0.860   7.004   0.848
 2819SOL    HW1 9356   0.797   0.007   0.921
 2819SOL    HW2 9357   0.821   6.926   0.799
 2820SOL     OW 9358   0.710   2.440   2.285
 2820SOL    HW1 9359   0.631   2.461   2.228
 2820SOL    HW2 9360   0.791   2.486   2.248
 2821SOL     OW 9361   3.655   4.712   6.273
 2821SOL    HW1 9362   3.633   4.689   6.368
 2821SOL    HW2 9363   3.735   4.660   6.244
 2822SOL     OW 9364   4.027   3.018   0.995
 2822SOL    HW1 9365   4.027   3.005   1.094
 2822SOL    HW2 9366   3.940   3.058   0.966
 2823SOL     OW 9367   4.830   0.906   0.271
 2823SOL    HW1 9368   4.807   0.918   0.368
 2823SOL    HW2 9369   4.750   0.929   0.215
 2824SOL     OW 9370   1.066   3.998   5.926
 2824SOL    HW1 9371   1.124   4.080   5.925
 2824SOL    HW2 9372   1.100   3.934   5.994
 2825SOL     OW 9373   5.272   0.761   6.428
 2825SOL    HW1 9374   5.209   0.722   6.361
 2825SOL    HW2 9375   5.272   0.861   6.420
 2826SOL     OW 9376   1.225   3.357   6.283
 2826SOL    HW1 9377   1.207   3.403   6.370
 2826SOL    HW2 9378   1.139   3.334   6.239
 2827SOL     OW 9379   6.917   1.047   6.349
 2827SOL    HW1 9380   6.838   1.087   6.302
 2827SOL    HW2 9381   6.997   1.105   6.336
 2828SOL     OW 9382   1.173   3.586   1.376
 2828SOL    HW1 9383   1.255   3.590   1.434
 2828SOL    HW2 9384   1.201   3.587   1.280
 2829SOL     OW 9385   3.199   4.008   3.250
 2829SOL    HW1 9386   3.240   4.044   3.334
 2829SOL    HW2 9387   3.113   3.963   3.271
 2830SOL     OW 9388   4.352   5.469   5.804
 2830SOL    HW1 9389   4.433   5.510   5.761
 2830SOL    HW2 9390   4.375   5.377   5.837
 2831SOL     OW 9391   0.003   2.285   2.255
 2831SOL    HW1 9392   0.077   2.326   2.308
 2831SOL    HW2 9393   6.945   2.280   2.311
 2832SOL     OW 9394   0.756   3.121   1.251
 2832SOL    HW1 9395   0.657   3.124   1.247
 2832SOL    HW2 9396   0.790   3.199   1.303
 2833SOL     OW 9397   2.253   1.046   2.025
 2833SOL    HW1 9398   2.329   1.030   1.962
 2833SOL    HW2 9399   2.269   1.132   2.074
 2834SOL     OW 9400   4.399   6.251   4.962
 2834SOL    HW1 9401   4.350   6.186   4.906
 2834SOL    HW2 9402   4.497   6.232   4.958
 2835SOL     OW 9403   0.914   6.014   0.884
 2835SOL    HW1 9404   1.003   5.969   0.893
 2835SOL    HW2 9405   0.927   6.113   0.882
 2836SOL     OW 9406   3.438   6.889   3.259
 2836SOL    HW1 9407   3.486   6.836   3.328
 2836SOL    HW2 9408   3.405   6.975   3.299
 2837SOL     OW 9409   5.809   4.369   2.315
 2837SOL    HW1 9410   5.902   4.356   2.283
 2837SOL    HW2 9411   5.769   4.449   2.269
 2838SOL     OW 9412   5.186   3.746   6.214
 2838SOL    HW1 9413   5.276   3.776   6.246
 2838SOL    HW2 9414   5.137   3.824   6.174
 2839SOL     OW 9415   6.050   3.098   4.349
 2839SOL    HW1 9416   6.072   3.051   4.434
 2839SOL    HW2 9417   6.119   3.168   4.331
 2840SOL     OW 9418   0.680   6.065   2.345
 2840SOL    HW1 9419   0.618   6.009   2.289
 2840SOL    HW2 9420   0.627   6.127   2.402
 2841SOL     OW 9421   6.069   2.713   1.184
 2841SOL    HW1 9422   6.124   2.792   1.209
 2841SOL    HW2 9423   5.974   2.728   1.213
 2842SOL     OW 9424   1.357   6.106   4.442
 2842SOL    HW1 9425   1.454   6.084   4.458
 2842SOL    HW2 9426   1.345   6.205   4.441
 2843SOL     OW 9427   2.104   3.238   2.865
 2843SOL    HW1 9428   2.176   3.196   2.810
 2843SOL    HW2 9429   2.124   3.223   2.962
 2844SOL     OW 9430   4.988   4.894   1.078
 2844SOL    HW1 9431   4.986   4.976   1.021
 2844SOL    HW2 9432   4.896   4.877   1.115
 2845SOL     OW 9433   4.777   2.953   3.315
 2845SOL    HW1 9434   4.832   2.985   3.237
 2845SOL    HW2 9435   4.760   3.030   3.377
 2846SOL     OW 9436   4.917   0.704   6.999
 2846SOL    HW1 9437   4.999   0.703   6.942
 2846SOL    HW2 9438   4.877   0.796   6.998
 2847SOL     OW 9439   4.573   4.373   2.283
 2847SOL    HW1 9440   4.651   4.344   2.338
 2847SOL    HW2 9441   4.565   4.315   2.202
 2848SOL     OW 9442   0.775   3.051   5.053
 2848SOL    HW1 9443   0.797   2.957   5.030
 2848SOL    HW2 9444   0.776   3.107   4.971
 2849SOL     OW 9445   3.630   0.594   2.710
 2849SOL    HW1 9446   3.705   0.655   2.687
 2849SOL    HW2 9447   3.606   0.538   2.630
 2850SOL     OW 9448   2.798   6.664   2.925
 2850SOL    HW1 9449   2.817   6.598   2.852
 2850SOL    HW2 9450   2.874   6.729   2.933
 2851SOL     OW 9451   4.619   3.331   0.772
 2851SOL    HW1 9452   4.589   3.401   0.707
 2851SOL    HW2 9453   4.582   3.242   0.745
 2852SOL     OW 9454   6.156   4.315   6.266
 2852SOL    HW1 9455   6.080   4.262   6.304
 2852SOL    HW2 9456   6.216   4.345   6.340
 2853SOL     OW 9457   0.038   3.992   0.037
 2853SOL    HW1 9458   0.059   3.901   0.003
 2853SOL    HW2 9459   0.098   4.014   0.114
 2854SOL     OW 9460   2.946   1.181   6.655
 2854SOL    HW1 9461   2.935   1.120   6.733
 2854SOL    HW2 9462   2.859   1.189   6.606
 2855SOL     OW 9463   1.785   1.852   4.743
 2855SOL    HW1 9464   1.689   1.827   4.733
 2855SOL    HW2 9465   1.796   1.950   4.723
 2856SOL     OW 9466   1.462   4.055   3.346
 2856SOL    HW1 9467   1.378   4.003   3.337
 2856SOL    HW2 9468   1.444   4.152   3.328
 2857SOL     OW 9469   0.227   3.181   0.477
 2857SOL    HW1 9470   0.160   3.197   0.549
 2857SOL    HW2 9471   0.191   3.112   0.413
 2858SOL     OW 9472   5.034   5.635   2.948
 2858SOL    HW1 9473   4.960   5.669   3.006
 2858SOL    HW2 9474   4.996   5.576   2.876
 2859SOL     OW 9475   4.949   5.988   1.202
 2859SOL    HW1 9476   4.917   5.989   1.107
 2859SOL    HW2 9477   5.038   6.033   1.208
 2860SOL     OW 9478   1.407   6.020   1.623
 2860SOL    HW1 9479   1.378   5.938   1.574
 2860SOL    HW2 9480   1.392   6.100   1.565
 2861SOL     OW 9481   3.876   4.948   6.347
 2861SOL    HW1 9482   3.917   4.873   6.295
 2861SOL    HW2 9483   3.829   4.910   6.428
 2862SOL     OW 9484   4.286   3.535   1.386
 2862SOL    HW1 9485   4.186   3.529   1.395
 2862SOL    HW2 9486   4.328   3.452   1.421
 2863SOL     OW 9487   5.801   0.155   5.600
 2863SOL    HW1 9488   5.827   0.210   5.679
 2863SOL    HW2 9489   5.810   0.058   5.622
 2864SOL     OW 9490   3.871   3.453   1.845
 2864SOL    HW1 9491   3.785   3.426   1.889
 2864SOL    HW2 9492   3.932   3.374   1.839
 2865SOL     OW 9493   4.922   6.140   4.711
 2865SOL    HW1 9494   4.982   6.218   4.699
 2865SOL    HW2 9495   4.862   6.155   4.789
 2866SOL     OW 9496   5.262   4.424   6.497
 2866SOL    HW1 9497   5.309   4.336   6.490
 2866SOL    HW2 9498   5.313   4.492   6.445
 2867SOL     OW 9499   6.287   6.523   1.643
 2867SOL    HW1 9500   6.308   6.469   1.562
 2867SOL    HW2 9501   6.234   6.468   1.707
 2868SOL     OW 9502   1.764   1.385   5.969
 2868SOL    HW1 9503   1.809   1.298   5.954
 2868SOL    HW2 9504   1.813   1.457   5.920
 2869SOL     OW 9505   5.173   6.210   4.139
 2869SOL    HW1 9506   5.197   6.242   4.047
 2869SOL    HW2 9507   5.257   6.198   4.192
 2870SOL     OW 9508   1.213   1.769   1.190
 2870SOL    HW1 9509   1.277   1.701   1.227
 2870SOL    HW2 9510   1.162   1.729   1.114
 2871SOL     OW 9511   6.503   1.830   1.599
 2871SOL    HW1 9512   6.574   1.900   1.604
 2871SOL    HW2 9513   6.442   1.849   1.522
 2872SOL     OW 9514   2.411   1.947   2.443
 2872SOL    HW1 9515   2.500   1.992   2.434
 2872SOL    HW2 9516   2.424   1.849   2.455
 2873SOL     OW 9517   0.950   6.028   1.398
 2873SOL    HW1 9518   0.911   6.060   1.484
 2873SOL    HW2 9519   0.915   6.084   1.323
 2874SOL     OW 9520   2.903   0.339   2.870
 2874SOL    HW1 9521   2.898   0.366   2.774
 2874SOL    HW2 9522   2.862   0.249   2.882
 2875SOL     OW 9523   2.774   0.089   2.843
 2875SOL    HW1 9524   2.703   0.026   2.811
 2875SOL    HW2 9525   2.840   0.039   2.899
 2876SOL     OW 9526   1.960   6.157   1.925
 2876SOL    HW1 9527   1.936   6.252   1.908
 2876SOL    HW2 9528   2.053   6.139   1.892
 2877SOL     OW 9529   1.686   1.462   5.705
 2877SOL    HW1 9530   1.766   1.411   5.673
 2877SOL    HW2 9531   1.604   1.406   5.693
 2878SOL     OW 9532   3.709   2.844   5.193
 2878SOL    HW1 9533   3.622   2.817   5.235
 2878SOL    HW2 9534   3.691   2.912   5.122
 2879SOL     OW 9535   4.563   4.552   5.983
 2879SOL    HW1 9536   4.610   4.640   5.985
 2879SOL    HW2 9537   4.624   4.482   5.945
 2880SOL     OW 9538   1.029   1.884   4.217
 2880SOL    HW1 9539   1.084   1.817   4.266
 2880SOL    HW2 9540   0.933   1.858   4.219
 2881SOL     OW 9541   3.292   6.131   6.777
 2881SOL    HW1 9542   3.259   6.048   6.822
 2881SOL    HW2 9543   3.361   6.106   6.708
 2882SOL     OW 9544   4.659   6.118   0.586
 2882SOL    HW1 9545   4.684   6.088   0.494
 2882SOL    HW2 9546   4.608   6.204   0.580
 2883SOL     OW 9547   5.964   6.269   3.473
 2883SOL    HW1 9548   6.002   6.306   3.558
 2883SOL    HW2 9549   5.894   6.331   3.438
 2884SOL     OW 9550   6.786   5.489   2.407
 2884SOL    HW1 9551   6.782   5.393   2.436
 2884SOL    HW2 9552   6.858   5.500   2.339
 2885SOL     OW 9553   1.799   3.359   2.859
 2885SOL    HW1 9554   1.826   3.443   2.907
 2885SOL    HW2 9555   1.723   3.379   2.797
 2886SOL     OW 9556   2.532   4.629   6.443
 2886SOL    HW1 9557   2.593   4.707   6.432
 2886SOL    HW2 9558   2.584   4.544   6.434
 2887SOL     OW 9559   0.499   6.433   4.603
 2887SOL    HW1 9560   0.435   6.496   4.647
 2887SOL    HW2 9561   0.483   6.432   4.504
 2888SOL     OW 9562   6.849   6.239   0.499
 2888SOL    HW1 9563   6.793   6.311   0.458
 2888SOL    HW2 9564   6.943   6.248   0.467
 2889SOL     OW 9565   2.943   6.978   3.010
 2889SOL    HW1 9566   2.864   6.933   3.053
 2889SOL    HW2 9567   3.018   6.983   3.076
 2890SOL     OW 9568   1.787   6.009   1.294
 2890SOL    HW1 9569   1.702   6.060   1.285
 2890SOL    HW2 9570   1.862   6.061   1.253
 2891SOL     OW 9571   0.018   3.436   2.486
 2891SOL    HW1 9572   0.067   3.478   2.409
 2891SOL    HW2 9573   0.074   3.444   2.569
 2892SOL     OW 9574   6.357   3.976   0.715
 2892SOL    HW1 9575   6.454   3.951   0.713
 2892SOL    HW2 9576   6.326   3.981   0.810
 2893SOL     OW 9577   0.417   5.871   4.681
 2893SOL    HW1 9578   0.416   5.777   4.648
 2893SOL    HW2 9579   0.325   5.909   4.679
 2894SOL     OW 9580   1.344   4.685   2.027
 2894SOL    HW1 9581   1.379   4.681   1.934
 2894SOL    HW2 9582   1.252   4.646   2.031
 2895SOL     OW 9583   3.436   0.116   6.224
 2895SOL    HW1 9584   3.388   0.179   6.285
 2895SOL    HW2 9585   3.468   0.165   6.143
 2896SOL     OW 9586   5.997   6.668   5.412
 2896SOL    HW1 9587   6.092   6.658   5.440
 2896SOL    HW2 9588   5.991   6.727   5.332
 2897SOL     OW 9589   3.159   5.180   2.853
 2897SOL    HW1 9590   3.201   5.172   2.763
 2897SOL    HW2 9591   3.060   5.180   2.844
 2898SOL     OW 9592   6.065   4.337   2.222
 2898SOL    HW1 9593   6.125   4.404   2.264
 2898SOL    HW2 9594   6.117   4.253   2.203
 2899SOL     OW 9595   6.753   2.125   1.083
 2899SOL    HW1 9596   6.750   2.217   1.044
 2899SOL    HW2 9597   6.827   2.120   1.150
 2900SOL     OW 9598   3.298   3.692   6.965
 2900SOL    HW1 9599   3.321   3.784   6.934
 2900SOL    HW2 9600   3.329   3.680   0.035
 2901SOL     OW 9601   1.565   4.465   3.557
 2901SOL    HW1 9602   1.658   4.428   3.564
 2901SOL    HW2 9603   1.545   4.487   3.462
 2902SOL     OW 9604   0.624   5.574   3.951
 2902SOL    HW1 9605   0.687   5.583   4.027
 2902SOL    HW2 9606   0.564   5.654   3.948
 2903SOL     OW 9607   4.289   5.776   0.543
 2903SOL    HW1 9608   4.215   5.809   0.602
 2903SOL    HW2 9609   4.367   5.839   0.550
 2904SOL     OW 9610   2.587   4.656   5.033
 2904SOL    HW1 9611   2.684   4.636   5.049
 2904SOL    HW2 9612   2.546   4.690   5.118
 2905SOL     OW 9613   1.362   4.611   2.326
 2905SOL    HW1 9614   1.297   4.679   2.293
 2905SOL    HW2 9615   1.393   4.555   2.250
 2906SOL     OW 9616   5.432   6.318   2.739
 2906SOL    HW1 9617   5.493   6.240   2.732
 2906SOL    HW2 9618   5.347   6.290   2.784
 2907SOL     OW 9619   0.919   0.341   3.474
 2907SOL    HW1 9620   0.898   0.383   3.386
 2907SOL    HW2 9621   0.895   0.244   3.472
 2908SOL     OW 9622   5.001   7.024   3.450
 2908SOL    HW1 9623   4.965   0.091   3.470
 2908SOL    HW2 9624   5.087   0.007   3.401
 2909SOL     OW 9625   1.120   5.666   2.336
 2909SOL    HW1 9626   1.143   5.603   2.262
 2909SOL    HW2 9627   1.137   5.760   2.307
 2910SOL     OW 9628   6.782   1.117   3.895
 2910SOL    HW1 9629   6.803   1.127   3.798
 2910SOL    HW2 9630   6.733   1.030   3.910
 2911SOL     OW 9631   6.593   4.567   3.876
 2911SOL    HW1 9632   6.653   4.544   3.799
 2911SOL    HW2 9633   6.531   4.491   3.893
 2912SOL     OW 9634   6.856   6.603   0.716
 2912SOL    HW1 9635   6.836   6.665   0.639
 2912SOL    HW2 9636   6.774   6.592   0.772
 2913SOL     OW 9637   1.750   4.547   1.791
 2913SOL    HW1 9638   1.836   4.503   1.816
 2913SOL    HW2 9639   1.686   4.541   1.867
 2914SOL     OW 9640   5.469   4.472   0.256
 2914SOL    HW1 9641   5.544   4.490   0.193
 2914SOL    HW2 9642   5.490   4.512   0.345
 2915SOL     OW 9643   3.567   2.078   2.804
 2915SOL    HW1 9644   3.655   2.102   2.763
 2915SOL    HW2 9645   3.496   2.136   2.765
 2916SOL     OW 9646   2.322   5.246   0.821
 2916SOL    HW1 9647   2.346   5.343   0.829
 2916SOL    HW2 9648   2.255   5.234   0.748
 2917SOL     OW 9649   2.490   0.254   3.501
 2917SOL    HW1 9650   2.470   0.281   3.407
 2917SOL    HW2 9651   2.486   0.334   3.561
 2918SOL     OW 9652   6.042   4.355   1.231
 2918SOL    HW1 9653   5.947   4.334   1.253
 2918SOL    HW2 9654   6.102   4.301   1.290
 2919SOL     OW 9655   0.700   5.904   4.300
 2919SOL    HW1 9656   0.680   5.909   4.397
 2919SOL    HW2 9657   0.630   5.849   4.254
 2920SOL     OW 9658   1.955   0.502   2.040
 2920SOL    HW1 9659   1.904   0.587   2.050
 2920SOL    HW2 9660   1.922   0.435   2.107
 2921SOL     OW 9661   6.929   0.113   5.614
 2921SOL    HW1 9662   6.940   0.099   5.712
 2921SOL    HW2 9663   7.001   0.173   5.579
 2922SOL     OW 9664   4.622   0.464   3.278
 2922SOL    HW1 9665   4.633   0.563   3.281
 2922SOL    HW2 9666   4.564   0.435   3.354
 2923SOL     OW 9667   6.477   4.500   4.957
 2923SOL    HW1 9668   6.471   4.595   4.987
 2923SOL    HW2 9669   6.420   4.487   4.876
 2924SOL     OW 9670   6.680   2.120   5.296
 2924SOL    HW1 9671   6.584   2.098   5.283
 2924SOL    HW2 9672   6.688   2.195   5.363
 2925SOL     OW 9673   5.490   0.911   5.866
 2925SOL    HW1 9674   5.430   0.956   5.799
 2925SOL    HW2 9675   5.437   0.889   5.948
 2926SOL     OW 9676   0.468   1.981   5.113
 2926SOL    HW1 9677   0.471   1.956   5.017
 2926SOL    HW2 9678   0.374   2.001   5.140
 2927SOL     OW 9679   1.852   2.921   1.416
 2927SOL    HW1 9680   1.846   2.913   1.515
 2927SOL    HW2 9681   1.910   2.847   1.380
 2928SOL     OW 9682   6.209   1.911   0.025
 2928SOL    HW1 9683   6.173   1.830   7.003
 2928SOL    HW2 9684   6.279   1.954   6.993
 2929SOL     OW 9685   1.417   2.348   4.841
 2929SOL    HW1 9686   1.480   2.271   4.849
 2929SOL    HW2 9687   1.451   2.412   4.772
 2930SOL     OW 9688   6.542   5.636   4.674
 2930SOL    HW1 9689   6.529   5.596   4.765
 2930SOL    HW2 9690   6.522   5.566   4.604
 2931SOL     OW 9691   4.299   4.434   6.591
 2931SOL    HW1 9692   4.396   4.426   6.615
 2931SOL    HW2 9693   4.268   4.350   6.546
 2932SOL     OW 9694   7.005   6.408   1.130
 2932SOL    HW1 9695   0.080   6.415   1.137
 2932SOL    HW2 9696   6.965   6.499   1.122
 2933SOL     OW 9697   1.027   0.170   1.305
 2933SOL    HW1 9698   1.032   0.270   1.313
 2933SOL    HW2 9699   0.967   0.135   1.376
 2934SOL     OW 9700   4.220   3.246   0.961
 2934SOL    HW1 9701   4.265   3.283   1.042
 2934SOL    HW2 9702   4.215   3.147   0.968
 2935SOL     OW 9703   0.489   2.117   6.308
 2935SOL    HW1 9704   0.488   2.196   6.246
 2935SOL    HW2 9705   0.583   2.091   6.327
 2936SOL     OW 9706   4.601   0.391   0.459
 2936SOL    HW1 9707   4.511   0.370   0.498
 2936SOL    HW2 9708   4.589   0.428   0.367
 2937SOL     OW 9709   4.401   5.582   1.876
 2937SOL    HW1 9710   4.419   5.639   1.796
 2937SOL    HW2 9711   4.337   5.629   1.936
 2938SOL     OW 9712   6.488   6.218   6.582
 2938SOL    HW1 9713   6.479   6.156   6.504
 2938SOL    HW2 9714   6.583   6.247   6.591
 2939SOL     OW 9715   0.343   5.498   1.703
 2939SOL    HW1 9716   0.437   5.531   1.710
 2939SOL    HW2 9717   0.280   5.570   1.732
 2940SOL     OW 9718   5.849   6.164   4.466
 2940SOL    HW1 9719   5.791   6.094   4.423
 2940SOL    HW2 9720   5.867   6.138   4.561
 2941SOL     OW 9721   1.888   3.302   3.484
 2941SOL    HW1 9722   1.932   3.273   3.399
 2941SOL    HW2 9723   1.793   3.325   3.467
 2942SOL     OW 9724   2.275   1.331   6.772
 2942SOL    HW1 9725   2.230   1.421   6.768
 2942SOL    HW2 9726   2.374   1.343   6.762
 2943SOL     OW 9727   6.122   4.499   3.284
 2943SOL    HW1 9728   6.146   4.537   3.374
 2943SOL    HW2 9729   6.141   4.401   3.283
 2944SOL     OW 9730   2.665   6.350   4.202
 2944SOL    HW1 9731   2.665   6.253   4.180
 2944SOL    HW2 9732   2.577   6.375   4.244
 2945SOL     OW 9733   5.000   4.491   1.494
 2945SOL    HW1 9734   4.995   4.440   1.580
 2945SOL    HW2 9735   4.988   4.428   1.417
 2946SOL     OW 9736   3.103   4.119   6.098
 2946SOL    HW1 9737   3.108   4.020   6.110
 2946SOL    HW2 9738   3.190   4.161   6.125
 2947SOL     OW 9739   6.123   6.015   0.746
 2947SOL    HW1 9740   6.165   6.090   0.798
 2947SOL    HW2 9741   6.099   6.047   0.655
 2948SOL     OW 9742   5.890   4.785   3.181
 2948SOL    HW1 9743   5.941   4.789   3.267
 2948SOL    HW2 9744   5.851   4.694   3.169
 2949SOL     OW 9745   0.904   6.524   0.875
 2949SOL    HW1 9746   0.874   6.594   0.810
 2949SOL    HW2 9747   0.823   6.475   0.910
 2950SOL     OW 9748   4.563   4.860   2.692
 2950SOL    HW1 9749   4.469   4.885   2.667
 2950SOL    HW2 9750   4.573   4.761   2.688
 2951SOL     OW 9751   5.760   0.672   1.465
 2951SOL    HW1 9752   5.679   0.620   1.492
 2951SOL    HW2 9753   5.746   0.711   1.374
 2952SOL     OW 9754   6.093   0.777   4.014
 2952SOL    HW1 9755   6.180   0.739   4.048
 2952SOL    HW2 9756   6.091   0.875   4.032
 2953SOL     OW 9757   0.366   6.120   2.897
 2953SOL    HW1 9758   0.396   6.042   2.841
 2953SOL    HW2 9759   0.431   6.195   2.886
 2954SOL     OW 9760   1.288   4.537   6.364
 2954SOL    HW1 9761   1.333   4.523   6.452
 2954SOL    HW2 9762   1.207   4.479   6.359
 2955SOL     OW 9763   1.397   4.033   0.355
 2955SOL    HW1 9764   1.300   4.061   0.354
 2955SOL    HW2 9765   1.405   3.942   0.315
 2956SOL     OW 9766   6.423   4.359   3.933
 2956SOL    HW1 9767   6.378   4.271   3.945
 2956SOL    HW2 9768   6.447   4.397   4.023
 2957SOL     OW 9769   3.061   4.907   1.529
 2957SOL    HW1 9770   3.150   4.953   1.521
 2957SOL    HW2 9771   3.062   4.846   1.608
 2958SOL     OW 9772   1.850   4.804   3.070
 2958SOL    HW1 9773   1.760   4.763   3.056
 2958SOL    HW2 9774   1.910   4.739   3.117
 2959SOL     OW 9775   5.625   2.526   2.717
 2959SOL    HW1 9776   5.642   2.623   2.735
 2959SOL    HW2 9777   5.537   2.516   2.671
 2960SOL     OW 9778   3.974   0.548   0.293
 2960SOL    HW1 9779   4.037   0.602   0.348
 2960SOL    HW2 9780   4.017   0.526   0.205
 2961SOL     OW 9781   6.021   4.552   2.545
 2961SOL    HW1 9782   6.058   4.569   2.637
 2961SOL    HW2 9783   5.926   4.522   2.553
 2962SOL     OW 9784   6.090   6.675   2.419
 2962SOL    HW1 9785   6.114   6.705   2.327
 2962SOL    HW2 9786   6.120   6.743   2.486
 2963SOL     OW 9787   0.472   0.597   5.746
 2963SOL    HW1 9788   0.503   0.689   5.772
 2963SOL    HW2 9789   0.500   0.577   5.652
 2964SOL     OW 9790   0.575   2.599   6.966
 2964SOL    HW1 9791   0.624   2.546   0.011
 2964SOL    HW2 9792   0.624   2.684   6.948
 2965SOL     OW 9793   0.933   0.530   4.626
 2965SOL    HW1 9794   0.959   0.510   4.531
 2965SOL    HW2 9795   0.834   0.517   4.637
 2966SOL     OW 9796   4.365   5.445   3.681
 2966SOL    HW1 9797   4.349   5.418   3.586
 2966SOL    HW2 9798   4.453   5.492   3.689
 2967SOL     OW 9799   6.508   0.647   5.261
 2967SOL    HW1 9800   6.519   0.589   5.180
 2967SOL    HW2 9801   6.412   0.645   5.289
 2968SOL     OW 9802   2.218   2.475   1.341
 2968SOL    HW1 9803   2.259   2.446   1.427
 2968SOL    HW2 9804   2.289   2.515   1.283
 2969SOL     OW 9805   5.336   4.001   4.310
 2969SOL    HW1 9806   5.299   3.909   4.317
 2969SOL    HW2 9807   5.436   3.997   4.308
 2970SOL     OW 9808   2.590   2.808   5.341
 2970SOL    HW1 9809   2.689   2.820   5.347
 2970SOL    HW2 9810   2.551   2.881   5.285
 2971SOL     OW 9811   5.427   3.934   0.368
 2971SOL    HW1 9812   5.401   3.840   0.388
 2971SOL    HW2 9813   5.511   3.934   0.313
 2972SOL     OW 9814   6.202   5.415   6.448
 2972SOL    HW1 9815   6.125   5.408   6.385
 2972SOL    HW2 9816   6.219   5.326   6.490
 2973SOL     OW 9817   5.207   6.635   1.998
 2973SOL    HW1 9818   5.156   6.576   2.060
 2973SOL    HW2 9819   5.290   6.587   1.967
 2974SOL     OW 9820   6.018   4.818   3.442
 2974SOL    HW1 9821   5.966   4.760   3.504
 2974SOL    HW2 9822   6.038   4.905   3.487
 2975SOL     OW 9823   4.669   4.699   4.333
 2975SOL    HW1 9824   4.665   4.606   4.369
 2975SOL    HW2 9825   4.619   4.760   4.394
 2976SOL     OW 9826   4.743   2.226   2.838
 2976SOL    HW1 9827   4.663   2.230   2.779
 2976SOL    HW2 9828   4.823   2.257   2.788
 2977SOL     OW 9829   0.522   0.268   1.866
 2977SOL    HW1 9830   0.579   0.279   1.784
 2977SOL    HW2 9831   0.538   0.345   1.927
 2978SOL     OW 9832   4.711   4.280   6.206
 2978SOL    HW1 9833   4.711   4.280   6.106
 2978SOL    HW2 9834   4.683   4.370   6.240
 2979SOL     OW 9835   3.157   1.446   4.821
 2979SOL    HW1 9836   3.162   1.544   4.803
 2979SOL    HW2 9837   3.182   1.428   4.917
 2980SOL     OW 9838   4.272   4.039   6.227
 2980SOL    HW1 9839   4.188   3.987   6.240
 2980SOL    HW2 9840   4.258   4.107   6.154
 2981SOL     OW 9841   1.949   1.178   0.752
 2981SOL    HW1 9842   2.042   1.197   0.719
 2981SOL    HW2 9843   1.921   1.250   0.816
 2982SOL     OW 9844   1.517   6.562   2.583
 2982SOL    HW1 9845   1.561   6.491   2.529
 2982SOL    HW2 9846   1.484   6.636   2.523
 2983SOL     OW 9847   6.596   3.233   6.892
 2983SOL    HW1 9848   6.647   3.202   6.811
 2983SOL    HW2 9849   6.508   3.187   6.895
 2984SOL     OW 9850   6.444   5.225   0.025
 2984SOL    HW1 9851   6.397   5.197   0.109
 2984SOL    HW2 9852   6.376   5.250   6.981
 2985SOL     OW 9853   0.551   0.040   4.546
 2985SOL    HW1 9854   0.546   6.975   4.589
 2985SOL    HW2 9855   0.459   0.075   4.530
 2986SOL     OW 9856   3.270   4.110   2.563
 2986SOL    HW1 9857   3.173   4.121   2.583
 2986SOL    HW2 9858   3.322   4.105   2.649
 2987SOL     OW 9859   0.833   2.076   4.416
 2987SOL    HW1 9860   0.755   2.127   4.452
 2987SOL    HW2 9861   0.845   1.992   4.469
 2988SOL     OW 9862   0.904   1.002   1.196
 2988SOL    HW1 9863   0.943   0.934   1.134
 2988SOL    HW2 9864   0.905   1.092   1.151
 2989SOL     OW 9865   5.236   3.314   4.797
 2989SOL    HW1 9866   5.151   3.365   4.780
 2989SOL    HW2 9867   5.242   3.290   4.893
 2990SOL     OW 9868   5.158   2.005   4.598
 2990SOL    HW1 9869   5.202   2.093   4.613
 2990SOL    HW2 9870   5.215   1.949   4.538
 2991SOL     OW 9871   5.703   3.300   0.820
 2991SOL    HW1 9872   5.782   3.246   0.848
 2991SOL    HW2 9873   5.722   3.397   0.833
 2992SOL     OW 9874   0.637   3.929   4.772
 2992SOL    HW1 9875   0.643   3.999   4.844
 2992SOL    HW2 9876   0.726   3.885   4.761
 2993SOL     OW 9877   1.125   4.914   6.953
 2993SOL    HW1 9878   1.117   5.013   6.953
 2993SOL    HW2 9879   1.222   4.888   6.956
 2994SOL     OW 9880   4.484   5.914   6.971
 2994SOL    HW1 9881   4.477   5.919   6.871
 2994SOL    HW2 9882   4.424   5.842   7.005
 2995SOL     OW 9883   4.342   0.351   0.586
 2995SOL    HW1 9884   4.340   0.441   0.631
 2995SOL    HW2 9885   4.315   0.281   0.652
 2996SOL     OW 9886   1.422   1.980   4.847
 2996SOL    HW1 9887   1.493   2.019   4.905
 2996SOL    HW2 9888   1.428   2.020   4.755
 2997SOL     OW 9889   4.950   0.527   3.495
 2997SOL    HW1 9890   4.903   0.613   3.513
 2997SOL    HW2 9891   4.946   0.469   3.577
 2998SOL     OW 9892   2.599   0.741   3.439
 2998SOL    HW1 9893   2.547   0.686   3.505
 2998SOL    HW2 9894   2.645   0.680   3.374
 2999SOL     OW 9895   3.171   4.559   6.917
 2999SOL    HW1 9896   3.128   4.506   6.991
 2999SOL    HW2 9897   3.237   4.501   6.868
 3000SOL     OW 9898   3.106   3.510   5.418
 3000SOL    HW1 9899   3.023   3.508   5.362
 3000SOL    HW2 9900   3.183   3.479   5.363
 3001SOL     OW 9901   5.873   1.335   6.403
 3001SOL    HW1 9902   5.781   1.299   6.417
 3001SOL    HW2 9903   5.934   1.260   6.377
 3002SOL     OW 9904   2.979   1.129   1.189
 3002SOL    HW1 9905   2.955   1.039   1.152
 3002SOL    HW2 9906   3.049   1.171   1.131
 3003SOL     OW 9907   0.658   6.041   0.544
 3003SOL    HW1 9908   0.713   6.102   0.602
 3003SOL    HW2 9909   0.717   5.970   0.506
 3004SOL     OW 9910   2.819   4.733   4.058
 3004SOL    HW1 9911   2.829   4.636   4.034
 3004SOL    HW2 9912   2.881   4.787   4.002
 3005SOL     OW 9913   1.056   3.093   5.442
 3005SOL    HW1 9914   1.135   3.055   5.489
 3005SOL    HW2 9915   1.077   3.185   5.408
 3006SOL     OW 9916   5.656   1.858   5.501
 3006SOL    HW1 9917   5.710   1.921   5.556
 3006SOL    HW2 9918   5.603   1.798   5.561
 3007SOL     OW 9919   5.155   5.425   6.887
 3007SOL    HW1 9920   5.125   5.338   6.927
 3007SOL    HW2 9921   5.222   5.468   6.947
 3008SOL     OW 9922   4.237   1.857   5.861
 3008SOL    HW1 9923   4.138   1.867   5.870
 3008SOL    HW2 9924   4.278   1.948   5.847
 3009SOL     OW 9925   0.170   2.917   3.122
 3009SOL    HW1 9926   0.105   2.892   3.050
 3009SOL    HW2 9927   0.209   2.834   3.162
 3010SOL     OW 9928   4.280   5.441   6.125
 3010SOL    HW1 9929   4.315   5.361   6.076
 3010SOL    HW2 9930   4.220   5.493   6.064
 3011SOL     OW 9931   6.176   6.933   1.447
 3011SOL    HW1 9932   6.132   6.876   1.516
 3011SOL    HW2 9933   6.218   7.013   1.490
 3012SOL     OW 9934   2.880   3.468   6.735
 3012SOL    HW1 9935   2.837   3.551   6.771
 3012SOL    HW2 9936   2.824   3.388   6.757
 3013SOL     OW 9937   0.199   6.268   3.812
 3013SOL    HW1 9938   0.180   6.172   3.792
 3013SOL    HW2 9939   0.120   6.309   3.858
 3014SOL     OW 9940   5.136   0.865   5.526
 3014SOL    HW1 9941   5.218   0.866   5.468
 3014SOL    HW2 9942   5.105   0.771   5.538
 3015SOL     OW 9943   1.717   0.854   0.051
 3015SOL    HW1 9944   1.668   0.939   0.069
 3015SOL    HW2 9945   1.687   0.784   0.117
 3016SOL     OW 9946   3.082   6.844   4.096
 3016SOL    HW1 9947   3.179   6.863   4.083
 3016SOL    HW2 9948   3.039   6.828   4.007
 3017SOL     OW 9949   6.581   5.774   1.499
 3017SOL    HW1 9950   6.648   5.839   1.536
 3017SOL    HW2 9951   6.541   5.721   1.574
 3018SOL     OW 9952   3.530   6.866   0.440
 3018SOL    HW1 9953   3.484   6.952   0.463
 3018SOL    HW2 9954   3.465   6.804   0.396
 3019SOL     OW 9955   1.294   6.359   6.730
 3019SOL    HW1 9956   1.291   6.321   6.822
 3019SOL    HW2 9957   1.203   6.353   6.688
 3020SOL     OW 9958   5.482   3.144   6.841
 3020SOL    HW1 9959   5.508   3.148   6.938
 3020SOL    HW2 9960   5.431   3.059   6.825
 3021SOL     OW 9961   3.606   6.244   4.559
 3021SOL    HW1 9962   3.564   6.319   4.611
 3021SOL    HW2 9963   3.538   6.204   4.498
 3022SOL     OW 9964   3.737   5.826   3.435
 3022SOL    HW1 9965   3.783   5.739   3.454
 3022SOL    HW2 9966   3.729   5.838   3.336
 3023SOL     OW 9967   4.281   6.706   2.734
 3023SOL    HW1 9968   4.365   6.761   2.739
 3023SOL    HW2 9969   4.272   6.652   2.818
 3024SOL     OW 9970   6.970   6.365   5.742
 3024SOL    HW1 9971   7.002   6.288   5.686
 3024SOL    HW2 9972   6.989   6.347   5.838
 3025SOL     OW 9973   3.891   5.801   0.606
 3025SOL    HW1 9974   3.868   5.705   0.590
 3025SOL    HW2 9975   3.952   5.807   0.685
 3026SOL     OW 9976   5.952   1.218   0.781
 3026SOL    HW1 9977   6.048   1.236   0.800
 3026SOL    HW2 9978   5.896   1.295   0.810
 3027SOL     OW 9979   4.903   1.627   1.995
 3027SOL    HW1 9980   4.893   1.541   1.946
 3027SOL    HW2 9981   4.813   1.665   2.017
 3028SOL     OW 9982   2.226   3.899   6.544
 3028SOL    HW1 9983   2.238   3.998   6.553
 3028SOL    HW2 9984   2.132   3.879   6.518
 3029SOL     OW 9985   0.809   2.738   4.356
 3029SOL    HW1 9986   0.717   2.736   4.316
 3029SOL    HW2 9987   0.837   2.645   4.379
 3030SOL     OW 9988   1.411   4.222   1.535
 3030SOL    HW1 9989   1.458   4.242   1.621
 3030SOL    HW2 9990   1.439   4.288   1.465
 3031SOL     OW 9991   1.209   5.447   1.214
 3031SOL    HW1 9992   1.226   5.354   1.247
 3031SOL    HW2 9993   1.242   5.513   1.282
 3032SOL     OW 9994   1.557   6.862   3.150
 3032SOL    HW1 9995   1.556   6.948   3.200
 3032SOL    HW2 9996   1.564   6.881   3.052
 3033SOL     OW 9997   6.448   2.945   3.968
 3033SOL    HW1 9998   6.439   2.892   3.883
 3033SOL    HW2 9999   6.427   2.885   4.046
 3034SOL     OW10000   0.580   5.764   3.643
 3034SOL    HW110001   0.481   5.770   3.656
 3034SOL    HW210002   0.617   5.694   3.704
 3035SOL     OW10003   1.656   2.712   6.156
 3035SOL    HW110004   1.715   2.768   6.213
 3035SOL    HW210005   1.616   2.638   6.210
 3036SOL     OW10006   1.661   2.200   6.421
 3036SOL    HW110007   1.575   2.178   6.466
 3036SOL    HW210008   1.730   2.225   6.489
 3037SOL     OW10009   0.490   4.911   5.889
 3037SOL    HW110010   0.476   4.844   5.816
 3037SOL    HW210011   0.405   4.924   5.939
 3038SOL     OW10012   5.198   5.285   6.266
 3038SOL    HW110013   5.285   5.315   6.305
 3038SOL    HW210014   5.177   5.193   6.298
 3039SOL     OW10015   6.263   3.275   0.321
 3039SOL    HW110016   6.183   3.336   0.328
 3039SOL    HW210017   6.342   3.321   0.360
 3040SOL     OW10018   3.609   4.123   5.728
 3040SOL    HW110019   3.520   4.147   5.688
 3040SOL    HW210020   3.595   4.055   5.800
 3041SOL     OW10021   1.804   4.001   4.964
 3041SOL    HW110022   1.826   3.905   4.983
 3041SOL    HW210023   1.724   4.027   5.017
 3042SOL     OW10024   0.635   4.976   3.371
 3042SOL    HW110025   0.613   4.951   3.276
 3042SOL    HW210026   0.671   5.069   3.373
 3043SOL     OW10027   2.625   3.251   0.624
 3043SOL    HW110028   2.590   3.223   0.713
 3043SOL    HW210029   2.718   3.284   0.633
 3044SOL     OW10030   3.511   3.534   4.951
 3044SOL    HW110031   3.488   3.576   4.863
 3044SOL    HW210032   3.458   3.450   4.962
 3045SOL     OW10033   4.965   1.301   3.051
 3045SOL    HW110034   4.981   1.383   2.996
 3045SOL    HW210035   4.867   1.284   3.058
 3046SOL     OW10036   5.544   5.615   0.584
 3046SOL    HW110037   5.508   5.525   0.609
 3046SOL    HW210038   5.644   5.611   0.580
 3047SOL     OW10039   6.273   0.343   0.133
 3047SOL    HW110040   6.214   0.344   0.213
 3047SOL    HW210041   6.345   0.411   0.144
 3048SOL     OW10042   4.682   3.155   1.178
 3048SOL    HW110043   4.782   3.165   1.183
 3048SOL    HW210044   4.650   3.104   1.258
 3049SOL     OW10045   1.166   0.547   4.133
 3049SOL    HW110046   1.135   0.575   4.042
 3049SOL    HW210047   1.244   0.603   4.160
 3050SOL     OW10048   2.898   2.337   1.286
 3050SOL    HW110049   2.855   2.277   1.354
 3050SOL    HW210050   2.876   2.304   1.195
 3051SOL     OW10051   3.138   6.789   5.200
 3051SOL    HW110052   3.156   6.883   5.229
 3051SOL    HW210053   3.223   6.736   5.205
 3052SOL     OW10054   5.909   6.305   2.228
 3052SOL    HW110055   5.986   6.324   2.288
 3052SOL    HW210056   5.824   6.308   2.280
 3053SOL     OW10057   1.994   4.045   0.201
 3053SOL    HW110058   1.964   4.072   0.293
 3053SOL    HW210059   1.936   4.089   0.133
 3054SOL     OW10060   5.418   1.304   3.266
 3054SOL    HW110061   5.461   1.326   3.178
 3054SOL    HW210062   5.326   1.269   3.251
 3055SOL     OW10063   6.226   6.437   6.450
 3055SOL    HW110064   6.287   6.443   6.529
 3055SOL    HW210065   6.188   6.527   6.430
 3056SOL     OW10066   4.955   1.975   6.078
 3056SOL    HW110067   4.901   2.057   6.092
 3056SOL    HW210068   4.990   1.973   5.984
 3057SOL     OW10069   5.401   5.818   3.497
 3057SOL    HW110070   5.462   5.895   3.478
 3057SOL    HW210071   5.356   5.790   3.412
 3058SOL     OW10072   5.826   4.254   0.591
 3058SOL    HW110073   5.812   4.196   0.671
 3058SOL    HW210074   5.759   4.231   0.520
 3059SOL     OW10075   2.412   2.665   4.415
 3059SOL    HW110076   2.450   2.589   4.468
 3059SOL    HW210077   2.433   2.652   4.318
 3060SOL     OW10078   3.091   5.022   5.779
 3060SOL    HW110079   3.037   4.949   5.737
 3060SOL    HW210080   3.056   5.040   5.871
 3061SOL     OW10081   5.327   4.868   5.514
 3061SOL    HW110082   5.297   4.946   5.569
 3061SOL    HW210083   5.390   4.900   5.443
 3062SOL     OW10084   4.122   4.446   1.692
 3062SOL    HW110085   4.041   4.504   1.704
 3062SOL    HW210086   4.157   4.457   1.599
 3063SOL     OW10087   0.467   4.119   1.304
 3063SOL    HW110088   0.501   4.031   1.271
 3063SOL    HW210089   0.425   4.106   1.394
 3064SOL     OW10090   3.769   2.528   6.906
 3064SOL    HW110091   3.773   2.430   6.886
 3064SOL    HW210092   3.778   2.580   6.821
 3065SOL     OW10093   1.080   0.776   6.815
 3065SOL    HW110094   1.060   0.860   6.765
 3065SOL    HW210095   1.179   0.760   6.815
 3066SOL     OW10096   4.822   5.378   5.507
 3066SOL    HW110097   4.832   5.344   5.600
 3066SOL    HW210098   4.797   5.475   5.509
 3067SOL     OW10099   2.830   1.579   6.588
 3067SOL    HW110100   2.927   1.558   6.598
 3067SOL    HW210101   2.800   1.634   6.666
 3068SOL     OW10102   0.765   1.525   1.263
 3068SOL    HW110103   0.744   1.441   1.313
 3068SOL    HW210104   0.690   1.546   1.200
 3069SOL     OW10105   5.297   6.875   3.081
 3069SOL    HW110106   5.212   6.834   3.050
 3069SOL    HW210107   5.355   6.806   3.125
 3070SOL     OW10108   2.973   1.464   7.020
 3070SOL    HW110109   2.952   1.553   0.036
 3070SOL    HW210110   2.979   1.472   6.921
 3071SOL     OW10111   0.160   3.457   3.285
 3071SOL    HW110112   0.203   3.367   3.280
 3071SOL    HW210113   0.102   3.471   3.204
 3072SOL     OW10114   1.961   5.873   6.925
 3072SOL    HW110115   1.892   5.921   6.871
 3072SOL    HW210116   1.969   5.917   7.015
 3073SOL     OW10117   6.532   4.844   0.272
 3073SOL    HW110118   6.441   4.829   0.233
 3073SOL    HW210119   6.534   4.931   0.321
 3074SOL     OW10120   1.157   3.679   0.820
 3074SOL    HW110121   1.189   3.586   0.804
 3074SOL    HW210122   1.083   3.677   0.887
 3075SOL     OW10123   2.626   5.214   3.792
 3075SOL    HW110124   2.677   5.298   3.810
 3075SOL    HW210125   2.566   5.194   3.870
 3076SOL     OW10126   0.329   1.530   5.054
 3076SOL    HW110127   0.427   1.550   5.057
 3076SOL    HW210128   0.286   1.580   4.979
 3077SOL     OW10129   6.409   3.726   1.422
 3077SOL    HW110130   6.419   3.662   1.498
 3077SOL    HW210131   6.316   3.764   1.422
 3078SOL     OW10132   6.648   3.016   1.694
 3078SOL    HW110133   6.589   3.084   1.738
 3078SOL    HW210134   6.604   2.926   1.699
 3079SOL     OW10135   2.080   2.667   4.959
 3079SOL    HW110136   2.026   2.649   5.041
 3079SOL    HW210137   2.177   2.669   4.982
 3080SOL     OW10138   4.274   4.882   1.165
 3080SOL    HW110139   4.267   4.980   1.147
 3080SOL    HW210140   4.294   4.869   1.263
 3081SOL     OW10141   1.484   4.187   0.579
 3081SOL    HW110142   1.485   4.112   0.513
 3081SOL    HW210143   1.459   4.152   0.669
 3082SOL     OW10144   3.506   5.208   4.212
 3082SOL    HW110145   3.554   5.163   4.137
 3082SOL    HW210146   3.450   5.283   4.175
 3083SOL     OW10147   2.364   5.726   2.664
 3083SOL    HW110148   2.327   5.751   2.575
 3083SOL    HW210149   2.374   5.627   2.670
 3084SOL     OW10150   0.870   3.610   3.195
 3084SOL    HW110151   0.848   3.523   3.238
 3084SOL    HW210152   0.790   3.670   3.197
 3085SOL     OW10153   4.578   4.970   0.808
 3085SOL    HW110154   4.620   5.018   0.885
 3085SOL    HW210155   4.479   4.969   0.819
 3086SOL     OW10156   6.029   1.165   6.901
 3086SOL    HW110157   6.011   1.262   6.888
 3086SOL    HW210158   6.017   1.141   6.997
 3087SOL     OW10159   2.640   6.572   1.835
 3087SOL    HW110160   2.562   6.512   1.816
 3087SOL    HW210161   2.638   6.602   1.930
 3088SOL     OW10162   0.330   2.939   5.356
 3088SOL    HW110163   0.285   2.850   5.351
 3088SOL    HW210164   0.391   2.949   5.277
 3089SOL     OW10165   4.812   0.666   4.628
 3089SOL    HW110166   4.792   0.627   4.717
 3089SOL    HW210167   4.813   0.766   4.635
 3090SOL     OW10168   1.112   1.416   1.354
 3090SOL    HW110169   1.198   1.383   1.315
 3090SOL    HW210170   1.129   1.501   1.404
 3091SOL     OW10171   1.034   1.488   0.773
 3091SOL    HW110172   0.944   1.489   0.731
 3091SOL    HW210173   1.062   1.394   0.791
 3092SOL     OW10174   5.551   6.790   2.322
 3092SOL    HW110175   5.567   6.815   2.417
 3092SOL    HW210176   5.453   6.780   2.306
 3093SOL     OW10177   5.707   5.534   6.410
 3093SOL    HW110178   5.687   5.581   6.324
 3093SOL    HW210179   5.757   5.596   6.471
 3094SOL     OW10180   2.820   0.956   5.589
 3094SOL    HW110181   2.834   1.049   5.555
 3094SOL    HW210182   2.791   0.896   5.514
 3095SOL     OW10183   2.642   3.269   5.323
 3095SOL    HW110184   2.569   3.337   5.311
 3095SOL    HW210185   2.610   3.180   5.290
 3096SOL     OW10186   0.750   3.486   4.916
 3096SOL    HW110187   0.699   3.437   4.987
 3096SOL    HW210188   0.686   3.523   4.849
 3097SOL     OW10189   6.245   2.212   6.426
 3097SOL    HW110190   6.254   2.251   6.335
 3097SOL    HW210191   6.154   2.172   6.437
 3098SOL     OW10192   1.982   1.760   2.205
 3098SOL    HW110193   2.034   1.675   2.208
 3098SOL    HW210194   2.040   1.836   2.235
 3099SOL     OW10195   0.751   6.455   4.011
 3099SOL    HW110196   0.670   6.493   4.056
 3099SOL    HW210197   0.731   6.361   3.982
 3100SOL     OW10198   6.165   6.363   3.095
 3100SOL    HW110199   6.152   6.452   3.140
 3100SOL    HW210200   6.148   6.372   2.997
 3101SOL     OW10201   4.259   6.597   5.762
 3101SOL    HW110202   4.319   6.552   5.696
 3101SOL    HW210203   4.288   6.573   5.855
 3102SOL     OW10204   0.325   5.612   0.366
 3102SOL    HW110205   0.353   5.517   0.381
 3102SOL    HW210206   0.233   5.625   0.403
 3103SOL     OW10207   3.600   0.151   1.041
 3103SOL    HW110208   3.653   0.233   1.017
 3103SOL    HW210209   3.625   0.122   1.134
 3104SOL     OW10210   4.536   0.393   6.215
 3104SOL    HW110211   4.622   0.342   6.210
 3104SOL    HW210212   4.459   0.329   6.223
 3105SOL     OW10213   5.107   3.028   0.197
 3105SOL    HW110214   5.009   3.032   0.181
 3105SOL    HW210215   5.125   3.043   0.295
 3106SOL     OW10216   5.753   0.954   4.742
 3106SOL    HW110217   5.683   0.926   4.807
 3106SOL    HW210218   5.768   0.880   4.676
 3107SOL     OW10219   4.579   1.614   5.131
 3107SOL    HW110220   4.652   1.592   5.067
 3107SOL    HW210221   4.512   1.673   5.086
 3108SOL     OW10222   2.466   4.449   4.623
 3108SOL    HW110223   2.428   4.523   4.679
 3108SOL    HW210224   2.403   4.371   4.625
 3109SOL     OW10225   6.355   0.076   4.191
 3109SOL    HW110226   6.347   7.008   4.153
 3109SOL    HW210227   6.278   0.092   4.253
 3110SOL     OW10228   2.156   4.698   3.707
 3110SOL    HW110229   2.135   4.634   3.634
 3110SOL    HW210230   2.096   4.681   3.785
 3111SOL     OW10231   6.486   4.882   4.994
 3111SOL    HW110232   6.491   4.851   5.089
 3111SOL    HW210233   6.453   4.977   4.992
 3112SOL     OW10234   3.922   2.668   0.238
 3112SOL    HW110235   3.905   2.681   0.336
 3112SOL    HW210236   3.847   2.708   0.185
 3113SOL     OW10237   2.644   6.102   2.671
 3113SOL    HW110238   2.557   6.128   2.628
 3113SOL    HW210239   2.635   6.014   2.716
 3114SOL     OW10240   3.602   1.733   0.252
 3114SOL    HW110241   3.559   1.710   0.164
 3114SOL    HW210242   3.542   1.705   0.326
 3115SOL     OW10243   4.094   4.443   5.354
 3115SOL    HW110244   4.180   4.457   5.305
 3115SOL    HW210245   4.025   4.407   5.292
 3116SOL     OW10246   0.079   2.471   0.893
 3116SOL    HW110247   0.006   2.537   0.911
 3116SOL    HW210248   0.133   2.458   0.976
 3117SOL     OW10249   5.004   1.903   5.764
 3117SOL    HW110250   4.915   1.876   5.728
 3117SOL    HW210251   5.009   2.003   5.768
 3118SOL     OW10252   1.546   0.514   2.910
 3118SOL    HW110253   1.503   0.588   2.960
 3118SOL    HW210254   1.637   0.543   2.880
 3119SOL     OW10255   3.885   2.942   5.593
 3119SOL    HW110256   3.961   2.880   5.612
 3119SOL    HW210257   3.915   3.014   5.531
 3120SOL     OW10258   2.977   0.304   4.917
 3120SOL    HW110259   3.010   0.210   4.920
 3120SOL    HW210260   3.040   0.363   4.968
 3121SOL     OW10261   4.954   1.835   4.497
 3121SOL    HW110262   5.023   1.896   4.537
 3121SOL    HW210263   4.990   1.795   4.413
 3122SOL     OW10264   4.407   4.704   4.190
 3122SOL    HW110265   4.506   4.715   4.187
 3122SOL    HW210266   4.368   4.728   4.100
 3123SOL     OW10267   2.019   1.801   3.208
 3123SOL    HW110268   1.995   1.849   3.292
 3123SOL    HW210269   2.112   1.825   3.181
 3124SOL     OW10270   5.216   6.726   4.892
 3124SOL    HW110271   5.301   6.779   4.892
 3124SOL    HW210272   5.190   6.705   4.987
 3125SOL     OW10273   1.064   2.686   5.406
 3125SOL    HW110274   1.112   2.743   5.473
 3125SOL    HW210275   0.986   2.737   5.369
 3126SOL     OW10276   5.887   5.720   4.647
 3126SOL    HW110277   5.788   5.709   4.649
 3126SOL    HW210278   5.918   5.759   4.734
 3127SOL     OW10279   0.903   2.500   4.443
 3127SOL    HW110280   0.898   2.463   4.536
 3127SOL    HW210281   0.967   2.444   4.389
 3128SOL     OW10282   3.404   0.081   0.407
 3128SOL    HW110283   3.467   0.151   0.372
 3128SOL    HW210284   3.312   0.097   0.370
 3129SOL     OW10285   5.186   3.009   1.045
 3129SOL    HW110286   5.265   2.964   1.086
 3129SOL    HW210287   5.178   3.102   1.081
 3130SOL     OW10288   1.864   3.827   1.254
 3130SOL    HW110289   1.924   3.820   1.175
 3130SOL    HW210290   1.869   3.742   1.307
 3131SOL     OW10291   0.038   3.927   1.788
 3131SOL    HW110292   0.081   3.993   1.849
 3131SOL    HW210293   7.010   3.975   1.718
 3132SOL     OW10294   3.548   4.653   0.268
 3132SOL    HW110295   3.500   4.716   0.208
 3132SOL    HW210296   3.489   4.576   0.291
 3133SOL     OW10297   3.728   0.395   3.417
 3133SOL    HW110298   3.654   0.343   3.372
 3133SOL    HW210299   3.807   0.336   3.430
 3134SOL     OW10300   3.134   4.903   2.017
 3134SOL    HW110301   3.108   4.858   1.932
 3134SOL    HW210302   3.232   4.920   2.018
 3135SOL     OW10303   5.559   0.066   6.141
 3135SOL    HW110304   5.592   0.149   6.184
 3135SOL    HW210305   5.635   0.003   6.125
 3136SOL     OW10306   6.293   1.104   2.499
 3136SOL    HW110307   6.299   1.190   2.549
 3136SOL    HW210308   6.225   1.045   2.542
 3137SOL     OW10309   6.518   0.207   0.540
 3137SOL    HW110310   6.608   0.201   0.583
 3137SOL    HW210311   6.492   0.117   0.505
 3138SOL     OW10312   5.636   6.024   4.111
 3138SOL    HW110313   5.715   6.045   4.053
 3138SOL    HW210314   5.591   5.941   4.077
 3139SOL     OW10315   2.563   4.766   1.374
 3139SOL    HW110316   2.650   4.799   1.410
 3139SOL    HW210317   2.523   4.701   1.438
 3140SOL     OW10318   6.087   6.618   5.799
 3140SOL    HW110319   6.103   6.585   5.892
 3140SOL    HW210320   5.991   6.605   5.776
 3141SOL     OW10321   0.461   2.226   0.005
 3141SOL    HW110322   0.370   2.215   0.044
 3141SOL    HW210323   0.454   2.226   6.929
 3142SOL     OW10324   4.746   0.725   2.564
 3142SOL    HW110325   4.746   0.630   2.595
 3142SOL    HW210326   4.792   0.782   2.632
 3143SOL     OW10327   5.994   2.030   0.400
 3143SOL    HW110328   5.925   1.961   0.377
 3143SOL    HW210329   6.007   2.092   0.323
 3144SOL     OW10330   4.521   3.824   6.499
 3144SOL    HW110331   4.573   3.756   6.551
 3144SOL    HW210332   4.461   3.876   6.561
 3145SOL     OW10333   2.889   6.640   1.788
 3145SOL    HW110334   2.930   6.613   1.875
 3145SOL    HW210335   2.789   6.633   1.795
 3146SOL     OW10336   0.624   0.987   4.818
 3146SOL    HW110337   0.611   0.910   4.881
 3146SOL    HW210338   0.722   1.009   4.813
 3147SOL     OW10339   3.603   5.136   6.540
 3147SOL    HW110340   3.611   5.036   6.546
 3147SOL    HW210341   3.647   5.168   6.457
 3148SOL     OW10342   0.488   6.772   3.014
 3148SOL    HW110343   0.479   6.835   2.937
 3148SOL    HW210344   0.489   6.823   3.100
 3149SOL     OW10345   3.196   1.379   0.319
 3149SOL    HW110346   3.132   1.430   0.377
 3149SOL    HW210347   3.160   1.287   0.304
 3150SOL     OW10348   6.428   6.033   5.119
 3150SOL    HW110349   6.521   6.043   5.084
 3150SOL    HW210350   6.426   5.960   5.186
 3151SOL     OW10351   6.392   1.819   6.038
 3151SOL    HW110352   6.400   1.916   6.014
 3151SOL    HW210353   6.476   1.771   6.012
 3152SOL     OW10354   1.592   3.891   6.668
 3152SOL    HW110355   1.564   3.826   6.740
 3152SOL    HW210356   1.642   3.842   6.597
 3153SOL     OW10357   6.604   5.087   0.414
 3153SOL    HW110358   6.535   5.144   0.459
 3153SOL    HW210359   6.654   5.142   0.347
 3154SOL     OW10360   6.019   1.386   1.701
 3154SOL    HW110361   5.986   1.362   1.610
 3154SOL    HW210362   6.013   1.306   1.761
 3155SOL     OW10363   6.292   4.759   0.181
 3155SOL    HW110364   6.246   4.819   0.116
 3155SOL    HW210365   6.229   4.688   0.212
 3156SOL     OW10366   3.613   4.169   2.250
 3156SOL    HW110367   3.633   4.265   2.230
 3156SOL    HW210368   3.684   4.132   2.309
 3157SOL     OW10369   1.116   2.017   5.236
 3157SOL    HW110370   1.186   1.978   5.175
 3157SOL    HW210371   1.130   1.981   5.328
 3158SOL     OW10372   2.812   2.387   5.734
 3158SOL    HW110373   2.760   2.461   5.777
 3158SOL    HW210374   2.905   2.386   5.771
 3159SOL     OW10375   4.428   6.821   0.655
 3159SOL    HW110376   4.346   6.878   0.665
 3159SOL    HW210377   4.503   6.877   0.619
 3160SOL     OW10378   2.200   0.025   5.546
 3160SOL    HW110379   2.178   0.012   5.642
 3160SOL    HW210380   2.176   0.118   5.519
 3161SOL     OW10381   1.950   2.653   2.461
 3161SOL    HW110382   1.941   2.716   2.538
 3161SOL    HW210383   1.989   2.701   2.382
 3162SOL     OW10384   1.859   5.455   6.743
 3162SOL    HW110385   1.934   5.503   6.788
 3162SOL    HW210386   1.835   5.501   6.658
 3163SOL     OW10387   4.434   3.551   0.261
 3163SOL    HW110388   4.388   3.463   0.255
 3163SOL    HW210389   4.377   3.616   0.312
 3164SOL     OW10390   2.939   5.687   2.512
 3164SOL    HW110391   2.984   5.776   2.500
 3164SOL    HW210392   2.987   5.618   2.458
 3165SOL     OW10393   0.534   5.066   0.295
 3165SOL    HW110394   0.520   4.968   0.306
 3165SOL    HW210395   0.631   5.087   0.313
 3166SOL     OW10396   4.043   1.047   4.498
 3166SOL    HW110397   4.057   1.146   4.508
 3166SOL    HW210398   3.967   1.018   4.557
 3167SOL     OW10399   4.836   4.039   0.296
 3167SOL    HW110400   4.762   4.093   0.338
 3167SOL    HW210401   4.852   3.957   0.351
 3168SOL     OW10402   4.709   2.748   1.219
 3168SOL    HW110403   4.719   2.653   1.249
 3168SOL    HW210404   4.796   2.780   1.182
 3169SOL     OW10405   1.579   4.762   2.424
 3169SOL    HW110406   1.496   4.722   2.385
 3169SOL    HW210407   1.658   4.737   2.368
 3170SOL     OW10408   3.650   6.028   2.671
 3170SOL    HW110409   3.739   5.985   2.683
 3170SOL    HW210410   3.656   6.098   2.599
 3171SOL     OW10411   5.206   3.167   2.123
 3171SOL    HW110412   5.243   3.174   2.030
 3171SOL    HW210413   5.199   3.259   2.162
 3172SOL     OW10414   7.024   4.645   7.018
 3172SOL    HW110415   6.947   4.640   6.954
 3172SOL    HW210416   0.064   4.714   6.986
 3173SOL     OW10417   2.811   1.752   6.815
 3173SOL    HW110418   2.751   1.831   6.829
 3173SOL    HW210419   2.907   1.781   6.825
 3174SOL     OW10420   2.613   2.676   5.723
 3174SOL    HW110421   2.630   2.769   5.692
 3174SOL    HW210422   2.516   2.653   5.709
 3175SOL     OW10423   6.706   1.422   3.323
 3175SOL    HW110424   6.629   1.460   3.374
 3175SOL    HW210425   6.680   1.408   3.228
 3176SOL     OW10426   0.036   3.813   4.958
 3176SOL    HW110427   0.063   3.904   4.925
 3176SOL    HW210428   0.096   3.785   5.032
 3177SOL     OW10429   5.310   4.315   3.197
 3177SOL    HW110430   5.314   4.261   3.113
 3177SOL    HW210431   5.344   4.407   3.180
 3178SOL     OW10432   5.389   1.747   0.139
 3178SOL    HW110433   5.454   1.672   0.134
 3178SOL    HW210434   5.404   1.809   0.062
 3179SOL     OW10435   1.233   1.732   2.440
 3179SOL    HW110436   1.151   1.773   2.400
 3179SOL    HW210437   1.213   1.700   2.532
 3180SOL     OW10438   5.663   6.582   6.840
 3180SOL    HW110439   5.757   6.613   6.851
 3180SOL    HW210440   5.663   6.486   6.813
 3181SOL     OW10441   0.304   1.420   4.410
 3181SOL    HW110442   0.355   1.492   4.362
 3181SOL    HW210443   0.311   1.334   4.357
 3182SOL     OW10444   3.234   0.101   0.794
 3182SOL    HW110445   3.195   0.050   0.717
 3182SOL    HW210446   3.309   0.159   0.760
 3183SOL     OW10447   4.679   4.929   2.387
 3183SOL    HW110448   4.734   4.845   2.382
 3183SOL    HW210449   4.702   4.989   2.310
 3184SOL     OW10450   0.565   2.263   3.693
 3184SOL    HW110451   0.643   2.203   3.673
 3184SOL    HW210452   0.491   2.244   3.629
 3185SOL     OW10453   6.678   6.353   5.448
 3185SOL    HW110454   6.770   6.391   5.454
 3185SOL    HW210455   6.659   6.298   5.530
 3186SOL     OW10456   1.811   0.763   6.827
 3186SOL    HW110457   1.869   0.683   6.845
 3186SOL    HW210458   1.786   0.806   6.913
 3187SOL     OW10459   3.574   5.233   2.444
 3187SOL    HW110460   3.506   5.194   2.383
 3187SOL    HW210461   3.540   5.319   2.482
 3188SOL     OW10462   2.028   5.127   4.916
 3188SOL    HW110463   2.071   5.086   4.836
 3188SOL    HW210464   2.047   5.225   4.917
 3189SOL     OW10465   1.985   0.804   0.514
 3189SOL    HW110466   1.905   0.843   0.468
 3189SOL    HW210467   2.068   0.847   0.477
 3190SOL     OW10468   6.533   5.508   5.848
 3190SOL    HW110469   6.464   5.486   5.779
 3190SOL    HW210470   6.497   5.492   5.939
 3191SOL     OW10471   4.479   5.574   2.418
 3191SOL    HW110472   4.489   5.672   2.437
 3191SOL    HW210473   4.444   5.528   2.500
 3192SOL     OW10474   0.570   2.577   1.375
 3192SOL    HW110475   0.613   2.621   1.297
 3192SOL    HW210476   0.639   2.532   1.431
 3193SOL     OW10477   3.995   0.914   5.140
 3193SOL    HW110478   4.025   0.989   5.081
 3193SOL    HW210479   4.032   0.928   5.232
 3194SOL     OW10480   1.196   1.278   5.571
 3194SOL    HW110481   1.146   1.193   5.590
 3194SOL    HW210482   1.293   1.258   5.559
 3195SOL     OW10483   0.429   1.413   1.945
 3195SOL    HW110484   0.425   1.493   2.005
 3195SOL    HW210485   0.483   1.341   1.990
 3196SOL     OW10486   6.698   0.779   5.752
 3196SOL    HW110487   6.765   0.853   5.755
 3196SOL    HW210488   6.723   0.708   5.817
 3197SOL     OW10489   2.633   6.568   5.677
 3197SOL    HW110490   2.669   6.604   5.591
 3197SOL    HW210491   2.554   6.623   5.706
 3198SOL     OW10492   6.472   2.268   4.034
 3198SOL    HW110493   6.376   2.289   4.013
 3198SOL    HW210494   6.483   2.261   4.133
 3199SOL     OW10495   5.489   4.995   3.066
 3199SOL    HW110496   5.433   4.913   3.065
 3199SOL    HW210497   5.512   5.019   3.160
 3200SOL     OW10498   6.524   3.261   4.148
 3200SOL    HW110499   6.425   3.249   4.146
 3200SOL    HW210500   6.555   3.296   4.059
 3201SOL     OW10501   6.358   4.746   3.164
 3201SOL    HW110502   6.299   4.824   3.182
 3201SOL    HW210503   6.308   4.661   3.182
 3202SOL     OW10504   1.035   4.963   0.888
 3202SOL    HW110505   1.114   5.017   0.913
 3202SOL    HW210506   0.951   5.012   0.911
 3203SOL     OW10507   4.674   0.821   1.517
 3203SOL    HW110508   4.720   0.767   1.588
 3203SOL    HW210509   4.613   0.763   1.465
 3204SOL     OW10510   2.909   1.897   3.423
 3204SOL    HW110511   2.995   1.906   3.372
 3204SOL    HW210512   2.903   1.805   3.463
 3205SOL     OW10513   5.457   3.581   5.856
 3205SOL    HW110514   5.442   3.520   5.778
 3205SOL    HW210515   5.373   3.587   5.910
 3206SOL     OW10516   2.864   3.060   1.526
 3206SOL    HW110517   2.856   3.085   1.623
 3206SOL    HW210518   2.784   3.006   1.500
 3207SOL     OW10519   0.910   0.811   5.661
 3207SOL    HW110520   0.855   0.856   5.590
 3207SOL    HW210521   0.919   0.714   5.639
 3208SOL     OW10522   5.986   5.582   6.055
 3208SOL    HW110523   5.908   5.580   6.118
 3208SOL    HW210524   5.994   5.673   6.015
 3209SOL     OW10525   3.823   5.341   5.365
 3209SOL    HW110526   3.753   5.401   5.324
 3209SOL    HW210527   3.913   5.364   5.328
 3210SOL     OW10528   0.280   5.097   1.579
 3210SOL    HW110529   0.229   5.177   1.611
 3210SOL    HW210530   0.377   5.110   1.600
 3211SOL     OW10531   1.623   4.647   0.805
 3211SOL    HW110532   1.606   4.739   0.769
 3211SOL    HW210533   1.638   4.584   0.730
 3212SOL     OW10534   3.455   0.174   2.470
 3212SOL    HW110535   3.481   0.140   2.561
 3212SOL    HW210536   3.392   0.251   2.480
 3213SOL     OW10537   1.833   0.460   6.097
 3213SOL    HW110538   1.812   0.517   6.018
 3213SOL    HW210539   1.766   0.477   6.169
 3214SOL     OW10540   4.713   6.754   3.926
 3214SOL    HW110541   4.619   6.737   3.896
 3214SOL    HW210542   4.741   6.845   3.898
 3215SOL     OW10543   0.921   3.314   0.338
 3215SOL    HW110544   0.928   3.392   0.400
 3215SOL    HW210545   1.007   3.304   0.288
 3216SOL     OW10546   5.896   5.075   1.338
 3216SOL    HW110547   5.847   5.048   1.256
 3216SOL    HW210548   5.877   5.171   1.358
 3217SOL     OW10549   0.077   5.514   2.794
 3217SOL    HW110550   0.121   5.502   2.705
 3217SOL    HW210551   0.086   5.430   2.848
 3218SOL     OW10552   5.824   2.083   3.535
 3218SOL    HW110553   5.894   2.147   3.566
 3218SOL    HW210554   5.804   2.019   3.609
 3219SOL     OW10555   6.927   1.052   5.224
 3219SOL    HW110556   6.926   1.137   5.276
 3219SOL    HW210557   6.834   1.028   5.196
 3220SOL     OW10558   0.371   5.867   6.497
 3220SOL    HW110559   0.385   5.793   6.432
 3220SOL    HW210560   0.295   5.844   6.558
 3221SOL     OW10561   3.873   0.176   2.670
 3221SOL    HW110562   3.909   0.084   2.682
 3221SOL    HW210563   3.888   0.207   2.576
 3222SOL     OW10564   2.630   1.298   3.247
 3222SOL    HW110565   2.725   1.290   3.215
 3222SOL    HW210566   2.630   1.322   3.344
 3223SOL     OW10567   1.886   6.389   0.739
 3223SOL    HW110568   1.884   6.472   0.795
 3223SOL    HW210569   1.972   6.386   0.688
 3224SOL     OW10570   5.314   2.454   5.216
 3224SOL    HW110571   5.363   2.491   5.138
 3224SOL    HW210572   5.347   2.498   5.300
 3225SOL     OW10573   4.130   1.401   4.751
 3225SOL    HW110574   4.127   1.491   4.795
 3225SOL    HW210575   4.213   1.353   4.779
 3226SOL     OW10576   1.732   6.992   2.029
 3226SOL    HW110577   1.768   6.911   1.983
 3226SOL    HW210578   1.648   7.022   1.984
 3227SOL     OW10579   3.666   2.438   6.446
 3227SOL    HW110580   3.626   2.521   6.486
 3227SOL    HW210581   3.596   2.390   6.393
 3228SOL     OW10582   0.291   3.944   0.393
 3228SOL    HW110583   0.367   3.934   0.458
 3228SOL    HW210584   0.309   3.889   0.311
 3229SOL     OW10585   3.229   0.843   5.472
 3229SOL    HW110586   3.301   0.910   5.454
 3229SOL    HW210587   3.269   0.751   5.473
 3230SOL     OW10588   2.137   5.710   6.215
 3230SOL    HW110589   2.188   5.657   6.283
 3230SOL    HW210590   2.166   5.682   6.123
 3231SOL     OW10591   3.205   1.204   2.597
 3231SOL    HW110592   3.291   1.167   2.561
 3231SOL    HW210593   3.167   1.270   2.532
 3232SOL     OW10594   3.597   6.036   3.595
 3232SOL    HW110595   3.661   5.972   3.555
 3232SOL    HW210596   3.509   6.029   3.549
 3233SOL     OW10597   6.717   2.808   0.753
 3233SOL    HW110598   6.742   2.880   0.817
 3233SOL    HW210599   6.618   2.806   0.743
 3234SOL     OW10600   2.188   2.857   0.266
 3234SOL    HW110601   2.160   2.797   0.341
 3234SOL    HW210602   2.122   2.932   0.259
 3235SOL     OW10603   6.126   5.841   1.719
 3235SOL    HW110604   6.088   5.785   1.644
 3235SOL    HW210605   6.209   5.798   1.753
 3236SOL     OW10606   2.332   3.919   0.471
 3236SOL    HW110607   2.370   3.915   0.379
 3236SOL    HW210608   2.282   3.834   0.490
 3237SOL     OW10609   6.519   1.916   4.077
 3237SOL    HW110610   6.595   1.955   4.130
 3237SOL    HW210611   6.432   1.947   4.115
 3238SOL     OW10612   6.236   5.332   0.299
 3238SOL    HW110613   6.225   5.239   0.264
 3238SOL    HW210614   6.314   5.335   0.361
 3239SOL     OW10615   0.055   0.137   3.744
 3239SOL    HW110616   0.071   0.133   3.843
 3239SOL    HW210617   7.008   0.203   3.724
 3240SOL     OW10618   0.005   0.796   6.313
 3240SOL    HW110619   7.004   0.888   6.344
 3240SOL    HW210620   0.067   0.754   6.380
 3241SOL     OW10621   4.848   1.865   6.517
 3241SOL    HW110622   4.763   1.871   6.570
 3241SOL    HW210623   4.827   1.864   6.420
 3242SOL     OW10624   4.826   3.916   5.972
 3242SOL    HW110625   4.843   3.898   5.875
 3242SOL    HW210626   4.728   3.924   5.988
 3243SOL     OW10627   4.662   5.106   0.010
 3243SOL    HW110628   4.755   5.076   7.010
 3243SOL    HW210629   4.661   5.137   0.105
 3244SOL     OW10630   5.456   6.221   0.101
 3244SOL    HW110631   5.388   6.282   0.060
 3244SOL    HW210632   5.489   6.261   0.186
 3245SOL     OW10633   4.856   2.529   4.101
 3245SOL    HW110634   4.905   2.574   4.026
 3245SOL    HW210635   4.869   2.430   4.094
 3246SOL     OW10636   6.746   0.260   2.937
 3246SOL    HW110637   6.668   0.205   2.907
 3246SOL    HW210638   6.714   0.333   2.997
 3247SOL     OW10639   6.843   4.743   2.730
 3247SOL    HW110640   6.858   4.821   2.791
 3247SOL    HW210641   6.852   4.773   2.635
 3248SOL     OW10642   5.624   2.886   2.192
 3248SOL    HW110643   5.634   2.815   2.123
 3248SOL    HW210644   5.579   2.966   2.151
 3249SOL     OW10645   4.081   3.760   4.288
 3249SOL    HW110646   4.037   3.838   4.243
 3249SOL    HW210647   4.052   3.756   4.384
 3250SOL     OW10648   5.082   6.322   3.598
 3250SOL    HW110649   5.015   6.309   3.524
 3250SOL    HW210650   5.156   6.380   3.564
 3251SOL     OW10651   2.859   1.115   4.348
 3251SOL    HW110652   2.897   1.048   4.412
 3251SOL    HW210653   2.778   1.157   4.389
 3252SOL     OW10654   3.168   1.451   2.748
 3252SOL    HW110655   3.172   1.382   2.677
 3252SOL    HW210656   3.081   1.500   2.742
 3253SOL     OW10657   4.514   3.890   1.235
 3253SOL    HW110658   4.596   3.869   1.288
 3253SOL    HW210659   4.432   3.871   1.290
 3254SOL     OW10660   5.043   6.700   6.308
 3254SOL    HW110661   4.954   6.663   6.337
 3254SOL    HW210662   5.109   6.687   6.381
 3255SOL     OW10663   5.806   5.922   0.917
 3255SOL    HW110664   5.828   5.844   0.975
 3255SOL    HW210665   5.887   5.947   0.863
 3256SOL     OW10666   4.547   2.311   1.311
 3256SOL    HW110667   4.643   2.289   1.332
 3256SOL    HW210668   4.488   2.274   1.383
 3257SOL     OW10669   3.036   2.103   2.033
 3257SOL    HW110670   3.130   2.108   2.066
 3257SOL    HW210671   2.992   2.192   2.041
 3258SOL     OW10672   3.149   5.121   3.110
 3258SOL    HW110673   3.112   5.201   3.156
 3258SOL    HW210674   3.170   5.144   3.014
 3259SOL     OW10675   5.211   4.873   4.267
 3259SOL    HW110676   5.137   4.940   4.271
 3259SOL    HW210677   5.182   4.790   4.316
 3260SOL     OW10678   1.714   4.096   2.174
 3260SOL    HW110679   1.775   4.130   2.102
 3260SOL    HW210680   1.619   4.106   2.145
 3261SOL     OW10681   5.236   0.535   2.098
 3261SOL    HW110682   5.226   0.587   2.183
 3261SOL    HW210683   5.261   0.440   2.120
 3262SOL     OW10684   4.118   2.217   2.568
 3262SOL    HW110685   4.089   2.128   2.533
 3262SOL    HW210686   4.212   2.235   2.538
 3263SOL     OW10687   3.363   0.966   3.930
 3263SOL    HW110688   3.310   0.996   4.009
 3263SOL    HW210689   3.305   0.912   3.869
 3264SOL     OW10690   1.780   5.042   0.863
 3264SOL    HW110691   1.759   5.121   0.804
 3264SOL    HW210692   1.875   5.015   0.849
 3265SOL     OW10693   5.884   5.892   5.984
 3265SOL    HW110694   5.853   5.930   6.072
 3265SOL    HW210695   5.909   5.966   5.923
 3266SOL     OW10696   2.701   4.638   6.873
 3266SOL    HW110697   2.708   4.539   6.872
 3266SOL    HW210698   2.607   4.666   6.891
 3267SOL     OW10699   3.592   0.522   1.959
 3267SOL    HW110700   3.542   0.556   1.879
 3267SOL    HW210701   3.564   0.428   1.978
 3268SOL     OW10702   0.912   4.936   1.527
 3268SOL    HW110703   0.812   4.937   1.534
 3268SOL    HW210704   0.950   4.875   1.597
 3269SOL     OW10705   0.471   5.449   2.280
 3269SOL    HW110706   0.470   5.432   2.182
 3269SOL    HW210707   0.565   5.442   2.314
 3270SOL     OW10708   1.804   2.849   6.323
 3270SOL    HW110709   1.803   2.902   6.409
 3270SOL    HW210710   1.828   2.910   6.247
 3271SOL     OW10711   6.740   3.418   1.695
 3271SOL    HW110712   6.709   3.363   1.617
 3271SOL    HW210713   6.829   3.386   1.725
 3272SOL     OW10714   3.165   4.822   6.669
 3272SOL    HW110715   3.098   4.833   6.742
 3272SOL    HW210716   3.206   4.731   6.673
 3273SOL     OW10717   5.146   4.792   6.093
 3273SOL    HW110718   5.067   4.839   6.133
 3273SOL    HW210719   5.194   4.854   6.031
 3274SOL     OW10720   6.108   0.394   0.627
 3274SOL    HW110721   6.055   0.478   0.615
 3274SOL    HW210722   6.046   0.315   0.626
 3275SOL     OW10723   4.369   1.119   0.969
 3275SOL    HW110724   4.432   1.139   1.044
 3275SOL    HW210725   4.313   1.200   0.950
 3276SOL     OW10726   4.488   6.692   0.048
 3276SOL    HW110727   4.475   6.696   0.147
 3276SOL    HW210728   4.570   6.639   0.027
 3277SOL     OW10729   3.164   1.331   1.071
 3277SOL    HW110730   3.137   1.398   1.001
 3277SOL    HW210731   3.212   1.255   1.027
 3278SOL     OW10732   0.079   0.345   5.852
 3278SOL    HW110733   0.022   0.263   5.859
 3278SOL    HW210734   0.144   0.335   5.776
 3279SOL     OW10735   4.699   6.696   1.023
 3279SOL    HW110736   4.677   6.710   1.119
 3279SOL    HW210737   4.669   6.605   0.995
 3280SOL     OW10738   4.831   4.481   4.156
 3280SOL    HW110739   4.766   4.527   4.215
 3280SOL    HW210740   4.910   4.540   4.140
 3281SOL     OW10741   0.090   4.642   1.195
 3281SOL    HW110742   0.102   4.741   1.185
 3281SOL    HW210743   0.085   4.601   1.104
 3282SOL     OW10744   0.418   3.586   5.125
 3282SOL    HW110745   0.352   3.596   5.200
 3282SOL    HW210746   0.414   3.666   5.066
 3283SOL     OW10747   4.025   1.133   1.165
 3283SOL    HW110748   4.079   1.070   1.221
 3283SOL    HW210749   4.083   1.209   1.135
 3284SOL     OW10750   1.118   5.238   4.885
 3284SOL    HW110751   1.218   5.241   4.882
 3284SOL    HW210752   1.087   5.151   4.847
 3285SOL     OW10753   5.871   1.869   4.662
 3285SOL    HW110754   5.816   1.785   4.661
 3285SOL    HW210755   5.922   1.874   4.747
 3286SOL     OW10756   3.355   2.469   1.610
 3286SOL    HW110757   3.323   2.478   1.516
 3286SOL    HW210758   3.451   2.494   1.615
 3287SOL     OW10759   0.584   0.304   0.070
 3287SOL    HW110760   0.605   0.220   0.022
 3287SOL    HW210761   0.654   0.373   0.051
 3288SOL     OW10762   1.727   6.479   0.990
 3288SOL    HW110763   1.760   6.401   1.043
 3288SOL    HW210764   1.775   6.561   1.019
 3289SOL     OW10765   2.752   1.965   6.545
 3289SOL    HW110766   2.667   2.000   6.585
 3289SOL    HW210767   2.823   2.035   6.554
 3290SOL     OW10768   0.052   5.497   0.727
 3290SOL    HW110769   0.025   5.498   0.630
 3290SOL    HW210770   0.005   5.422   0.773
 3291SOL     OW10771   3.749   0.672   5.710
 3291SOL    HW110772   3.659   0.634   5.731
 3291SOL    HW210773   3.805   0.604   5.663
 3292SOL     OW10774   6.970   1.092   1.013
 3292SOL    HW110775   0.044   1.083   1.024
 3292SOL    HW210776   6.931   1.138   1.093
 3293SOL     OW10777   6.830   4.882   1.668
 3293SOL    HW110778   6.837   4.915   1.573
 3293SOL    HW210779   6.746   4.917   1.709
 3294SOL     OW10780   5.481   1.719   5.666
 3294SOL    HW110781   5.431   1.655   5.608
 3294SOL    HW210782   5.417   1.776   5.716
 3295SOL     OW10783   1.797   3.202   0.823
 3295SOL    HW110784   1.789   3.289   0.774
 3295SOL    HW210785   1.893   3.177   0.832
 3296SOL     OW10786   6.938   0.594   4.722
 3296SOL    HW110787   6.856   0.613   4.775
 3296SOL    HW210788   6.999   0.536   4.776
 3297SOL     OW10789   3.480   1.815   4.932
 3297SOL    HW110790   3.388   1.844   4.955
 3297SOL    HW210791   3.543   1.893   4.938
 3298SOL     OW10792   6.749   2.667   5.835
 3298SOL    HW110793   6.813   2.617   5.894
 3298SOL    HW210794   6.673   2.701   5.889
 3299SOL     OW10795   4.357   6.052   3.015
 3299SOL    HW110796   4.291   6.115   2.974
 3299SOL    HW210797   4.427   6.104   3.064
 3300SOL     OW10798   1.946   0.291   5.685
 3300SOL    HW110799   2.037   0.333   5.677
 3300SOL    HW210800   1.878   0.362   5.704
 3301SOL     OW10801   1.672   3.760   3.201
 3301SOL    HW110802   1.577   3.784   3.184
 3301SOL    HW210803   1.694   3.779   3.297
 3302SOL     OW10804   1.697   4.544   6.819
 3302SOL    HW110805   1.620   4.493   6.857
 3302SOL    HW210806   1.666   4.634   6.789
 3303SOL     OW10807   3.738   3.257   0.470
 3303SOL    HW110808   3.749   3.158   0.456
 3303SOL    HW210809   3.650   3.275   0.513
 3304SOL     OW10810   2.281   5.050   6.070
 3304SOL    HW110811   2.297   5.050   5.972
 3304SOL    HW210812   2.183   5.041   6.088
 3305SOL     OW10813   3.401   0.628   1.787
 3305SOL    HW110814   3.321   0.604   1.733
 3305SOL    HW210815   3.376   0.633   1.884
 3306SOL     OW10816   1.285   6.043   5.707
 3306SOL    HW110817   1.322   5.953   5.685
 3306SOL    HW210818   1.277   6.053   5.806
 3307SOL     OW10819   1.091   6.746   5.924
 3307SOL    HW110820   1.148   6.723   5.845
 3307SOL    HW210821   1.118   6.835   5.960
 3308SOL     OW10822   3.827   5.057   1.042
 3308SOL    HW110823   3.792   4.981   0.988
 3308SOL    HW210824   3.889   5.022   1.112
 3309SOL     OW10825   5.594   4.332   3.782
 3309SOL    HW110826   5.505   4.308   3.819
 3309SOL    HW210827   5.602   4.297   3.689
 3310SOL     OW10828   0.393   4.170   4.745
 3310SOL    HW110829   0.404   4.074   4.721
 3310SOL    HW210830   0.349   4.219   4.669
 3311SOL     OW10831   3.467   3.208   0.978
 3311SOL    HW110832   3.382   3.240   1.020
 3311SOL    HW210833   3.491   3.119   1.017
 3312SOL     OW10834   4.031   2.821   6.117
 3312SOL    HW110835   4.086   2.877   6.179
 3312SOL    HW210836   4.092   2.757   6.069
 3313SOL     OW10837   0.713   0.538   3.204
 3313SOL    HW110838   0.658   0.484   3.140
 3313SOL    HW210839   0.808   0.508   3.200
 3314SOL     OW10840   2.910   0.350   2.476
 3314SOL    HW110841   2.923   0.418   2.404
 3314SOL    HW210842   2.833   0.378   2.533
 3315SOL     OW10843   0.500   4.985   5.244
 3315SOL    HW110844   0.581   4.936   5.276
 3315SOL    HW210845   0.508   5.002   5.146
 3316SOL     OW10846   3.687   1.178   5.370
 3316SOL    HW110847   3.749   1.099   5.368
 3316SOL    HW210848   3.658   1.200   5.277
 3317SOL     OW10849   5.688   2.106   2.339
 3317SOL    HW110850   5.648   2.056   2.416
 3317SOL    HW210851   5.650   2.198   2.335
 3318SOL     OW10852   1.705   0.687   6.569
 3318SOL    HW110853   1.766   0.625   6.617
 3318SOL    HW210854   1.709   0.777   6.612
 3319SOL     OW10855   6.374   0.005   2.901
 3319SOL    HW110856   6.319   0.014   2.984
 3319SOL    HW210857   6.327   0.050   2.824
 3320SOL     OW10858   6.521   0.528   0.062
 3320SOL    HW110859   6.572   0.485   7.013
 3320SOL    HW210860   6.533   0.475   0.147
 3321SOL     OW10861   6.202   1.355   0.826
 3321SOL    HW110862   6.223   1.453   0.835
 3321SOL    HW210863   6.250   1.318   0.747
 3322SOL     OW10864   6.846   2.988   0.932
 3322SOL    HW110865   6.901   3.066   0.964
 3322SOL    HW210866   6.760   2.984   0.982
 3323SOL     OW10867   2.620   1.543   0.855
 3323SOL    HW110868   2.573   1.618   0.902
 3323SOL    HW210869   2.642   1.471   0.921
 3324SOL     OW10870   4.393   5.446   5.050
 3324SOL    HW110871   4.305   5.474   5.011
 3324SOL    HW210872   4.380   5.422   5.147
 3325SOL     OW10873   0.362   3.251   6.391
 3325SOL    HW110874   0.262   3.249   6.396
 3325SOL    HW210875   0.396   3.335   6.432
 3326SOL     OW10876   4.966   1.403   2.201
 3326SOL    HW110877   5.004   1.494   2.217
 3326SOL    HW210878   4.935   1.395   2.106
 3327SOL     OW10879   2.201   5.803   1.416
 3327SOL    HW110880   2.111   5.788   1.375
 3327SOL    HW210881   2.197   5.780   1.514
 3328SOL     OW10882   3.351   1.920   1.258
 3328SOL    HW110883   3.356   1.906   1.357
 3328SOL    HW210884   3.443   1.932   1.221
 3329SOL     OW10885   6.550   7.013   5.234
 3329SOL    HW110886   6.614   0.038   5.293
 3329SOL    HW210887   6.554   6.915   5.254
 3330SOL     OW10888   6.441   3.483   2.221
 3330SOL    HW110889   6.491   3.543   2.283
 3330SOL    HW210890   6.360   3.531   2.186
 3331SOL     OW10891   2.450   2.587   1.214
 3331SOL    HW110892   2.439   2.675   1.168
 3331SOL    HW210893   2.529   2.591   1.275
 3332SOL     OW10894   5.639   5.754   0.233
 3332SOL    HW110895   5.559   5.769   0.292
 3332SOL    HW210896   5.634   5.814   0.153
 3333SOL     OW10897   4.386   5.197   6.524
 3333SOL    HW110898   4.418   5.139   6.599
 3333SOL    HW210899   4.305   5.156   6.483
 3334SOL     OW10900   3.140   3.527   1.535
 3334SOL    HW110901   3.225   3.477   1.553
 3334SOL    HW210902   3.157   3.596   1.464
 3335SOL     OW10903   4.542   5.928   5.504
 3335SOL    HW110904   4.603   5.920   5.583
 3335SOL    HW210905   4.594   5.915   5.420
 3336SOL     OW10906   3.146   5.044   5.339
 3336SOL    HW110907   3.215   5.082   5.276
 3336SOL    HW210908   3.135   4.947   5.321
 3337SOL     OW10909   3.206   2.453   1.372
 3337SOL    HW110910   3.207   2.353   1.375
 3337SOL    HW210911   3.116   2.485   1.345
 3338SOL     OW10912   6.431   3.321   1.129
 3338SOL    HW110913   6.397   3.303   1.221
 3338SOL    HW210914   6.375   3.271   1.063
 3339SOL     OW10915   0.000   6.447   0.096
 3339SOL    HW110916   6.991   6.540   0.111
 3339SOL    HW210917   6.980   6.384   0.159
 3340SOL     OW10918   3.686   6.971   1.877
 3340SOL    HW110919   3.591   6.963   1.845
 3340SOL    HW210920   3.687   6.990   1.975
 3341SOL     OW10921   0.987   6.895   3.694
 3341SOL    HW110922   0.941   6.970   3.742
 3341SOL    HW210923   1.033   6.837   3.761
 3342SOL     OW10924   2.049   0.147   3.702
 3342SOL    HW110925   2.139   0.107   3.721
 3342SOL    HW210926   2.040   0.163   3.604
 3343SOL     OW10927   4.839   3.003   0.229
 3343SOL    HW110928   4.848   3.065   0.307
 3343SOL    HW210929   4.786   3.048   0.157
 3344SOL     OW10930   5.565   4.376   4.974
 3344SOL    HW110931   5.622   4.306   5.017
 3344SOL    HW210932   5.510   4.335   4.902
 3345SOL     OW10933   2.656   3.684   6.053
 3345SOL    HW110934   2.704   3.768   6.080
 3345SOL    HW210935   2.573   3.674   6.109
 3346SOL     OW10936   1.054   1.099   1.943
 3346SOL    HW110937   0.982   1.163   1.915
 3346SOL    HW210938   1.111   1.142   2.013
 3347SOL     OW10939   6.672   4.558   3.591
 3347SOL    HW110940   6.771   4.553   3.576
 3347SOL    HW210941   6.627   4.586   3.507
 3348SOL     OW10942   3.176   3.146   3.355
 3348SOL    HW110943   3.177   3.085   3.276
 3348SOL    HW210944   3.270   3.163   3.385
 3349SOL     OW10945   0.505   4.497   4.253
 3349SOL    HW110946   0.595   4.535   4.232
 3349SOL    HW210947   0.511   4.398   4.257
 3350SOL     OW10948   1.202   1.586   6.319
 3350SOL    HW110949   1.105   1.578   6.343
 3350SOL    HW210950   1.230   1.507   6.265
 3351SOL     OW10951   5.162   0.885   2.056
 3351SOL    HW110952   5.168   0.851   1.962
 3351SOL    HW210953   5.100   0.827   2.109
 3352SOL     OW10954   0.047   3.450   0.135
 3352SOL    HW110955   7.022   3.466   0.220
 3352SOL    HW210956   0.142   3.430   0.155
 3353SOL     OW10957   1.763   6.720   1.881
 3353SOL    HW110958   1.707   6.696   1.801
 3353SOL    HW210959   1.708   6.709   1.964
 3354SOL     OW10960   0.072   2.761   3.928
 3354SOL    HW110961   0.116   2.671   3.930
 3354SOL    HW210962   0.129   2.825   3.877
 3355SOL     OW10963   1.034   1.508   0.324
 3355SOL    HW110964   1.125   1.480   0.295
 3355SOL    HW210965   1.018   1.603   0.298
 3356SOL     OW10966   2.822   2.967   0.355
 3356SOL    HW110967   2.778   3.038   0.300
 3356SOL    HW210968   2.771   2.882   0.345
 3357SOL     OW10969   2.313   4.779   1.570
 3357SOL    HW110970   2.274   4.820   1.488
 3357SOL    HW210971   2.286   4.683   1.577
 3358SOL     OW10972   4.620   6.201   1.866
 3358SOL    HW110973   4.572   6.207   1.954
 3358SOL    HW210974   4.713   6.235   1.877
 3359SOL     OW10975   0.189   0.488   3.575
 3359SOL    HW110976   0.234   0.576   3.592
 3359SOL    HW210977   0.210   0.456   3.483
 3360SOL     OW10978   0.203   1.039   1.077
 3360SOL    HW110979   0.287   1.067   1.124
 3360SOL    HW210980   0.174   0.949   1.110
 3361SOL     OW10981   6.792   5.136   2.727
 3361SOL    HW110982   6.697   5.116   2.752
 3361SOL    HW210983   6.842   5.051   2.715
 3362SOL     OW10984   2.886   1.354   4.753
 3362SOL    HW110985   2.861   1.259   4.770
 3362SOL    HW210986   2.978   1.371   4.789
 3363SOL     OW10987   0.155   0.383   6.117
 3363SOL    HW110988   0.122   0.369   6.023
 3363SOL    HW210989   0.164   0.294   6.162
 3364SOL     OW10990   0.753   4.953   5.490
 3364SOL    HW110991   0.806   4.976   5.571
 3364SOL    HW210992   0.656   4.944   5.515
 3365SOL     OW10993   0.334   2.474   4.418
 3365SOL    HW110994   0.286   2.521   4.492
 3365SOL    HW210995   0.296   2.383   4.406
 3366SOL     OW10996   6.256   0.792   4.291
 3366SOL    HW110997   6.308   0.721   4.242
 3366SOL    HW210998   6.318   0.847   4.346
 3367SOL     OW10999   2.160   2.796   1.545
 3367SOL    HW111000   2.145   2.741   1.627
 3367SOL    HW211001   2.234   2.861   1.561
 3368SOL     OW11002   0.030   5.588   6.566
 3368SOL    HW111003   7.015   5.644   6.493
 3368SOL    HW211004   0.062   5.501   6.528
 3369SOL     OW11005   3.374   1.854   6.724
 3369SOL    HW111006   3.413   1.823   6.638
 3369SOL    HW211007   3.432   1.825   6.800
 3370SOL     OW11008   6.420   6.359   5.129
 3370SOL    HW111009   6.519   6.359   5.114
 3370SOL    HW211010   6.386   6.265   5.128
 3371SOL     OW11011   1.487   4.213   2.925
 3371SOL    HW111012   1.573   4.193   2.877
 3371SOL    HW211013   1.422   4.139   2.910
 3372SOL     OW11014   0.421   1.634   2.140
 3372SOL    HW111015   0.518   1.656   2.139
 3372SOL    HW211016   0.400   1.579   2.221
 3373SOL     OW11017   6.795   1.565   4.241
 3373SOL    HW111018   6.884   1.522   4.228
 3373SOL    HW211019   6.808   1.663   4.258
 3374SOL     OW11020   3.443   5.673   4.709
 3374SOL    HW111021   3.441   5.697   4.612
 3374SOL    HW211022   3.458   5.575   4.719
 3375SOL     OW11023   4.340   4.784   4.921
 3375SOL    HW111024   4.247   4.782   4.883
 3375SOL    HW211025   4.364   4.693   4.956
 3376SOL     OW11026   4.014   3.738   2.840
 3376SOL    HW111027   3.944   3.669   2.822
 3376SOL    HW211028   4.066   3.712   2.922
 3377SOL     OW11029   0.729   6.281   4.549
 3377SOL    HW111030   0.707   6.193   4.591
 3377SOL    HW211031   0.670   6.353   4.587
 3378SOL     OW11032   6.621   1.034   1.430
 3378SOL    HW111033   6.677   0.951   1.430
 3378SOL    HW211034   6.550   1.027   1.361
 3379SOL     OW11035   0.380   4.599   6.094
 3379SOL    HW111036   0.300   4.560   6.050
 3379SOL    HW211037   0.359   4.618   6.190
 3380SOL     OW11038   6.708   5.617   6.388
 3380SOL    HW111039   6.703   5.674   6.471
 3380SOL    HW211040   6.705   5.676   6.307
 3381SOL     OW11041   1.827   2.054   0.341
 3381SOL    HW111042   1.728   2.058   0.356
 3381SOL    HW211043   1.847   2.073   0.245
 3382SOL     OW11044   0.775   1.512   0.714
 3382SOL    HW111045   0.680   1.483   0.718
 3382SOL    HW211046   0.780   1.611   0.723
 3383SOL     OW11047   5.717   4.899   2.489
 3383SOL    HW111048   5.814   4.882   2.471
 3383SOL    HW211049   5.662   4.852   2.421
 3384SOL     OW11050   3.169   2.988   4.895
 3384SOL    HW111051   3.123   2.965   4.980
 3384SOL    HW211052   3.213   3.078   4.904
 3385SOL     OW11053   0.205   4.106   3.836
 3385SOL    HW111054   0.242   4.058   3.916
 3385SOL    HW211055   0.172   4.196   3.863
 3386SOL     OW11056   5.941   3.648   5.669
 3386SOL    HW111057   5.996   3.713   5.616
 3386SOL    HW211058   5.845   3.656   5.641
 3387SOL     OW11059   2.344   1.328   2.761
 3387SOL    HW111060   2.253   1.294   2.740
 3387SOL    HW211061   2.342   1.427   2.771
 3388SOL     OW11062   5.411   3.530   1.303
 3388SOL    HW111063   5.417   3.445   1.250
 3388SOL    HW211064   5.492   3.586   1.285
 3389SOL     OW11065   4.630   4.452   4.420
 3389SOL    HW111066   4.574   4.504   4.484
 3389SOL    HW211067   4.598   4.357   4.417
 3390SOL     OW11068   4.903   3.754   5.777
 3390SOL    HW111069   4.807   3.738   5.755
 3390SOL    HW211070   4.926   3.710   5.864
 3391SOL     OW11071   4.960   2.143   4.898
 3391SOL    HW111072   5.011   2.057   4.901
 3391SOL    HW211073   5.025   2.219   4.891
 3392SOL     OW11074   2.735   1.030   3.801
 3392SOL    HW111075   2.687   0.943   3.785
 3392SOL    HW211076   2.722   1.089   3.721
 3393SOL     OW11077   6.485   6.378   0.845
 3393SOL    HW111078   6.541   6.316   0.789
 3393SOL    HW211079   6.461   6.459   0.791
 3394SOL     OW11080   5.906   3.553   1.162
 3394SOL    HW111081   6.000   3.537   1.132
 3394SOL    HW211082   5.887   3.496   1.242
 3395SOL     OW11083   6.755   2.863   4.306
 3395SOL    HW111084   6.711   2.819   4.228
 3395SOL    HW211085   6.713   2.952   4.322
 3396SOL     OW11086   0.085   3.027   3.333
 3396SOL    HW111087   7.010   3.038   3.335
 3396SOL    HW211088   0.113   2.991   3.244
 3397SOL     OW11089   3.083   1.318   5.373
 3397SOL    HW111090   3.156   1.370   5.416
 3397SOL    HW211091   3.110   1.292   5.280
 3398SOL     OW11092   1.117   6.788   4.531
 3398SOL    HW111093   1.089   6.730   4.455
 3398SOL    HW211094   1.040   6.803   4.593
 3399SOL     OW11095   5.017   4.297   3.991
 3399SOL    HW111096   4.973   4.367   4.048
 3399SOL    HW211097   4.974   4.208   4.009
 3400SOL     OW11098   4.176   1.592   5.689
 3400SOL    HW111099   4.230   1.643   5.755
 3400SOL    HW211100   4.222   1.591   5.600
 3401SOL     OW11101   0.218   3.866   0.888
 3401SOL    HW111102   0.211   3.894   0.792
 3401SOL    HW211103   0.282   3.927   0.935
 3402SOL     OW11104   4.653   5.782   0.881
 3402SOL    HW111105   4.743   5.819   0.902
 3402SOL    HW211106   4.642   5.693   0.925
 3403SOL     OW11107   3.818   0.541   4.816
 3403SOL    HW111108   3.868   0.622   4.785
 3403SOL    HW211109   3.720   0.560   4.812
 3404SOL     OW11110   3.859   1.319   0.793
 3404SOL    HW111111   3.920   1.398   0.801
 3404SOL    HW211112   3.845   1.297   0.697
 3405SOL     OW11113   6.621   3.257   4.971
 3405SOL    HW111114   6.542   3.268   5.032
 3405SOL    HW211115   6.675   3.341   4.971
 3406SOL     OW11116   1.634   4.223   1.797
 3406SOL    HW111117   1.700   4.294   1.822
 3406SOL    HW211118   1.674   4.161   1.730
 3407SOL     OW11119   1.745   5.013   1.435
 3407SOL    HW111120   1.716   5.028   1.340
 3407SOL    HW211121   1.701   4.931   1.471
 3408SOL     OW11122   4.678   4.424   3.885
 3408SOL    HW111123   4.692   4.326   3.871
 3408SOL    HW211124   4.683   4.445   3.983
 3409SOL     OW11125   3.676   6.661   5.397
 3409SOL    HW111126   3.672   6.742   5.339
 3409SOL    HW211127   3.735   6.679   5.476
 3410SOL     OW11128   5.994   6.439   6.753
 3410SOL    HW111129   6.069   6.439   6.820
 3410SOL    HW211130   6.000   6.355   6.699
 3411SOL     OW11131   6.929   3.177   1.962
 3411SOL    HW111132   6.932   3.124   1.876
 3411SOL    HW211133   6.840   3.162   2.006
 3412SOL     OW11134   4.420   3.081   6.603
 3412SOL    HW111135   4.361   3.001   6.606
 3412SOL    HW211136   4.435   3.108   6.508
 3413SOL     OW11137   4.464   1.356   2.714
 3413SOL    HW111138   4.512   1.424   2.659
 3413SOL    HW211139   4.381   1.327   2.666
 3414SOL     OW11140   2.525   1.265   5.228
 3414SOL    HW111141   2.557   1.288   5.136
 3414SOL    HW211142   2.557   1.173   5.252
 3415SOL     OW11143   1.294   4.281   5.046
 3415SOL    HW111144   1.384   4.307   5.013
 3415SOL    HW211145   1.291   4.182   5.060
 3416SOL     OW11146   6.464   4.761   6.340
 3416SOL    HW111147   6.388   4.763   6.405
 3416SOL    HW211148   6.449   4.688   6.273
 3417SOL     OW11149   6.424   6.110   2.780
 3417SOL    HW111150   6.464   6.150   2.862
 3417SOL    HW211151   6.361   6.037   2.806
 3418SOL     OW11152   4.540   0.560   4.516
 3418SOL    HW111153   4.478   0.638   4.522
 3418SOL    HW211154   4.635   0.592   4.516
 3419SOL     OW11155   3.258   5.482   5.744
 3419SOL    HW111156   3.304   5.524   5.822
 3419SOL    HW211157   3.325   5.431   5.690
 3420SOL     OW11158   5.392   2.396   3.780
 3420SOL    HW111159   5.414   2.363   3.688
 3420SOL    HW211160   5.401   2.321   3.845
 3421SOL     OW11161   6.321   0.249   5.945
 3421SOL    HW111162   6.263   0.234   6.025
 3421SOL    HW211163   6.337   0.162   5.898
 3422SOL     OW11164   2.552   6.673   1.173
 3422SOL    HW111165   2.606   6.589   1.173
 3422SOL    HW211166   2.522   6.694   1.080
 3423SOL     OW11167   2.138   0.006   0.536
 3423SOL    HW111168   2.042   0.032   0.546
 3423SOL    HW211169   2.195   0.072   0.584
 3424SOL     OW11170   3.587   0.481   2.443
 3424SOL    HW111171   3.619   0.567   2.404
 3424SOL    HW211172   3.637   0.405   2.401
 3425SOL     OW11173   4.931   4.415   2.436
 3425SOL    HW111174   4.860   4.345   2.442
 3425SOL    HW211175   4.950   4.437   2.341
 3426SOL     OW11176   3.417   2.986   0.164
 3426SOL    HW111177   3.370   3.058   0.216
 3426SOL    HW211178   3.510   3.015   0.143
 3427SOL     OW11179   6.737   6.427   0.339
 3427SOL    HW111180   6.716   6.419   0.241
 3427SOL    HW211181   6.708   6.516   0.372
 3428SOL     OW11182   4.015   4.878   1.647
 3428SOL    HW111183   3.966   4.887   1.734
 3428SOL    HW211184   4.047   4.968   1.618
 3429SOL     OW11185   0.636   1.440   6.937
 3429SOL    HW111186   0.629   1.540   6.936
 3429SOL    HW211187   0.546   1.400   6.917
 3430SOL     OW11188   0.409   6.896   6.319
 3430SOL    HW111189   0.466   6.896   6.237
 3430SOL    HW211190   0.352   6.814   6.320
 3431SOL     OW11191   2.589   6.621   0.696
 3431SOL    HW111192   2.522   6.626   0.622
 3431SOL    HW211193   2.622   6.527   0.705
 3432SOL     OW11194   2.837   2.398   6.078
 3432SOL    HW111195   2.846   2.488   6.121
 3432SOL    HW211196   2.927   2.355   6.072
 3433SOL     OW11197   1.816   0.032   6.418
 3433SOL    HW111198   1.782   6.973   6.374
 3433SOL    HW211199   1.762   0.110   6.388
 3434SOL     OW11200   3.812   2.630   1.012
 3434SOL    HW111201   3.805   2.551   0.951
 3434SOL    HW211202   3.867   2.701   0.969
 3435SOL     OW11203   0.206   2.296   1.985
 3435SOL    HW111204   0.231   2.384   2.026
 3435SOL    HW211205   0.216   2.223   2.053
 3436SOL     OW11206   4.081   6.537   5.141
 3436SOL    HW111207   4.139   6.551   5.061
 3436SOL    HW211208   4.121   6.465   5.198
 3437SOL     OW11209   4.447   0.659   6.279
 3437SOL    HW111210   4.432   0.648   6.377
 3437SOL    HW211211   4.484   0.574   6.241
 3438SOL     OW11212   1.206   2.722   6.420
 3438SOL    HW111213   1.140   2.678   6.358
 3438SOL    HW211214   1.269   2.778   6.367
 3439SOL     OW11215   2.649   0.584   5.167
 3439SOL    HW111216   2.582   0.533   5.220
 3439SOL    HW211217   2.703   0.642   5.228
 3440SOL     OW11218   4.896   3.436   1.270
 3440SOL    HW111219   4.835   3.512   1.292
 3440SOL    HW211220   4.916   3.383   1.353
 3441SOL     OW11221   5.194   0.630   3.379
 3441SOL    HW111222   5.123   0.604   3.444
 3441SOL    HW211223   5.194   0.565   3.302
 3442SOL     OW11224   2.705   5.008   2.688
 3442SOL    HW111225   2.711   4.908   2.698
 3442SOL    HW211226   2.626   5.031   2.632
 3443SOL     OW11227   5.572   0.665   2.519
 3443SOL    HW111228   5.526   0.618   2.444
 3443SOL    HW211229   5.667   0.684   2.494
 3444SOL     OW11230   5.255   4.641   6.935
 3444SOL    HW111231   5.316   4.578   6.888
 3444SOL    HW211232   5.245   4.614   0.006
 3445SOL     OW11233   6.047   4.362   3.992
 3445SOL    HW111234   5.973   4.304   3.958
 3445SOL    HW211235   6.134   4.314   3.978
 3446SOL     OW11236   6.255   0.815   3.192
 3446SOL    HW111237   6.261   0.879   3.269
 3446SOL    HW211238   6.264   0.865   3.106
 3447SOL     OW11239   4.817   4.675   0.914
 3447SOL    HW111240   4.867   4.738   0.973
 3447SOL    HW211241   4.803   4.718   0.824
 3448SOL     OW11242   3.361   0.000   1.021
 3448SOL    HW111243   3.442   0.056   1.033
 3448SOL    HW211244   3.299   0.046   0.957
 3449SOL     OW11245   5.211   6.366   2.918
 3449SOL    HW111246   5.140   6.296   2.927
 3449SOL    HW211247   5.252   6.384   3.008
 3450SOL     OW11248   0.925   2.637   0.571
 3450SOL    HW111249   0.983   2.577   0.626
 3450SOL    HW211250   0.982   2.697   0.515
 3451SOL     OW11251   0.308   5.463   3.181
 3451SOL    HW111252   0.240   5.443   3.251
 3451SOL    HW211253   0.264   5.463   3.091
 3452SOL     OW11254   5.684   1.609   0.132
 3452SOL    HW111255   5.680   1.604   0.232
 3452SOL    HW211256   5.779   1.624   0.104
 3453SOL     OW11257   6.472   5.943   5.577
 3453SOL    HW111258   6.485   6.029   5.529
 3453SOL    HW211259   6.529   5.941   5.659
 3454SOL     OW11260   1.998   0.247   6.098
 3454SOL    HW111261   1.925   0.314   6.095
 3454SOL    HW211262   2.086   0.292   6.085
 3455SOL     OW11263   1.690   3.314   4.316
 3455SOL    HW111264   1.759   3.379   4.286
 3455SOL    HW211265   1.701   3.228   4.266
 3456SOL     OW11266   5.450   6.510   1.954
 3456SOL    HW111267   5.504   6.589   1.982
 3456SOL    HW211268   5.446   6.506   1.854
 3457SOL     OW11269   2.503   5.418   4.026
 3457SOL    HW111270   2.503   5.319   4.045
 3457SOL    HW211271   2.591   5.457   4.052
 3458SOL     OW11272   5.383   6.860   6.951
 3458SOL    HW111273   5.309   6.897   7.007
 3458SOL    HW211274   5.454   6.929   6.939
 3459SOL     OW11275   0.055   4.523   3.371
 3459SOL    HW111276   0.016   4.467   3.444
 3459SOL    HW211277   0.047   4.475   3.284
 3460SOL     OW11278   3.185   3.632   0.638
 3460SOL    HW111279   3.094   3.668   0.617
 3460SOL    HW211280   3.175   3.550   0.696
 3461SOL     OW11281   4.828   5.635   3.840
 3461SOL    HW111282   4.748   5.672   3.888
 3461SOL    HW211283   4.897   5.707   3.830
 3462SOL     OW11284   6.426   3.700   1.870
 3462SOL    HW111285   6.509   3.751   1.892
 3462SOL    HW211286   6.366   3.696   1.950
 3463SOL     OW11287   1.052   3.157   2.557
 3463SOL    HW111288   1.134   3.105   2.535
 3463SOL    HW211289   1.063   3.201   2.647
 3464SOL     OW11290   6.188   2.224   6.753
 3464SOL    HW111291   6.105   2.168   6.742
 3464SOL    HW211292   6.213   2.264   6.665
 3465SOL     OW11293   1.394   3.234   2.213
 3465SOL    HW111294   1.440   3.194   2.293
 3465SOL    HW211295   1.300   3.201   2.209
 3466SOL     OW11296   6.491   5.023   5.656
 3466SOL    HW111297   6.544   5.094   5.610
 3466SOL    HW211298   6.545   4.939   5.663
 3467SOL     OW11299   1.728   1.746   0.902
 3467SOL    HW111300   1.715   1.818   0.834
 3467SOL    HW211301   1.789   1.779   0.973
 3468SOL     OW11302   5.591   1.599   2.933
 3468SOL    HW111303   5.597   1.681   2.990
 3468SOL    HW211304   5.505   1.600   2.882
 3469SOL     OW11305   5.091   0.666   5.001
 3469SOL    HW111306   5.124   0.607   5.075
 3469SOL    HW211307   5.037   0.741   5.040
 3470SOL     OW11308   0.147   2.720   2.179
 3470SOL    HW111309   0.071   2.690   2.237
 3470SOL    HW211310   0.125   2.809   2.139
 3471SOL     OW11311   4.609   4.403   3.566
 3471SOL    HW111312   4.550   4.340   3.515
 3471SOL    HW211313   4.675   4.351   3.620
 3472SOL     OW11314   3.889   1.306   1.734
 3472SOL    HW111315   3.917   1.343   1.645
 3472SOL    HW211316   3.854   1.213   1.722
 3473SOL     OW11317   5.924   2.955   2.736
 3473SOL    HW111318   5.874   2.976   2.820
 3473SOL    HW211319   5.893   3.015   2.663
 3474SOL     OW11320   0.143   4.153   2.705
 3474SOL    HW111321   0.065   4.212   2.683
 3474SOL    HW211322   0.144   4.076   2.641
 3475SOL     OW11323   1.006   4.218   5.016
 3475SOL    HW111324   1.095   4.264   5.011
 3475SOL    HW211325   1.018   4.120   5.004
 3476SOL     OW11326   1.999   2.018   2.605
 3476SOL    HW111327   1.977   1.921   2.593
 3476SOL    HW211328   1.916   2.073   2.593
 3477SOL     OW11329   1.012   4.001   0.997
 3477SOL    HW111330   1.023   3.988   0.898
 3477SOL    HW211331   1.052   4.089   1.023
 3478SOL     OW11332   2.782   6.386   6.802
 3478SOL    HW111333   2.877   6.393   6.770
 3478SOL    HW211334   2.763   6.292   6.830
 3479SOL     OW11335   0.736   1.136   2.946
 3479SOL    HW111336   0.778   1.168   3.031
 3479SOL    HW211337   0.710   1.215   2.890
 3480SOL     OW11338   0.718   6.465   5.247
 3480SOL    HW111339   0.633   6.458   5.300
 3480SOL    HW211340   0.752   6.373   5.226
 3481SOL     OW11341   5.415   0.722   0.402
 3481SOL    HW111342   5.473   0.707   0.322
 3481SOL    HW211343   5.396   0.820   0.411
 3482SOL     OW11344   6.117   1.612   2.296
 3482SOL    HW111345   6.076   1.525   2.322
 3482SOL    HW211346   6.048   1.684   2.300
 3483SOL     OW11347   5.449   1.886   2.723
 3483SOL    HW111348   5.424   1.954   2.654
 3483SOL    HW211349   5.545   1.897   2.748
 3484SOL     OW11350   1.401   3.061   0.061
 3484SOL    HW111351   1.485   3.011   0.080
 3484SOL    HW211352   1.359   3.025   7.002
 3485SOL     OW11353   1.103   2.158   4.428
 3485SOL    HW111354   1.017   2.135   4.382
 3485SOL    HW211355   1.099   2.253   4.460
 3486SOL     OW11356   1.461   0.465   3.797
 3486SOL    HW111357   1.459   0.388   3.733
 3486SOL    HW211358   1.398   0.447   3.873
 3487SOL     OW11359   6.444   2.339   0.259
 3487SOL    HW111360   6.355   2.384   0.264
 3487SOL    HW211361   6.430   2.241   0.245
 3488SOL     OW11362   5.959   0.736   5.139
 3488SOL    HW111363   6.040   0.786   5.167
 3488SOL    HW211364   5.975   0.694   5.050
 3489SOL     OW11365   3.669   0.033   2.125
 3489SOL    HW111366   3.672   0.109   2.190
 3489SOL    HW211367   3.656   6.972   2.175
 3490SOL     OW11368   3.441   4.629   1.446
 3490SOL    HW111369   3.523   4.668   1.487
 3490SOL    HW211370   3.452   4.530   1.438
 3491SOL     OW11371   4.165   3.140   6.166
 3491SOL    HW111372   4.079   3.170   6.208
 3491SOL    HW211373   4.151   3.130   6.067
 3492SOL     OW11374   6.054   4.397   0.569
 3492SOL    HW111375   6.098   4.351   0.647
 3492SOL    HW211376   5.968   4.352   0.548
 3493SOL     OW11377   6.079   3.961   4.082
 3493SOL    HW111378   6.070   3.934   4.177
 3493SOL    HW211379   5.999   3.932   4.030
 3494SOL     OW11380   2.664   0.925   2.268
 3494SOL    HW111381   2.625   0.952   2.179
 3494SOL    HW211382   2.715   1.002   2.306
 3495SOL     OW11383   6.716   4.207   2.377
 3495SOL    HW111384   6.758   4.227   2.288
 3495SOL    HW211385   6.623   4.242   2.379
 3496SOL     OW11386   6.008   5.287   0.865
 3496SOL    HW111387   5.989   5.384   0.849
 3496SOL    HW211388   5.931   5.244   0.913
 3497SOL     OW11389   2.367   1.439   3.892
 3497SOL    HW111390   2.370   1.479   3.801
 3497SOL    HW211391   2.460   1.425   3.926
 3498SOL     OW11392   3.371   1.176   2.178
 3498SOL    HW111393   3.276   1.182   2.146
 3498SOL    HW211394   3.380   1.098   2.240
 3499SOL     OW11395   6.119   4.526   4.388
 3499SOL    HW111396   6.126   4.624   4.369
 3499SOL    HW211397   6.208   4.482   4.375
 3500SOL     OW11398   1.814   3.165   3.041
 3500SOL    HW111399   1.801   3.241   2.978
 3500SOL    HW211400   1.729   3.113   3.049
 3501SOL     OW11401   3.381   6.986   5.809
 3501SOL    HW111402   3.290   6.964   5.776
 3501SOL    HW211403   3.409   6.918   5.877
 3502SOL     OW11404   6.945   2.717   1.659
 3502SOL    HW111405   7.007   2.774   1.605
 3502SOL    HW211406   6.854   2.760   1.663
 3503SOL     OW11407   6.502   6.136   5.374
 3503SOL    HW111408   6.552   6.223   5.382
 3503SOL    HW211409   6.517   6.098   5.283
 3504SOL     OW11410   2.274   0.655   2.227
 3504SOL    HW111411   2.335   0.596   2.280
 3504SOL    HW211412   2.182   0.651   2.265
 3505SOL     OW11413   5.149   4.451   5.434
 3505SOL    HW111414   5.193   4.529   5.478
 3505SOL    HW211415   5.074   4.484   5.376
 3506SOL     OW11416   5.532   4.658   4.998
 3506SOL    HW111417   5.601   4.713   5.045
 3506SOL    HW211418   5.549   4.561   5.014
 3507SOL     OW11419   3.238   0.585   0.678
 3507SOL    HW111420   3.148   0.594   0.721
 3507SOL    HW211421   3.302   0.650   0.719
 3508SOL     OW11422   2.058   1.351   6.101
 3508SOL    HW111423   2.037   1.269   6.049
 3508SOL    HW211424   1.977   1.409   6.107
 3509SOL     OW11425   5.768   6.896   6.952
 3509SOL    HW111426   5.821   6.812   6.939
 3509SOL    HW211427   5.786   6.959   6.876
 3510SOL     OW11428   1.653   0.778   1.901
 3510SOL    HW111429   1.592   0.779   1.821
 3510SOL    HW211430   1.641   0.692   1.951
 3511SOL     OW11431   1.986   4.283   1.536
 3511SOL    HW111432   2.025   4.193   1.514
 3511SOL    HW211433   1.944   4.321   1.454
 3512SOL     OW11434   0.204   4.265   0.706
 3512SOL    HW111435   0.123   4.206   0.712
 3512SOL    HW211436   0.283   4.211   0.677
 3513SOL     OW11437   5.967   2.078   0.664
 3513SOL    HW111438   5.906   2.006   0.698
 3513SOL    HW211439   5.981   2.065   0.566
 3514SOL     OW11440   6.976   0.750   1.589
 3514SOL    HW111441   0.024   0.777   1.526
 3514SOL    HW211442   6.933   0.832   1.627
 3515SOL     OW11443   4.691   6.125   3.068
 3515SOL    HW111444   4.712   6.061   2.994
 3515SOL    HW211445   4.650   6.075   3.145
 3516SOL     OW11446   4.313   6.594   0.584
 3516SOL    HW111447   4.239   6.580   0.649
 3516SOL    HW211448   4.348   6.688   0.593
 3517SOL     OW11449   6.915   1.041   1.378
 3517SOL    HW111450   6.874   0.960   1.336
 3517SOL    HW211451   6.842   1.102   1.410
 3518SOL     OW11452   5.110   2.626   5.131
 3518SOL    HW111453   5.110   2.619   5.031
 3518SOL    HW211454   5.182   2.567   5.168
 3519SOL     OW11455   1.505   0.316   5.748
 3519SOL    HW111456   1.545   0.227   5.729
 3519SOL    HW211457   1.460   0.352   5.666
 3520SOL     OW11458   3.312   6.154   0.086
 3520SOL    HW111459   3.280   6.094   0.013
 3520SOL    HW211460   3.263   6.241   0.080
 3521SOL     OW11461   4.514   2.699   0.088
 3521SOL    HW111462   4.608   2.731   0.086
 3521SOL    HW211463   4.505   2.618   0.029
 3522SOL     OW11464   0.158   5.579   0.064
 3522SOL    HW111465   0.106   5.650   0.111
 3522SOL    HW211466   0.203   5.617   7.009
 3523SOL     OW11467   1.173   4.522   5.094
 3523SOL    HW111468   1.234   4.452   5.055
 3523SOL    HW211469   1.157   4.502   5.191
 3524SOL     OW11470   5.119   2.156   1.900
 3524SOL    HW111471   5.164   2.224   1.957
 3524SOL    HW211472   5.021   2.176   1.894
 3525SOL     OW11473   6.538   3.377   3.887
 3525SOL    HW111474   6.445   3.345   3.865
 3525SOL    HW211475   6.538   3.476   3.896
 3526SOL     OW11476   2.230   6.774   3.614
 3526SOL    HW111477   2.264   6.821   3.532
 3526SOL    HW211478   2.270   6.815   3.696
 3527SOL     OW11479   6.049   3.547   6.507
 3527SOL    HW111480   5.962   3.513   6.472
 3527SOL    HW211481   6.087   3.613   6.442
 3528SOL     OW11482   1.726   6.494   5.343
 3528SOL    HW111483   1.702   6.413   5.397
 3528SOL    HW211484   1.773   6.560   5.402
 3529SOL     OW11485   3.921   6.990   1.064
 3529SOL    HW111486   3.934   7.017   0.968
 3529SOL    HW211487   3.996   6.930   1.091
 3530SOL     OW11488   6.411   5.473   0.802
 3530SOL    HW111489   6.467   5.526   0.738
 3530SOL    HW211490   6.379   5.534   0.875
 3531SOL     OW11491   5.445   2.074   0.509
 3531SOL    HW111492   5.476   2.111   0.597
 3531SOL    HW211493   5.481   2.131   0.435
 3532SOL     OW11494   2.729   0.214   1.921
 3532SOL    HW111495   2.716   0.239   2.017
 3532SOL    HW211496   2.755   0.118   1.915
 3533SOL     OW11497   0.172   1.004   2.342
 3533SOL    HW111498   0.161   1.103   2.340
 3533SOL    HW211499   0.116   0.963   2.270
 3534SOL     OW11500   0.740   1.944   0.532
 3534SOL    HW111501   0.724   1.954   0.434
 3534SOL    HW211502   0.780   1.854   0.551
 3535SOL     OW11503   2.063   5.303   6.171
 3535SOL    HW111504   1.998   5.376   6.193
 3535SOL    HW211505   2.156   5.332   6.197
 3536SOL     OW11506   3.261   1.488   3.013
 3536SOL    HW111507   3.233   1.486   2.917
 3536SOL    HW211508   3.315   1.570   3.030
 3537SOL     OW11509   2.157   5.742   2.857
 3537SOL    HW111510   2.093   5.691   2.799
 3537SOL    HW211511   2.249   5.733   2.820
 3538SOL     OW11512   2.217   6.281   5.404
 3538SOL    HW111513   2.220   6.181   5.404
 3538SOL    HW211514   2.177   6.313   5.318
 3539SOL     OW11515   3.624   3.311   5.470
 3539SOL    HW111516   3.643   3.324   5.568
 3539SOL    HW211517   3.651   3.393   5.420
 3540SOL     OW11518   1.786   2.777   4.609
 3540SOL    HW111519   1.818   2.823   4.692
 3540SOL    HW211520   1.740   2.692   4.634
 3541SOL     OW11521   2.213   2.489   6.078
 3541SOL    HW111522   2.219   2.459   5.982
 3541SOL    HW211523   2.266   2.573   6.090
 3542SOL     OW11524   1.280   5.581   3.445
 3542SOL    HW111525   1.254   5.486   3.431
 3542SOL    HW211526   1.380   5.589   3.444
 3543SOL     OW11527   0.232   2.641   4.888
 3543SOL    HW111528   0.224   2.711   4.958
 3543SOL    HW211529   0.305   2.577   4.913
 3544SOL     OW11530   1.742   4.146   6.232
 3544SOL    HW111531   1.714   4.241   6.215
 3544SOL    HW211532   1.747   4.131   6.331
 3545SOL     OW11533   4.416   5.404   6.719
 3545SOL    HW111534   4.405   5.493   6.674
 3545SOL    HW211535   4.425   5.332   6.650
 3546SOL     OW11536   1.669   4.700   3.981
 3546SOL    HW111537   1.670   4.699   4.081
 3546SOL    HW211538   1.653   4.794   3.949
 3547SOL     OW11539   5.709   4.841   3.619
 3547SOL    HW111540   5.709   4.912   3.548
 3547SOL    HW211541   5.758   4.761   3.585
 3548SOL     OW11542   5.772   1.379   6.083
 3548SOL    HW111543   5.697   1.423   6.033
 3548SOL    HW211544   5.835   1.448   6.116
 3549SOL     OW11545   6.559   4.497   5.730
 3549SOL    HW111546   6.602   4.459   5.649
 3549SOL    HW211547   6.460   4.495   5.719
 3550SOL     OW11548   5.057   2.093   2.586
 3550SOL    HW111549   5.004   2.178   2.588
 3550SOL    HW211550   5.109   2.084   2.670
 3551SOL     OW11551   3.948   6.688   2.835
 3551SOL    HW111552   3.866   6.712   2.887
 3551SOL    HW211553   3.949   6.740   2.749
 3552SOL     OW11554   5.034   6.336   1.481
 3552SOL    HW111555   5.062   6.416   1.534
 3552SOL    HW211556   5.114   6.288   1.447
 3553SOL     OW11557   5.814   3.833   1.933
 3553SOL    HW111558   5.773   3.796   2.017
 3553SOL    HW211559   5.858   3.759   1.882
 3554SOL     OW11560   3.851   2.540   1.286
 3554SOL    HW111561   3.767   2.529   1.340
 3554SOL    HW211562   3.826   2.569   1.194
 3555SOL     OW11563   0.944   3.778   3.493
 3555SOL    HW111564   0.998   3.862   3.492
 3555SOL    HW211565   0.997   3.704   3.451
 3556SOL     OW11566   4.237   0.680   4.424
 3556SOL    HW111567   4.294   0.655   4.345
 3556SOL    HW211568   4.286   0.658   4.509
 3557SOL     OW11569   0.600   0.501   3.761
 3557SOL    HW111570   0.505   0.496   3.793
 3557SOL    HW211571   0.603   0.547   3.672
 3558SOL     OW11572   1.470   5.417   0.630
 3558SOL    HW111573   1.464   5.320   0.652
 3558SOL    HW211574   1.382   5.461   0.648
 3559SOL     OW11575   0.734   6.983   4.804
 3559SOL    HW111576   0.764   0.044   4.845
 3559SOL    HW211577   0.640   6.964   4.831
 3560SOL     OW11578   1.136   5.553   0.968
 3560SOL    HW111579   1.164   5.507   1.053
 3560SOL    HW211580   1.042   5.586   0.978
 3561SOL     OW11581   3.752   4.866   5.206
 3561SOL    HW111582   3.835   4.815   5.183
 3561SOL    HW211583   3.770   4.926   5.284
 3562SOL     OW11584   5.346   0.823   4.102
 3562SOL    HW111585   5.339   0.906   4.047
 3562SOL    HW211586   5.362   0.848   4.198
 3563SOL     OW11587   5.047   0.454   1.204
 3563SOL    HW111588   4.998   0.528   1.251
 3563SOL    HW211589   5.070   0.382   1.269
 3564SOL     OW11590   1.443   4.927   4.457
 3564SOL    HW111591   1.497   4.991   4.402
 3564SOL    HW211592   1.505   4.868   4.510
 3565SOL     OW11593   3.804   6.447   4.479
 3565SOL    HW111594   3.727   6.438   4.542
 3565SOL    HW211595   3.870   6.512   4.517
 3566SOL     OW11596   6.564   3.556   6.645
 3566SOL    HW111597   6.488   3.495   6.623
 3566SOL    HW211598   6.527   3.642   6.682
 3567SOL     OW11599   1.044   2.804   6.999
 3567SOL    HW111600   1.072   2.716   0.013
 3567SOL    HW211601   1.017   2.866   0.048
 3568SOL     OW11602   4.884   5.356   3.798
 3568SOL    HW111603   4.863   5.440   3.848
 3568SOL    HW211604   4.816   5.286   3.821
 3569SOL     OW11605   2.857   2.986   6.219
 3569SOL    HW111606   2.823   2.948   6.133
 3569SOL    HW211607   2.951   2.955   6.235
 3570SOL     OW11608   5.641   0.520   4.735
 3570SOL    HW111609   5.591   0.450   4.684
 3570SOL    HW211610   5.676   0.589   4.672
 3571SOL     OW11611   2.281   0.882   4.920
 3571SOL    HW111612   2.337   0.890   5.003
 3571SOL    HW211613   2.239   0.791   4.916
 3572SOL     OW11614   5.584   3.771   2.674
 3572SOL    HW111615   5.565   3.717   2.592
 3572SOL    HW211616   5.682   3.784   2.685
 3573SOL     OW11617   5.937   3.971   2.509
 3573SOL    HW111618   5.917   4.069   2.512
 3573SOL    HW211619   5.912   3.929   2.597
 3574SOL     OW11620   1.350   3.775   0.290
 3574SOL    HW111621   1.310   3.761   0.380
 3574SOL    HW211622   1.443   3.738   0.288
 3575SOL     OW11623   5.264   6.291   1.908
 3575SOL    HW111624   5.277   6.260   1.814
 3575SOL    HW211625   5.346   6.340   1.938
 3576SOL     OW11626   0.822   2.351   0.516
 3576SOL    HW111627   0.898   2.407   0.482
 3576SOL    HW211628   0.859   2.274   0.568
 3577SOL     OW11629   1.988   2.696   6.103
 3577SOL    HW111630   1.949   2.653   6.185
 3577SOL    HW211631   2.054   2.634   6.061
 3578SOL     OW11632   4.790   1.979   1.352
 3578SOL    HW111633   4.885   1.979   1.383
 3578SOL    HW211634   4.737   2.046   1.404
 3579SOL     OW11635   6.977   2.897   2.581
 3579SOL    HW111636   6.905   2.827   2.590
 3579SOL    HW211637   6.984   2.925   2.485
 3580SOL     OW11638   6.591   3.254   0.225
 3580SOL    HW111639   6.524   3.180   0.223
 3580SOL    HW211640   6.666   3.232   0.162
 3581SOL     OW11641   0.542   6.351   2.860
 3581SOL    HW111642   0.570   6.390   2.948
 3581SOL    HW211643   0.534   6.424   2.792
 3582SOL     OW11644   2.161   5.126   5.745
 3582SOL    HW111645   2.253   5.089   5.739
 3582SOL    HW211646   2.097   5.053   5.770
 3583SOL     OW11647   1.355   4.411   0.454
 3583SOL    HW111648   1.255   4.400   0.457
 3583SOL    HW211649   1.399   4.323   0.472
 3584SOL     OW11650   5.723   4.678   5.408
 3584SOL    HW111651   5.660   4.634   5.343
 3584SOL    HW211652   5.711   4.777   5.404
 3585SOL     OW11653   3.473   2.078   4.658
 3585SOL    HW111654   3.539   2.093   4.732
 3585SOL    HW211655   3.483   1.985   4.623
 3586SOL     OW11656   6.971   2.318   4.940
 3586SOL    HW111657   6.928   2.397   4.984
 3586SOL    HW211658   0.043   2.315   4.964
 3587SOL     OW11659   3.050   5.543   6.422
 3587SOL    HW111660   3.029   5.468   6.486
 3587SOL    HW211661   3.050   5.508   6.329
 3588SOL     OW11662   6.660   3.539   4.963
 3588SOL    HW111663   6.654   3.566   5.059
 3588SOL    HW211664   6.577   3.567   4.915
 3589SOL     OW11665   6.375   6.982   6.670
 3589SOL    HW111666   6.428   0.025   6.619
 3589SOL    HW211667   6.292   7.024   6.705
 3590SOL     OW11668   0.292   3.650   0.585
 3590SOL    HW111669   0.355   3.718   0.624
 3590SOL    HW211670   0.337   3.603   0.509
 3591SOL     OW11671   5.285   3.485   0.941
 3591SOL    HW111672   5.305   3.392   0.970
 3591SOL    HW211673   5.188   3.505   0.959
 3592SOL     OW11674   0.351   6.943   2.824
 3592SOL    HW111675   0.267   6.911   2.868
 3592SOL    HW211676   0.337   0.011   2.789
 3593SOL     OW11677   0.803   4.469   6.006
 3593SOL    HW111678   0.891   4.477   5.959
 3593SOL    HW211679   0.742   4.542   5.974
 3594SOL     OW11680   5.119   0.748   3.963
 3594SOL    HW111681   5.053   0.823   3.957
 3594SOL    HW211682   5.200   0.780   4.013
 3595SOL     OW11683   6.066   5.740   0.265
 3595SOL    HW111684   5.990   5.681   0.241
 3595SOL    HW211685   6.049   5.833   0.232
 3596SOL     OW11686   4.521   2.540   3.766
 3596SOL    HW111687   4.604   2.570   3.813
 3596SOL    HW211688   4.462   2.618   3.749
 3597SOL     OW11689   1.931   2.939   5.724
 3597SOL    HW111690   1.979   3.013   5.770
 3597SOL    HW211691   1.884   2.883   5.792
 3598SOL     OW11692   1.871   6.163   5.121
 3598SOL    HW111693   1.861   6.065   5.101
 3598SOL    HW211694   1.784   6.209   5.103
 3599SOL     OW11695   4.214   2.450   7.018
 3599SOL    HW111696   4.181   2.467   0.087
 3599SOL    HW211697   4.313   2.441   7.019
 3600SOL     OW11698   1.087   3.252   1.670
 3600SOL    HW111699   1.182   3.223   1.659
 3600SOL    HW211700   1.080   3.351   1.652
 3601SOL     OW11701   5.541   2.072   5.973
 3601SOL    HW111702   5.624   2.073   5.917
 3601SOL    HW211703   5.565   2.070   6.070
 3602SOL     OW11704   1.728   3.152   0.368
 3602SOL    HW111705   1.687   3.132   0.458
 3602SOL    HW211706   1.676   3.227   0.325
 3603SOL     OW11707   3.830   0.920   5.477
 3603SOL    HW111708   3.889   0.991   5.515
 3603SOL    HW211709   3.779   0.876   5.552
 3604SOL     OW11710   5.783   1.170   3.560
 3604SOL    HW111711   5.753   1.077   3.581
 3604SOL    HW211712   5.728   1.235   3.614
 3605SOL     OW11713   1.075   5.382   4.292
 3605SOL    HW111714   1.054   5.463   4.347
 3605SOL    HW211715   1.008   5.374   4.218
 3606SOL     OW11716   1.269   6.561   2.733
 3606SOL    HW111717   1.315   6.578   2.820
 3606SOL    HW211718   1.335   6.566   2.658
 3607SOL     OW11719   5.563   3.115   2.018
 3607SOL    HW111720   5.581   3.211   2.040
 3607SOL    HW211721   5.521   3.109   1.927
 3608SOL     OW11722   5.190   1.295   3.817
 3608SOL    HW111723   5.091   1.298   3.799
 3608SOL    HW211724   5.233   1.233   3.752
 3609SOL     OW11725   1.909   0.151   4.630
 3609SOL    HW111726   1.954   0.092   4.563
 3609SOL    HW211727   1.871   0.231   4.584
 3610SOL     OW11728   1.685   7.013   5.435
 3610SOL    HW111729   1.781   7.006   5.408
 3610SOL    HW211730   1.640   0.058   5.379
 3611SOL     OW11731   4.277   4.754   3.920
 3611SOL    HW111732   4.191   4.771   3.969
 3611SOL    HW211733   4.300   4.834   3.865
 3612SOL     OW11734   6.470   1.012   6.411
 3612SOL    HW111735   6.404   1.085   6.396
 3612SOL    HW211736   6.457   0.974   6.502
 3613SOL     OW11737   3.936   5.143   1.829
 3613SOL    HW111738   3.900   5.219   1.775
 3613SOL    HW211739   3.879   5.063   1.815
 3614SOL     OW11740   3.063   3.351   7.019
 3614SOL    HW111741   3.158   3.363   0.023
 3614SOL    HW211742   3.009   3.429   0.023
 3615SOL     OW11743   5.531   2.852   6.029
 3615SOL    HW111744   5.615   2.802   6.051
 3615SOL    HW211745   5.470   2.792   5.977
 3616SOL     OW11746   1.716   1.066   6.163
 3616SOL    HW111747   1.768   0.995   6.210
 3616SOL    HW211748   1.771   1.105   6.089
 3617SOL     OW11749   4.278   0.303   5.981
 3617SOL    HW111750   4.301   0.250   6.063
 3617SOL    HW211751   4.360   0.319   5.927
 3618SOL     OW11752   2.781   3.588   5.302
 3618SOL    HW111753   2.738   3.672   5.334
 3618SOL    HW211754   2.726   3.509   5.330
 3619SOL     OW11755   5.446   3.294   0.293
 3619SOL    HW111756   5.359   3.280   0.245
 3619SOL    HW211757   5.454   3.390   0.320
 3620SOL     OW11758   6.364   5.680   5.129
 3620SOL    HW111759   6.269   5.665   5.100
 3620SOL    HW211760   6.366   5.744   5.205
 3621SOL     OW11761   3.458   3.246   4.135
 3621SOL    HW111762   3.416   3.163   4.097
 3621SOL    HW211763   3.532   3.220   4.196
 3622SOL     OW11764   1.140   0.450   0.851
 3622SOL    HW111765   1.071   0.380   0.834
 3622SOL    HW211766   1.228   0.420   0.814
 3623SOL     OW11767   0.091   5.480   5.369
 3623SOL    HW111768   0.147   5.406   5.407
 3623SOL    HW211769   0.150   5.548   5.326
 3624SOL     OW11770   1.327   6.866   2.165
 3624SOL    HW111771   1.418   6.871   2.124
 3624SOL    HW211772   1.269   6.937   2.125
 3625SOL     OW11773   0.250   3.194   6.667
 3625SOL    HW111774   0.303   3.279   6.665
 3625SOL    HW211775   0.210   3.182   6.757
 3626SOL     OW11776   0.540   3.483   4.208
 3626SOL    HW111777   0.486   3.474   4.124
 3626SOL    HW211778   0.540   3.396   4.257
 3627SOL     OW11779   5.016   3.269   1.469
 3627SOL    HW111780   4.982   3.257   1.562
 3627SOL    HW211781   5.055   3.182   1.437
 3628SOL     OW11782   1.560   1.035   2.618
 3628SOL    HW111783   1.639   1.092   2.598
 3628SOL    HW211784   1.588   0.958   2.676
 3629SOL     OW11785   1.444   0.755   4.113
 3629SOL    HW111786   1.468   0.767   4.209
 3629SOL    HW211787   1.378   0.825   4.086
 3630SOL     OW11788   6.465   3.054   3.622
 3630SOL    HW111789   6.472   3.115   3.543
 3630SOL    HW211790   6.547   3.063   3.679
 3631SOL     OW11791   1.616   6.509   3.678
 3631SOL    HW111792   1.600   6.418   3.717
 3631SOL    HW211793   1.550   6.526   3.605
 3632SOL     OW11794   4.759   3.898   0.947
 3632SOL    HW111795   4.754   3.994   0.973
 3632SOL    HW211796   4.854   3.867   0.950
 3633SOL     OW11797   3.960   2.339   5.832
 3633SOL    HW111798   3.870   2.300   5.813
 3633SOL    HW211799   3.978   2.335   5.931
 3634SOL     OW11800   1.868   6.306   6.011
 3634SOL    HW111801   1.956   6.335   5.973
 3634SOL    HW211802   1.869   6.317   6.110
 3635SOL     OW11803   2.196   1.552   0.880
 3635SOL    HW111804   2.168   1.490   0.953
 3635SOL    HW211805   2.255   1.504   0.816
 3636SOL     OW11806   0.070   5.659   0.977
 3636SOL    HW111807   7.017   5.647   1.039
 3636SOL    HW211808   0.046   5.623   0.887
 3637SOL     OW11809   1.115   2.801   1.030
 3637SOL    HW111810   1.190   2.858   0.997
 3637SOL    HW211811   1.030   2.853   1.026
 3638SOL     OW11812   6.827   3.739   2.150
 3638SOL    HW111813   6.740   3.710   2.191
 3638SOL    HW211814   6.864   3.664   2.096
 3639SOL     OW11815   4.065   4.440   5.887
 3639SOL    HW111816   4.104   4.429   5.796
 3639SOL    HW211817   3.974   4.398   5.890
 3640SOL     OW11818   4.990   2.189   0.729
 3640SOL    HW111819   4.952   2.099   0.712
 3640SOL    HW211820   5.080   2.181   0.772
 3641SOL     OW11821   5.325   4.785   1.190
 3641SOL    HW111822   5.290   4.850   1.258
 3641SOL    HW211823   5.381   4.716   1.237
 3642SOL     OW11824   5.596   2.102   6.232
 3642SOL    HW111825   5.626   2.183   6.182
 3642SOL    HW211826   5.527   2.127   6.299
 3643SOL     OW11827   4.060   6.754   5.911
 3643SOL    HW111828   4.125   6.717   5.844
 3643SOL    HW211829   3.982   6.691   5.920
 3644SOL     OW11830   3.106   1.035   1.432
 3644SOL    HW111831   3.063   1.030   1.342
 3644SOL    HW211832   3.105   1.130   1.464
 3645SOL     OW11833   1.687   3.547   4.594
 3645SOL    HW111834   1.666   3.450   4.580
 3645SOL    HW211835   1.604   3.597   4.616
 3646SOL     OW11836   1.970   4.729   4.659
 3646SOL    HW111837   1.892   4.673   4.687
 3646SOL    HW211838   2.055   4.681   4.680
 3647SOL     OW11839   2.375   6.300   6.784
 3647SOL    HW111840   2.314   6.244   6.840
 3647SOL    HW211841   2.358   6.280   6.687
 3648SOL     OW11842   4.859   5.715   3.152
 3648SOL    HW111843   4.785   5.752   3.209
 3648SOL    HW211844   4.947   5.732   3.196
 3649SOL     OW11845   5.674   4.167   0.133
 3649SOL    HW111846   5.715   4.080   0.158
 3649SOL    HW211847   5.746   4.235   0.118
 3650SOL     OW11848   5.373   4.450   0.736
 3650SOL    HW111849   5.415   4.402   0.812
 3650SOL    HW211850   5.424   4.431   0.652
 3651SOL     OW11851   2.149   1.745   5.458
 3651SOL    HW111852   2.236   1.768   5.501
 3651SOL    HW211853   2.074   1.780   5.514
 3652SOL     OW11854   5.773   0.299   2.411
 3652SOL    HW111855   5.679   0.271   2.394
 3652SOL    HW211856   5.809   0.247   2.489
 3653SOL     OW11857   0.906   0.940   2.849
 3653SOL    HW111858   0.989   0.944   2.904
 3653SOL    HW211859   0.844   1.014   2.876
 3654SOL     OW11860   4.511   5.872   0.657
 3654SOL    HW111861   4.534   5.965   0.626
 3654SOL    HW211862   4.562   5.851   0.741
 3655SOL     OW11863   3.002   0.983   4.531
 3655SOL    HW111864   3.073   1.039   4.488
 3655SOL    HW211865   3.045   0.905   4.577
 3656SOL     OW11866   0.853   5.172   1.274
 3656SOL    HW111867   0.873   5.268   1.252
 3656SOL    HW211868   0.755   5.162   1.290
 3657SOL     OW11869   5.121   6.088   5.315
 3657SOL    HW111870   5.116   6.020   5.242
 3657SOL    HW211871   5.039   6.081   5.372
 3658SOL     OW11872   1.641   4.922   6.510
 3658SOL    HW111873   1.736   4.954   6.519
 3658SOL    HW211874   1.632   4.867   6.427
 3659SOL     OW11875   0.366   1.393   6.420
 3659SOL    HW111876   0.277   1.437   6.431
 3659SOL    HW211877   0.419   1.405   6.505
 3660SOL     OW11878   5.980   6.240   5.502
 3660SOL    HW111879   6.079   6.252   5.507
 3660SOL    HW211880   5.941   6.305   5.437
 3661SOL     OW11881   6.938   0.727   4.502
 3661SOL    HW111882   6.935   0.680   4.591
 3661SOL    HW211883   7.007   0.683   4.444
 3662SOL     OW11884   3.737   0.883   5.057
 3662SOL    HW111885   3.811   0.898   5.123
 3662SOL    HW211886   3.767   0.914   4.967
 3663SOL     OW11887   2.445   2.264   6.391
 3663SOL    HW111888   2.390   2.345   6.373
 3663SOL    HW211889   2.535   2.274   6.348
 3664SOL     OW11890   4.145   2.014   2.206
 3664SOL    HW111891   4.116   2.031   2.300
 3664SOL    HW211892   4.214   2.081   2.180
 3665SOL     OW11893   0.405   6.319   6.014
 3665SOL    HW111894   0.367   6.380   5.945
 3665SOL    HW211895   0.395   6.360   6.104
 3666SOL     OW11896   1.073   2.818   3.264
 3666SOL    HW111897   1.098   2.913   3.242
 3666SOL    HW211898   1.155   2.768   3.293
 3667SOL     OW11899   0.711   1.670   3.585
 3667SOL    HW111900   0.697   1.681   3.487
 3667SOL    HW211901   0.795   1.618   3.602
 3668SOL     OW11902   1.154   0.385   1.788
 3668SOL    HW111903   1.124   0.290   1.783
 3668SOL    HW211904   1.125   0.425   1.875
 3669SOL     OW11905   6.380   1.561   4.302
 3669SOL    HW111906   6.445   1.593   4.234
 3669SOL    HW211907   6.354   1.466   4.282
 3670SOL     OW11908   3.286   4.831   1.305
 3670SOL    HW111909   3.354   4.760   1.322
 3670SOL    HW211910   3.314   4.916   1.350
 3671SOL     OW11911   6.709   1.007   2.579
 3671SOL    HW111912   6.744   0.935   2.519
 3671SOL    HW211913   6.722   1.096   2.535
 3672SOL     OW11914   5.692   1.372   2.353
 3672SOL    HW111915   5.662   1.467   2.344
 3672SOL    HW211916   5.678   1.324   2.266
 3673SOL     OW11917   4.153   5.429   0.071
 3673SOL    HW111918   4.095   5.395   0.145
 3673SOL    HW211919   4.156   5.529   0.075
 3674SOL     OW11920   1.043   5.772   5.992
 3674SOL    HW111921   1.029   5.693   5.932
 3674SOL    HW211922   1.126   5.758   6.046
 3675SOL     OW11923   0.062   2.240   3.254
 3675SOL    HW111924   7.006   2.298   3.255
 3675SOL    HW211925   0.135   2.283   3.307
 3676SOL     OW11926   5.264   3.110   3.035
 3676SOL    HW111927   5.216   3.186   3.079
 3676SOL    HW211928   5.314   3.144   2.955
 3677SOL     OW11929   2.161   0.922   5.220
 3677SOL    HW111930   2.154   0.830   5.183
 3677SOL    HW211931   2.257   0.950   5.225
 3678SOL     OW11932   1.156   1.144   4.243
 3678SOL    HW111933   1.163   1.231   4.194
 3678SOL    HW211934   1.080   1.090   4.206
 3679SOL     OW11935   5.890   0.033   3.020
 3679SOL    HW111936   5.909   0.062   3.114
 3679SOL    HW211937   5.795   0.055   2.997
 3680SOL     OW11938   4.966   2.296   3.451
 3680SOL    HW111939   4.923   2.381   3.420
 3680SOL    HW211940   4.985   2.301   3.549
 3681SOL     OW11941   0.812   0.512   5.835
 3681SOL    HW111942   0.786   0.608   5.846
 3681SOL    HW211943   0.849   0.478   5.921
 3682SOL     OW11944   5.111   2.417   1.177
 3682SOL    HW111945   5.128   2.407   1.275
 3682SOL    HW211946   5.053   2.342   1.144
 3683SOL     OW11947   0.051   0.958   4.521
 3683SOL    HW111948   0.119   0.937   4.591
 3683SOL    HW211949   7.023   0.876   4.499
 3684SOL     OW11950   1.923   6.332   6.270
 3684SOL    HW111951   2.010   6.283   6.267
 3684SOL    HW211952   1.890   6.336   6.364
 3685SOL     OW11953   2.780   5.893   5.249
 3685SOL    HW111954   2.684   5.897   5.218
 3685SOL    HW211955   2.812   5.799   5.248
 3686SOL     OW11956   6.624   4.089   3.857
 3686SOL    HW111957   6.590   3.998   3.834
 3686SOL    HW211958   6.651   4.136   3.773
 3687SOL     OW11959   5.340   6.668   3.264
 3687SOL    HW111960   5.286   6.694   3.344
 3687SOL    HW211961   5.326   6.571   3.245
 3688SOL     OW11962   5.874   3.871   0.402
 3688SOL    HW111963   5.962   3.899   0.440
 3688SOL    HW211964   5.810   3.853   0.477
 3689SOL     OW11965   2.308   1.518   5.438
 3689SOL    HW111966   2.311   1.517   5.338
 3689SOL    HW211967   2.224   1.563   5.468
 3690SOL     OW11968   5.174   5.556   1.062
 3690SOL    HW111969   5.123   5.592   0.984
 3690SOL    HW211970   5.239   5.625   1.093
 3691SOL     OW11971   2.433   2.123   6.026
 3691SOL    HW111972   2.506   2.179   5.987
 3691SOL    HW211973   2.347   2.173   6.021
 3692SOL     OW11974   6.905   4.269   6.198
 3692SOL    HW111975   6.913   4.304   6.291
 3692SOL    HW211976   6.991   4.282   6.149
 3693SOL     OW11977   1.064   1.892   2.753
 3693SOL    HW111978   1.081   1.990   2.765
 3693SOL    HW211979   0.970   1.879   2.720
 3694SOL     OW11980   0.865   0.391   1.728
 3694SOL    HW111981   0.769   0.418   1.733
 3694SOL    HW211982   0.910   0.410   1.815
 3695SOL     OW11983   6.803   2.473   2.129
 3695SOL    HW111984   6.830   2.534   2.054
 3695SOL    HW211985   6.831   2.512   2.216
 3696SOL     OW11986   5.551   0.913   4.944
 3696SOL    HW111987   5.592   0.920   5.035
 3696SOL    HW211988   5.478   0.844   4.946
 3697SOL     OW11989   5.979   5.762   3.586
 3697SOL    HW111990   5.912   5.811   3.531
 3697SOL    HW211991   5.933   5.717   3.662
 3698SOL     OW11992   2.201   0.737   3.694
 3698SOL    HW111993   2.137   0.805   3.730
 3698SOL    HW211994   2.162   0.646   3.704
 3699SOL     OW11995   2.503   2.327   3.615
 3699SOL    HW111996   2.493   2.350   3.519
 3699SOL    HW211997   2.516   2.228   3.625
 3700SOL     OW11998   1.524   5.403   5.392
 3700SOL    HW111999   1.580   5.461   5.332
 3700SOL    HW212000   1.436   5.384   5.348
 3701SOL     OW12001   0.386   6.449   2.000
 3701SOL    HW112002   0.439   6.382   1.948
 3701SOL    HW212003   0.371   6.530   1.944
 3702SOL     OW12004   5.194   6.313   3.875
 3702SOL    HW112005   5.219   6.331   3.780
 3702SOL    HW212006   5.095   6.309   3.883
 3703SOL     OW12007   1.129   0.846   6.116
 3703SOL    HW112008   1.055   0.853   6.050
 3703SOL    HW212009   1.202   0.910   6.093
 3704SOL     OW12010   4.977   3.493   1.015
 3704SOL    HW112011   4.952   3.410   0.965
 3704SOL    HW212012   4.963   3.478   1.113
 3705SOL     OW12013   5.033   4.708   3.529
 3705SOL    HW112014   5.072   4.788   3.483
 3705SOL    HW212015   4.934   4.705   3.513
 3706SOL     OW12016   0.582   3.910   0.021
 3706SOL    HW112017   0.502   3.902   6.985
 3706SOL    HW212018   0.664   3.924   6.990
 3707SOL     OW12019   3.509   5.028   3.926
 3707SOL    HW112020   3.506   4.978   3.840
 3707SOL    HW212021   3.416   5.046   3.958
 3708SOL     OW12022   4.403   0.054   1.425
 3708SOL    HW112023   4.391   0.027   1.520
 3708SOL    HW212024   4.385   0.152   1.416
 3709SOL     OW12025   1.866   0.134   1.722
 3709SOL    HW112026   1.834   0.177   1.638
 3709SOL    HW212027   1.898   0.041   1.701
 3710SOL     OW12028   0.262   5.066   5.673
 3710SOL    HW112029   0.258   5.154   5.720
 3710SOL    HW212030   0.219   5.075   5.583
 3711SOL     OW12031   1.887   6.532   4.842
 3711SOL    HW112032   1.848   6.533   4.934
 3711SOL    HW212033   1.918   6.440   4.819
 3712SOL     OW12034   2.523   5.348   6.400
 3712SOL    HW112035   2.530   5.425   6.463
 3712SOL    HW212036   2.588   5.358   6.325
 3713SOL     OW12037   0.216   6.755   5.004
 3713SOL    HW112038   0.118   6.763   5.023
 3713SOL    HW212039   0.246   6.661   5.018
 3714SOL     OW12040   0.910   4.513   6.734
 3714SOL    HW112041   0.959   4.551   6.656
 3714SOL    HW212042   0.913   4.578   6.810
 3715SOL     OW12043   0.415   5.632   2.838
 3715SOL    HW112044   0.383   5.650   2.931
 3715SOL    HW212045   0.460   5.543   2.835
 3716SOL     OW12046   6.092   5.207   4.106
 3716SOL    HW112047   6.024   5.221   4.178
 3716SOL    HW212048   6.069   5.124   4.054
 3717SOL     OW12049   4.799   1.481   0.234
 3717SOL    HW112050   4.857   1.517   0.161
 3717SOL    HW212051   4.774   1.555   0.297
 3718SOL     OW12052   0.563   0.237   6.801
 3718SOL    HW112053   0.591   0.144   6.826
 3718SOL    HW212054   0.495   0.233   6.728
 3719SOL     OW12055   4.412   3.314   6.109
 3719SOL    HW112056   4.434   3.249   6.036
 3719SOL    HW212057   4.315   3.305   6.132
 3720SOL     OW12058   5.262   3.804   0.988
 3720SOL    HW112059   5.268   3.893   0.942
 3720SOL    HW212060   5.354   3.765   0.995
 3721SOL     OW12061   6.724   5.331   6.761
 3721SOL    HW112062   6.688   5.352   6.670
 3721SOL    HW212063   6.682   5.246   6.794
 3722SOL     OW12064   4.359   0.326   1.397
 3722SOL    HW112065   4.264   0.323   1.366
 3722SOL    HW212066   4.375   0.410   1.448
 3723SOL     OW12067   4.074   5.150   0.126
 3723SOL    HW112068   4.085   5.175   0.223
 3723SOL    HW212069   3.982   5.174   0.096
 3724SOL     OW12070   1.611   5.088   5.344
 3724SOL    HW112071   1.703   5.090   5.305
 3724SOL    HW212072   1.599   5.166   5.405
 3725SOL     OW12073   0.108   6.116   6.986
 3725SOL    HW112074   0.180   6.163   6.936
 3725SOL    HW212075   0.142   6.030   7.023
 3726SOL     OW12076   5.206   4.488   4.927
 3726SOL    HW112077   5.122   4.482   4.980
 3726SOL    HW212078   5.193   4.444   4.838
 3727SOL     OW12079   6.806   3.499   4.732
 3727SOL    HW112080   6.755   3.512   4.817
 3727SOL    HW212081   6.844   3.587   4.703
 3728SOL     OW12082   2.897   3.544   0.082
 3728SOL    HW112083   2.817   3.511   0.132
 3728SOL    HW212084   2.893   3.643   0.073
 3729SOL     OW12085   0.660   0.118   4.238
 3729SOL    HW112086   0.613   0.041   4.197
 3729SOL    HW212087   0.677   0.099   4.335
 3730SOL     OW12088   4.115   5.812   5.793
 3730SOL    HW112089   4.133   5.744   5.721
 3730SOL    HW212090   4.182   5.886   5.786
 3731SOL     OW12091   0.562   1.282   0.149
 3731SOL    HW112092   0.626   1.215   0.186
 3731SOL    HW212093   0.576   1.290   0.050
 3732SOL     OW12094   1.706   1.942   0.702
 3732SOL    HW112095   1.613   1.962   0.732
 3732SOL    HW212096   1.767   2.017   0.729
 3733SOL     OW12097   1.569   3.106   3.288
 3733SOL    HW112098   1.546   3.038   3.358
 3733SOL    HW212099   1.603   3.059   3.207
 3734SOL     OW12100   4.138   0.538   1.259
 3734SOL    HW112101   4.059   0.478   1.273
 3734SOL    HW212102   4.146   0.601   1.336
 3735SOL     OW12103   4.288   0.359   2.505
 3735SOL    HW112104   4.238   0.276   2.529
 3735SOL    HW212105   4.386   0.338   2.495
 3736SOL     OW12106   6.642   0.785   0.950
 3736SOL    HW112107   6.548   0.758   0.972
 3736SOL    HW212108   6.676   0.726   0.876
 3737SOL     OW12109   6.015   2.375   3.987
 3737SOL    HW112110   5.998   2.474   3.994
 3737SOL    HW212111   5.981   2.330   4.069
 3738SOL     OW12112   6.082   5.712   0.790
 3738SOL    HW112113   6.092   5.638   0.723
 3738SOL    HW212114   6.105   5.799   0.748
 3739SOL     OW12115   3.064   4.476   1.601
 3739SOL    HW112116   3.032   4.563   1.564
 3739SOL    HW212117   3.022   4.459   1.690
 3740SOL     OW12118   5.713   6.145   0.040
 3740SOL    HW112119   5.626   6.194   0.054
 3740SOL    HW212120   5.693   6.052   0.009
 3741SOL     OW12121   5.112   3.183   6.658
 3741SOL    HW112122   5.019   3.150   6.646
 3741SOL    HW212123   5.146   3.158   6.749
 3742SOL     OW12124   4.649   5.652   0.274
 3742SOL    HW112125   4.693   5.675   0.187
 3742SOL    HW212126   4.557   5.618   0.257
 3743SOL     OW12127   4.781   4.444   1.740
 3743SOL    HW112128   4.713   4.386   1.694
 3743SOL    HW212129   4.757   4.454   1.837
 3744SOL     OW12130   0.730   6.546   2.045
 3744SOL    HW112131   0.784   6.549   2.129
 3744SOL    HW212132   0.755   6.621   1.985
 3745SOL     OW12133   4.900   3.621   2.594
 3745SOL    HW112134   4.923   3.692   2.527
 3745SOL    HW212135   4.901   3.661   2.686
 3746SOL     OW12136   6.918   0.465   3.555
 3746SOL    HW112137   7.013   0.482   3.582
 3746SOL    HW212138   6.917   0.423   3.464
 3747SOL     OW12139   4.745   6.410   6.034
 3747SOL    HW112140   4.752   6.510   6.045
 3747SOL    HW212141   4.776   6.365   6.117
 3748SOL     OW12142   5.875   1.012   2.073
 3748SOL    HW112143   5.837   1.098   2.107
 3748SOL    HW212144   5.801   0.946   2.061
 3749SOL     OW12145   1.670   5.529   2.817
 3749SOL    HW112146   1.647   5.606   2.876
 3749SOL    HW212147   1.742   5.474   2.859
 3750SOL     OW12148   5.659   4.497   0.682
 3750SOL    HW112149   5.659   4.510   0.781
 3750SOL    HW212150   5.709   4.413   0.660
 3751SOL     OW12151   0.566   2.754   1.054
 3751SOL    HW112152   0.507   2.681   1.018
 3751SOL    HW212153   0.511   2.818   1.106
 3752SOL     OW12154   0.523   0.032   6.996
 3752SOL    HW112155   0.532   7.000   6.914
 3752SOL    HW212156   0.428   0.031   0.003
 3753SOL     OW12157   0.401   6.405   5.132
 3753SOL    HW112158   0.429   6.473   5.201
 3753SOL    HW212159   0.340   6.338   5.174
 3754SOL     OW12160   5.419   6.463   1.701
 3754SOL    HW112161   5.352   6.390   1.686
 3754SOL    HW212162   5.422   6.522   1.621
 3755SOL     OW12163   5.698   5.386   4.568
 3755SOL    HW112164   5.604   5.356   4.554
 3755SOL    HW212165   5.717   5.463   4.507
 3756SOL     OW12166   2.150   0.500   6.489
 3756SOL    HW112167   2.083   0.427   6.477
 3756SOL    HW212168   2.231   0.463   6.534
 3757SOL     OW12169   3.408   5.674   5.889
 3757SOL    HW112170   3.399   5.753   5.949
 3757SOL    HW212171   3.503   5.665   5.861
 3758SOL     OW12172   1.999   1.695   4.767
 3758SOL    HW112173   2.057   1.655   4.838
 3758SOL    HW212174   1.906   1.705   4.802
 3759SOL     OW12175   4.597   5.576   5.656
 3759SOL    HW112176   4.542   5.540   5.581
 3759SOL    HW212177   4.676   5.624   5.619
 3760SOL     OW12178   0.910   3.741   3.763
 3760SOL    HW112179   0.945   3.743   3.669
 3760SOL    HW212180   0.878   3.833   3.788
 3761SOL     OW12181   0.977   6.759   4.973
 3761SOL    HW112182   0.942   6.769   4.880
 3761SOL    HW212183   0.904   6.727   5.033
 3762SOL     OW12184   0.728   4.307   6.672
 3762SOL    HW112185   0.741   4.263   6.760
 3762SOL    HW212186   0.808   4.363   6.650
 3763SOL     OW12187   6.857   4.696   6.772
 3763SOL    HW112188   6.826   4.602   6.757
 3763SOL    HW212189   6.885   4.737   6.685
 3764SOL     OW12190   1.945   0.879   4.843
 3764SOL    HW112191   1.990   0.822   4.912
 3764SOL    HW212192   1.906   0.820   4.772
 3765SOL     OW12193   4.980   0.996   2.979
 3765SOL    HW112194   4.895   0.972   2.932
 3765SOL    HW212195   4.973   1.088   3.017
 3766SOL     OW12196   1.013   0.581   3.892
 3766SOL    HW112197   0.990   0.527   3.811
 3766SOL    HW212198   0.939   0.574   3.959
 3767SOL     OW12199   2.415   4.526   0.280
 3767SOL    HW112200   2.345   4.586   0.240
 3767SOL    HW212201   2.487   4.582   0.321
 3768SOL     OW12202   3.811   6.312   6.118
 3768SOL    HW112203   3.839   6.216   6.126
 3768SOL    HW212204   3.712   6.318   6.107
 3769SOL     OW12205   5.659   5.738   5.440
 3769SOL    HW112206   5.685   5.809   5.505
 3769SOL    HW212207   5.601   5.777   5.369
 3770SOL     OW12208   1.869   0.503   6.665
 3770SOL    HW112209   1.873   0.445   6.584
 3770SOL    HW212210   1.956   0.497   6.715
 3771SOL     OW12211   5.445   1.587   0.714
 3771SOL    HW112212   5.403   1.512   0.765
 3771SOL    HW212213   5.374   1.637   0.664
 3772SOL     OW12214   6.562   1.407   0.685
 3772SOL    HW112215   6.576   1.463   0.603
 3772SOL    HW212216   6.651   1.379   0.721
 3773SOL     OW12217   5.840   3.413   6.034
 3773SOL    HW112218   5.786   3.359   6.099
 3773SOL    HW212219   5.785   3.489   6.000
 3774SOL     OW12220   1.120   6.725   6.590
 3774SOL    HW112221   1.091   6.647   6.645
 3774SOL    HW212222   1.091   6.712   6.495
 3775SOL     OW12223   5.395   3.885   2.038
 3775SOL    HW112224   5.383   3.939   2.120
 3775SOL    HW212225   5.397   3.945   1.958
 3776SOL     OW12226   2.734   1.214   1.625
 3776SOL    HW112227   2.672   1.158   1.570
 3776SOL    HW212228   2.820   1.226   1.577
 3777SOL     OW12229   2.675   4.701   4.472
 3777SOL    HW112230   2.705   4.709   4.567
 3777SOL    HW212231   2.650   4.606   4.453
 3778SOL     OW12232   2.209   6.056   2.799
 3778SOL    HW112233   2.171   6.094   2.883
 3778SOL    HW212234   2.185   5.960   2.791
 3779SOL     OW12235   2.766   5.162   6.549
 3779SOL    HW112236   2.776   5.069   6.585
 3779SOL    HW212237   2.740   5.158   6.453
 3780SOL     OW12238   3.503   4.947   4.620
 3780SOL    HW112239   3.551   5.014   4.675
 3780SOL    HW212240   3.459   4.879   4.679
 3781SOL     OW12241   1.916   6.395   4.015
 3781SOL    HW112242   1.855   6.466   3.980
 3781SOL    HW212243   1.978   6.365   3.942
 3782SOL     OW12244   2.711   2.329   4.300
 3782SOL    HW112245   2.731   2.273   4.381
 3782SOL    HW212246   2.613   2.347   4.295
 3783SOL     OW12247   6.904   6.708   4.734
 3783SOL    HW112248   6.993   6.696   4.690
 3783SOL    HW212249   6.834   6.726   4.664
 3784SOL     OW12250   5.143   1.527   2.723
 3784SOL    HW112251   5.106   1.446   2.677
 3784SOL    HW212252   5.086   1.549   2.802
 3785SOL     OW12253   1.941   1.102   0.028
 3785SOL    HW112254   1.910   1.177   6.993
 3785SOL    HW212255   1.868   1.035   0.038
 3786SOL     OW12256   2.416   5.478   3.042
 3786SOL    HW112257   2.449   5.568   3.015
 3786SOL    HW212258   2.316   5.478   3.041
 3787SOL     OW12259   5.563   6.407   3.451
 3787SOL    HW112260   5.646   6.461   3.436
 3787SOL    HW212261   5.571   6.356   3.537
 3788SOL     OW12262   6.475   3.245   3.413
 3788SOL    HW112263   6.502   3.267   3.319
 3788SOL    HW212264   6.466   3.329   3.466
 3789SOL     OW12265   1.678   4.605   4.239
 3789SOL    HW112266   1.745   4.578   4.308
 3789SOL    HW212267   1.608   4.534   4.231
 3790SOL     OW12268   2.085   3.703   5.152
 3790SOL    HW112269   2.107   3.739   5.062
 3790SOL    HW212270   2.017   3.762   5.196
 3791SOL     OW12271   5.879   0.159   0.712
 3791SOL    HW112272   5.871   0.130   0.808
 3791SOL    HW212273   5.838   0.089   0.653
 3792SOL     OW12274   6.688   0.601   4.825
 3792SOL    HW112275   6.689   0.678   4.889
 3792SOL    HW212276   6.648   0.630   4.738
 3793SOL     OW12277   2.489   0.434   2.820
 3793SOL    HW112278   2.450   0.497   2.886
 3793SOL    HW212279   2.471   0.340   2.849
 3794SOL     OW12280   3.726   5.394   1.889
 3794SOL    HW112281   3.801   5.377   1.824
 3794SOL    HW212282   3.646   5.427   1.838
 3795SOL     OW12283   3.986   6.605   6.695
 3795SOL    HW112284   3.971   6.646   6.605
 3795SOL    HW212285   3.904   6.619   6.751
 3796SOL     OW12286   2.132   2.225   1.619
 3796SOL    HW112287   2.060   2.289   1.590
 3796SOL    HW212288   2.220   2.272   1.616
 3797SOL     OW12289   6.478   5.585   2.375
 3797SOL    HW112290   6.469   5.684   2.365
 3797SOL    HW212291   6.573   5.562   2.396
 3798SOL     OW12292   2.452   5.150   3.257
 3798SOL    HW112293   2.435   5.148   3.159
 3798SOL    HW212294   2.386   5.210   3.302
 3799SOL     OW12295   1.124   2.404   4.058
 3799SOL    HW112296   1.059   2.423   3.984
 3799SOL    HW212297   1.213   2.380   4.020
 3800SOL     OW12298   5.164   2.208   5.208
 3800SOL    HW112299   5.215   2.284   5.249
 3800SOL    HW212300   5.083   2.188   5.263
 3801SOL     OW12301   6.274   5.941   5.759
 3801SOL    HW112302   6.346   5.932   5.691
 3801SOL    HW212303   6.243   5.850   5.788
 3802SOL     OW12304   0.823   1.873   4.940
 3802SOL    HW112305   0.883   1.947   4.911
 3802SOL    HW212306   0.728   1.907   4.943
 3803SOL     OW12307   3.723   1.275   2.328
 3803SOL    HW112308   3.724   1.269   2.228
 3803SOL    HW212309   3.800   1.329   2.359
 3804SOL     OW12310   4.842   2.152   4.657
 3804SOL    HW112311   4.850   2.060   4.618
 3804SOL    HW212312   4.868   2.150   4.753
 3805SOL     OW12313   2.853   3.927   1.607
 3805SOL    HW112314   2.874   3.986   1.685
 3805SOL    HW212315   2.910   3.845   1.611
 3806SOL     OW12316   2.775   2.656   7.008
 3806SOL    HW112317   2.730   2.733   0.029
 3806SOL    HW212318   2.831   2.691   6.933
 3807SOL     OW12319   2.375   1.706   4.608
 3807SOL    HW112320   2.472   1.701   4.588
 3807SOL    HW212321   2.323   1.689   4.524
 3808SOL     OW12322   3.173   0.554   2.290
 3808SOL    HW112323   3.212   0.504   2.367
 3808SOL    HW212324   3.136   0.642   2.322
 3809SOL     OW12325   5.848   2.267   6.687
 3809SOL    HW112326   5.814   2.299   6.775
 3809SOL    HW212327   5.900   2.183   6.700
 3810SOL     OW12328   4.109   2.935   5.303
 3810SOL    HW112329   4.111   2.894   5.394
 3810SOL    HW212330   4.024   2.984   5.290
 3811SOL     OW12331   0.668   4.625   3.970
 3811SOL    HW112332   0.768   4.629   3.966
 3811SOL    HW212333   0.635   4.682   4.045
 3812SOL     OW12334   5.661   1.397   5.309
 3812SOL    HW112335   5.729   1.455   5.352
 3812SOL    HW212336   5.696   1.303   5.303
 3813SOL     OW12337   4.288   4.310   0.986
 3813SOL    HW112338   4.346   4.339   0.910
 3813SOL    HW212339   4.315   4.218   1.016
 3814SOL     OW12340   0.242   6.498   1.025
 3814SOL    HW112341   0.228   6.573   1.091
 3814SOL    HW212342   0.327   6.451   1.045
 3815SOL     OW12343   4.812   1.995   0.691
 3815SOL    HW112344   4.832   1.899   0.710
 3815SOL    HW212345   4.763   2.034   0.768
 3816SOL     OW12346   0.017   6.736   1.500
 3816SOL    HW112347   6.996   6.707   1.585
 3816SOL    HW212348   6.982   6.797   1.449
 3817SOL     OW12349   4.763   2.831   4.253
 3817SOL    HW112350   4.792   2.846   4.159
 3817SOL    HW212351   4.693   2.759   4.255
 3818SOL     OW12352   4.447   6.520   1.585
 3818SOL    HW112353   4.379   6.570   1.529
 3818SOL    HW212354   4.499   6.586   1.640
 3819SOL     OW12355   5.562   4.977   0.437
 3819SOL    HW112356   5.516   5.043   0.378
 3819SOL    HW212357   5.516   4.974   0.526
 3820SOL     OW12358   6.317   6.454   3.601
 3820SOL    HW112359   6.336   6.363   3.565
 3820SOL    HW212360   6.402   6.504   3.612
 3821SOL     OW12361   1.518   3.370   1.994
 3821SOL    HW112362   1.471   3.336   2.075
 3821SOL    HW212363   1.549   3.293   1.938
 3822SOL     OW12364   1.178   5.211   2.333
 3822SOL    HW112365   1.185   5.303   2.296
 3822SOL    HW212366   1.186   5.144   2.259
 3823SOL     OW12367   4.153   2.160   5.151
 3823SOL    HW112368   4.092   2.181   5.227
 3823SOL    HW212369   4.099   2.152   5.067
 3824SOL     OW12370   6.035   1.681   5.407
 3824SOL    HW112371   6.076   1.705   5.495
 3824SOL    HW212372   6.105   1.685   5.335
 3825SOL     OW12373   0.071   0.377   6.983
 3825SOL    HW112374   0.105   0.455   6.932
 3825SOL    HW212375   0.144   0.309   6.994
 3826SOL     OW12376   0.327   3.828   0.152
 3826SOL    HW112377   0.328   3.873   0.063
 3826SOL    HW212378   0.414   3.782   0.167
 3827SOL     OW12379   3.960   3.968   1.004
 3827SOL    HW112380   3.957   3.875   1.041
 3827SOL    HW212381   3.937   4.033   1.076
 3828SOL     OW12382   4.369   2.351   0.596
 3828SOL    HW112383   4.420   2.432   0.624
 3828SOL    HW212384   4.431   2.288   0.548
 3829SOL     OW12385   2.265   5.000   4.017
 3829SOL    HW112386   2.265   4.986   3.918
 3829SOL    HW212387   2.213   5.083   4.038
 3830SOL     OW12388   1.160   0.260   5.672
 3830SOL    HW112389   1.230   0.331   5.659
 3830SOL    HW212390   1.200   0.183   5.722
 3831SOL     OW12391   4.591   1.943   2.483
 3831SOL    HW112392   4.507   1.890   2.470
 3831SOL    HW212393   4.663   1.907   2.424
 3832SOL     OW12394   6.712   0.701   1.751
 3832SOL    HW112395   6.757   0.638   1.814
 3832SOL    HW212396   6.750   0.793   1.763
 3833SOL     OW12397   0.893   4.990   6.732
 3833SOL    HW112398   0.900   5.076   6.681
 3833SOL    HW212399   0.960   4.925   6.697
 3834SOL     OW12400   2.833   2.053   7.019
 3834SOL    HW112401   2.892   1.988   6.971
 3834SOL    HW212402   2.741   2.015   0.002
 3835SOL     OW12403   3.429   5.355   5.554
 3835SOL    HW112404   3.444   5.258   5.570
 3835SOL    HW212405   3.347   5.368   5.499
 3836SOL     OW12406   1.948   3.509   5.576
 3836SOL    HW112407   1.898   3.427   5.606
 3836SOL    HW212408   2.005   3.487   5.498
 3837SOL     OW12409   4.634   3.489   0.522
 3837SOL    HW112410   4.580   3.494   0.438
 3837SOL    HW212411   4.731   3.489   0.499
 3838SOL     OW12412   5.455   3.455   4.746
 3838SOL    HW112413   5.434   3.552   4.748
 3838SOL    HW212414   5.370   3.402   4.746
 3839SOL     OW12415   4.912   0.403   4.987
 3839SOL    HW112416   4.964   0.353   4.917
 3839SOL    HW212417   4.874   0.338   5.052
 3840SOL     OW12418   0.837   0.622   5.021
 3840SOL    HW112419   0.890   0.693   4.975
 3840SOL    HW212420   0.894   0.541   5.036
 3841SOL     OW12421   0.261   3.870   5.104
 3841SOL    HW112422   0.284   3.827   5.017
 3841SOL    HW212423   0.219   3.960   5.087
 3842SOL     OW12424   0.898   5.368   0.190
 3842SOL    HW112425   0.878   5.328   0.100
 3842SOL    HW212426   0.894   5.467   0.183
 3843SOL     OW12427   0.340   3.350   0.833
 3843SOL    HW112428   0.355   3.425   0.769
 3843SOL    HW212429   0.426   3.323   0.875
 3844SOL     OW12430   1.062   5.229   5.478
 3844SOL    HW112431   1.139   5.172   5.505
 3844SOL    HW212432   1.007   5.181   5.409
 3845SOL     OW12433   3.213   2.949   2.713
 3845SOL    HW112434   3.164   3.035   2.705
 3845SOL    HW212435   3.178   2.897   2.791
 3846SOL     OW12436   6.933   4.993   4.301
 3846SOL    HW112437   6.915   4.980   4.399
 3846SOL    HW212438   6.925   4.905   4.254
 3847SOL     OW12439   6.082   1.184   6.600
 3847SOL    HW112440   6.059   1.181   6.697
 3847SOL    HW212441   6.054   1.098   6.556
 3848SOL     OW12442   2.248   5.351   2.407
 3848SOL    HW112443   2.211   5.284   2.343
 3848SOL    HW212444   2.179   5.373   2.475
 3849SOL     OW12445   0.530   1.464   5.904
 3849SOL    HW112446   0.559   1.490   5.812
 3849SOL    HW212447   0.569   1.528   5.970
 3850SOL     OW12448   2.532   3.318   1.759
 3850SOL    HW112449   2.621   3.353   1.789
 3850SOL    HW212450   2.460   3.358   1.816
 3851SOL     OW12451   2.278   4.277   2.804
 3851SOL    HW112452   2.306   4.216   2.729
 3851SOL    HW212453   2.286   4.229   2.891
 3852SOL     OW12454   4.575   0.385   4.735
 3852SOL    HW112455   4.632   0.445   4.789
 3852SOL    HW212456   4.555   0.428   4.647
 3853SOL     OW12457   0.623   3.147   2.406
 3853SOL    HW112458   0.659   3.109   2.490
 3853SOL    HW212459   0.545   3.207   2.427
 3854SOL     OW12460   1.050   3.369   3.500
 3854SOL    HW112461   1.069   3.356   3.598
 3854SOL    HW212462   1.080   3.461   3.473
 3855SOL     OW12463   5.955   5.009   6.176
 3855SOL    HW112464   5.988   4.977   6.087
 3855SOL    HW212465   5.956   5.109   6.179
 3856SOL     OW12466   0.233   0.062   6.168
 3856SOL    HW112467   0.308   0.058   6.101
 3856SOL    HW212468   0.241   7.010   6.231
 3857SOL     OW12469   1.498   6.915   4.786
 3857SOL    HW112470   1.578   6.971   4.765
 3857SOL    HW212471   1.452   6.890   4.700
 3858SOL     OW12472   1.021   6.356   6.015
 3858SOL    HW112473   0.977   6.279   6.062
 3858SOL    HW212474   0.991   6.442   6.056
 3859SOL     OW12475   6.640   2.508   4.030
 3859SOL    HW112476   6.597   2.418   4.018
 3859SOL    HW212477   6.613   2.547   4.117
 3860SOL     OW12478   2.365   5.749   4.775
 3860SOL    HW112479   2.405   5.741   4.684
 3860SOL    HW212480   2.433   5.788   4.838
 3861SOL     OW12481   5.410   4.915   0.979
 3861SOL    HW112482   5.372   4.860   1.054
 3861SOL    HW212483   5.461   4.857   0.917
 3862SOL     OW12484   0.075   0.286   6.656
 3862SOL    HW112485   7.003   0.261   6.653
 3862SOL    HW212486   0.092   0.343   6.737
 3863SOL     OW12487   3.306   3.900   0.546
 3863SOL    HW112488   3.262   3.820   0.507
 3863SOL    HW212489   3.237   3.966   0.576
 3864SOL     OW12490   4.022   1.586   6.788
 3864SOL    HW112491   3.960   1.564   6.712
 3864SOL    HW212492   3.995   1.533   6.868
 3865SOL     OW12493   3.993   0.044   2.321
 3865SOL    HW112494   3.961   6.995   2.262
 3865SOL    HW212495   4.087   0.026   2.349
 3866SOL     OW12496   4.000   0.287   0.635
 3866SOL    HW112497   4.049   0.341   0.703
 3866SOL    HW212498   4.066   0.245   0.573
 3867SOL     OW12499   1.879   4.007   3.500
 3867SOL    HW112500   1.932   3.947   3.560
 3867SOL    HW212501   1.787   3.969   3.489
 3868SOL     OW12502   1.998   6.259   1.617
 3868SOL    HW112503   1.925   6.311   1.662
 3868SOL    HW212504   2.059   6.221   1.686
 3869SOL     OW12505   6.870   2.432   3.271
 3869SOL    HW112506   6.776   2.409   3.299
 3869SOL    HW212507   6.887   2.529   3.287
 3870SOL     OW12508   2.888   4.877   6.573
 3870SOL    HW112509   2.982   4.897   6.546
 3870SOL    HW212510   2.888   4.821   6.656
 3871SOL     OW12511   3.263   6.910   2.623
 3871SOL    HW112512   3.332   6.970   2.583
 3871SOL    HW212513   3.203   6.963   2.683
 3872SOL     OW12514   3.933   3.431   1.158
 3872SOL    HW112515   3.998   3.392   1.093
 3872SOL    HW212516   3.845   3.384   1.150
 3873SOL     OW12517   5.433   5.383   1.325
 3873SOL    HW112518   5.340   5.403   1.357
 3873SOL    HW212519   5.464   5.298   1.368
 3874SOL     OW12520   4.263   6.483   0.028
 3874SOL    HW112521   4.353   6.525   0.017
 3874SOL    HW212522   4.265   6.421   0.107
 3875SOL     OW12523   1.716   4.409   2.046
 3875SOL    HW112524   1.761   4.334   2.095
 3875SOL    HW212525   1.617   4.402   2.059
 3876SOL     OW12526   5.989   4.870   4.939
 3876SOL    HW112527   6.004   4.969   4.947
 3876SOL    HW212528   6.064   4.829   4.888
 3877SOL     OW12529   6.007   1.102   2.346
 3877SOL    HW112530   6.037   1.087   2.252
 3877SOL    HW212531   6.026   1.197   2.372
 3878SOL     OW12532   3.520   6.898   6.255
 3878SOL    HW112533   3.612   6.916   6.218
 3878SOL    HW212534   3.472   6.984   6.270
 3879SOL     OW12535   4.500   5.322   1.816
 3879SOL    HW112536   4.456   5.270   1.743
 3879SOL    HW212537   4.437   5.391   1.850
 3880SOL     OW12538   5.674   3.898   2.266
 3880SOL    HW112539   5.671   3.809   2.222
 3880SOL    HW212540   5.763   3.911   2.310
 3881SOL     OW12541   1.721   4.966   1.111
 3881SOL    HW112542   1.731   4.983   1.013
 3881SOL    HW212543   1.694   4.870   1.125
 3882SOL     OW12544   6.120   1.299   6.061
 3882SOL    HW112545   6.047   1.285   5.995
 3882SOL    HW212546   6.098   1.254   6.147
 3883SOL     OW12547   4.655   1.459   3.614
 3883SOL    HW112548   4.572   1.504   3.582
 3883SOL    HW212549   4.656   1.364   3.584
 3884SOL     OW12550   1.767   5.949   4.925
 3884SOL    HW112551   1.681   5.977   4.883
 3884SOL    HW212552   1.823   5.901   4.858
 3885SOL     OW12553   0.048   0.921   3.855
 3885SOL    HW112554   0.108   0.997   3.830
 3885SOL    HW212555   0.009   0.882   3.772
 3886SOL     OW12556   6.867   0.304   5.213
 3886SOL    HW112557   6.882   0.332   5.308
 3886SOL    HW212558   6.952   0.268   5.174
 3887SOL     OW12559   3.971   1.559   5.283
 3887SOL    HW112560   3.928   1.624   5.344
 3887SOL    HW212561   4.012   1.485   5.336
 3888SOL     OW12562   6.269   1.760   0.718
 3888SOL    HW112563   6.192   1.737   0.659
 3888SOL    HW212564   6.250   1.728   0.811
 3889SOL     OW12565   0.644   5.487   5.954
 3889SOL    HW112566   0.627   5.459   6.049
 3889SOL    HW212567   0.673   5.583   5.952
 3890SOL     OW12568   5.419   5.417   2.961
 3890SOL    HW112569   5.429   5.363   2.877
 3890SOL    HW212570   5.332   5.394   3.005
 3891SOL     OW12571   5.502   5.559   4.960
 3891SOL    HW112572   5.519   5.640   5.016
 3891SOL    HW212573   5.556   5.564   4.877
 3892SOL     OW12574   5.982   6.777   3.052
 3892SOL    HW112575   6.016   6.778   2.958
 3892SOL    HW212576   5.919   6.854   3.066
 3893SOL     OW12577   3.024   5.602   4.368
 3893SOL    HW112578   3.119   5.579   4.387
 3893SOL    HW212579   2.970   5.518   4.360
 3894SOL     OW12580   4.644   3.361   0.126
 3894SOL    HW112581   4.604   3.297   0.192
 3894SOL    HW212582   4.585   3.441   0.118
 3895SOL     OW12583   1.742   1.078   5.422
 3895SOL    HW112584   1.718   0.997   5.369
 3895SOL    HW212585   1.740   1.159   5.363
 3896SOL     OW12586   6.918   2.872   5.086
 3896SOL    HW112587   6.937   2.799   5.020
 3896SOL    HW212588   6.958   2.848   5.175
 3897SOL     OW12589   3.502   6.635   2.070
 3897SOL    HW112590   3.416   6.652   2.021
 3897SOL    HW212591   3.567   6.590   2.008
 3898SOL     OW12592   4.174   3.399   4.442
 3898SOL    HW112593   4.251   3.334   4.443
 3898SOL    HW212594   4.172   3.447   4.355
 3899SOL     OW12595   4.600   1.623   5.883
 3899SOL    HW112596   4.683   1.589   5.927
 3899SOL    HW212597   4.535   1.653   5.953
 3900SOL     OW12598   6.446   2.579   3.390
 3900SOL    HW112599   6.466   2.492   3.435
 3900SOL    HW212600   6.428   2.649   3.459
 3901SOL     OW12601   1.140   6.509   4.890
 3901SOL    HW112602   1.099   6.453   4.818
 3901SOL    HW212603   1.071   6.570   4.928
 3902SOL     OW12604   5.297   5.043   1.903
 3902SOL    HW112605   5.259   4.953   1.927
 3902SOL    HW212606   5.298   5.053   1.804
 3903SOL     OW12607   4.511   3.073   6.848
 3903SOL    HW112608   4.504   3.088   6.749
 3903SOL    HW212609   4.436   3.121   6.894
 3904SOL     OW12610   1.015   6.269   0.918
 3904SOL    HW112611   1.096   6.253   0.975
 3904SOL    HW212612   0.999   6.367   0.909
 3905SOL     OW12613   6.629   0.264   5.906
 3905SOL    HW112614   6.529   0.264   5.911
 3905SOL    HW212615   6.658   0.328   5.835
 3906SOL     OW12616   1.627   5.131   4.420
 3906SOL    HW112617   1.721   5.110   4.447
 3906SOL    HW212618   1.625   5.218   4.371
 3907SOL     OW12619   7.008   1.287   3.984
 3907SOL    HW112620   6.933   1.222   3.971
 3907SOL    HW212621   0.012   1.287   4.080
 3908SOL     OW12622   1.248   0.265   5.026
 3908SOL    HW112623   1.292   0.225   4.946
 3908SOL    HW212624   1.197   0.195   5.076
 3909SOL     OW12625   5.305   3.230   5.968
 3909SOL    HW112626   5.250   3.296   5.917
 3909SOL    HW212627   5.265   3.139   5.960
 3910SOL     OW12628   3.671   2.616   0.613
 3910SOL    HW112629   3.640   2.560   0.536
 3910SOL    HW212630   3.607   2.608   0.688
 3911SOL     OW12631   6.244   1.226   1.584
 3911SOL    HW112632   6.266   1.240   1.681
 3911SOL    HW212633   6.269   1.307   1.531
 3912SOL     OW12634   4.048   2.111   0.026
 3912SOL    HW112635   4.041   2.028   0.081
 3912SOL    HW212636   4.029   2.191   0.084
 3913SOL     OW12637   4.631   5.426   0.711
 3913SOL    HW112638   4.561   5.475   0.658
 3913SOL    HW212639   4.644   5.472   0.799
 3914SOL     OW12640   5.607   1.242   0.646
 3914SOL    HW112641   5.675   1.171   0.628
 3914SOL    HW212642   5.525   1.224   0.591
 3915SOL     OW12643   4.676   5.192   0.260
 3915SOL    HW112644   4.663   5.167   0.356
 3915SOL    HW212645   4.769   5.168   0.232
 3916SOL     OW12646   1.719   0.656   2.648
 3916SOL    HW112647   1.696   0.684   2.554
 3916SOL    HW212648   1.697   0.730   2.711
 3917SOL     OW12649   2.829   4.844   0.705
 3917SOL    HW112650   2.827   4.933   0.659
 3917SOL    HW212651   2.901   4.844   0.774
 3918SOL     OW12652   5.444   0.379   0.730
 3918SOL    HW112653   5.398   0.429   0.658
 3918SOL    HW212654   5.380   0.314   0.772
 3919SOL     OW12655   3.852   0.440   1.538
 3919SOL    HW112656   3.868   0.433   1.636
 3919SOL    HW212657   3.829   0.535   1.514
 3920SOL     OW12658   3.089   1.004   5.638
 3920SOL    HW112659   3.147   0.946   5.581
 3920SOL    HW212660   2.993   0.979   5.626
 3921SOL     OW12661   0.657   2.524   6.528
 3921SOL    HW112662   0.664   2.624   6.537
 3921SOL    HW212663   0.580   2.501   6.468
 3922SOL     OW12664   4.776   5.072   2.596
 3922SOL    HW112665   4.724   5.011   2.536
 3922SOL    HW212666   4.863   5.096   2.553
 3923SOL     OW12667   5.198   0.644   1.547
 3923SOL    HW112668   5.213   0.562   1.603
 3923SOL    HW212669   5.148   0.620   1.464
 3924SOL     OW12670   6.426   4.438   4.413
 3924SOL    HW112671   6.423   4.476   4.506
 3924SOL    HW212672   6.520   4.409   4.393
 3925SOL     OW12673   4.532   3.707   0.919
 3925SOL    HW112674   4.502   3.645   0.991
 3925SOL    HW212675   4.592   3.778   0.957
 3926SOL     OW12676   0.309   0.221   5.328
 3926SOL    HW112677   0.249   0.147   5.359
 3926SOL    HW212678   0.295   0.302   5.384
 3927SOL     OW12679   6.645   2.883   5.124
 3927SOL    HW112680   6.744   2.894   5.115
 3927SOL    HW212681   6.625   2.843   5.214
 3928SOL     OW12682   2.095   6.312   2.686
 3928SOL    HW112683   2.145   6.230   2.714
 3928SOL    HW212684   2.087   6.374   2.764
 3929SOL     OW12685   0.347   2.097   5.568
 3929SOL    HW112686   0.272   2.033   5.586
 3929SOL    HW212687   0.430   2.045   5.546
 3930SOL     OW12688   0.916   3.511   3.908
 3930SOL    HW112689   0.990   3.448   3.882
 3930SOL    HW212690   0.916   3.589   3.846
 3931SOL     OW12691   1.510   2.260   1.571
 3931SOL    HW112692   1.583   2.257   1.639
 3931SOL    HW212693   1.430   2.307   1.609
 3932SOL     OW12694   1.463   5.980   4.086
 3932SOL    HW112695   1.373   6.013   4.058
 3932SOL    HW212696   1.456   5.939   4.177
 3933SOL     OW12697   2.316   4.873   0.558
 3933SOL    HW112698   2.397   4.921   0.526
 3933SOL    HW212699   2.337   4.822   0.641
 3934SOL     OW12700   0.297   1.770   1.952
 3934SOL    HW112701   0.380   1.815   1.921
 3934SOL    HW212702   0.317   1.713   2.031
 3935SOL     OW12703   6.454   3.475   6.939
 3935SOL    HW112704   6.368   3.430   6.914
 3935SOL    HW212705   6.529   3.410   6.931
 3936SOL     OW12706   0.025   5.337   5.651
 3936SOL    HW112707   0.048   5.345   5.554
 3936SOL    HW212708   0.110   5.337   5.705
 3937SOL     OW12709   0.046   6.982   2.210
 3937SOL    HW112710   0.108   6.976   2.288
 3937SOL    HW212711   0.004   6.892   2.194
 3938SOL     OW12712   0.270   4.119   2.944
 3938SOL    HW112713   0.365   4.146   2.959
 3938SOL    HW212714   0.234   4.166   2.864
 3939SOL     OW12715   0.751   0.811   2.130
 3939SOL    HW112716   0.678   0.880   2.134
 3939SOL    HW212717   0.826   0.845   2.074
 3940SOL     OW12718   3.074   4.635   1.275
 3940SOL    HW112719   2.981   4.623   1.310
 3940SOL    HW212720   3.118   4.711   1.323
 3941SOL     OW12721   6.077   0.049   4.351
 3941SOL    HW112722   5.980   0.032   4.336
 3941SOL    HW212723   6.089   0.133   4.404
 3942SOL     OW12724   0.311   6.086   6.150
 3942SOL    HW112725   0.352   6.156   6.091
 3942SOL    HW212726   0.378   6.058   6.219
 3943SOL     OW12727   1.389   3.205   0.476
 3943SOL    HW112728   1.316   3.231   0.540
 3943SOL    HW212729   1.462   3.159   0.527
 3944SOL     OW12730   5.973   2.040   6.774
 3944SOL    HW112731   5.952   1.987   6.856
 3944SOL    HW212732   5.943   1.990   6.693
 3945SOL     OW12733   0.135   1.330   2.895
 3945SOL    HW112734   0.167   1.244   2.855
 3945SOL    HW212735   0.067   1.371   2.834
 3946SOL     OW12736   1.090   3.067   0.951
 3946SOL    HW112737   1.035   3.151   0.950
 3946SOL    HW212738   1.083   3.023   0.861
 3947SOL     OW12739   6.167   5.048   1.410
 3947SOL    HW112740   6.072   5.073   1.395
 3947SOL    HW212741   6.195   4.978   1.344
 3948SOL     OW12742   1.269   2.329   6.346
 3948SOL    HW112743   1.291   2.244   6.298
 3948SOL    HW212744   1.200   2.379   6.294
 3949SOL     OW12745   6.148   6.348   2.410
 3949SOL    HW112746   6.162   6.437   2.367
 3949SOL    HW212747   6.214   6.337   2.485
 3950SOL     OW12748   3.353   4.411   1.169
 3950SOL    HW112749   3.291   4.489   1.162
 3950SOL    HW212750   3.305   4.334   1.211
 3951SOL     OW12751   0.838   2.160   5.919
 3951SOL    HW112752   0.794   2.149   5.830
 3951SOL    HW212753   0.852   2.069   5.960
 3952SOL     OW12754   6.448   3.757   5.518
 3952SOL    HW112755   6.417   3.752   5.423
 3952SOL    HW212756   6.524   3.694   5.532
 3953SOL     OW12757   3.598   4.257   6.063
 3953SOL    HW112758   3.568   4.188   5.997
 3953SOL    HW212759   3.671   4.312   6.023
 3954SOL     OW12760   0.841   3.560   5.435
 3954SOL    HW112761   0.820   3.658   5.438
 3954SOL    HW212762   0.756   3.509   5.419
 3955SOL     OW12763   5.588   5.045   7.019
 3955SOL    HW112764   5.636   5.008   6.939
 3955SOL    HW212765   5.491   5.025   7.012
 3956SOL     OW12766   0.575   2.894   5.566
 3956SOL    HW112767   0.490   2.894   5.513
 3956SOL    HW212768   0.636   2.964   5.530
 3957SOL     OW12769   1.671   0.309   3.249
 3957SOL    HW112770   1.661   0.260   3.163
 3957SOL    HW212771   1.648   0.405   3.236
 3958SOL     OW12772   5.889   6.423   5.328
 3958SOL    HW112773   5.877   6.432   5.229
 3958SOL    HW212774   5.940   6.502   5.363
 3959SOL     OW12775   2.597   5.231   0.173
 3959SOL    HW112776   2.555   5.142   0.193
 3959SOL    HW212777   2.674   5.219   0.110
 3960SOL     OW12778   4.023   3.286   0.415
 3960SOL    HW112779   4.039   3.344   0.494
 3960SOL    HW212780   3.926   3.262   0.411
 3961SOL     OW12781   4.954   0.642   1.395
 3961SOL    HW112782   4.907   0.642   1.483
 3961SOL    HW212783   4.963   0.736   1.361
 3962SOL     OW12784   0.451   0.083   5.978
 3962SOL    HW112785   0.534   0.033   6.003
 3962SOL    HW212786   0.476   0.172   5.941
 3963SOL     OW12787   4.459   5.665   3.182
 3963SOL    HW112788   4.520   5.671   3.261
 3963SOL    HW212789   4.364   5.666   3.214
 3964SOL     OW12790   5.403   5.849   5.039
 3964SOL    HW112791   5.481   5.911   5.052
 3964SOL    HW212792   5.345   5.884   4.965
 3965SOL     OW12793   3.334   3.425   0.188
 3965SOL    HW112794   3.389   3.457   0.110
 3965SOL    HW212795   3.352   3.484   0.267
 3966SOL     OW12796   6.137   3.922   5.241
 3966SOL    HW112797   6.177   4.013   5.239
 3966SOL    HW212798   6.050   3.922   5.191
 3967SOL     OW12799   0.343   5.529   5.932
 3967SOL    HW112800   0.348   5.622   5.968
 3967SOL    HW212801   0.369   5.464   6.003
 3968SOL     OW12802   6.163   1.140   2.082
 3968SOL    HW112803   6.197   1.228   2.048
 3968SOL    HW212804   6.239   1.074   2.082
 3969SOL     OW12805   0.428   5.204   2.443
 3969SOL    HW112806   0.460   5.292   2.407
 3969SOL    HW212807   0.375   5.220   2.526
 3970SOL     OW12808   5.248   4.291   2.754
 3970SOL    HW112809   5.338   4.307   2.795
 3970SOL    HW212810   5.225   4.366   2.693
 3971SOL     OW12811   1.388   5.875   3.114
 3971SOL    HW112812   1.467   5.863   3.053
 3971SOL    HW212813   1.330   5.949   3.080
 3972SOL     OW12814   1.012   0.105   0.133
 3972SOL    HW112815   0.946   0.054   0.188
 3972SOL    HW212816   1.104   0.069   0.148
 3973SOL     OW12817   2.970   3.520   4.431
 3973SOL    HW112818   2.977   3.433   4.481
 3973SOL    HW212819   2.954   3.594   4.497
 3974SOL     OW12820   5.934   1.672   6.762
 3974SOL    HW112821   5.893   1.669   6.671
 3974SOL    HW212822   5.888   1.741   6.818
 3975SOL     OW12823   6.744   0.586   5.924
 3975SOL    HW112824   6.792   0.578   6.011
 3975SOL    HW212825   6.796   0.538   5.853
 3976SOL     OW12826   1.072   2.996   0.681
 3976SOL    HW112827   1.004   2.998   0.608
 3976SOL    HW212828   1.127   2.913   0.672
 3977SOL     OW12829   3.444   6.091   6.519
 3977SOL    HW112830   3.502   6.106   6.439
 3977SOL    HW212831   3.351   6.073   6.490
 3978SOL     OW12832   6.267   3.100   6.315
 3978SOL    HW112833   6.203   3.161   6.361
 3978SOL    HW212834   6.345   3.082   6.376
 3979SOL     OW12835   0.651   6.783   2.254
 3979SOL    HW112836   0.630   6.851   2.324
 3979SOL    HW212837   0.748   6.760   2.258
 3980SOL     OW12838   5.028   3.471   4.481
 3980SOL    HW112839   5.036   3.421   4.395
 3980SOL    HW212840   4.966   3.423   4.542
 3981SOL     OW12841   6.877   1.811   0.102
 3981SOL    HW112842   6.847   1.719   0.080
 3981SOL    HW212843   6.812   1.877   0.066
 3982SOL     OW12844   2.246   2.148   3.859
 3982SOL    HW112845   2.173   2.201   3.815
 3982SOL    HW212846   2.335   2.181   3.828
 3983SOL     OW12847   2.975   6.076   4.376
 3983SOL    HW112848   2.952   6.011   4.448
 3983SOL    HW212849   2.970   6.169   4.412
 3984SOL     OW12850   2.331   6.427   1.252
 3984SOL    HW112851   2.311   6.513   1.205
 3984SOL    HW212852   2.247   6.373   1.259
 3985SOL     OW12853   2.407   2.976   1.615
 3985SOL    HW112854   2.438   2.999   1.523
 3985SOL    HW212855   2.482   2.989   1.680
 3986SOL     OW12856   0.518   2.152   1.792
 3986SOL    HW112857   0.444   2.216   1.769
 3986SOL    HW212858   0.479   2.069   1.832
 3987SOL     OW12859   2.693   4.856   6.404
 3987SOL    HW112860   2.688   4.950   6.370
 3987SOL    HW212861   2.730   4.855   6.497
 3988SOL     OW12862   4.074   3.040   0.628
 3988SOL    HW112863   4.099   2.975   0.556
 3988SOL    HW212864   3.982   3.021   0.660
 3989SOL     OW12865   5.159   6.874   6.670
 3989SOL    HW112866   5.198   6.951   6.719
 3989SOL    HW212867   5.149   6.796   6.732
 3990SOL     OW12868   0.835   3.379   3.317
 3990SOL    HW112869   0.910   3.359   3.379
 3990SOL    HW212870   0.755   3.410   3.370
 3991SOL     OW12871   0.138   2.133   4.090
 3991SOL    HW112872   0.090   2.221   4.091
 3991SOL    HW212873   0.134   2.095   3.997
 3992SOL     OW12874   4.356   3.573   6.392
 3992SOL    HW112875   4.395   3.660   6.424
 3992SOL    HW212876   4.293   3.538   6.460
 3993SOL     OW12877   2.662   2.425   2.904
 3993SOL    HW112878   2.622   2.430   2.995
 3993SOL    HW212879   2.624   2.498   2.847
 3994SOL     OW12880   2.211   3.092   3.580
 3994SOL    HW112881   2.171   3.178   3.550
 3994SOL    HW212882   2.275   3.109   3.655
 3995SOL     OW12883   2.199   3.936   3.375
 3995SOL    HW112884   2.122   3.891   3.420
 3995SOL    HW212885   2.253   3.985   3.444
 3996SOL     OW12886   0.191   1.174   3.127
 3996SOL    HW112887   0.174   1.076   3.129
 3996SOL    HW212888   0.183   1.207   3.033
 3997SOL     OW12889   5.670   3.819   2.993
 3997SOL    HW112890   5.607   3.743   2.974
 3997SOL    HW212891   5.644   3.898   2.938
 3998SOL     OW12892   6.425   1.807   3.105
 3998SOL    HW112893   6.381   1.776   3.021
 3998SOL    HW212894   6.397   1.749   3.181
 3999SOL     OW12895   5.507   3.639   2.443
 3999SOL    HW112896   5.587   3.611   2.390
 3999SOL    HW212897   5.461   3.715   2.397
 4000SOL     OW12898   2.195   5.658   2.093
 4000SOL    HW112899   2.174   5.604   2.012
 4000SOL    HW212900   2.273   5.617   2.141
 4001SOL     OW12901   2.632   3.815   5.353
 4001SOL    HW112902   2.714   3.872   5.344
 4001SOL    HW212903   2.560   3.851   5.294
 4002SOL     OW12904   3.627   2.856   4.309
 4002SOL    HW112905   3.562   2.782   4.323
 4002SOL    HW212906   3.658   2.856   4.214
 4003SOL     OW12907   2.396   1.020   5.645
 4003SOL    HW112908   2.394   1.111   5.603
 4003SOL    HW212909   2.438   1.026   5.736
 4004SOL     OW12910   0.118   3.820   3.135
 4004SOL    HW112911   0.066   3.883   3.077
 4004SOL    HW212912   0.125   3.857   3.227
 4005SOL     OW12913   4.641   3.678   1.551
 4005SOL    HW112914   4.732   3.669   1.593
 4005SOL    HW212915   4.583   3.603   1.581
 4006SOL     OW12916   5.046   5.282   2.755
 4006SOL    HW112917   4.956   5.320   2.774
 4006SOL    HW212918   5.108   5.356   2.726
 4007SOL     OW12919   0.677   1.646   3.182
 4007SOL    HW112920   0.591   1.686   3.214
 4007SOL    HW212921   0.656   1.571   3.119
 4008SOL     OW12922   2.241   6.805   0.666
 4008SOL    HW112923   2.203   6.887   0.625
 4008SOL    HW212924   2.193   6.786   0.752
 4009SOL     OW12925   4.656   1.771   1.224
 4009SOL    HW112926   4.557   1.787   1.224
 4009SOL    HW212927   4.703   1.850   1.262
 4010SOL     OW12928   3.192   4.242   1.307
 4010SOL    HW112929   3.206   4.292   1.393
 4010SOL    HW212930   3.118   4.176   1.320
 4011SOL     OW12931   6.256   6.250   0.584
 4011SOL    HW112932   6.331   6.248   0.518
 4011SOL    HW212933   6.290   6.282   0.672
 4012SOL     OW12934   4.336   6.563   1.928
 4012SOL    HW112935   4.378   6.520   1.848
 4012SOL    HW212936   4.303   6.654   1.903
 4013SOL     OW12937   1.674   0.944   1.370
 4013SOL    HW112938   1.595   0.950   1.431
 4013SOL    HW212939   1.713   0.852   1.375
 4014SOL     OW12940   2.578   5.579   3.704
 4014SOL    HW112941   2.608   5.648   3.770
 4014SOL    HW212942   2.545   5.624   3.621
 4015SOL     OW12943   4.312   5.437   6.396
 4015SOL    HW112944   4.371   5.359   6.417
 4015SOL    HW212945   4.304   5.445   6.296
 4016SOL     OW12946   3.301   5.829   6.139
 4016SOL    HW112947   3.345   5.743   6.163
 4016SOL    HW212948   3.226   5.812   6.076
 4017SOL     OW12949   0.560   5.354   5.733
 4017SOL    HW112950   0.578   5.422   5.804
 4017SOL    HW212951   0.647   5.327   5.690
 4018SOL     OW12952   3.651   6.001   1.694
 4018SOL    HW112953   3.727   5.970   1.751
 4018SOL    HW212954   3.686   6.060   1.621
 4019SOL     OW12955   5.665   3.257   2.701
 4019SOL    HW112956   5.685   3.206   2.784
 4019SOL    HW212957   5.673   3.197   2.621
 4020SOL     OW12958   6.682   4.177   4.121
 4020SOL    HW112959   6.760   4.114   4.122
 4020SOL    HW212960   6.635   4.170   4.033
 4021SOL     OW12961   3.729   3.657   5.971
 4021SOL    HW112962   3.629   3.660   5.975
 4021SOL    HW212963   3.759   3.567   5.938
 4022SOL     OW12964   3.242   6.657   0.590
 4022SOL    HW112965   3.253   6.755   0.575
 4022SOL    HW212966   3.246   6.638   0.688
 4023SOL     OW12967   0.478   1.955   5.792
 4023SOL    HW112968   0.562   1.975   5.842
 4023SOL    HW212969   0.497   1.888   5.721
 4024SOL     OW12970   1.319   5.243   4.187
 4024SOL    HW112971   1.294   5.146   4.188
 4024SOL    HW212972   1.243   5.297   4.224
 4025SOL     OW12973   1.146   5.992   4.063
 4025SOL    HW112974   1.184   5.905   4.094
 4025SOL    HW212975   1.133   5.989   3.964
 4026SOL     OW12976   6.719   6.274   4.004
 4026SOL    HW112977   6.808   6.241   4.034
 4026SOL    HW212978   6.671   6.203   3.953
 4027SOL     OW12979   2.512   2.091   6.610
 4027SOL    HW112980   2.529   2.155   6.685
 4027SOL    HW212981   2.499   2.143   6.525
 4028SOL     OW12982   4.886   1.689   3.208
 4028SOL    HW112983   4.803   1.637   3.187
 4028SOL    HW212984   4.887   1.773   3.154
 4029SOL     OW12985   2.725   4.160   6.651
 4029SOL    HW112986   2.692   4.188   6.561
 4029SOL    HW212987   2.732   4.240   6.710
 4030SOL     OW12988   6.848   1.009   2.295
 4030SOL    HW112989   6.820   0.931   2.350
 4030SOL    HW212990   6.838   1.093   2.348
 4031SOL     OW12991   5.642   0.411   2.118
 4031SOL    HW112992   5.736   0.424   2.149
 4031SOL    HW212993   5.642   0.358   2.033
 4032SOL     OW12994   6.301   6.418   1.404
 4032SOL    HW112995   6.385   6.366   1.417
 4032SOL    HW212996   6.224   6.354   1.397
 4033SOL     OW12997   3.195   2.114   2.809
 4033SOL    HW112998   3.110   2.159   2.837
 4033SOL    HW212999   3.256   2.105   2.888
 4034SOL     OW13000   6.470   2.669   5.444
 4034SOL    HW113001   6.519   2.755   5.434
 4034SOL    HW213002   6.377   2.686   5.474
 4035SOL     OW13003   6.638   2.483   1.591
 4035SOL    HW113004   6.689   2.499   1.675
 4035SOL    HW213005   6.610   2.387   1.587
 4036SOL     OW13006   3.631   4.934   2.535
 4036SOL    HW113007   3.623   4.958   2.438
 4036SOL    HW213008   3.710   4.982   2.575
 4037SOL     OW13009   3.375   0.918   5.956
 4037SOL    HW113010   3.303   0.965   5.905
 4037SOL    HW213011   3.351   0.821   5.967
 4038SOL     OW13012   4.578   3.412   6.812
 4038SOL    HW113013   4.663   3.434   6.861
 4038SOL    HW213014   4.595   3.337   6.748
 4039SOL     OW13015   5.381   5.789   1.419
 4039SOL    HW113016   5.370   5.842   1.503
 4039SOL    HW213017   5.291   5.779   1.375
 4040SOL     OW13018   3.223   5.712   4.898
 4040SOL    HW113019   3.276   5.745   4.976
 4040SOL    HW213020   3.279   5.715   4.816
 4041SOL     OW13021   1.729   6.381   1.308
 4041SOL    HW113022   1.682   6.348   1.390
 4041SOL    HW213023   1.725   6.311   1.237
 4042SOL     OW13024   5.723   6.281   3.050
 4042SOL    HW113025   5.768   6.371   3.054
 4042SOL    HW213026   5.791   6.210   3.035
 4043SOL     OW13027   6.392   2.098   6.899
 4043SOL    HW113028   6.316   2.145   6.856
 4043SOL    HW213029   6.465   2.163   6.918
 4044SOL     OW13030   4.897   4.769   2.658
 4044SOL    HW113031   4.906   4.859   2.702
 4044SOL    HW213032   4.957   4.703   2.704
 4045SOL     OW13033   4.198   6.514   6.398
 4045SOL    HW113034   4.297   6.500   6.394
 4045SOL    HW213035   4.178   6.594   6.454
 4046SOL     OW13036   0.595   1.555   2.616
 4046SOL    HW113037   0.553   1.642   2.640
 4046SOL    HW213038   0.546   1.481   2.662
 4047SOL     OW13039   1.852   2.480   0.224
 4047SOL    HW113040   1.913   2.459   0.148
 4047SOL    HW213041   1.765   2.432   0.210
 4048SOL     OW13042   5.267   1.244   2.044
 4048SOL    HW113043   5.307   1.334   2.026
 4048SOL    HW213044   5.341   1.178   2.059
 4049SOL     OW13045   4.511   6.410   6.800
 4049SOL    HW113046   4.476   6.503   6.784
 4049SOL    HW213047   4.464   6.370   6.879
 4050SOL     OW13048   0.692   5.703   2.111
 4050SOL    HW113049   0.731   5.698   2.203
 4050SOL    HW213050   0.637   5.785   2.102
 4051SOL     OW13051   4.965   1.385   6.438
 4051SOL    HW113052   4.954   1.464   6.499
 4051SOL    HW213053   4.905   1.396   6.359
 4052SOL     OW13054   5.982   1.987   3.312
 4052SOL    HW113055   5.938   2.035   3.387
 4052SOL    HW213056   6.081   1.981   3.329
 4053SOL     OW13057   1.541   6.059   4.799
 4053SOL    HW113058   1.508   5.986   4.740
 4053SOL    HW213059   1.559   6.141   4.743
 4054SOL     OW13060   4.660   4.502   1.437
 4054SOL    HW113061   4.738   4.549   1.479
 4054SOL    HW213062   4.691   4.420   1.391
 4055SOL     OW13063   1.369   3.865   1.805
 4055SOL    HW113064   1.278   3.905   1.805
 4055SOL    HW213065   1.435   3.933   1.772
 4056SOL     OW13066   4.958   3.788   1.358
 4056SOL    HW113067   4.894   3.742   1.297
 4056SOL    HW213068   5.052   3.770   1.328
 4057SOL     OW13069   6.637   3.215   6.579
 4057SOL    HW113070   6.695   3.225   6.498
 4057SOL    HW213071   6.623   3.304   6.622
 4058SOL     OW13072   2.591   6.262   4.903
 4058SOL    HW113073   2.534   6.200   4.959
 4058SOL    HW213074   2.683   6.264   4.941
 4059SOL     OW13075   6.965   3.197   3.101
 4059SOL    HW113076   6.920   3.213   3.013
 4059SOL    HW213077   0.039   3.191   3.087
 4060SOL     OW13078   6.138   5.296   5.599
 4060SOL    HW113079   6.060   5.346   5.561
 4060SOL    HW213080   6.176   5.236   5.529
 4061SOL     OW13081   2.529   4.655   1.967
 4061SOL    HW113082   2.614   4.689   1.926
 4061SOL    HW213083   2.499   4.717   2.040
 4062SOL     OW13084   2.905   0.283   1.707
 4062SOL    HW113085   2.989   0.326   1.739
 4062SOL    HW213086   2.835   0.288   1.779
 4063SOL     OW13087   5.869   6.740   0.699
 4063SOL    HW113088   5.823   6.756   0.786
 4063SOL    HW213089   5.945   6.675   0.714
 4064SOL     OW13090   2.955   2.261   4.730
 4064SOL    HW113091   3.035   2.222   4.686
 4064SOL    HW213092   2.967   2.259   4.829
 4065SOL     OW13093   0.748   0.347   1.325
 4065SOL    HW113094   0.692   0.305   1.254
 4065SOL    HW213095   0.763   0.280   1.399
 4066SOL     OW13096   6.561   3.866   3.048
 4066SOL    HW113097   6.523   3.901   2.962
 4066SOL    HW213098   6.613   3.938   3.094
 4067SOL     OW13099   5.538   4.026   3.414
 4067SOL    HW113100   5.480   3.945   3.425
 4067SOL    HW213101   5.561   4.038   3.317
 4068SOL     OW13102   2.104   2.318   4.389
 4068SOL    HW113103   2.151   2.380   4.451
 4068SOL    HW213104   2.170   2.276   4.327
 4069SOL     OW13105   3.247   5.910   6.926
 4069SOL    HW113106   3.328   5.908   6.984
 4069SOL    HW213107   3.185   5.836   6.952
 4070SOL     OW13108   1.093   3.298   2.795
 4070SOL    HW113109   1.086   3.260   2.887
 4070SOL    HW213110   1.057   3.392   2.796
 4071SOL     OW13111   1.544   0.739   4.873
 4071SOL    HW113112   1.564   0.814   4.809
 4071SOL    HW213113   1.460   0.759   4.923
 4072SOL     OW13114   0.635   4.771   5.028
 4072SOL    HW113115   0.701   4.765   5.104
 4072SOL    HW213116   0.674   4.828   4.956
 4073SOL     OW13117   2.614   5.429   6.094
 4073SOL    HW113118   2.663   5.515   6.109
 4073SOL    HW213119   2.675   5.364   6.050
 4074SOL     OW13120   0.764   4.510   1.331
 4074SOL    HW113121   0.752   4.475   1.238
 4074SOL    HW213122   0.714   4.596   1.341
 4075SOL     OW13123   5.070   1.887   1.332
 4075SOL    HW113124   5.070   1.812   1.398
 4075SOL    HW213125   5.073   1.849   1.239
 4076SOL     OW13126   3.472   3.604   5.670
 4076SOL    HW113127   3.519   3.521   5.702
 4076SOL    HW213128   3.474   3.605   5.570
 4077SOL     OW13129   4.263   1.677   1.037
 4077SOL    HW113130   4.289   1.582   1.054
 4077SOL    HW213131   4.164   1.687   1.050
 4078SOL     OW13132   2.448   5.174   2.369
 4078SOL    HW113133   2.382   5.249   2.363
 4078SOL    HW213134   2.450   5.124   2.282
 4079SOL     OW13135   2.277   1.562   3.267
 4079SOL    HW113136   2.293   1.486   3.329
 4079SOL    HW213137   2.365   1.593   3.229
 4080SOL     OW13138   5.125   2.369   5.585
 4080SOL    HW113139   5.054   2.375   5.655
 4080SOL    HW213140   5.098   2.422   5.505
 4081SOL     OW13141   1.637   2.800   3.973
 4081SOL    HW113142   1.553   2.823   4.021
 4081SOL    HW213143   1.714   2.799   4.037
 4082SOL     OW13144   0.816   3.772   0.753
 4082SOL    HW113145   0.890   3.811   0.698
 4082SOL    HW213146   0.852   3.695   0.805
 4083SOL     OW13147   6.146   3.284   3.143
 4083SOL    HW113148   6.194   3.364   3.179
 4083SOL    HW213149   6.210   3.227   3.092
 4084SOL     OW13150   5.736   1.583   3.896
 4084SOL    HW113151   5.800   1.653   3.926
 4084SOL    HW213152   5.697   1.609   3.807
 4085SOL     OW13153   3.776   5.460   0.971
 4085SOL    HW113154   3.804   5.556   0.970
 4085SOL    HW213155   3.831   5.408   0.905
 4086SOL     OW13156   2.508   6.050   1.179
 4086SOL    HW113157   2.488   6.123   1.113
 4086SOL    HW213158   2.446   6.058   1.257
 4087SOL     OW13159   2.530   2.420   3.340
 4087SOL    HW113160   2.543   2.514   3.310
 4087SOL    HW213161   2.477   2.370   3.272
 4088SOL     OW13162   0.015   1.412   0.964
 4088SOL    HW113163   6.992   1.377   1.044
 4088SOL    HW213164   0.075   1.340   0.927
 4089SOL     OW13165   6.581   6.171   3.454
 4089SOL    HW113166   6.623   6.262   3.455
 4089SOL    HW213167   6.512   6.166   3.527
 4090SOL     OW13168   2.768   3.915   5.875
 4090SOL    HW113169   2.786   3.872   5.787
 4090SOL    HW213170   2.686   3.971   5.869
 4091SOL     OW13171   6.546   6.753   0.576
 4091SOL    HW113172   6.514   6.795   0.491
 4091SOL    HW213173   6.605   6.817   0.624
 4092SOL     OW13174   6.600   2.901   5.427
 4092SOL    HW113175   6.594   2.987   5.376
 4092SOL    HW213176   6.656   2.916   5.509
 4093SOL     OW13177   4.534   0.755   3.604
 4093SOL    HW113178   4.578   0.736   3.692
 4093SOL    HW213179   4.549   0.850   3.578
 4094SOL     OW13180   2.286   5.415   4.782
 4094SOL    HW113181   2.351   5.340   4.772
 4094SOL    HW213182   2.219   5.393   4.852
 4095SOL     OW13183   1.235   3.963   6.713
 4095SOL    HW113184   1.316   3.970   6.772
 4095SOL    HW213185   1.240   3.880   6.659
 4096SOL     OW13186   4.138   5.387   0.978
 4096SOL    HW113187   4.101   5.433   0.897
 4096SOL    HW213188   4.127   5.446   1.058
 4097SOL     OW13189   4.060   3.884   6.141
 4097SOL    HW113190   4.015   3.923   6.061
 4097SOL    HW213191   3.994   3.835   6.197
 4098SOL     OW13192   0.289   3.103   2.203
 4098SOL    HW113193   0.319   3.138   2.292
 4098SOL    HW213194   0.367   3.061   2.156
 4099SOL     OW13195   2.812   4.508   1.273
 4099SOL    HW113196   2.761   4.568   1.211
 4099SOL    HW213197   2.799   4.413   1.245
 4100SOL     OW13198   6.174   6.019   5.065
 4100SOL    HW113199   6.158   5.927   5.029
 4100SOL    HW213200   6.273   6.037   5.069
 4101SOL     OW13201   5.592   0.985   0.294
 4101SOL    HW113202   5.559   0.912   0.235
 4101SOL    HW213203   5.516   1.022   0.347
 4102SOL     OW13204   0.017   0.529   1.787
 4102SOL    HW113205   0.038   0.447   1.734
 4102SOL    HW213206   0.009   0.608   1.726
 4103SOL     OW13207   0.354   0.572   1.796
 4103SOL    HW113208   0.417   0.635   1.842
 4103SOL    HW213209   0.341   0.490   1.851
 4104SOL     OW13210   1.289   4.467   2.569
 4104SOL    HW113211   1.362   4.421   2.621
 4104SOL    HW213212   1.330   4.526   2.500
 4105SOL     OW13213   3.998   5.344   1.335
 4105SOL    HW113214   4.068   5.397   1.286
 4105SOL    HW213215   3.927   5.315   1.271
 4106SOL     OW13216   0.195   2.350   5.357
 4106SOL    HW113217   0.267   2.405   5.315
 4106SOL    HW213218   0.232   2.262   5.386
 4107SOL     OW13219   1.063   5.710   0.599
 4107SOL    HW113220   1.053   5.802   0.561
 4107SOL    HW213221   0.977   5.682   0.643
 4108SOL     OW13222   0.234   4.940   6.036
 4108SOL    HW113223   0.176   4.873   6.082
 4108SOL    HW213224   0.198   5.032   6.052
 4109SOL     OW13225   4.724   6.402   5.297
 4109SOL    HW113226   4.731   6.344   5.378
 4109SOL    HW213227   4.677   6.352   5.224
 4110SOL     OW13228   4.663   3.332   6.541
 4110SOL    HW113229   4.705   3.410   6.496
 4110SOL    HW213230   4.589   3.296   6.484
 4111SOL     OW13231   3.818   3.115   6.476
 4111SOL    HW113232   3.873   3.185   6.430
 4111SOL    HW213233   3.839   3.025   6.438
 4112SOL     OW13234   4.972   1.295   5.717
 4112SOL    HW113235   4.918   1.222   5.674
 4112SOL    HW213236   4.968   1.377   5.660
 4113SOL     OW13237   4.635   6.122   4.876
 4113SOL    HW113238   4.555   6.105   4.819
 4113SOL    HW213239   4.709   6.060   4.849
 4114SOL     OW13240   3.765   2.093   3.359
 4114SOL    HW113241   3.830   2.143   3.301
 4114SOL    HW213242   3.794   2.099   3.454
 4115SOL     OW13243   4.464   6.071   2.239
 4115SOL    HW113244   4.533   5.999   2.229
 4115SOL    HW213245   4.372   6.031   2.237
 4116SOL     OW13246   4.471   2.315   1.603
 4116SOL    HW113247   4.423   2.308   1.690
 4116SOL    HW213248   4.532   2.236   1.591
 4117SOL     OW13249   0.396   4.810   1.731
 4117SOL    HW113250   0.387   4.792   1.829
 4117SOL    HW213251   0.305   4.828   1.692
 4118SOL     OW13252   1.893   5.858   0.411
 4118SOL    HW113253   1.872   5.797   0.488
 4118SOL    HW213254   1.812   5.912   0.389
 4119SOL     OW13255   4.233   1.398   3.167
 4119SOL    HW113256   4.269   1.415   3.258
 4119SOL    HW213257   4.308   1.379   3.104
 4120SOL     OW13258   4.319   0.590   0.727
 4120SOL    HW113259   4.228   0.584   0.767
 4120SOL    HW213260   4.377   0.649   0.783
 4121SOL     OW13261   6.361   0.890   4.713
 4121SOL    HW113262   6.368   0.985   4.742
 4121SOL    HW213263   6.289   0.844   4.766
 4122SOL     OW13264   0.782   6.722   5.476
 4122SOL    HW113265   0.841   6.669   5.416
 4122SOL    HW213266   0.756   6.807   5.432
 4123SOL     OW13267   4.973   5.094   5.517
 4123SOL    HW113268   4.900   5.091   5.585
 4123SOL    HW213269   5.061   5.096   5.563
 4124SOL     OW13270   5.938   5.310   6.008
 4124SOL    HW113271   6.014   5.296   5.944
 4124SOL    HW213272   5.921   5.408   6.018
 4125SOL     OW13273   4.480   1.137   2.052
 4125SOL    HW113274   4.532   1.222   2.045
 4125SOL    HW213275   4.385   1.155   2.027
 4126SOL     OW13276   1.339   4.606   4.121
 4126SOL    HW113277   1.250   4.560   4.113
 4126SOL    HW213278   1.412   4.539   4.107
 4127SOL     OW13279   4.896   4.365   4.565
 4127SOL    HW113280   4.846   4.393   4.483
 4127SOL    HW213281   4.836   4.310   4.624
 4128SOL     OW13282   1.787   3.661   2.270
 4128SOL    HW113283   1.789   3.708   2.358
 4128SOL    HW213284   1.875   3.616   2.254
 4129SOL     OW13285   5.623   1.254   6.398
 4129SOL    HW113286   5.593   1.168   6.439
 4129SOL    HW213287   5.650   1.238   6.303
 4130SOL     OW13288   0.032   3.673   5.765
 4130SOL    HW113289   6.977   3.614   5.757
 4130SOL    HW213290   0.015   3.741   5.837
 4131SOL     OW13291   0.973   5.880   3.637
 4131SOL    HW113292   0.999   5.976   3.649
 4131SOL    HW213293   1.024   5.824   3.701
 4132SOL     OW13294   5.216   4.463   3.729
 4132SOL    HW113295   5.126   4.496   3.757
 4132SOL    HW213296   5.258   4.528   3.667
 4133SOL     OW13297   2.868   6.913   1.405
 4133SOL    HW113298   2.827   6.954   1.486
 4133SOL    HW213299   2.896   6.819   1.425
 4134SOL     OW13300   1.834   2.419   0.525
 4134SOL    HW113301   1.775   2.403   0.445
 4134SOL    HW213302   1.787   2.480   0.589
 4135SOL     OW13303   2.120   0.647   2.887
 4135SOL    HW113304   2.213   0.616   2.908
 4135SOL    HW213305   2.115   0.679   2.793
 4136SOL     OW13306   0.966   2.003   3.036
 4136SOL    HW113307   0.962   1.907   3.009
 4136SOL    HW213308   0.874   2.036   3.057
 4137SOL     OW13309   2.197   3.547   1.120
 4137SOL    HW113310   2.216   3.617   1.188
 4137SOL    HW213311   2.193   3.457   1.165
 4138SOL     OW13312   3.836   5.586   3.529
 4138SOL    HW113313   3.816   5.598   3.626
 4138SOL    HW213314   3.770   5.523   3.489
 4139SOL     OW13315   2.269   2.140   5.616
 4139SOL    HW113316   2.216   2.123   5.699
 4139SOL    HW213317   2.310   2.054   5.585
 4140SOL     OW13318   2.893   0.298   5.234
 4140SOL    HW113319   2.856   0.205   5.232
 4140SOL    HW213320   2.850   0.352   5.161
 4141SOL     OW13321   5.129   5.817   1.323
 4141SOL    HW113322   5.063   5.874   1.274
 4141SOL    HW213323   5.098   5.804   1.417
 4142SOL     OW13324   6.808   5.810   0.567
 4142SOL    HW113325   6.897   5.836   0.604
 4142SOL    HW213326   6.817   5.725   0.515
 4143SOL     OW13327   6.797   3.250   0.051
 4143SOL    HW113328   6.736   3.218   7.002
 4143SOL    HW213329   6.844   3.333   0.021
 4144SOL     OW13330   6.042   2.767   0.394
 4144SOL    HW113331   6.044   2.787   0.492
 4144SOL    HW213332   6.019   2.671   0.381
 4145SOL     OW13333   0.119   5.671   1.774
 4145SOL    HW113334   0.115   5.771   1.773
 4145SOL    HW213335   0.047   5.634   1.716
 4146SOL     OW13336   6.255   0.393   5.127
 4146SOL    HW113337   6.297   0.409   5.038
 4146SOL    HW213338   6.327   0.382   5.196
 4147SOL     OW13339   3.907   1.754   5.496
 4147SOL    HW113340   3.906   1.728   5.592
 4147SOL    HW213341   3.814   1.776   5.466
 4148SOL     OW13342   0.569   0.178   3.737
 4148SOL    HW113343   0.469   0.179   3.725
 4148SOL    HW213344   0.598   0.264   3.779
 4149SOL     OW13345   0.759   3.173   0.154
 4149SOL    HW113346   0.815   3.218   0.224
 4149SOL    HW213347   0.663   3.174   0.183
 4150SOL     OW13348   6.211   0.628   6.078
 4150SOL    HW113349   6.291   0.599   6.024
 4150SOL    HW213350   6.243   0.678   6.159
 4151SOL     OW13351   4.804   6.269   6.867
 4151SOL    HW113352   4.847   6.351   6.905
 4151SOL    HW213353   4.706   6.272   6.886
 4152SOL     OW13354   2.901   5.422   1.345
 4152SOL    HW113355   2.862   5.512   1.323
 4152SOL    HW213356   2.949   5.386   1.264
 4153SOL     OW13357   4.970   5.429   6.172
 4153SOL    HW113358   5.049   5.386   6.215
 4153SOL    HW213359   4.960   5.395   6.078
 4154SOL     OW13360   6.935   4.021   5.517
 4154SOL    HW113361   6.876   4.063   5.587
 4154SOL    HW213362   0.006   4.040   5.540
 4155SOL     OW13363   6.062   2.831   3.364
 4155SOL    HW113364   6.091   2.736   3.376
 4155SOL    HW213365   6.048   2.873   3.453
 4156SOL     OW13366   5.297   0.046   5.492
 4156SOL    HW113367   5.254   0.086   5.411
 4156SOL    HW213368   5.396   0.041   5.479
 4157SOL     OW13369   4.023   6.923   3.698
 4157SOL    HW113370   3.952   6.987   3.728
 4157SOL    HW213371   4.107   6.940   3.750
 4158SOL     OW13372   1.586   5.303   4.211
 4158SOL    HW113373   1.489   5.299   4.189
 4158SOL    HW213374   1.629   5.375   4.157
 4159SOL     OW13375   1.798   3.449   4.116
 4159SOL    HW113376   1.792   3.517   4.189
 4159SOL    HW213377   1.839   3.492   4.035
 4160SOL     OW13378   6.547   0.505   0.966
 4160SOL    HW113379   6.562   0.418   0.919
 4160SOL    HW213380   6.536   0.578   0.899
 4161SOL     OW13381   2.314   6.457   6.062
 4161SOL    HW113382   2.325   6.386   6.132
 4161SOL    HW213383   2.360   6.428   5.978
 4162SOL     OW13384   6.529   0.231   4.806
 4162SOL    HW113385   6.584   0.225   4.722
 4162SOL    HW213386   6.574   0.294   4.869
 4163SOL     OW13387   6.014   1.490   3.271
 4163SOL    HW113388   5.950   1.413   3.262
 4163SOL    HW213389   5.992   1.560   3.203
 4164SOL     OW13390   1.451   6.891   6.090
 4164SOL    HW113391   1.500   6.978   6.090
 4164SOL    HW213392   1.394   6.885   6.172
 4165SOL     OW13393   4.868   0.323   0.585
 4165SOL    HW113394   4.786   0.280   0.548
 4165SOL    HW213395   4.843   0.407   0.633
 4166SOL     OW13396   5.632   2.617   0.919
 4166SOL    HW113397   5.725   2.589   0.893
 4166SOL    HW213398   5.565   2.569   0.862
 4167SOL     OW13399   2.451   3.612   0.400
 4167SOL    HW113400   2.402   3.526   0.385
 4167SOL    HW213401   2.550   3.595   0.399
 4168SOL     OW13402   0.605   4.710   1.063
 4168SOL    HW113403   0.514   4.678   1.037
 4168SOL    HW213404   0.643   4.766   0.990
 4169SOL     OW13405   5.649   3.859   4.354
 4169SOL    HW113406   5.727   3.823   4.303
 4169SOL    HW213407   5.579   3.788   4.364
 4170SOL     OW13408   3.594   3.086   5.088
 4170SOL    HW113409   3.661   3.160   5.096
 4170SOL    HW213410   3.559   3.083   4.995
 4171SOL     OW13411   5.435   4.684   0.870
 4171SOL    HW113412   5.353   4.739   0.882
 4171SOL    HW213413   5.414   4.605   0.812
 4172SOL     OW13414   6.984   2.364   6.315
 4172SOL    HW113415   6.938   2.318   6.391
 4172SOL    HW213416   6.968   2.314   6.230
 4173SOL     OW13417   6.043   3.237   4.818
 4173SOL    HW113418   6.116   3.194   4.872
 4173SOL    HW213419   6.082   3.279   4.736
 4174SOL     OW13420   5.725   0.778   3.762
 4174SOL    HW113421   5.789   0.778   3.685
 4174SOL    HW213422   5.728   0.868   3.807
 4175SOL     OW13423   2.681   6.504   4.796
 4175SOL    HW113424   2.671   6.488   4.698
 4175SOL    HW213425   2.639   6.428   4.846
 4176SOL     OW13426   3.388   0.016   2.255
 4176SOL    HW113427   3.446   6.960   2.255
 4176SOL    HW213428   3.410   0.074   2.333
 4177SOL     OW13429   0.449   5.383   5.477
 4177SOL    HW113430   0.466   5.377   5.575
 4177SOL    HW213431   0.412   5.474   5.456
 4178SOL     OW13432   3.390   0.838   4.554
 4178SOL    HW113433   3.401   0.794   4.465
 4178SOL    HW213434   3.474   0.887   4.578
 4179SOL     OW13435   4.970   3.373   4.167
 4179SOL    HW113436   5.036   3.352   4.096
 4179SOL    HW213437   4.909   3.295   4.180
 4180SOL     OW13438   5.357   4.080   2.542
 4180SOL    HW113439   5.259   4.094   2.528
 4180SOL    HW213440   5.372   4.034   2.630
 4181SOL     OW13441   2.092   1.421   5.837
 4181SOL    HW113442   2.110   1.424   5.935
 4181SOL    HW213443   2.163   1.472   5.788
 4182SOL     OW13444   0.243   0.128   3.160
 4182SOL    HW113445   0.223   0.031   3.174
 4182SOL    HW213446   0.341   0.144   3.175
 4183SOL     OW13447   3.102   1.545   1.608
 4183SOL    HW113448   3.145   1.553   1.698
 4183SOL    HW213449   3.172   1.525   1.539
 4184SOL     OW13450   3.962   4.441   1.405
 4184SOL    HW113451   4.044   4.403   1.448
 4184SOL    HW213452   3.890   4.372   1.404
 4185SOL     OW13453   0.743   5.216   3.368
 4185SOL    HW113454   0.768   5.240   3.274
 4185SOL    HW213455   0.758   5.295   3.427
 4186SOL     OW13456   2.249   4.287   0.222
 4186SOL    HW113457   2.282   4.375   0.257
 4186SOL    HW213458   2.217   4.298   0.128
 4187SOL     OW13459   3.593   3.139   5.948
 4187SOL    HW113460   3.610   3.144   6.047
 4187SOL    HW213461   3.656   3.073   5.907
 4188SOL     OW13462   4.962   0.281   4.509
 4188SOL    HW113463   4.940   0.352   4.443
 4188SOL    HW213464   5.060   0.262   4.507
 4189SOL     OW13465   3.241   1.801   4.528
 4189SOL    HW113466   3.324   1.839   4.488
 4189SOL    HW213467   3.162   1.855   4.500
 4190SOL     OW13468   2.500   6.948   6.464
 4190SOL    HW113469   2.529   6.853   6.470
 4190SOL    HW213470   2.541   6.991   6.384
 4191SOL     OW13471   5.823   3.600   2.979
 4191SOL    HW113472   5.792   3.695   2.976
 4191SOL    HW213473   5.866   3.576   2.892
 4192SOL     OW13474   6.796   1.676   3.469
 4192SOL    HW113475   6.895   1.678   3.480
 4192SOL    HW213476   6.773   1.685   3.372
 4193SOL     OW13477   2.402   6.281   1.043
 4193SOL    HW113478   2.393   6.337   1.126
 4193SOL    HW213479   2.486   6.306   0.995
 4194SOL     OW13480   6.423   1.872   4.768
 4194SOL    HW113481   6.522   1.857   4.765
 4194SOL    HW213482   6.402   1.962   4.730
 4195SOL     OW13483   3.847   0.770   1.843
 4195SOL    HW113484   3.848   0.843   1.911
 4195SOL    HW213485   3.847   0.682   1.889
 4196SOL     OW13486   6.040   2.552   4.477
 4196SOL    HW113487   6.007   2.580   4.387
 4196SOL    HW213488   5.964   2.515   4.531
 4197SOL     OW13489   5.040   4.625   4.067
 4197SOL    HW113490   5.036   4.678   3.982
 4197SOL    HW213491   5.131   4.584   4.076
 4198SOL     OW13492   6.243   3.761   0.260
 4198SOL    HW113493   6.289   3.711   0.186
 4198SOL    HW213494   6.263   3.859   0.251
 4199SOL     OW13495   2.564   3.370   5.944
 4199SOL    HW113496   2.545   3.469   5.943
 4199SOL    HW213497   2.596   3.343   6.035
 4200SOL     OW13498   2.908   6.358   5.591
 4200SOL    HW113499   2.845   6.424   5.549
 4200SOL    HW213500   2.998   6.400   5.599
 4201SOL     OW13501   6.072   6.575   3.818
 4201SOL    HW113502   6.071   6.524   3.732
 4201SOL    HW213503   6.001   6.539   3.879
 4202SOL     OW13504   4.529   4.793   5.657
 4202SOL    HW113505   4.504   4.721   5.593
 4202SOL    HW213506   4.489   4.774   5.747
 4203SOL     OW13507   4.479   5.802   2.940
 4203SOL    HW113508   4.469   5.759   3.030
 4203SOL    HW213509   4.463   5.900   2.949
 4204SOL     OW13510   3.230   3.041   2.041
 4204SOL    HW113511   3.165   3.116   2.030
 4204SOL    HW213512   3.224   3.005   2.134
 4205SOL     OW13513   3.699   4.967   4.140
 4205SOL    HW113514   3.664   4.986   4.048
 4205SOL    HW213515   3.622   4.953   4.202
 4206SOL     OW13516   4.797   0.952   6.554
 4206SOL    HW113517   4.710   0.912   6.579
 4206SOL    HW213518   4.789   1.052   6.553
 4207SOL     OW13519   2.049   1.409   1.784
 4207SOL    HW113520   2.034   1.312   1.768
 4207SOL    HW213521   2.005   1.462   1.712
 4208SOL     OW13522   1.390   2.163   1.118
 4208SOL    HW113523   1.326   2.163   1.041
 4208SOL    HW213524   1.479   2.196   1.087
 4209SOL     OW13525   1.474   1.093   4.952
 4209SOL    HW113526   1.408   1.042   4.897
 4209SOL    HW213527   1.565   1.083   4.914
 4210SOL     OW13528   3.216   3.563   1.898
 4210SOL    HW113529   3.193   3.616   1.817
 4210SOL    HW213530   3.312   3.579   1.923
 4211SOL     OW13531   5.209   5.540   5.611
 4211SOL    HW113532   5.175   5.528   5.518
 4211SOL    HW213533   5.294   5.592   5.609
 4212SOL     OW13534   6.947   2.022   2.149
 4212SOL    HW113535   6.957   2.113   2.188
 4212SOL    HW213536   7.020   2.005   2.083
 4213SOL     OW13537   2.350   0.624   2.623
 4213SOL    HW113538   2.314   0.536   2.655
 4213SOL    HW213539   2.447   0.631   2.646
 4214SOL     OW13540   1.117   3.905   6.354
 4214SOL    HW113541   1.050   3.977   6.367
 4214SOL    HW213542   1.139   3.895   6.257
 4215SOL     OW13543   0.236   5.750   4.449
 4215SOL    HW113544   0.292   5.812   4.393
 4215SOL    HW213545   0.174   5.804   4.506
 4216SOL     OW13546   1.393   2.041   4.130
 4216SOL    HW113547   1.437   2.127   4.103
 4216SOL    HW213548   1.391   2.035   4.230
 4217SOL     OW13549   6.708   6.734   2.956
 4217SOL    HW113550   6.650   6.677   3.015
 4217SOL    HW213551   6.798   6.692   2.946
 4218SOL     OW13552   5.073   0.067   1.781
 4218SOL    HW113553   5.158   0.108   1.748
 4218SOL    HW213554   5.093   7.018   1.845
 4219SOL     OW13555   3.036   4.759   5.265
 4219SOL    HW113556   2.955   4.816   5.253
 4219SOL    HW213557   3.016   4.666   5.234
 4220SOL     OW13558   6.467   3.577   2.817
 4220SOL    HW113559   6.536   3.643   2.788
 4220SOL    HW213560   6.511   3.491   2.842
 4221SOL     OW13561   5.949   6.193   6.675
 4221SOL    HW113562   5.960   6.161   6.769
 4221SOL    HW213563   5.856   6.173   6.644
 4222SOL     OW13564   6.422   1.828   2.504
 4222SOL    HW113565   6.323   1.835   2.520
 4222SOL    HW213566   6.456   1.914   2.466
 4223SOL     OW13567   3.871   3.107   3.024
 4223SOL    HW113568   3.966   3.130   3.003
 4223SOL    HW213569   3.834   3.050   2.950
 4224SOL     OW13570   4.860   3.146   4.227
 4224SOL    HW113571   4.910   3.059   4.224
 4224SOL    HW213572   4.764   3.128   4.244
 4225SOL     OW13573   5.592   0.599   5.352
 4225SOL    HW113574   5.557   0.515   5.310
 4225SOL    HW213575   5.690   0.608   5.334
 4226SOL     OW13576   2.004   1.679   3.833
 4226SOL    HW113577   2.099   1.709   3.840
 4226SOL    HW213578   1.991   1.634   3.745
 4227SOL     OW13579   3.736   4.505   6.530
 4227SOL    HW113580   3.718   4.452   6.447
 4227SOL    HW213581   3.827   4.547   6.524
 4228SOL     OW13582   5.738   6.561   4.445
 4228SOL    HW113583   5.793   6.496   4.392
 4228SOL    HW213584   5.787   6.648   4.451
 4229SOL     OW13585   3.917   4.970   6.019
 4229SOL    HW113586   3.838   4.982   5.959
 4229SOL    HW213587   3.965   5.058   6.029
 4230SOL     OW13588   2.347   0.005   4.672
 4230SOL    HW113589   2.262   6.996   4.713
 4230SOL    HW213590   2.341   0.105   4.662
 4231SOL     OW13591   5.223   6.578   5.643
 4231SOL    HW113592   5.216   6.655   5.579
 4231SOL    HW213593   5.161   6.593   5.720
 4232SOL     OW13594   1.149   5.464   2.163
 4232SOL    HW113595   1.190   5.453   2.073
 4232SOL    HW213596   1.057   5.425   2.162
 4233SOL     OW13597   6.126   0.804   0.059
 4233SOL    HW113598   6.048   0.831   0.002
 4233SOL    HW213599   6.199   0.768   0.000
 4234SOL     OW13600   2.151   5.385   5.797
 4234SOL    HW113601   2.166   5.289   5.775
 4234SOL    HW213602   2.235   5.424   5.835
 4235SOL     OW13603   6.126   4.232   5.815
 4235SOL    HW113604   6.049   4.251   5.754
 4235SOL    HW213605   6.152   4.136   5.806
 4236SOL     OW13606   6.903   3.114   4.091
 4236SOL    HW113607   6.837   3.055   4.046
 4236SOL    HW213608   6.944   3.066   4.168
 4237SOL     OW13609   6.125   4.010   4.376
 4237SOL    HW113610   6.033   4.043   4.396
 4237SOL    HW213611   6.181   4.085   4.340
 4238SOL     OW13612   4.168   4.758   3.601
 4238SOL    HW113613   4.092   4.737   3.541
 4238SOL    HW213614   4.138   4.750   3.697
 4239SOL     OW13615   4.613   6.974   4.530
 4239SOL    HW113616   4.667   6.936   4.455
 4239SOL    HW213617   4.636   0.047   4.541
 4240SOL     OW13618   2.806   5.961   6.330
 4240SOL    HW113619   2.880   6.027   6.324
 4240SOL    HW213620   2.725   6.004   6.371
 4241SOL     OW13621   5.206   0.456   0.985
 4241SOL    HW113622   5.137   0.451   1.058
 4241SOL    HW213623   5.290   0.496   1.022
 4242SOL     OW13624   2.594   6.633   2.728
 4242SOL    HW113625   2.628   6.614   2.819
 4242SOL    HW213626   2.539   6.556   2.696
 4243SOL     OW13627   0.294   4.070   2.400
 4243SOL    HW113628   0.331   4.162   2.410
 4243SOL    HW213629   0.337   4.025   2.321
 4244SOL     OW13630   4.885   6.152   0.766
 4244SOL    HW113631   4.800   6.128   0.718
 4244SOL    HW213632   4.960   6.157   0.701
 4245SOL     OW13633   6.460   3.064   0.545
 4245SOL    HW113634   6.509   3.145   0.576
 4245SOL    HW213635   6.496   3.036   0.456
 4246SOL     OW13636   5.586   2.544   3.101
 4246SOL    HW113637   5.681   2.571   3.085
 4246SOL    HW213638   5.536   2.544   3.015
 4247SOL     OW13639   2.709   5.466   4.332
 4247SOL    HW113640   2.620   5.433   4.363
 4247SOL    HW213641   2.779   5.397   4.352
 4248SOL     OW13642   1.844   0.584   2.960
 4248SOL    HW113643   1.824   0.637   3.042
 4248SOL    HW213644   1.932   0.612   2.922
 4249SOL     OW13645   0.223   1.788   4.085
 4249SOL    HW113646   0.216   1.690   4.064
 4249SOL    HW213647   0.138   1.833   4.057
 4250SOL     OW13648   0.364   5.652   3.926
 4250SOL    HW113649   0.275   5.696   3.911
 4250SOL    HW213650   0.351   5.567   3.977
 4251SOL     OW13651   5.369   2.829   6.813
 4251SOL    HW113652   5.270   2.826   6.819
 4251SOL    HW213653   5.409   2.816   6.904
 4252SOL     OW13654   5.973   5.763   5.451
 4252SOL    HW113655   5.924   5.789   5.534
 4252SOL    HW213656   5.993   5.845   5.397
 4253SOL     OW13657   3.899   6.447   2.032
 4253SOL    HW113658   3.859   6.372   2.083
 4253SOL    HW213659   3.999   6.444   2.039
 4254SOL     OW13660   2.169   3.709   0.562
 4254SOL    HW113661   2.143   3.612   0.568
 4254SOL    HW213662   2.093   3.762   0.527
 4255SOL     OW13663   0.583   4.531   3.734
 4255SOL    HW113664   0.622   4.557   3.823
 4255SOL    HW213665   0.608   4.600   3.666
 4256SOL     OW13666   0.579   5.163   1.287
 4256SOL    HW113667   0.486   5.180   1.319
 4256SOL    HW213668   0.583   5.175   1.188
 4257SOL     OW13669   6.037   1.401   4.983
 4257SOL    HW113670   5.963   1.465   5.002
 4257SOL    HW213671   6.004   1.326   4.926
 4258SOL     OW13672   3.252   5.308   1.173
 4258SOL    HW113673   3.245   5.341   1.268
 4258SOL    HW213674   3.323   5.361   1.126
 4259SOL     OW13675   1.762   0.242   1.480
 4259SOL    HW113676   1.812   0.160   1.452
 4259SOL    HW213677   1.690   0.262   1.414
 4260SOL     OW13678   4.776   0.206   4.214
 4260SOL    HW113679   4.759   0.235   4.308
 4260SOL    HW213680   4.869   0.170   4.207
 4261SOL     OW13681   1.966   0.581   4.772
 4261SOL    HW113682   2.050   0.584   4.718
 4261SOL    HW213683   1.888   0.572   4.711
 4262SOL     OW13684   1.313   4.917   6.052
 4262SOL    HW113685   1.346   4.829   6.086
 4262SOL    HW213686   1.213   4.918   6.053
 4263SOL     OW13687   2.818   2.294   3.319
 4263SOL    HW113688   2.839   2.242   3.402
 4263SOL    HW213689   2.747   2.362   3.339
 4264SOL     OW13690   5.925   0.997   4.454
 4264SOL    HW113691   5.852   0.963   4.395
 4264SOL    HW213692   5.972   1.073   4.409
 4265SOL     OW13693   3.269   0.237   1.162
 4265SOL    HW113694   3.273   0.306   1.090
 4265SOL    HW213695   3.306   0.151   1.128
 4266SOL     OW13696   1.168   6.969   0.488
 4266SOL    HW113697   1.098   0.014   0.474
 4266SOL    HW213698   1.218   6.955   0.402
 4267SOL     OW13699   2.284   4.150   3.879
 4267SOL    HW113700   2.300   4.249   3.879
 4267SOL    HW213701   2.275   4.118   3.973
 4268SOL     OW13702   1.401   4.876   6.888
 4268SOL    HW113703   1.435   4.968   6.902
 4268SOL    HW213704   1.457   4.830   6.819
 4269SOL     OW13705   3.534   1.583   3.816
 4269SOL    HW113706   3.583   1.601   3.731
 4269SOL    HW213707   3.522   1.669   3.866
 4270SOL     OW13708   3.738   2.829   1.259
 4270SOL    HW113709   3.752   2.771   1.179
 4270SOL    HW213710   3.813   2.815   1.324
 4271SOL     OW13711   6.189   0.411   1.450
 4271SOL    HW113712   6.123   0.459   1.507
 4271SOL    HW213713   6.151   0.322   1.423
 4272SOL     OW13714   0.093   3.355   5.849
 4272SOL    HW113715   0.064   3.308   5.932
 4272SOL    HW213716   0.022   3.421   5.822
 4273SOL     OW13717   4.509   6.593   5.072
 4273SOL    HW113718   4.579   6.523   5.059
 4273SOL    HW213719   4.460   6.576   5.157
 4274SOL     OW13720   0.101   6.641   1.841
 4274SOL    HW113721   0.096   6.601   1.932
 4274SOL    HW213722   0.009   6.652   1.804
 4275SOL     OW13723   0.470   2.464   3.914
 4275SOL    HW113724   0.496   2.383   3.860
 4275SOL    HW213725   0.498   2.452   4.009
 4276SOL     OW13726   2.879   5.081   3.876
 4276SOL    HW113727   2.937   5.119   3.803
 4276SOL    HW213728   2.783   5.086   3.848
 4277SOL     OW13729   6.535   4.982   3.929
 4277SOL    HW113730   6.631   5.007   3.914
 4277SOL    HW213731   6.508   4.913   3.862
 4278SOL     OW13732   6.408   6.317   3.216
 4278SOL    HW113733   6.320   6.350   3.181
 4278SOL    HW213734   6.393   6.247   3.285
 4279SOL     OW13735   1.235   1.496   2.674
 4279SOL    HW113736   1.163   1.547   2.721
 4279SOL    HW213737   1.324   1.522   2.712
 4280SOL     OW13738   6.383   6.603   6.604
 4280SOL    HW113739   6.331   6.639   6.681
 4280SOL    HW213740   6.384   6.670   6.530
 4281SOL     OW13741   4.346   5.567   3.956
 4281SOL    HW113742   4.375   5.483   3.911
 4281SOL    HW213743   4.411   5.589   4.029
 4282SOL     OW13744   2.981   3.874   0.817
 4282SOL    HW113745   2.992   3.916   0.727
 4282SOL    HW213746   3.012   3.937   0.887
 4283SOL     OW13747   5.286   0.563   2.820
 4283SOL    HW113748   5.299   0.497   2.894
 4283SOL    HW213749   5.344   0.643   2.835
 4284SOL     OW13750   4.324   5.349   0.484
 4284SOL    HW113751   4.363   5.265   0.520
 4284SOL    HW213752   4.359   5.366   0.392
 4285SOL     OW13753   3.318   0.504   6.199
 4285SOL    HW113754   3.414   0.524   6.180
 4285SOL    HW213755   3.311   0.449   6.282
 4286SOL     OW13756   6.479   1.351   0.178
 4286SOL    HW113757   6.545   1.342   0.253
 4286SOL    HW213758   6.412   1.278   0.184
 4287SOL     OW13759   4.501   0.648   0.048
 4287SOL    HW113760   4.417   0.600   0.022
 4287SOL    HW213761   4.557   0.588   0.106
 4288SOL     OW13762   6.453   6.075   1.714
 4288SOL    HW113763   6.377   6.075   1.649
 4288SOL    HW213764   6.531   6.027   1.674
 4289SOL     OW13765   0.419   2.558   5.472
 4289SOL    HW113766   0.390   2.625   5.404
 4289SOL    HW213767   0.515   2.533   5.455
 4290SOL     OW13768   0.146   0.329   3.353
 4290SOL    HW113769   0.060   0.368   3.320
 4290SOL    HW213770   0.187   0.273   3.281
 4291SOL     OW13771   4.567   3.054   5.900
 4291SOL    HW113772   4.497   3.114   5.861
 4291SOL    HW213773   4.567   2.967   5.850
 4292SOL     OW13774   4.846   2.189   6.867
 4292SOL    HW113775   4.863   2.148   6.777
 4292SOL    HW213776   4.875   2.126   6.939
 4293SOL     OW13777   5.343   3.934   6.800
 4293SOL    HW113778   5.275   3.910   6.730
 4293SOL    HW213779   5.312   3.903   6.889
 4294SOL     OW13780   3.037   2.093   6.278
 4294SOL    HW113781   3.092   2.122   6.356
 4294SOL    HW213782   3.005   1.999   6.294
 4295SOL     OW13783   4.125   6.700   2.261
 4295SOL    HW113784   4.221   6.720   2.278
 4295SOL    HW213785   4.079   6.678   2.347
 4296SOL     OW13786   3.097   6.350   1.111
 4296SOL    HW113787   3.065   6.441   1.084
 4296SOL    HW213788   3.046   6.319   1.191
 4297SOL     OW13789   6.655   5.208   1.059
 4297SOL    HW113790   6.668   5.248   0.969
 4297SOL    HW213791   6.675   5.110   1.055
 4298SOL     OW13792   3.346   6.184   1.267
 4298SOL    HW113793   3.350   6.120   1.190
 4298SOL    HW213794   3.393   6.145   1.345
 4299SOL     OW13795   0.359   2.242   6.781
 4299SOL    HW113796   0.275   2.205   6.821
 4299SOL    HW213797   0.341   2.333   6.745
 4300SOL     OW13798   3.505   0.635   1.066
 4300SOL    HW113799   3.494   0.677   0.975
 4300SOL    HW213800   3.561   0.695   1.123
 4301SOL     OW13801   3.072   5.904   1.546
 4301SOL    HW113802   2.973   5.896   1.537
 4301SOL    HW213803   3.096   5.913   1.643
 4302SOL     OW13804   0.240   6.678   6.901
 4302SOL    HW113805   0.266   6.582   6.912
 4302SOL    HW213806   0.157   6.684   6.845
 4303SOL     OW13807   6.810   4.983   3.909
 4303SOL    HW113808   6.837   5.079   3.924
 4303SOL    HW213809   6.876   4.923   3.954
 4304SOL     OW13810   3.195   3.838   1.648
 4304SOL    HW113811   3.105   3.798   1.669
 4304SOL    HW213812   3.216   3.824   1.551
 4305SOL     OW13813   0.594   6.868   5.766
 4305SOL    HW113814   0.553   6.868   5.857
 4305SOL    HW213815   0.567   6.785   5.717
 4306SOL     OW13816   4.861   3.909   4.505
 4306SOL    HW113817   4.862   3.850   4.586
 4306SOL    HW213818   4.866   3.853   4.422
 4307SOL     OW13819   6.290   2.952   5.636
 4307SOL    HW113820   6.261   2.883   5.570
 4307SOL    HW213821   6.216   3.019   5.647
 4308SOL     OW13822   4.910   5.423   1.803
 4308SOL    HW113823   4.830   5.470   1.839
 4308SOL    HW213824   4.952   5.367   1.876
 4309SOL     OW13825   0.950   3.280   6.981
 4309SOL    HW113826   0.883   3.230   0.011
 4309SOL    HW213827   0.905   3.316   6.898
 4310SOL     OW13828   1.368   2.050   2.690
 4310SOL    HW113829   1.275   2.085   2.681
 4310SOL    HW213830   1.381   1.973   2.626
 4311SOL     OW13831   0.949   6.130   1.987
 4311SOL    HW113832   0.910   6.210   1.940
 4311SOL    HW213833   1.003   6.077   1.922
 4312SOL     OW13834   0.943   4.615   2.133
 4312SOL    HW113835   0.942   4.550   2.209
 4312SOL    HW213836   0.998   4.695   2.157
 4313SOL     OW13837   5.042   1.799   0.484
 4313SOL    HW113838   4.958   1.757   0.519
 4313SOL    HW213839   5.103   1.728   0.448
 4314SOL     OW13840   6.551   2.758   6.041
 4314SOL    HW113841   6.573   2.669   6.080
 4314SOL    HW213842   6.561   2.829   6.111
 4315SOL     OW13843   1.990   1.721   2.854
 4315SOL    HW113844   1.985   1.653   2.927
 4315SOL    HW213845   1.958   1.809   2.887
 4316SOL     OW13846   5.340   0.699   2.324
 4316SOL    HW113847   5.390   0.785   2.316
 4316SOL    HW213848   5.256   0.714   2.376
 4317SOL     OW13849   4.616   0.930   5.652
 4317SOL    HW113850   4.566   0.927   5.565
 4317SOL    HW213851   4.575   0.867   5.717
 4318SOL     OW13852   0.620   1.037   4.297
 4318SOL    HW113853   0.658   1.108   4.238
 4318SOL    HW213854   0.625   1.066   4.393
 4319SOL     OW13855   1.584   2.579   1.716
 4319SOL    HW113856   1.493   2.610   1.690
 4319SOL    HW213857   1.577   2.512   1.790
 4320SOL     OW13858   3.719   6.037   0.455
 4320SOL    HW113859   3.722   6.136   0.467
 4320SOL    HW213860   3.702   5.993   0.544
 4321SOL     OW13861   7.016   5.990   2.815
 4321SOL    HW113862   6.920   6.015   2.801
 4321SOL    HW213863   7.021   5.897   2.852
 4322SOL     OW13864   0.680   2.478   5.475
 4322SOL    HW113865   0.701   2.444   5.567
 4322SOL    HW213866   0.764   2.483   5.422
 4323SOL     OW13867   3.842   5.705   0.152
 4323SOL    HW113868   3.924   5.706   0.209
 4323SOL    HW213869   3.868   5.695   0.056
 4324SOL     OW13870   0.520   3.802   5.811
 4324SOL    HW113871   0.581   3.879   5.793
 4324SOL    HW213872   0.534   3.732   5.742
 4325SOL     OW13873   3.199   0.848   3.325
 4325SOL    HW113874   3.249   0.781   3.269
 4325SOL    HW213875   3.116   0.875   3.276
 4326SOL     OW13876   5.152   2.866   2.602
 4326SOL    HW113877   5.089   2.934   2.566
 4326SOL    HW213878   5.244   2.885   2.569
 4327SOL     OW13879   3.376   5.371   3.443
 4327SOL    HW113880   3.382   5.312   3.523
 4327SOL    HW213881   3.298   5.433   3.453
 4328SOL     OW13882   6.421   5.152   5.016
 4328SOL    HW113883   6.330   5.189   5.034
 4328SOL    HW213884   6.487   5.198   5.075
 4329SOL     OW13885   5.590   3.162   5.149
 4329SOL    HW113886   5.530   3.239   5.127
 4329SOL    HW213887   5.567   3.084   5.090
 4330SOL     OW13888   2.388   6.135   5.063
 4330SOL    HW113889   2.308   6.182   5.100
 4330SOL    HW213890   2.455   6.121   5.136
 4331SOL     OW13891   6.720   0.346   1.701
 4331SOL    HW113892   6.620   0.338   1.711
 4331SOL    HW213893   6.741   0.421   1.638
 4332SOL     OW13894   6.127   3.676   2.925
 4332SOL    HW113895   6.200   3.681   2.993
 4332SOL    HW213896   6.165   3.645   2.837
 4333SOL     OW13897   4.816   2.247   5.136
 4333SOL    HW113898   4.859   2.191   5.065
 4333SOL    HW213899   4.856   2.225   5.225
 4334SOL     OW13900   1.117   2.880   2.917
 4334SOL    HW113901   1.092   2.792   2.878
 4334SOL    HW213902   1.036   2.924   2.955
 4335SOL     OW13903   3.218   2.903   0.407
 4335SOL    HW113904   3.202   2.958   0.325
 4335SOL    HW213905   3.134   2.855   0.431
 4336SOL     OW13906   1.933   5.254   5.935
 4336SOL    HW113907   1.978   5.306   5.863
 4336SOL    HW213908   1.970   5.282   6.024
 4337SOL     OW13909   1.423   5.962   2.255
 4337SOL    HW113910   1.343   5.942   2.198
 4337SOL    HW213911   1.410   6.051   2.300
 4338SOL     OW13912   6.271   7.006   5.840
 4338SOL    HW113913   6.178   6.997   5.805
 4338SOL    HW213914   6.334   7.021   5.763
 4339SOL     OW13915   3.834   2.260   6.886
 4339SOL    HW113916   3.924   2.231   6.918
 4339SOL    HW213917   3.829   2.251   6.786
 4340SOL     OW13918   6.246   3.531   0.828
 4340SOL    HW113919   6.180   3.605   0.822
 4340SOL    HW213920   6.335   3.564   0.797
 4341SOL     OW13921   0.701   5.733   1.493
 4341SOL    HW113922   0.694   5.634   1.507
 4341SOL    HW213923   0.644   5.780   1.560
 4342SOL     OW13924   5.160   3.559   2.684
 4342SOL    HW113925   5.226   3.516   2.622
 4342SOL    HW213926   5.071   3.516   2.673
 4343SOL     OW13927   3.937   0.484   5.586
 4343SOL    HW113928   3.954   0.454   5.492
 4343SOL    HW213929   3.997   0.434   5.649
 4344SOL     OW13930   0.687   3.057   3.880
 4344SOL    HW113931   0.674   3.091   3.787
 4344SOL    HW213932   0.602   3.015   3.913
 4345SOL     OW13933   3.025   3.442   2.684
 4345SOL    HW113934   2.938   3.489   2.671
 4345SOL    HW213935   3.099   3.509   2.693
 4346SOL     OW13936   2.294   2.855   2.933
 4346SOL    HW113937   2.198   2.841   2.960
 4346SOL    HW213938   2.316   2.793   2.858
 4347SOL     OW13939   6.186   5.288   1.253
 4347SOL    HW113940   6.228   5.249   1.171
 4347SOL    HW213941   6.175   5.216   1.322
 4348SOL     OW13942   6.770   6.018   3.604
 4348SOL    HW113943   6.773   6.031   3.704
 4348SOL    HW213944   6.697   6.074   3.566
 4349SOL     OW13945   0.074   4.081   3.606
 4349SOL    HW113946   0.113   4.088   3.698
 4349SOL    HW213947   0.114   4.151   3.548
 4350SOL     OW13948   6.073   1.500   4.554
 4350SOL    HW113949   6.097   1.527   4.648
 4350SOL    HW213950   5.981   1.462   4.553
 4351SOL     OW13951   1.130   6.345   1.324
 4351SOL    HW113952   1.040   6.306   1.305
 4351SOL    HW213953   1.151   6.414   1.255
 4352SOL     OW13954   5.195   4.545   1.080
 4352SOL    HW113955   5.154   4.578   0.994
 4352SOL    HW213956   5.239   4.622   1.127
 4353SOL     OW13957   3.112   3.643   6.730
 4353SOL    HW113958   3.019   3.608   6.734
 4353SOL    HW213959   3.154   3.635   6.820
 4354SOL     OW13960   0.305   0.615   4.154
 4354SOL    HW113961   0.364   0.693   4.176
 4354SOL    HW213962   0.267   0.627   4.062
 4355SOL     OW13963   1.242   0.386   3.927
 4355SOL    HW113964   1.169   0.331   3.887
 4355SOL    HW213965   1.210   0.425   4.014
 4356SOL     OW13966   5.159   3.004   5.949
 4356SOL    HW113967   5.134   2.907   5.939
 4356SOL    HW213968   5.079   3.057   5.975
 4357SOL     OW13969   6.564   1.670   2.141
 4357SOL    HW113970   6.498   1.619   2.197
 4357SOL    HW213971   6.605   1.608   2.074
 4358SOL     OW13972   0.438   1.336   0.425
 4358SOL    HW113973   0.415   1.415   0.368
 4358SOL    HW213974   0.482   1.266   0.368
 4359SOL     OW13975   2.515   0.658   6.682
 4359SOL    HW113976   2.446   0.588   6.662
 4359SOL    HW213977   2.529   0.715   6.601
 4360SOL     OW13978   0.900   2.907   3.438
 4360SOL    HW113979   0.947   2.930   3.523
 4360SOL    HW213980   0.964   2.864   3.375
 4361SOL     OW13981   1.637   2.264   0.992
 4361SOL    HW113982   1.620   2.285   0.896
 4361SOL    HW213983   1.718   2.206   1.000
 4362SOL     OW13984   0.903   6.127   4.119
 4362SOL    HW113985   0.998   6.100   4.099
 4362SOL    HW213986   0.891   6.138   4.217
 4363SOL     OW13987   4.425   0.696   3.025
 4363SOL    HW113988   4.360   0.698   3.101
 4363SOL    HW213989   4.380   0.729   2.942
 4364SOL     OW13990   2.922   3.575   2.476
 4364SOL    HW113991   2.978   3.657   2.476
 4364SOL    HW213992   2.980   3.495   2.460
 4365SOL     OW13993   3.239   2.010   1.675
 4365SOL    HW113994   3.297   1.992   1.754
 4365SOL    HW213995   3.150   2.044   1.705
 4366SOL     OW13996   5.442   5.680   5.250
 4366SOL    HW113997   5.428   5.754   5.185
 4366SOL    HW213998   5.404   5.595   5.213
 4367SOL     OW13999   2.701   5.007   3.222
 4367SOL    HW114000   2.636   5.068   3.267
 4367SOL    HW214001   2.722   5.041   3.131
 4368SOL     OW14002   4.764   6.085   2.554
 4368SOL    HW114003   4.805   6.151   2.617
 4368SOL    HW214004   4.722   6.133   2.477
 4369SOL     OW14005   5.181   5.458   3.108
 4369SOL    HW114006   5.092   5.446   3.152
 4369SOL    HW214007   5.169   5.474   3.010
 4370SOL     OW14008   3.841   4.355   1.668
 4370SOL    HW114009   3.898   4.290   1.619
 4370SOL    HW214010   3.897   4.431   1.702
 4371SOL     OW14011   3.120   0.776   1.876
 4371SOL    HW114012   3.184   0.720   1.930
 4371SOL    HW214013   3.170   0.824   1.804
 4372SOL     OW14014   1.594   2.329   5.210
 4372SOL    HW114015   1.614   2.373   5.297
 4372SOL    HW214016   1.565   2.398   5.143
 4373SOL     OW14017   4.804   0.788   6.350
 4373SOL    HW114018   4.814   0.852   6.426
 4373SOL    HW214019   4.725   0.814   6.294
 4374SOL     OW14020   2.548   1.820   1.340
 4374SOL    HW114021   2.586   1.912   1.334
 4374SOL    HW214022   2.506   1.807   1.430
 4375SOL     OW14023   4.109   0.311   3.587
 4375SOL    HW114024   4.093   0.399   3.631
 4375SOL    HW214025   4.059   0.307   3.501
 4376SOL     OW14026   6.611   6.090   1.209
 4376SOL    HW114027   6.627   5.992   1.198
 4376SOL    HW214028   6.664   6.141   1.141
 4377SOL     OW14029   5.769   6.337   0.423
 4377SOL    HW114030   5.738   6.422   0.466
 4377SOL    HW214031   5.845   6.355   0.362
 4378SOL     OW14032   1.885   5.306   2.104
 4378SOL    HW114033   1.825   5.368   2.155
 4378SOL    HW214034   1.830   5.231   2.067
 4379SOL     OW14035   1.910   0.813   1.829
 4379SOL    HW114036   1.831   0.760   1.860
 4379SOL    HW214037   1.937   0.878   1.900
 4380SOL     OW14038   2.132   5.661   4.906
 4380SOL    HW114039   2.214   5.648   4.851
 4380SOL    HW214040   2.147   5.735   4.972
 4381SOL     OW14041   3.625   5.652   4.418
 4381SOL    HW114042   3.683   5.670   4.497
 4381SOL    HW214043   3.531   5.677   4.439
 4382SOL     OW14044   4.718   4.136   4.433
 4382SOL    HW114045   4.669   4.188   4.503
 4382SOL    HW214046   4.755   4.052   4.474
 4383SOL     OW14047   1.267   1.938   6.171
 4383SOL    HW114048   1.343   2.003   6.169
 4383SOL    HW214049   1.296   1.855   6.219
 4384SOL     OW14050   3.894   0.208   1.375
 4384SOL    HW114051   3.988   0.207   1.341
 4384SOL    HW214052   3.874   0.298   1.415
 4385SOL     OW14053   0.014   1.751   3.688
 4385SOL    HW114054   0.014   1.657   3.654
 4385SOL    HW214055   6.949   1.774   3.724
 4386SOL     OW14056   0.968   4.068   6.698
 4386SOL    HW114057   0.964   4.114   6.609
 4386SOL    HW214058   1.057   4.025   6.710
 4387SOL     OW14059   6.391   2.721   0.997
 4387SOL    HW114060   6.453   2.672   1.060
 4387SOL    HW214061   6.382   2.668   0.913
 4388SOL     OW14062   3.992   0.542   6.623
 4388SOL    HW114063   4.008   0.459   6.569
 4388SOL    HW214064   4.071   0.602   6.617
 4389SOL     OW14065   5.725   2.289   1.371
 4389SOL    HW114066   5.701   2.382   1.396
 4389SOL    HW214067   5.821   2.272   1.392
 4390SOL     OW14068   4.935   1.883   1.870
 4390SOL    HW114069   4.956   1.804   1.928
 4390SOL    HW214070   5.017   1.910   1.819
 4391SOL     OW14071   0.952   6.046   6.688
 4391SOL    HW114072   0.973   6.006   6.599
 4391SOL    HW214073   1.019   6.116   6.710
 4392SOL     OW14074   4.840   3.288   4.565
 4392SOL    HW114075   4.839   3.200   4.612
 4392SOL    HW214076   4.788   3.281   4.480
 4393SOL     OW14077   5.259   6.969   3.892
 4393SOL    HW114078   5.253   0.025   3.950
 4393SOL    HW214079   5.355   6.953   3.867
 4394SOL     OW14080   6.131   5.980   3.094
 4394SOL    HW114081   6.163   6.015   3.181
 4394SOL    HW214082   6.056   6.038   3.060
 4395SOL     OW14083   4.623   1.484   1.678
 4395SOL    HW114084   4.557   1.540   1.729
 4395SOL    HW214085   4.649   1.533   1.594
 4396SOL     OW14086   1.775   1.918   4.424
 4396SOL    HW114087   1.825   1.834   4.444
 4396SOL    HW214088   1.727   1.909   4.337
 4397SOL     OW14089   0.343   1.654   4.298
 4397SOL    HW114090   0.438   1.627   4.283
 4397SOL    HW214091   0.309   1.705   4.219
 4398SOL     OW14092   1.295   4.122   4.455
 4398SOL    HW114093   1.318   4.136   4.551
 4398SOL    HW214094   1.343   4.189   4.398
 4399SOL     OW14095   2.540   0.382   0.659
 4399SOL    HW114096   2.531   0.401   0.757
 4399SOL    HW214097   2.462   0.328   0.628
 4400SOL     OW14098   2.128   6.692   4.201
 4400SOL    HW114099   2.173   6.768   4.153
 4400SOL    HW214100   2.152   6.606   4.156
 4401SOL     OW14101   5.720   6.148   5.392
 4401SOL    HW114102   5.719   6.248   5.403
 4401SOL    HW214103   5.626   6.114   5.383
 4402SOL     OW14104   1.118   5.607   2.614
 4402SOL    HW114105   1.135   5.700   2.647
 4402SOL    HW214106   1.107   5.608   2.515
 4403SOL     OW14107   6.739   0.153   3.307
 4403SOL    HW114108   6.817   0.114   3.258
 4403SOL    HW214109   6.656   0.102   3.283
 4404SOL     OW14110   1.046   4.099   4.377
 4404SOL    HW114111   1.049   4.040   4.296
 4404SOL    HW214112   1.139   4.114   4.412
 4405SOL     OW14113   3.182   4.476   5.629
 4405SOL    HW114114   3.117   4.424   5.574
 4405SOL    HW214115   3.202   4.426   5.713
 4406SOL     OW14116   4.712   4.869   1.530
 4406SOL    HW114117   4.688   4.827   1.618
 4406SOL    HW214118   4.777   4.810   1.483
 4407SOL     OW14119   6.939   5.988   0.344
 4407SOL    HW114120   6.863   6.000   0.407
 4407SOL    HW214121   7.003   6.064   0.354
 4408SOL     OW14122   4.241   0.189   0.792
 4408SOL    HW114123   4.310   0.164   0.860
 4408SOL    HW214124   4.151   0.191   0.836
 4409SOL     OW14125   4.179   1.460   1.796
 4409SOL    HW114126   4.127   1.542   1.772
 4409SOL    HW214127   4.129   1.408   1.866
 4410SOL     OW14128   2.478   4.341   0.024
 4410SOL    HW114129   2.485   4.259   0.081
 4410SOL    HW214130   2.432   4.413   0.074
 4411SOL     OW14131   3.626   3.819   2.926
 4411SOL    HW114132   3.612   3.840   3.023
 4411SOL    HW214133   3.539   3.828   2.878
 4412SOL     OW14134   4.627   1.204   5.684
 4412SOL    HW114135   4.593   1.111   5.674
 4412SOL    HW214136   4.670   1.215   5.774
 4413SOL     OW14137   4.271   5.954   4.294
 4413SOL    HW114138   4.263   5.868   4.244
 4413SOL    HW214139   4.188   6.008   4.281
 4414SOL     OW14140   4.523   5.126   2.779
 4414SOL    HW114141   4.559   5.056   2.717
 4414SOL    HW214142   4.596   5.188   2.806
 4415SOL     OW14143   5.861   3.924   6.312
 4415SOL    HW114144   5.939   3.861   6.308
 4415SOL    HW214145   5.816   3.928   6.223
 4416SOL     OW14146   2.955   1.436   3.907
 4416SOL    HW114147   3.023   1.403   3.842
 4416SOL    HW214148   2.999   1.495   3.975
 4417SOL     OW14149   6.541   4.671   2.134
 4417SOL    HW114150   6.510   4.705   2.046
 4417SOL    HW214151   6.516   4.736   2.206
 4418SOL     OW14152   4.566   6.411   3.748
 4418SOL    HW114153   4.537   6.499   3.786
 4418SOL    HW214154   4.613   6.358   3.818
 4419SOL     OW14155   5.793   5.539   0.559
 4419SOL    HW114156   5.844   5.534   0.645
 4419SOL    HW214157   5.849   5.501   0.485
 4420SOL     OW14158   4.674   0.493   0.701
 4420SOL    HW114159   4.652   0.458   0.610
 4420SOL    HW214160   4.605   0.461   0.766
 4421SOL     OW14161   2.542   1.500   2.652
 4421SOL    HW114162   2.495   1.586   2.632
 4421SOL    HW214163   2.474   1.427   2.663
 4422SOL     OW14164   3.109   3.285   5.779
 4422SOL    HW114165   3.045   3.342   5.726
 4422SOL    HW214166   3.122   3.198   5.732
 4423SOL     OW14167   1.524   1.937   5.841
 4423SOL    HW114168   1.532   1.899   5.934
 4423SOL    HW214169   1.428   1.956   5.821
 4424SOL     OW14170   5.027   6.496   3.306
 4424SOL    HW114171   4.965   6.419   3.321
 4424SOL    HW214172   5.018   6.562   3.380
 4425SOL     OW14173   3.608   5.384   6.244
 4425SOL    HW114174   3.651   5.297   6.222
 4425SOL    HW214175   3.642   5.416   6.333
 4426SOL     OW14176   0.012   0.824   5.748
 4426SOL    HW114177   7.007   0.743   5.799
 4426SOL    HW214178   0.065   0.884   5.809
 4427SOL     OW14179   0.633   0.819   3.154
 4427SOL    HW114180   0.679   0.743   3.200
 4427SOL    HW214181   0.692   0.899   3.155
 4428SOL     OW14182   2.892   4.805   4.319
 4428SOL    HW114183   2.866   4.776   4.226
 4428SOL    HW214184   2.830   4.762   4.385
 4429SOL     OW14185   2.769   0.252   3.591
 4429SOL    HW114186   2.678   0.267   3.552
 4429SOL    HW214187   2.785   0.154   3.605
 4430SOL     OW14188   4.508   2.489   3.366
 4430SOL    HW114189   4.497   2.588   3.375
 4430SOL    HW214190   4.470   2.459   3.279
 4431SOL     OW14191   2.910   1.290   2.757
 4431SOL    HW114192   2.915   1.369   2.819
 4431SOL    HW214193   2.962   1.214   2.796
 4432SOL     OW14194   3.554   2.932   3.156
 4432SOL    HW114195   3.557   3.022   3.200
 4432SOL    HW214196   3.488   2.934   3.081
 4433SOL     OW14197   6.087   0.294   3.459
 4433SOL    HW114198   6.180   0.267   3.483
 4433SOL    HW214199   6.025   0.270   3.533
 4434SOL     OW14200   5.027   1.495   4.006
 4434SOL    HW114201   5.096   1.424   4.007
 4434SOL    HW214202   4.958   1.474   3.937
 4435SOL     OW14203   3.821   3.174   0.877
 4435SOL    HW114204   3.801   3.098   0.815
 4435SOL    HW214205   3.844   3.255   0.824
 4436SOL     OW14206   3.064   1.939   6.931
 4436SOL    HW114207   3.086   2.014   6.868
 4436SOL    HW214208   3.148   1.905   6.973
 4437SOL     OW14209   4.286   0.648   4.687
 4437SOL    HW114210   4.300   0.561   4.735
 4437SOL    HW214211   4.274   0.722   4.753
 4438SOL     OW14212   4.780   1.814   0.251
 4438SOL    HW114213   4.705   1.754   0.279
 4438SOL    HW214214   4.803   1.875   0.327
 4439SOL     OW14215   0.631   4.954   1.473
 4439SOL    HW114216   0.575   4.979   1.552
 4439SOL    HW214217   0.621   5.024   1.402
 4440SOL     OW14218   1.791   5.489   0.380
 4440SOL    HW114219   1.743   5.557   0.436
 4440SOL    HW214220   1.888   5.511   0.377
 4441SOL     OW14221   6.560   2.313   2.083
 4441SOL    HW114222   6.512   2.339   2.167
 4441SOL    HW214223   6.647   2.362   2.079
 4442SOL     OW14224   3.655   6.229   3.129
 4442SOL    HW114225   3.724   6.298   3.110
 4442SOL    HW214226   3.674   6.148   3.073
 4443SOL     OW14227   1.901   1.690   6.475
 4443SOL    HW114228   1.922   1.597   6.505
 4443SOL    HW214229   1.886   1.748   6.555
 4444SOL     OW14230   4.446   6.179   6.961
 4444SOL    HW114231   4.346   6.180   6.954
 4444SOL    HW214232   4.479   6.084   6.954
 4445SOL     OW14233   1.339   0.564   6.348
 4445SOL    HW114234   1.347   0.603   6.257
 4445SOL    HW214235   1.285   0.480   6.344
 4446SOL     OW14236   6.006   1.054   1.533
 4446SOL    HW114237   6.076   1.114   1.571
 4446SOL    HW214238   6.042   1.007   1.452
 4447SOL     OW14239   5.140   3.287   5.372
 4447SOL    HW114240   5.078   3.298   5.293
 4447SOL    HW214241   5.212   3.356   5.368
 4448SOL     OW14242   2.857   3.932   0.351
 4448SOL    HW114243   2.767   3.911   0.313
 4448SOL    HW214244   2.897   3.850   0.391
 4449SOL     OW14245   3.513   0.525   5.736
 4449SOL    HW114246   3.511   0.425   5.726
 4449SOL    HW214247   3.438   0.554   5.795
 4450SOL     OW14248   3.206   3.447   2.999
 4450SOL    HW114249   3.243   3.357   2.975
 4450SOL    HW214250   3.220   3.510   2.922
 4451SOL     OW14251   5.901   4.452   2.827
 4451SOL    HW114252   5.829   4.503   2.780
 4451SOL    HW214253   5.940   4.509   2.899
 4452SOL     OW14254   6.576   6.584   4.950
 4452SOL    HW114255   6.645   6.542   5.009
 4452SOL    HW214256   6.486   6.547   4.972
 4453SOL     OW14257   6.414   2.936   1.364
 4453SOL    HW114258   6.482   2.868   1.393
 4453SOL    HW214259   6.367   2.903   1.283
 4454SOL     OW14260   5.212   2.207   0.922
 4454SOL    HW114261   5.144   2.230   0.991
 4454SOL    HW214262   5.259   2.123   0.947
 4455SOL     OW14263   3.414   6.069   1.543
 4455SOL    HW114264   3.494   6.042   1.597
 4455SOL    HW214265   3.356   6.128   1.598
 4456SOL     OW14266   2.374   5.497   2.213
 4456SOL    HW114267   2.355   5.474   2.308
 4456SOL    HW214268   2.387   5.413   2.160
 4457SOL     OW14269   4.093   2.645   6.571
 4457SOL    HW114270   4.164   2.710   6.598
 4457SOL    HW214271   4.091   2.637   6.471
 4458SOL     OW14272   2.220   2.968   6.228
 4458SOL    HW114273   2.231   2.913   6.311
 4458SOL    HW214274   2.147   2.928   6.172
 4459SOL     OW14275   5.465   0.236   3.925
 4459SOL    HW114276   5.444   0.250   3.828
 4459SOL    HW214277   5.527   0.308   3.956
 4460SOL     OW14278   2.227   3.138   6.562
 4460SOL    HW114279   2.159   3.137   6.488
 4460SOL    HW214280   2.216   3.220   6.616
 4461SOL     OW14281   1.052   6.964   2.359
 4461SOL    HW114282   0.992   6.890   2.326
 4461SOL    HW214283   0.998   0.004   2.412
 4462SOL     OW14284   6.504   4.426   0.817
 4462SOL    HW114285   6.429   4.483   0.851
 4462SOL    HW214286   6.585   4.483   0.801
 4463SOL     OW14287   1.700   2.726   6.879
 4463SOL    HW114288   1.768   2.662   6.842
 4463SOL    HW214289   1.716   2.817   6.842
 4464SOL     OW14290   5.994   4.893   0.431
 4464SOL    HW114291   5.974   4.944   0.514
 4464SOL    HW214292   5.941   4.808   0.430
 4465SOL     OW14293   1.842   6.655   2.371
 4465SOL    HW114294   1.857   6.563   2.408
 4465SOL    HW214295   1.808   6.715   2.443
 4466SOL     OW14296   0.892   0.989   2.576
 4466SOL    HW114297   0.914   0.938   2.659
 4466SOL    HW214298   0.911   0.931   2.496
 4467SOL     OW14299   1.152   6.753   3.374
 4467SOL    HW114300   1.222   6.822   3.386
 4467SOL    HW214301   1.117   6.725   3.464
 4468SOL     OW14302   1.172   1.977   0.021
 4468SOL    HW114303   1.096   1.923   7.011
 4468SOL    HW214304   1.176   2.064   6.997
 4469SOL     OW14305   2.938   6.817   2.230
 4469SOL    HW114306   2.867   6.802   2.299
 4469SOL    HW214307   3.006   6.882   2.266
 4470SOL     OW14308   5.349   3.852   1.620
 4470SOL    HW114309   5.362   3.895   1.531
 4470SOL    HW214310   5.430   3.867   1.676
 4471SOL     OW14311   0.529   2.674   0.304
 4471SOL    HW114312   0.450   2.674   0.365
 4471SOL    HW214313   0.577   2.587   0.311
 4472SOL     OW14314   1.738   4.286   2.831
 4472SOL    HW114315   1.826   4.241   2.816
 4472SOL    HW214316   1.725   4.303   2.929
 4473SOL     OW14317   0.323   0.669   4.577
 4473SOL    HW114318   0.337   0.768   4.570
 4473SOL    HW214319   0.253   0.641   4.512
 4474SOL     OW14320   3.042   0.096   2.576
 4474SOL    HW114321   3.062   0.089   2.674
 4474SOL    HW214322   3.019   0.190   2.554
 4475SOL     OW14323   1.277   3.882   1.408
 4475SOL    HW114324   1.366   3.885   1.455
 4475SOL    HW214325   1.246   3.787   1.400
 4476SOL     OW14326   4.924   6.500   2.863
 4476SOL    HW114327   4.998   6.522   2.927
 4476SOL    HW214328   4.842   6.476   2.915
 4477SOL     OW14329   1.996   6.970   6.928
 4477SOL    HW114330   1.908   6.984   6.882
 4477SOL    HW214331   2.047   0.031   6.927
 4478SOL     OW14332   2.613   6.658   2.164
 4478SOL    HW114333   2.658   6.664   2.253
 4478SOL    HW214334   2.556   6.576   2.160
 4479SOL     OW14335   1.421   0.124   6.302
 4479SOL    HW114336   1.433   0.207   6.246
 4479SOL    HW214337   1.343   0.136   6.363
 4480SOL     OW14338   2.111   3.716   4.401
 4480SOL    HW114339   2.126   3.722   4.500
 4480SOL    HW214340   2.057   3.634   4.381
 4481SOL     OW14341   2.097   6.715   4.479
 4481SOL    HW114342   2.102   6.701   4.380
 4481SOL    HW214343   2.134   6.634   4.526
 4482SOL     OW14344   0.720   3.863   4.352
 4482SOL    HW114345   0.720   3.773   4.394
 4482SOL    HW214346   0.709   3.933   4.422
 4483SOL     OW14347   0.181   3.349   1.079
 4483SOL    HW114348   0.084   3.327   1.071
 4483SOL    HW214349   0.222   3.356   0.988
 4484SOL     OW14350   3.661   2.347   5.350
 4484SOL    HW114351   3.590   2.278   5.332
 4484SOL    HW214352   3.747   2.300   5.371
 4485SOL     OW14353   4.957   2.800   6.607
 4485SOL    HW114354   4.890   2.861   6.563
 4485SOL    HW214355   4.996   2.739   6.539
 4486SOL     OW14356   0.108   4.263   5.104
 4486SOL    HW114357   0.077   4.358   5.111
 4486SOL    HW214358   0.034   4.202   5.134
 4487SOL     OW14359   2.363   3.759   6.777
 4487SOL    HW114360   2.344   3.744   6.680
 4487SOL    HW214361   2.411   3.847   6.788
 4488SOL     OW14362   5.560   2.653   5.798
 4488SOL    HW114363   5.518   2.578   5.747
 4488SOL    HW214364   5.523   2.740   5.765
 4489SOL     OW14365   5.454   6.043   4.531
 4489SOL    HW114366   5.355   6.035   4.544
 4489SOL    HW214367   5.502   6.005   4.610
 4490SOL     OW14368   5.704   2.002   1.495
 4490SOL    HW114369   5.656   2.025   1.580
 4490SOL    HW214370   5.799   2.031   1.502
 4491SOL     OW14371   0.731   3.641   2.917
 4491SOL    HW114372   0.631   3.641   2.910
 4491SOL    HW214373   0.758   3.622   3.011
 4492SOL     OW14374   5.220   2.467   0.404
 4492SOL    HW114375   5.182   2.540   0.348
 4492SOL    HW214376   5.173   2.464   0.492
 4493SOL     OW14377   4.162   5.094   4.686
 4493SOL    HW114378   4.186   5.187   4.714
 4493SOL    HW214379   4.083   5.096   4.625
 4494SOL     OW14380   6.884   2.590   6.114
 4494SOL    HW114381   6.788   2.580   6.140
 4494SOL    HW214382   6.922   2.673   6.156
 4495SOL     OW14383   5.088   6.875   2.677
 4495SOL    HW114384   5.129   6.919   2.597
 4495SOL    HW214385   5.135   6.789   2.695
 4496SOL     OW14386   4.953   5.088   0.253
 4496SOL    HW114387   4.956   4.989   0.239
 4496SOL    HW214388   5.040   5.119   0.292
 4497SOL     OW14389   5.351   5.983   0.021
 4497SOL    HW114390   5.253   5.975   0.039
 4497SOL    HW214391   5.388   6.061   0.073
 4498SOL     OW14392   0.058   3.534   6.516
 4498SOL    HW114393   0.046   3.627   6.481
 4498SOL    HW214394   0.053   3.469   6.441
 4499SOL     OW14395   6.445   2.884   4.483
 4499SOL    HW114396   6.436   2.934   4.569
 4499SOL    HW214397   6.502   2.802   4.498
 4500SOL     OW14398   2.933   3.742   3.782
 4500SOL    HW114399   2.936   3.777   3.875
 4500SOL    HW214400   2.843   3.759   3.742
 4501SOL     OW14401   1.169   3.784   6.081
 4501SOL    HW114402   1.263   3.776   6.114
 4501SOL    HW214403   1.152   3.715   6.010
 4502SOL     OW14404   1.624   2.446   6.250
 4502SOL    HW114405   1.689   2.430   6.176
 4502SOL    HW214406   1.604   2.360   6.297
 4503SOL     OW14407   2.313   1.402   3.483
 4503SOL    HW114408   2.376   1.326   3.497
 4503SOL    HW214409   2.222   1.376   3.516
 4504SOL     OW14410   6.725   2.337   5.459
 4504SOL    HW114411   6.793   2.354   5.387
 4504SOL    HW214412   6.720   2.417   5.519
 4505SOL     OW14413   0.486   6.070   4.865
 4505SOL    HW114414   0.547   6.053   4.942
 4505SOL    HW214415   0.493   5.995   4.800
 4506SOL     OW14416   4.099   1.671   4.587
 4506SOL    HW114417   4.004   1.696   4.568
 4506SOL    HW214418   4.138   1.735   4.653
 4507SOL     OW14419   5.216   4.861   1.426
 4507SOL    HW114420   5.214   4.937   1.491
 4507SOL    HW214421   5.227   4.775   1.476
 4508SOL     OW14422   1.611   4.228   0.277
 4508SOL    HW114423   1.542   4.297   0.257
 4508SOL    HW214424   1.567   4.145   0.311
 4509SOL     OW14425   4.716   1.894   4.377
 4509SOL    HW114426   4.680   1.982   4.408
 4509SOL    HW214427   4.803   1.876   4.422
 4510SOL     OW14428   5.680   0.335   5.156
 4510SOL    HW114429   5.692   0.314   5.253
 4510SOL    HW214430   5.683   0.250   5.102
 4511SOL     OW14431   0.519   3.098   0.007
 4511SOL    HW114432   0.461   3.016   0.014
 4511SOL    HW214433   0.604   3.074   6.985
 4512SOL     OW14434   2.569   6.690   6.338
 4512SOL    HW114435   2.618   6.640   6.266
 4512SOL    HW214436   2.514   6.625   6.391
 4513SOL     OW14437   4.765   6.681   1.468
 4513SOL    HW114438   4.744   6.720   1.557
 4513SOL    HW214439   4.856   6.640   1.470
 4514SOL     OW14440   3.606   1.388   4.786
 4514SOL    HW114441   3.645   1.301   4.755
 4514SOL    HW214442   3.662   1.463   4.753
 4515SOL     OW14443   6.468   4.568   6.884
 4515SOL    HW114444   6.561   4.542   6.858
 4515SOL    HW214445   6.465   4.666   6.902
 4516SOL     OW14446   1.028   1.057   5.588
 4516SOL    HW114447   0.961   1.024   5.654
 4516SOL    HW214448   1.007   1.019   5.497
 4517SOL     OW14449   2.708   6.382   5.876
 4517SOL    HW114450   2.697   6.444   5.798
 4517SOL    HW214451   2.680   6.429   5.960
 4518SOL     OW14452   0.521   2.455   4.186
 4518SOL    HW114453   0.561   2.365   4.202
 4518SOL    HW214454   0.448   2.471   4.252
 4519SOL     OW14455   0.093   1.927   2.943
 4519SOL    HW114456   0.155   1.885   3.009
 4519SOL    HW214457   0.015   1.867   2.928
 4520SOL     OW14458   5.891   4.764   2.918
 4520SOL    HW114459   5.815   4.802   2.866
 4520SOL    HW214460   5.876   4.783   3.016
 4521SOL     OW14461   4.806   2.195   6.125
 4521SOL    HW114462   4.786   2.274   6.067
 4521SOL    HW214463   4.798   2.222   6.221
 4522SOL     OW14464   5.375   6.722   3.702
 4522SOL    HW114465   5.282   6.693   3.724
 4522SOL    HW214466   5.373   6.810   3.654
 4523SOL     OW14467   2.453   4.186   6.395
 4523SOL    HW114468   2.490   4.096   6.418
 4523SOL    HW214469   2.523   4.256   6.412
 4524SOL     OW14470   5.349   1.518   5.497
 4524SOL    HW114471   5.338   1.428   5.539
 4524SOL    HW214472   5.374   1.507   5.401
 4525SOL     OW14473   6.560   1.663   4.115
 4525SOL    HW114474   6.545   1.761   4.100
 4525SOL    HW214475   6.655   1.647   4.140
 4526SOL     OW14476   5.119   0.090   1.153
 4526SOL    HW114477   5.085   0.051   1.067
 4526SOL    HW214478   5.049   0.151   1.192
 4527SOL     OW14479   4.030   0.897   3.687
 4527SOL    HW114480   4.082   0.823   3.643
 4527SOL    HW214481   4.093   0.958   3.735
 4528SOL     OW14482   4.768   6.734   0.256
 4528SOL    HW114483   4.851   6.679   0.255
 4528SOL    HW214484   4.787   6.824   0.218
 4529SOL     OW14485   2.372   1.220   3.176
 4529SOL    HW114486   2.465   1.237   3.210
 4529SOL    HW214487   2.309   1.212   3.254
 4530SOL     OW14488   0.418   3.344   5.547
 4530SOL    HW114489   0.380   3.253   5.564
 4530SOL    HW214490   0.374   3.410   5.608
 4531SOL     OW14491   1.186   3.981   3.453
 4531SOL    HW114492   1.213   4.077   3.441
 4531SOL    HW214493   1.248   3.936   3.516
 4532SOL     OW14494   6.788   1.399   1.588
 4532SOL    HW114495   6.732   1.476   1.620
 4532SOL    HW214496   6.852   1.373   1.661
 4533SOL     OW14497   1.600   0.473   3.501
 4533SOL    HW114498   1.573   0.504   3.410
 4533SOL    HW214499   1.646   0.547   3.550
 4534SOL     OW14500   6.363   3.741   5.256
 4534SOL    HW114501   6.312   3.658   5.231
 4534SOL    HW214502   6.308   3.821   5.235
 4535SOL     OW14503   4.603   2.193   2.617
 4535SOL    HW114504   4.638   2.269   2.562
 4535SOL    HW214505   4.620   2.107   2.570
 4536SOL     OW14506   4.586   1.674   4.310
 4536SOL    HW114507   4.532   1.668   4.393
 4536SOL    HW214508   4.649   1.751   4.316
 4537SOL     OW14509   3.619   3.165   6.218
 4537SOL    HW114510   3.597   3.243   6.276
 4537SOL    HW214511   3.602   3.080   6.268
 4538SOL     OW14512   3.237   2.165   3.985
 4538SOL    HW114513   3.243   2.198   3.891
 4538SOL    HW214514   3.328   2.170   4.028
 4539SOL     OW14515   2.884   2.302   4.101
 4539SOL    HW114516   2.829   2.350   4.032
 4539SOL    HW214517   2.831   2.296   4.186
 4540SOL     OW14518   3.570   3.452   3.624
 4540SOL    HW114519   3.579   3.415   3.532
 4540SOL    HW214520   3.553   3.378   3.689
 4541SOL     OW14521   5.185   0.710   0.216
 4541SOL    HW114522   5.160   0.807   0.208
 4541SOL    HW214523   5.248   0.699   0.293
 4542SOL     OW14524   6.215   6.050   1.567
 4542SOL    HW114525   6.255   6.028   1.478
 4542SOL    HW214526   6.155   5.975   1.596
 4543SOL     OW14527   4.638   1.562   6.758
 4543SOL    HW114528   4.671   1.468   6.752
 4543SOL    HW214529   4.564   1.567   6.825
 4544SOL     OW14530   2.367   5.794   6.549
 4544SOL    HW114531   2.417   5.874   6.583
 4544SOL    HW214532   2.270   5.803   6.572
 4545SOL     OW14533   4.536   2.178   5.115
 4545SOL    HW114534   4.542   2.104   5.048
 4545SOL    HW214535   4.628   2.211   5.136
 4546SOL     OW14536   0.682   0.094   6.297
 4546SOL    HW114537   0.604   0.088   6.359
 4546SOL    HW214538   0.680   0.017   6.234
 4547SOL     OW14539   5.467   2.827   1.846
 4547SOL    HW114540   5.506   2.841   1.755
 4547SOL    HW214541   5.375   2.866   1.849
 4548SOL     OW14542   1.220   4.997   4.219
 4548SOL    HW114543   1.218   4.897   4.227
 4548SOL    HW214544   1.166   5.038   4.292
 4549SOL     OW14545   6.394   3.652   3.062
 4549SOL    HW114546   6.429   3.746   3.066
 4549SOL    HW214547   6.419   3.612   2.974
 4550SOL     OW14548   0.688   6.020   3.710
 4550SOL    HW114549   0.743   6.049   3.632
 4550SOL    HW214550   0.674   5.921   3.707
 4551SOL     OW14551   6.695   1.830   5.255
 4551SOL    HW114552   6.692   1.929   5.241
 4551SOL    HW214553   6.712   1.811   5.351
 4552SOL     OW14554   0.274   3.076   5.777
 4552SOL    HW114555   0.229   3.159   5.807
 4552SOL    HW214556   0.317   3.031   5.855
 4553SOL     OW14557   3.960   4.839   6.693
 4553SOL    HW114558   4.023   4.914   6.713
 4553SOL    HW214559   4.004   4.752   6.715
 4554SOL     OW14560   4.052   0.907   2.232
 4554SOL    HW114561   4.136   0.900   2.286
 4554SOL    HW214562   3.977   0.939   2.290
 4555SOL     OW14563   4.382   1.591   6.849
 4555SOL    HW114564   4.325   1.527   6.900
 4555SOL    HW214565   4.397   1.556   6.757
 4556SOL     OW14566   3.605   1.065   3.856
 4556SOL    HW114567   3.643   0.983   3.813
 4556SOL    HW214568   3.511   1.046   3.885
 4557SOL     OW14569   5.173   0.529   4.776
 4557SOL    HW114570   5.175   0.604   4.710
 4557SOL    HW214571   5.127   0.560   4.860
 4558SOL     OW14572   6.181   3.931   6.627
 4558SOL    HW114573   6.261   3.894   6.579
 4558SOL    HW214574   6.132   3.857   6.672
 4559SOL     OW14575   1.788   6.728   1.500
 4559SOL    HW114576   1.844   6.672   1.439
 4559SOL    HW214577   1.722   6.779   1.445
 4560SOL     OW14578   5.045   3.903   3.054
 4560SOL    HW114579   5.121   3.926   2.992
 4560SOL    HW214580   5.061   3.948   3.142
 4561SOL     OW14581   2.701   0.642   0.963
 4561SOL    HW114582   2.631   0.573   0.979
 4561SOL    HW214583   2.791   0.603   0.982
 4562SOL     OW14584   3.080   5.784   5.332
 4562SOL    HW114585   3.007   5.738   5.280
 4562SOL    HW214586   3.125   5.717   5.392
 4563SOL     OW14587   5.253   2.868   0.421
 4563SOL    HW114588   5.344   2.877   0.461
 4563SOL    HW214589   5.193   2.819   0.484
 4564SOL     OW14590   1.022   5.277   0.738
 4564SOL    HW114591   0.998   5.372   0.758
 4564SOL    HW214592   0.941   5.228   0.706
 4565SOL     OW14593   0.531   1.832   5.562
 4565SOL    HW114594   0.533   1.772   5.482
 4565SOL    HW214595   0.614   1.817   5.617
 4566SOL     OW14596   6.866   0.694   0.088
 4566SOL    HW114597   6.866   0.683   7.013
 4566SOL    HW214598   6.847   0.606   0.131
 4567SOL     OW14599   0.614   0.960   1.027
 4567SOL    HW114600   0.628   0.888   0.959
 4567SOL    HW214601   0.660   1.044   0.996
 4568SOL     OW14602   1.859   4.141   5.271
 4568SOL    HW114603   1.840   4.232   5.308
 4568SOL    HW214604   1.918   4.149   5.191
 4569SOL     OW14605   1.527   2.487   3.897
 4569SOL    HW114606   1.609   2.434   3.876
 4569SOL    HW214607   1.552   2.583   3.909
 4570SOL     OW14608   7.010   5.994   3.232
 4570SOL    HW114609   0.033   6.022   3.149
 4570SOL    HW214610   6.990   5.896   3.228
 4571SOL     OW14611   3.177   3.815   4.698
 4571SOL    HW114612   3.253   3.803   4.633
 4571SOL    HW214613   3.107   3.746   4.679
 4572SOL     OW14614   0.366   0.011   0.732
 4572SOL    HW114615   0.343   7.012   0.826
 4572SOL    HW214616   0.357   6.955   0.674
 4573SOL     OW14617   5.735   6.097   0.668
 4573SOL    HW114618   5.658   6.142   0.623
 4573SOL    HW214619   5.777   6.032   0.605
 4574SOL     OW14620   0.063   4.956   0.915
 4574SOL    HW114621   0.002   4.980   0.990
 4574SOL    HW214622   0.010   4.934   0.834
 4575SOL     OW14623   6.882   2.216   0.670
 4575SOL    HW114624   6.830   2.293   0.633
 4575SOL    HW214625   6.973   2.249   0.697
 4576SOL     OW14626   3.074   5.690   5.999
 4576SOL    HW114627   3.094   5.652   5.909
 4576SOL    HW214628   2.995   5.751   5.993
 4577SOL     OW14629   0.459   3.665   2.886
 4577SOL    HW114630   0.432   3.686   2.980
 4577SOL    HW214631   0.442   3.745   2.828
 4578SOL     OW14632   1.100   3.618   3.357
 4578SOL    HW114633   1.179   3.629   3.296
 4578SOL    HW214634   1.017   3.612   3.303
 4579SOL     OW14635   4.700   1.617   2.867
 4579SOL    HW114636   4.684   1.714   2.881
 4579SOL    HW214637   4.676   1.592   2.773
 4580SOL     OW14638   6.272   4.916   0.452
 4580SOL    HW114639   6.178   4.887   0.432
 4580SOL    HW214640   6.336   4.843   0.426
 4581SOL     OW14641   3.141   4.862   2.668
 4581SOL    HW114642   3.233   4.863   2.706
 4581SOL    HW214643   3.145   4.847   2.569
 4582SOL     OW14644   5.893   6.786   4.441
 4582SOL    HW114645   5.965   6.753   4.380
 4582SOL    HW214646   5.871   6.881   4.417
 4583SOL     OW14647   3.217   2.069   5.191
 4583SOL    HW114648   3.220   2.168   5.173
 4583SOL    HW214649   3.131   2.047   5.237
 4584SOL     OW14650   0.316   5.765   6.110
 4584SOL    HW114651   0.336   5.739   6.205
 4584SOL    HW214652   0.383   5.832   6.079
 4585SOL     OW14653   2.626   6.600   3.140
 4585SOL    HW114654   2.572   6.659   3.081
 4585SOL    HW214655   2.720   6.597   3.107
 4586SOL     OW14656   3.263   4.694   1.047
 4586SOL    HW114657   3.192   4.709   1.116
 4586SOL    HW214658   3.345   4.746   1.073
 4587SOL     OW14659   4.183   3.524   1.701
 4587SOL    HW114660   4.148   3.498   1.791
 4587SOL    HW214661   4.151   3.458   1.632
 4588SOL     OW14662   3.857   3.760   5.333
 4588SOL    HW114663   3.817   3.849   5.358
 4588SOL    HW214664   3.919   3.772   5.256
 4589SOL     OW14665   5.854   2.378   2.671
 4589SOL    HW114666   5.775   2.432   2.702
 4589SOL    HW214667   5.876   2.403   2.577
 4590SOL     OW14668   4.425   6.289   2.071
 4590SOL    HW114669   4.346   6.347   2.093
 4590SOL    HW214670   4.440   6.224   2.145
 4591SOL     OW14671   6.877   6.062   5.708
 4591SOL    HW114672   6.802   6.001   5.732
 4591SOL    HW214673   6.964   6.019   5.732
 4592SOL     OW14674   3.987   3.065   1.290
 4592SOL    HW114675   4.079   3.104   1.294
 4592SOL    HW214676   3.981   2.988   1.353
 4593SOL     OW14677   4.257   5.388   3.427
 4593SOL    HW114678   4.224   5.462   3.367
 4593SOL    HW214679   4.215   5.302   3.400
 4594SOL     OW14680   3.824   1.268   1.994
 4594SOL    HW114681   3.842   1.303   1.902
 4594SOL    HW214682   3.726   1.269   2.012
 4595SOL     OW14683   3.745   2.894   6.739
 4595SOL    HW114684   3.662   2.949   6.751
 4595SOL    HW214685   3.770   2.854   6.827
 4596SOL     OW14686   6.194   6.296   1.810
 4596SOL    HW114687   6.225   6.212   1.766
 4596SOL    HW214688   6.212   6.292   1.908
 4597SOL     OW14689   5.229   5.298   6.580
 4597SOL    HW114690   5.274   5.228   6.636
 4597SOL    HW214691   5.298   5.356   6.537
 4598SOL     OW14692   1.353   5.178   6.022
 4598SOL    HW114693   1.267   5.209   6.060
 4598SOL    HW214694   1.356   5.078   6.024
 4599SOL     OW14695   1.293   3.585   1.146
 4599SOL    HW114696   1.259   3.670   1.105
 4599SOL    HW214697   1.393   3.582   1.138
 4600SOL     OW14698   3.218   5.222   6.002
 4600SOL    HW114699   3.311   5.253   5.980
 4600SOL    HW214700   3.222   5.158   6.078
 4601SOL     OW14701   1.835   0.743   5.247
 4601SOL    HW114702   1.931   0.743   5.217
 4601SOL    HW214703   1.781   0.684   5.187
 4602SOL     OW14704   1.460   6.582   1.370
 4602SOL    HW114705   1.436   6.538   1.284
 4602SOL    HW214706   1.386   6.571   1.436
 4603SOL     OW14707   3.501   6.352   1.490
 4603SOL    HW114708   3.419   6.370   1.436
 4603SOL    HW214709   3.555   6.436   1.496
 4604SOL     OW14710   4.169   0.939   1.311
 4604SOL    HW114711   4.133   0.863   1.365
 4604SOL    HW214712   4.237   0.990   1.365
 4605SOL     OW14713   4.675   0.762   3.828
 4605SOL    HW114714   4.583   0.782   3.862
 4605SOL    HW214715   4.742   0.780   3.901
 4606SOL     OW14716   0.116   6.557   3.147
 4606SOL    HW114717   0.149   6.471   3.186
 4606SOL    HW214718   0.025   6.577   3.184
 4607SOL     OW14719   2.718   2.160   0.727
 4607SOL    HW114720   2.666   2.241   0.700
 4607SOL    HW214721   2.681   2.122   0.811
 4608SOL     OW14722   0.891   5.157   5.254
 4608SOL    HW114723   0.894   5.089   5.181
 4608SOL    HW214724   0.797   5.190   5.265
 4609SOL     OW14725   4.332   5.685   6.568
 4609SOL    HW114726   4.318   5.779   6.536
 4609SOL    HW214727   4.324   5.622   6.490
 4610SOL     OW14728   0.067   2.404   0.298
 4610SOL    HW114729   0.099   2.428   0.390
 4610SOL    HW214730   7.005   2.354   0.306
 4611SOL     OW14731   6.446   4.268   0.195
 4611SOL    HW114732   6.428   4.321   0.278
 4611SOL    HW214733   6.391   4.304   0.120
 4612SOL     OW14734   1.621   5.651   6.633
 4612SOL    HW114735   1.698   5.672   6.572
 4612SOL    HW214736   1.579   5.565   6.604
 4613SOL     OW14737   2.172   5.819   3.120
 4613SOL    HW114738   2.244   5.884   3.147
 4613SOL    HW214739   2.177   5.803   3.022
 4614SOL     OW14740   2.040   5.029   6.187
 4614SOL    HW114741   1.962   4.995   6.136
 4614SOL    HW214742   2.033   5.129   6.196
 4615SOL     OW14743   1.477   1.341   0.799
 4615SOL    HW114744   1.461   1.414   0.866
 4615SOL    HW214745   1.534   1.377   0.725
 4616SOL     OW14746   6.938   0.843   6.575
 4616SOL    HW114747   6.933   0.931   6.528
 4616SOL    HW214748   6.861   0.834   6.638
 4617SOL     OW14749   1.008   2.486   2.545
 4617SOL    HW114750   0.995   2.542   2.464
 4617SOL    HW214751   0.925   2.433   2.563
 4618SOL     OW14752   1.350   2.164   5.452
 4618SOL    HW114753   1.393   2.221   5.382
 4618SOL    HW214754   1.421   2.127   5.513
 4619SOL     OW14755   4.540   6.978   3.681
 4619SOL    HW114756   4.476   0.030   3.689
 4619SOL    HW214757   4.633   7.013   3.676
 4620SOL     OW14758   3.707   4.158   6.837
 4620SOL    HW114759   3.679   4.226   6.770
 4620SOL    HW214760   3.787   4.109   6.802
 4621SOL     OW14761   6.273   2.096   4.628
 4621SOL    HW114762   6.367   2.125   4.607
 4621SOL    HW214763   6.251   2.014   4.576
 4622SOL     OW14764   1.736   2.570   0.718
 4622SOL    HW114765   1.764   2.644   0.779
 4622SOL    HW214766   1.672   2.509   0.765
 4623SOL     OW14767   0.139   5.347   1.029
 4623SOL    HW114768   0.053   5.313   0.989
 4623SOL    HW214769   0.150   5.309   1.121
 4624SOL     OW14770   4.450   0.854   3.959
 4624SOL    HW114771   4.351   0.842   3.949
 4624SOL    HW214772   4.468   0.919   4.032
 4625SOL     OW14773   1.828   4.223   0.071
 4625SOL    HW114774   1.889   4.302   0.072
 4625SOL    HW214775   1.748   4.242   0.127
 4626SOL     OW14776   6.381   4.450   1.628
 4626SOL    HW114777   6.385   4.428   1.726
 4626SOL    HW214778   6.447   4.393   1.579
 4627SOL     OW14779   3.735   5.915   5.707
 4627SOL    HW114780   3.702   5.881   5.619
 4627SOL    HW214781   3.740   5.839   5.772
 4628SOL     OW14782   5.589   4.610   2.987
 4628SOL    HW114783   5.605   4.592   2.890
 4628SOL    HW214784   5.671   4.587   3.039
 4629SOL     OW14785   1.970   4.950   5.819
 4629SOL    HW114786   1.895   4.903   5.772
 4629SOL    HW214787   1.933   5.022   5.878
 4630SOL     OW14788   2.589   5.747   3.910
 4630SOL    HW114789   2.509   5.688   3.916
 4630SOL    HW214790   2.648   5.731   3.989
 4631SOL     OW14791   2.422   6.853   3.408
 4631SOL    HW114792   2.356   6.825   3.338
 4631SOL    HW214793   2.493   6.910   3.367
 4632SOL     OW14794   4.567   4.900   3.476
 4632SOL    HW114795   4.493   4.833   3.486
 4632SOL    HW214796   4.536   4.976   3.419
 4633SOL     OW14797   6.690   1.799   4.851
 4633SOL    HW114798   6.707   1.703   4.825
 4633SOL    HW214799   6.778   1.845   4.863
 4634SOL     OW14800   2.885   4.465   6.466
 4634SOL    HW114801   2.908   4.434   6.558
 4634SOL    HW214802   2.952   4.429   6.400
 4635SOL     OW14803   5.843   3.022   2.249
 4635SOL    HW114804   5.910   2.980   2.187
 4635SOL    HW214805   5.758   2.970   2.246
 4636SOL     OW14806   2.741   5.424   6.765
 4636SOL    HW114807   2.733   5.345   6.705
 4636SOL    HW214808   2.716   5.399   6.858
 4637SOL     OW14809   1.345   0.752   6.742
 4637SOL    HW114810   1.329   0.763   6.644
 4637SOL    HW214811   1.397   0.668   6.758
 4638SOL     OW14812   3.872   2.843   6.416
 4638SOL    HW114813   3.777   2.832   6.386
 4638SOL    HW214814   3.920   2.756   6.407
 4639SOL     OW14815   1.290   4.136   5.966
 4639SOL    HW114816   1.327   4.187   6.045
 4639SOL    HW214817   1.354   4.063   5.941
 4640SOL     OW14818   4.985   5.040   4.310
 4640SOL    HW114819   4.938   4.960   4.273
 4640SOL    HW214820   4.921   5.093   4.367
 4641SOL     OW14821   2.588   4.964   4.444
 4641SOL    HW114822   2.591   4.990   4.540
 4641SOL    HW214823   2.604   4.866   4.435
 4642SOL     OW14824   6.484   5.521   4.930
 4642SOL    HW114825   6.479   5.590   5.002
 4642SOL    HW214826   6.507   5.432   4.969
 4643SOL     OW14827   4.640   2.539   0.309
 4643SOL    HW114828   4.731   2.566   0.340
 4643SOL    HW214829   4.618   2.587   0.224
 4644SOL     OW14830   1.279   5.396   5.209
 4644SOL    HW114831   1.293   5.299   5.193
 4644SOL    HW214832   1.329   5.449   5.139
 4645SOL     OW14833   2.100   7.014   4.486
 4645SOL    HW114834   2.077   6.917   4.473
 4645SOL    HW214835   2.189   0.008   4.446
 4646SOL     OW14836   2.816   0.078   2.406
 4646SOL    HW114837   2.867   0.143   2.463
 4646SOL    HW214838   2.860   7.014   2.408
 4647SOL     OW14839   1.102   6.666   3.101
 4647SOL    HW114840   1.023   6.703   3.052
 4647SOL    HW214841   1.100   6.698   3.196
 4648SOL     OW14842   3.544   6.812   1.601
 4648SOL    HW114843   3.501   6.834   1.688
 4648SOL    HW214844   3.523   6.884   1.534
 4649SOL     OW14845   4.915   0.909   5.852
 4649SOL    HW114846   4.965   0.826   5.827
 4649SOL    HW214847   4.973   0.967   5.909
 4650SOL     OW14848   3.775   6.037   2.954
 4650SOL    HW114849   3.722   6.046   2.869
 4650SOL    HW214850   3.860   6.088   2.945
 4651SOL     OW14851   0.751   2.575   2.003
 4651SOL    HW114852   0.796   2.493   1.966
 4651SOL    HW214853   0.678   2.603   1.941
 4652SOL     OW14854   0.693   6.709   3.729
 4652SOL    HW114855   0.735   6.779   3.786
 4652SOL    HW214856   0.716   6.619   3.764
 4653SOL     OW14857   6.595   5.904   0.383
 4653SOL    HW114858   6.521   5.889   0.448
 4653SOL    HW214859   6.682   5.876   0.424
 4654SOL     OW14860   0.796   0.266   0.409
 4654SOL    HW114861   0.713   0.211   0.417
 4654SOL    HW214862   0.773   0.363   0.404
 4655SOL     OW14863   0.557   4.763   2.833
 4655SOL    HW114864   0.615   4.838   2.802
 4655SOL    HW214865   0.487   4.744   2.764
 4656SOL     OW14866   0.887   6.838   3.043
 4656SOL    HW114867   0.867   6.877   2.953
 4656SOL    HW214868   0.932   6.908   3.100
 4657SOL     OW14869   5.488   6.905   1.673
 4657SOL    HW114870   5.459   7.001   1.669
 4657SOL    HW214871   5.578   6.895   1.631
 4658SOL     OW14872   4.017   0.268   2.878
 4658SOL    HW114873   3.959   0.297   2.955
 4658SOL    HW214874   3.959   0.244   2.800
 4659SOL     OW14875   1.716   3.140   5.083
 4659SOL    HW114876   1.698   3.051   5.125
 4659SOL    HW214877   1.792   3.184   5.130
 4660SOL     OW14878   1.519   1.754   4.745
 4660SOL    HW114879   1.495   1.667   4.702
 4660SOL    HW214880   1.436   1.801   4.776
 4661SOL     OW14881   3.666   3.877   4.819
 4661SOL    HW114882   3.605   3.798   4.820
 4661SOL    HW214883   3.760   3.847   4.833
 4662SOL     OW14884   4.765   0.680   5.548
 4662SOL    HW114885   4.739   0.776   5.559
 4662SOL    HW214886   4.865   0.672   5.550
 4663SOL     OW14887   6.902   2.133   2.468
 4663SOL    HW114888   6.980   2.071   2.465
 4663SOL    HW214889   6.822   2.086   2.431
 4664SOL     OW14890   2.297   2.381   6.660
 4664SOL    HW114891   2.234   2.303   6.664
 4664SOL    HW214892   2.294   2.422   6.569
 4665SOL     OW14893   4.809   6.886   6.939
 4665SOL    HW114894   4.901   6.913   6.912
 4665SOL    HW214895   4.792   6.912   0.009
 4666SOL     OW14896   2.189   1.013   0.128
 4666SOL    HW114897   2.241   1.020   0.043
 4666SOL    HW214898   2.093   1.037   0.111
 4667SOL     OW14899   6.692   4.826   6.487
 4667SOL    HW114900   6.601   4.820   6.445
 4667SOL    HW214901   6.760   4.789   6.425
 4668SOL     OW14902   0.446   1.738   4.551
 4668SOL    HW114903   0.405   1.687   4.476
 4668SOL    HW214904   0.375   1.785   4.603
 4669SOL     OW14905   2.604   6.513   0.295
 4669SOL    HW114906   2.685   6.568   0.274
 4669SOL    HW214907   2.550   6.558   0.366
 4670SOL     OW14908   3.058   0.968   4.990
 4670SOL    HW114909   3.126   1.026   5.037
 4670SOL    HW214910   3.105   0.893   4.945
 4671SOL     OW14911   5.867   3.426   1.413
 4671SOL    HW114912   5.840   3.493   1.482
 4671SOL    HW214913   5.942   3.370   1.449
 4672SOL     OW14914   2.655   4.598   6.074
 4672SOL    HW114915   2.643   4.657   6.153
 4672SOL    HW214916   2.656   4.653   5.990
 4673SOL     OW14917   3.733   0.045   1.245
 4673SOL    HW114918   3.774   0.105   1.313
 4673SOL    HW214919   3.802   0.018   1.178
 4674SOL     OW14920   5.472   6.304   6.118
 4674SOL    HW114921   5.391   6.247   6.106
 4674SOL    HW214922   5.545   6.271   6.058
 4675SOL     OW14923   1.165   3.363   1.007
 4675SOL    HW114924   1.070   3.348   1.034
 4675SOL    HW214925   1.211   3.421   1.074
 4676SOL     OW14926   0.856   5.496   3.408
 4676SOL    HW114927   0.944   5.474   3.367
 4676SOL    HW214928   0.838   5.594   3.399
 4677SOL     OW14929   1.493   1.561   0.947
 4677SOL    HW114930   1.566   1.628   0.939
 4677SOL    HW214931   1.445   1.574   1.034
 4678SOL     OW14932   2.172   4.518   2.818
 4678SOL    HW114933   2.215   4.427   2.824
 4678SOL    HW214934   2.211   4.568   2.741
 4679SOL     OW14935   4.799   6.579   1.960
 4679SOL    HW114936   4.880   6.521   1.958
 4679SOL    HW214937   4.761   6.580   2.053
 4680SOL     OW14938   4.079   0.735   1.474
 4680SOL    HW114939   3.980   0.748   1.482
 4680SOL    HW214940   4.118   0.712   1.564
 4681SOL     OW14941   5.008   4.777   7.003
 4681SOL    HW114942   5.098   4.736   6.988
 4681SOL    HW214943   5.009   4.871   6.967
 4682SOL     OW14944   5.479   3.678   6.151
 4682SOL    HW114945   5.560   3.655   6.097
 4682SOL    HW214946   5.423   3.596   6.164
 4683SOL     OW14947   6.171   5.054   2.963
 4683SOL    HW114948   6.181   5.086   2.869
 4683SOL    HW214949   6.221   4.968   2.975
 4684SOL     OW14950   4.336   5.943   5.979
 4684SOL    HW114951   4.352   5.867   6.042
 4684SOL    HW214952   4.251   5.990   6.003
 4685SOL     OW14953   2.081   3.685   6.334
 4685SOL    HW114954   2.135   3.619   6.282
 4685SOL    HW214955   2.036   3.748   6.272
 4686SOL     OW14956   3.507   5.409   0.423
 4686SOL    HW114957   3.577   5.337   0.418
 4686SOL    HW214958   3.475   5.430   0.331
 4687SOL     OW14959   3.947   1.725   3.678
 4687SOL    HW114960   3.935   1.664   3.756
 4687SOL    HW214961   3.860   1.738   3.631
 4688SOL     OW14962   5.974   3.021   5.891
 4688SOL    HW114963   6.004   3.009   5.986
 4688SOL    HW214964   5.891   2.968   5.876
 4689SOL     OW14965   5.635   0.318   1.300
 4689SOL    HW114966   5.588   0.337   1.213
 4689SOL    HW214967   5.626   0.398   1.360
 4690SOL     OW14968   1.787   0.992   0.876
 4690SOL    HW114969   1.696   1.027   0.897
 4690SOL    HW214970   1.843   1.064   0.835
 4691SOL     OW14971   4.696   4.340   0.655
 4691SOL    HW114972   4.604   4.355   0.690
 4691SOL    HW214973   4.712   4.242   0.643
 4692SOL     OW14974   6.135   4.496   3.002
 4692SOL    HW114975   6.230   4.463   3.004
 4692SOL    HW214976   6.098   4.495   3.095
 4693SOL     OW14977   1.653   1.264   4.284
 4693SOL    HW114978   1.722   1.227   4.221
 4693SOL    HW214979   1.680   1.355   4.314
 4694SOL     OW14980   2.672   1.956   0.517
 4694SOL    HW114981   2.598   1.927   0.578
 4694SOL    HW214982   2.737   2.012   0.568
 4695SOL     OW14983   1.530   5.641   0.468
 4695SOL    HW114984   1.547   5.711   0.538
 4695SOL    HW214985   1.505   5.555   0.511
 4696SOL     OW14986   0.457   5.372   6.146
 4696SOL    HW114987   0.499   5.284   6.164
 4696SOL    HW214988   0.389   5.393   6.217
 4697SOL     OW14989   1.210   3.657   2.269
 4697SOL    HW114990   1.291   3.711   2.246
 4697SOL    HW214991   1.238   3.566   2.300
 4698SOL     OW14992   3.982   0.187   3.352
 4698SOL    HW114993   3.962   0.172   3.255
 4698SOL    HW214994   4.073   0.153   3.373
 4699SOL     OW14995   0.293   6.749   2.484
 4699SOL    HW114996   0.379   6.770   2.529
 4699SOL    HW214997   0.257   6.663   2.520
 4700SOL     OW14998   7.025   1.663   2.370
 4700SOL    HW114999   6.991   1.693   2.281
 4700SOL    HW215000   0.012   1.742   2.430
 4701SOL     OW15001   3.309   2.116   2.060
 4701SOL    HW115002   3.342   2.108   1.966
 4701SOL    HW215003   3.385   2.099   2.123
 4702SOL     OW15004   4.945   4.982   0.578
 4702SOL    HW115005   4.886   4.912   0.619
 4702SOL    HW215006   5.040   4.955   0.587
 4703SOL     OW15007   1.454   5.572   2.512
 4703SOL    HW115008   1.508   5.652   2.487
 4703SOL    HW215009   1.361   5.582   2.475
 4704SOL     OW15010   0.234   6.229   5.592
 4704SOL    HW115011   0.333   6.239   5.585
 4704SOL    HW215012   0.191   6.320   5.593
 4705SOL     OW15013   3.357   2.156   0.637
 4705SOL    HW115014   3.429   2.164   0.568
 4705SOL    HW215015   3.392   2.187   0.726
 4706SOL     OW15016   1.226   0.029   0.946
 4706SOL    HW115017   1.163   0.106   0.934
 4706SOL    HW215018   1.242   0.013   1.043
 4707SOL     OW15019   1.647   5.997   1.736
 4707SOL    HW115020   1.713   6.048   1.679
 4707SOL    HW215021   1.557   6.001   1.693
 4708SOL     OW15022   0.979   2.225   5.409
 4708SOL    HW115023   1.007   2.158   5.341
 4708SOL    HW215024   1.051   2.236   5.477
 4709SOL     OW15025   4.808   5.197   4.829
 4709SOL    HW115026   4.751   5.243   4.898
 4709SOL    HW215027   4.754   5.179   4.747
 4710SOL     OW15028   6.308   6.949   4.485
 4710SOL    HW115029   6.231   6.993   4.438
 4710SOL    HW215030   6.321   6.992   4.575
 4711SOL     OW15031   6.366   2.814   3.495
 4711SOL    HW115032   6.415   2.879   3.552
 4711SOL    HW215033   6.317   2.864   3.423
 4712SOL     OW15034   4.619   4.819   6.058
 4712SOL    HW115035   4.547   4.862   6.004
 4712SOL    HW215036   4.609   4.847   6.154
 4713SOL     OW15037   5.285   5.812   1.101
 4713SOL    HW115038   5.229   5.813   1.183
 4713SOL    HW215039   5.267   5.894   1.047
 4714SOL     OW15040   6.897   1.462   6.789
 4714SOL    HW115041   6.919   1.557   6.765
 4714SOL    HW215042   6.880   1.409   6.706
 4715SOL     OW15043   6.022   2.450   1.130
 4715SOL    HW115044   6.072   2.375   1.173
 4715SOL    HW215045   6.054   2.537   1.166
 4716SOL     OW15046   4.814   5.768   5.870
 4716SOL    HW115047   4.912   5.758   5.884
 4716SOL    HW215048   4.769   5.680   5.882
 4717SOL     OW15049   2.030   5.291   5.489
 4717SOL    HW115050   2.073   5.295   5.579
 4717SOL    HW215051   1.936   5.324   5.494
 4718SOL     OW15052   5.017   2.778   1.148
 4718SOL    HW115053   5.039   2.688   1.111
 4718SOL    HW215054   5.096   2.839   1.137
 4719SOL     OW15055   5.525   3.389   3.273
 4719SOL    HW115056   5.567   3.385   3.182
 4719SOL    HW215057   5.442   3.445   3.268
 4720SOL     OW15058   2.727   4.341   6.096
 4720SOL    HW115059   2.705   4.291   6.013
 4720SOL    HW215060   2.724   4.440   6.078
 4721SOL     OW15061   5.956   2.904   1.638
 4721SOL    HW115062   5.924   2.946   1.723
 4721SOL    HW215063   5.919   2.955   1.560
 4722SOL     OW15064   1.306   5.028   0.285
 4722SOL    HW115065   1.285   4.936   0.318
 4722SOL    HW215066   1.381   5.067   0.339
 4723SOL     OW15067   3.305   3.993   5.297
 4723SOL    HW115068   3.396   3.974   5.334
 4723SOL    HW215069   3.262   3.907   5.269
 4724SOL     OW15070   6.854   6.677   3.742
 4724SOL    HW115071   6.909   6.639   3.669
 4724SOL    HW215072   6.848   6.612   3.818
 4725SOL     OW15073   5.978   5.114   0.249
 4725SOL    HW115074   5.971   5.033   0.308
 4725SOL    HW215075   5.935   5.094   0.161
 4726SOL     OW15076   1.269   3.002   5.590
 4726SOL    HW115077   1.302   2.912   5.561
 4726SOL    HW215078   1.242   2.998   5.686
 4727SOL     OW15079   0.551   6.040   0.035
 4727SOL    HW115080   0.533   6.081   6.971
 4727SOL    HW215081   0.536   5.941   0.030
 4728SOL     OW15082   6.480   2.028   2.741
 4728SOL    HW115083   6.578   2.047   2.739
 4728SOL    HW215084   6.438   2.058   2.656
 4729SOL     OW15085   5.122   0.355   0.167
 4729SOL    HW115086   5.178   0.427   0.126
 4729SOL    HW215087   5.079   0.389   0.251
 4730SOL     OW15088   3.569   6.324   4.952
 4730SOL    HW115089   3.612   6.410   4.980
 4730SOL    HW215090   3.640   6.255   4.937
 4731SOL     OW15091   3.413   0.744   0.825
 4731SOL    HW115092   3.436   0.791   0.740
 4731SOL    HW215093   3.360   0.806   0.883
 4732SOL     OW15094   0.863   3.911   5.237
 4732SOL    HW115095   0.775   3.880   5.274
 4732SOL    HW215096   0.937   3.869   5.289
 4733SOL     OW15097   1.797   4.472   3.017
 4733SOL    HW115098   1.732   4.545   2.996
 4733SOL    HW215099   1.884   4.512   3.045
 4734SOL     OW15100   5.347   3.391   6.827
 4734SOL    HW115101   5.375   3.296   6.815
 4734SOL    HW215102   5.276   3.413   6.761
 4735SOL     OW15103   6.836   5.749   3.600
 4735SOL    HW115104   6.819   5.841   3.565
 4735SOL    HW215105   6.912   5.708   3.550
 4736SOL     OW15106   6.074   1.602   4.286
 4736SOL    HW115107   6.058   1.545   4.367
 4736SOL    HW215108   6.171   1.629   4.283
 4737SOL     OW15109   2.128   3.972   0.750
 4737SOL    HW115110   2.122   4.007   0.656
 4737SOL    HW215111   2.222   3.947   0.770
 4738SOL     OW15112   3.653   6.746   3.897
 4738SOL    HW115113   3.559   6.736   3.930
 4738SOL    HW215114   3.657   6.822   3.832
 4739SOL     OW15115   5.791   2.131   4.031
 4739SOL    HW115116   5.799   2.034   4.009
 4739SOL    HW215117   5.789   2.184   3.946
 4740SOL     OW15118   0.537   0.664   1.055
 4740SOL    HW115119   0.538   0.564   1.048
 4740SOL    HW215120   0.618   0.701   1.010
 4741SOL     OW15121   4.462   4.991   1.446
 4741SOL    HW115122   4.396   4.917   1.434
 4741SOL    HW215123   4.545   4.956   1.489
 4742SOL     OW15124   2.719   5.154   1.218
 4742SOL    HW115125   2.685   5.246   1.196
 4742SOL    HW215126   2.773   5.157   1.302
 4743SOL     OW15127   2.549   0.968   5.998
 4743SOL    HW115128   2.586   1.023   5.925
 4743SOL    HW215129   2.476   1.018   6.044
 4744SOL     OW15130   2.433   2.588   5.267
 4744SOL    HW115131   2.494   2.663   5.290
 4744SOL    HW215132   2.415   2.589   5.168
 4745SOL     OW15133   2.695   4.723   5.613
 4745SOL    HW115134   2.738   4.667   5.542
 4745SOL    HW215135   2.648   4.801   5.570
 4746SOL     OW15136   5.594   5.834   0.740
 4746SOL    HW115137   5.598   5.756   0.677
 4746SOL    HW215138   5.687   5.861   0.766
 4747SOL     OW15139   0.885   2.925   6.594
 4747SOL    HW115140   0.900   2.974   6.680
 4747SOL    HW215141   0.792   2.890   6.592
 4748SOL     OW15142   1.412   0.202   1.733
 4748SOL    HW115143   1.442   0.287   1.776
 4748SOL    HW215144   1.380   0.221   1.640
 4749SOL     OW15145   3.126   6.204   6.046
 4749SOL    HW115146   3.149   6.299   6.069
 4749SOL    HW215147   3.035   6.201   6.005
 4750SOL     OW15148   0.103   1.888   4.372
 4750SOL    HW115149   0.162   1.941   4.312
 4750SOL    HW215150   0.151   1.806   4.402
 4751SOL     OW15151   2.038   3.209   0.042
 4751SOL    HW115152   2.098   3.159   0.105
 4751SOL    HW215153   2.094   3.258   7.000
 4752SOL     OW15154   2.860   6.403   0.702
 4752SOL    HW115155   2.907   6.377   0.618
 4752SOL    HW215156   2.924   6.402   0.778
 4753SOL     OW15157   5.788   7.012   4.368
 4753SOL    HW115158   5.762   0.054   4.299
 4753SOL    HW215159   5.719   7.009   4.440
 4754SOL     OW15160   6.002   0.473   6.098
 4754SOL    HW115161   6.086   0.526   6.094
 4754SOL    HW215162   5.962   0.466   6.007
 4755SOL     OW15163   2.609   0.111   6.267
 4755SOL    HW115164   2.563   0.163   6.196
 4755SOL    HW215165   2.611   0.164   6.352
 4756SOL     OW15166   5.863   2.482   1.877
 4756SOL    HW115167   5.935   2.414   1.865
 4756SOL    HW215168   5.788   2.463   1.814
 4757SOL     OW15169   2.407   2.065   1.784
 4757SOL    HW115170   2.425   2.116   1.700
 4757SOL    HW215171   2.309   2.043   1.790
 4758SOL     OW15172   3.713   6.113   4.851
 4758SOL    HW115173   3.746   6.132   4.759
 4758SOL    HW215174   3.687   6.017   4.859
 4759SOL     OW15175   5.179   5.513   4.561
 4759SOL    HW115176   5.105   5.520   4.628
 4759SOL    HW215177   5.171   5.426   4.511
 4760SOL     OW15178   3.095   1.509   1.287
 4760SOL    HW115179   3.184   1.553   1.280
 4760SOL    HW215180   3.093   1.427   1.230
 4761SOL     OW15181   6.866   0.669   6.840
 4761SOL    HW115182   6.947   0.638   6.791
 4761SOL    HW215183   6.817   0.736   6.784
 4762SOL     OW15184   2.145   4.758   3.310
 4762SOL    HW115185   2.147   4.841   3.366
 4762SOL    HW215186   2.170   4.781   3.216
 4763SOL     OW15187   5.797   5.849   3.349
 4763SOL    HW115188   5.765   5.935   3.390
 4763SOL    HW215189   5.766   5.844   3.254
 4764SOL     OW15190   4.610   4.168   5.223
 4764SOL    HW115191   4.651   4.143   5.135
 4764SOL    HW215192   4.661   4.124   5.297
 4765SOL     OW15193   4.696   6.407   4.979
 4765SOL    HW115194   4.774   6.467   4.995
 4765SOL    HW215195   4.728   6.318   4.947
 4766SOL     OW15196   3.861   0.787   4.038
 4766SOL    HW115197   3.827   0.845   4.112
 4766SOL    HW215198   3.961   0.788   4.037
 4767SOL     OW15199   4.297   6.178   0.603
 4767SOL    HW115200   4.363   6.252   0.590
 4767SOL    HW215201   4.321   6.101   0.544
 4768SOL     OW15202   5.576   1.814   5.014
 4768SOL    HW115203   5.510   1.749   5.050
 4768SOL    HW215204   5.648   1.830   5.081
 4769SOL     OW15205   4.344   5.177   1.649
 4769SOL    HW115206   4.293   5.111   1.704
 4769SOL    HW215207   4.364   5.137   1.560
 4770SOL     OW15208   2.228   0.415   3.345
 4770SOL    HW115209   2.252   0.318   3.349
 4770SOL    HW215210   2.148   0.428   3.286
 4771SOL     OW15211   2.978   4.965   6.039
 4771SOL    HW115212   3.025   4.960   6.126
 4771SOL    HW215213   2.883   4.935   6.050
 4772SOL     OW15214   2.516   6.445   1.464
 4772SOL    HW115215   2.440   6.452   1.399
 4772SOL    HW215216   2.554   6.536   1.480
 4773SOL     OW15217   6.801   5.585   4.526
 4773SOL    HW115218   6.705   5.609   4.538
 4773SOL    HW215219   6.832   5.613   4.435
 4774SOL     OW15220   0.644   3.010   2.637
 4774SOL    HW115221   0.621   2.998   2.734
 4774SOL    HW215222   0.658   2.920   2.595
 4775SOL     OW15223   5.592   0.388   3.172
 4775SOL    HW115224   5.677   0.414   3.126
 4775SOL    HW215225   5.545   0.318   3.118
 4776SOL     OW15226   2.324   6.474   2.916
 4776SOL    HW115227   2.355   6.433   3.002
 4776SOL    HW215228   2.227   6.498   2.924
 4777SOL     OW15229   2.370   4.302   1.145
 4777SOL    HW115230   2.374   4.211   1.185
 4777SOL    HW215231   2.342   4.295   1.049
 4778SOL     OW15232   5.664   2.408   1.699
 4778SOL    HW115233   5.602   2.469   1.749
 4778SOL    HW215234   5.635   2.402   1.603
 4779SOL     OW15235   6.159   0.188   1.835
 4779SOL    HW115236   6.219   0.173   1.756
 4779SOL    HW215237   6.208   0.164   1.919
 4780SOL     OW15238   0.709   6.950   6.761
 4780SOL    HW115239   0.787   6.989   6.811
 4780SOL    HW215240   0.672   7.018   6.698
 4781SOL     OW15241   2.674   5.835   1.101
 4781SOL    HW115242   2.705   5.844   1.006
 4781SOL    HW215243   2.653   5.926   1.138
 4782SOL     OW15244   4.756   6.982   0.152
 4782SOL    HW115245   4.665   6.977   0.192
 4782SOL    HW215246   4.779   0.053   0.133
 4783SOL     OW15247   4.303   4.596   0.182
 4783SOL    HW115248   4.251   4.681   0.171
 4783SOL    HW215249   4.239   4.521   0.199
 4784SOL     OW15250   6.172   5.068   6.789
 4784SOL    HW115251   6.194   5.058   6.692
 4784SOL    HW215252   6.219   5.147   6.826
 4785SOL     OW15253   6.671   6.460   1.187
 4785SOL    HW115254   6.714   6.379   1.148
 4785SOL    HW215255   6.728   6.497   1.259
 4786SOL     OW15256   1.800   2.221   2.007
 4786SOL    HW115257   1.870   2.287   2.035
 4786SOL    HW215258   1.787   2.154   2.080
 4787SOL     OW15259   3.556   2.032   3.723
 4787SOL    HW115260   3.514   1.944   3.746
 4787SOL    HW215261   3.651   2.032   3.755
 4788SOL     OW15262   1.626   5.261   6.107
 4788SOL    HW115263   1.618   5.279   6.205
 4788SOL    HW215264   1.541   5.220   6.074
 4789SOL     OW15265   5.521   0.771   0.146
 4789SOL    HW115266   5.454   0.805   0.080
 4789SOL    HW215267   5.597   0.727   0.098
 4790SOL     OW15268   6.107   3.544   0.064
 4790SOL    HW115269   6.138   3.488   7.012
 4790SOL    HW215270   6.135   3.639   0.049
 4791SOL     OW15271   5.926   2.042   1.785
 4791SOL    HW115272   5.838   2.088   1.795
 4791SOL    HW215273   5.992   2.082   1.848
 4792SOL     OW15274   1.824   3.039   2.407
 4792SOL    HW115275   1.727   3.024   2.429
 4792SOL    HW215276   1.863   3.103   2.472
 4793SOL     OW15277   1.109   2.265   5.709
 4793SOL    HW115278   1.202   2.277   5.676
 4793SOL    HW215279   1.076   2.350   5.750
 4794SOL     OW15280   3.834   0.637   3.055
 4794SOL    HW115281   3.735   0.628   3.069
 4794SOL    HW215282   3.869   0.709   3.116
 4795SOL     OW15283   6.831   2.379   3.830
 4795SOL    HW115284   6.908   2.387   3.893
 4795SOL    HW215285   6.757   2.439   3.859
 4796SOL     OW15286   4.900   1.781   6.797
 4796SOL    HW115287   4.965   1.856   6.782
 4796SOL    HW215288   4.833   1.808   6.866
 4797SOL     OW15289   1.555   5.870   5.229
 4797SOL    HW115290   1.571   5.967   5.244
 4797SOL    HW215291   1.459   5.848   5.247
 4798SOL     OW15292   0.438   4.111   5.830
 4798SOL    HW115293   0.416   4.036   5.767
 4798SOL    HW215294   0.475   4.188   5.778
 4799SOL     OW15295   5.094   1.560   5.394
 4799SOL    HW115296   5.192   1.568   5.411
 4799SOL    HW215297   5.046   1.543   5.480
 4800SOL     OW15298   3.026   3.289   6.048
 4800SOL    HW115299   3.063   3.290   5.955
 4800SOL    HW215300   2.953   3.356   6.056
 4801SOL     OW15301   2.525   1.782   0.294
 4801SOL    HW115302   2.566   1.809   0.381
 4801SOL    HW215303   2.427   1.802   0.295
 4802SOL     OW15304   1.258   6.474   1.887
 4802SOL    HW115305   1.242   6.379   1.861
 4802SOL    HW215306   1.340   6.478   1.945
 4803SOL     OW15307   1.060   6.400   0.445
 4803SOL    HW115308   1.146   6.449   0.426
 4803SOL    HW215309   1.074   6.337   0.521
 4804SOL     OW15310   4.335   5.088   6.190
 4804SOL    HW115311   4.418   5.133   6.221
 4804SOL    HW215312   4.303   5.025   6.261
 4805SOL     OW15313   6.683   6.845   0.960
 4805SOL    HW115314   6.727   6.877   1.044
 4805SOL    HW215315   6.653   6.751   0.971
 4806SOL     OW15316   6.560   3.652   3.933
 4806SOL    HW115317   6.470   3.686   3.961
 4806SOL    HW215318   6.582   3.686   3.842
 4807SOL     OW15319   1.332   5.081   1.482
 4807SOL    HW115320   1.347   5.122   1.392
 4807SOL    HW215321   1.365   5.143   1.553
 4808SOL     OW15322   6.085   3.741   0.722
 4808SOL    HW115323   6.005   3.703   0.676
 4808SOL    HW215324   6.056   3.799   0.798
 4809SOL     OW15325   3.786   3.968   0.010
 4809SOL    HW115326   3.766   4.050   6.981
 4809SOL    HW215327   3.791   3.992   0.107
 4810SOL     OW15328   1.892   4.773   1.600
 4810SOL    HW115329   1.852   4.800   1.512
 4810SOL    HW215330   1.818   4.752   1.665
 4811SOL     OW15331   2.448   4.749   2.217
 4811SOL    HW115332   2.405   4.836   2.192
 4811SOL    HW215333   2.531   4.768   2.270
 4812SOL     OW15334   6.874   4.952   5.859
 4812SOL    HW115335   6.863   5.052   5.854
 4812SOL    HW215336   6.837   4.919   5.945
 4813SOL     OW15337   4.908   1.363   1.922
 4813SOL    HW115338   4.892   1.265   1.927
 4813SOL    HW215339   4.981   1.382   1.856
 4814SOL     OW15340   5.714   4.912   0.218
 4814SOL    HW115341   5.683   4.927   0.312
 4814SOL    HW215342   5.662   4.969   0.155
 4815SOL     OW15343   5.542   4.719   2.326
 4815SOL    HW115344   5.494   4.755   2.406
 4815SOL    HW215345   5.504   4.630   2.301
 4816SOL     OW15346   6.041   5.504   2.983
 4816SOL    HW115347   5.974   5.534   2.915
 4816SOL    HW215348   6.101   5.581   3.007
 4817SOL     OW15349   0.299   1.936   6.345
 4817SOL    HW115350   0.367   2.008   6.336
 4817SOL    HW215351   0.218   1.972   6.392
 4818SOL     OW15352   1.257   6.903   4.233
 4818SOL    HW115353   1.350   6.870   4.216
 4818SOL    HW215354   1.236   6.895   4.330
 4819SOL     OW15355   1.646   3.017   0.590
 4819SOL    HW115356   1.740   2.986   0.601
 4819SOL    HW215357   1.608   3.043   0.679
 4820SOL     OW15358   0.270   2.800   1.830
 4820SOL    HW115359   0.212   2.841   1.760
 4820SOL    HW215360   0.345   2.863   1.852
 4821SOL     OW15361   1.127   5.937   2.260
 4821SOL    HW115362   1.082   5.970   2.177
 4821SOL    HW215363   1.078   5.970   2.340
 4822SOL     OW15364   1.457   3.826   4.187
 4822SOL    HW115365   1.430   3.914   4.147
 4822SOL    HW215366   1.401   3.807   4.267
 4823SOL     OW15367   1.442   1.896   2.482
 4823SOL    HW115368   1.506   1.860   2.550
 4823SOL    HW215369   1.364   1.834   2.474
 4824SOL     OW15370   5.173   1.975   5.506
 4824SOL    HW115371   5.089   1.947   5.554
 4824SOL    HW215372   5.195   1.908   5.435
 4825SOL     OW15373   0.965   1.329   4.343
 4825SOL    HW115374   0.987   1.415   4.389
 4825SOL    HW215375   1.042   1.266   4.350
 4826SOL     OW15376   5.050   0.466   0.460
 4826SOL    HW115377   5.004   0.537   0.407
 4826SOL    HW215378   4.982   0.404   0.499
 4827SOL     OW15379   6.344   1.744   0.344
 4827SOL    HW115380   6.284   1.816   0.307
 4827SOL    HW215381   6.413   1.720   0.276
 4828SOL     OW15382   4.510   0.642   1.405
 4828SOL    HW115383   4.562   0.556   1.398
 4828SOL    HW215384   4.435   0.640   1.339
 4829SOL     OW15385   3.961   6.355   6.366
 4829SOL    HW115386   3.954   6.351   6.267
 4829SOL    HW215387   4.033   6.419   6.392
 4830SOL     OW15388   3.889   5.860   3.724
 4830SOL    HW115389   3.865   5.842   3.629
 4830SOL    HW215390   3.881   5.775   3.777
 4831SOL     OW15391   2.612   4.951   5.492
 4831SOL    HW115392   2.559   5.032   5.469
 4831SOL    HW215393   2.709   4.968   5.476
 4832SOL     OW15394   3.913   3.382   4.223
 4832SOL    HW115395   3.843   3.441   4.262
 4832SOL    HW215396   4.003   3.424   4.235
 4833SOL     OW15397   5.634   1.958   3.740
 4833SOL    HW115398   5.703   1.889   3.721
 4833SOL    HW215399   5.577   1.972   3.659
 4834SOL     OW15400   2.674   6.015   2.082
 4834SOL    HW115401   2.701   5.926   2.044
 4834SOL    HW215402   2.754   6.061   2.120
 4835SOL     OW15403   6.225   3.272   6.015
 4835SOL    HW115404   6.163   3.321   6.077
 4835SOL    HW215405   6.211   3.174   6.024
 4836SOL     OW15406   4.812   1.431   5.401
 4836SOL    HW115407   4.849   1.477   5.482
 4836SOL    HW215408   4.865   1.458   5.321
 4837SOL     OW15409   6.606   3.345   2.873
 4837SOL    HW115410   6.673   3.285   2.830
 4837SOL    HW215411   6.589   3.314   2.967
 4838SOL     OW15412   1.477   5.160   6.478
 4838SOL    HW115413   1.529   5.225   6.423
 4838SOL    HW215414   1.528   5.075   6.486
 4839SOL     OW15415   1.323   3.416   0.331
 4839SOL    HW115416   1.344   3.342   0.394
 4839SOL    HW215417   1.256   3.384   0.264
 4840SOL     OW15418   5.039   4.150   5.377
 4840SOL    HW115419   5.113   4.083   5.382
 4840SOL    HW215420   5.075   4.237   5.344
 4841SOL     OW15421   2.920   5.338   2.919
 4841SOL    HW115422   2.834   5.308   2.961
 4841SOL    HW215423   2.931   5.436   2.934
 4842SOL     OW15424   2.153   5.556   3.325
 4842SOL    HW115425   2.157   5.501   3.241
 4842SOL    HW215426   2.241   5.601   3.340
 4843SOL     OW15427   6.651   2.809   2.030
 4843SOL    HW115428   6.626   2.905   2.024
 4843SOL    HW215429   6.642   2.779   2.125
 4844SOL     OW15430   1.374   3.803   5.710
 4844SOL    HW115431   1.463   3.771   5.677
 4844SOL    HW215432   1.306   3.730   5.698
 4845SOL     OW15433   4.578   4.764   5.182
 4845SOL    HW115434   4.573   4.852   5.229
 4845SOL    HW215435   4.626   4.775   5.095
 4846SOL     OW15436   0.311   2.208   3.446
 4846SOL    HW115437   0.238   2.170   3.503
 4846SOL    HW215438   0.352   2.135   3.391
 4847SOL     OW15439   2.521   0.334   5.675
 4847SOL    HW115440   2.509   0.278   5.593
 4847SOL    HW215441   2.614   0.369   5.679
 4848SOL     OW15442   2.036   1.570   3.406
 4848SOL    HW115443   2.030   1.471   3.391
 4848SOL    HW215444   2.102   1.609   3.342
 4849SOL     OW15445   1.841   6.963   0.851
 4849SOL    HW115446   1.772   6.950   0.780
 4849SOL    HW215447   1.822   0.022   0.901
 4850SOL     OW15448   4.645   0.463   1.116
 4850SOL    HW115449   4.564   0.521   1.102
 4850SOL    HW215450   4.642   0.422   1.207
 4851SOL     OW15451   3.622   5.393   6.731
 4851SOL    HW115452   3.699   5.368   6.672
 4851SOL    HW215453   3.539   5.401   6.676
 4852SOL     OW15454   3.373   5.765   4.459
 4852SOL    HW115455   3.340   5.860   4.455
 4852SOL    HW215456   3.337   5.715   4.380
 4853SOL     OW15457   3.415   0.850   2.886
 4853SOL    HW115458   3.438   0.932   2.939
 4853SOL    HW215459   3.421   0.871   2.788
 4854SOL     OW15460   5.746   6.627   1.722
 4854SOL    HW115461   5.664   6.679   1.746
 4854SOL    HW215462   5.789   6.668   1.641
 4855SOL     OW15463   0.202   3.409   4.836
 4855SOL    HW115464   0.222   3.493   4.786
 4855SOL    HW215465   0.270   3.396   4.908
 4856SOL     OW15466   0.329   3.755   2.488
 4856SOL    HW115467   0.304   3.818   2.562
 4856SOL    HW215468   0.378   3.677   2.527
 4857SOL     OW15469   3.478   2.151   4.093
 4857SOL    HW115470   3.572   2.181   4.083
 4857SOL    HW215471   3.456   2.138   4.190
 4858SOL     OW15472   0.754   0.311   4.904
 4858SOL    HW115473   0.829   0.367   4.939
 4858SOL    HW215474   0.713   0.260   4.980
 4859SOL     OW15475   1.170   5.279   1.904
 4859SOL    HW115476   1.230   5.359   1.901
 4859SOL    HW215477   1.226   5.196   1.907
 4860SOL     OW15478   3.838   4.946   6.953
 4860SOL    HW115479   3.831   4.892   6.869
 4860SOL    HW215480   3.882   5.034   6.933
 4861SOL     OW15481   6.627   4.787   5.717
 4861SOL    HW115482   6.680   4.821   5.795
 4861SOL    HW215483   6.612   4.689   5.727
 4862SOL     OW15484   2.722   4.748   4.752
 4862SOL    HW115485   2.689   4.691   4.826
 4862SOL    HW215486   2.807   4.793   4.780
 4863SOL     OW15487   4.919   3.352   2.550
 4863SOL    HW115488   4.905   3.451   2.553
 4863SOL    HW215489   4.843   3.310   2.500
 4864SOL     OW15490   3.245   1.570   1.840
 4864SOL    HW115491   3.297   1.653   1.860
 4864SOL    HW215492   3.305   1.490   1.849
 4865SOL     OW15493   3.474   5.114   5.760
 4865SOL    HW115494   3.416   5.090   5.683
 4865SOL    HW215495   3.430   5.187   5.813
 4866SOL     OW15496   6.316   4.785   1.890
 4866SOL    HW115497   6.219   4.773   1.872
 4866SOL    HW215498   6.335   4.883   1.903
 4867SOL     OW15499   4.937   5.465   3.252
 4867SOL    HW115500   4.863   5.532   3.246
 4867SOL    HW215501   4.921   5.403   3.329
 4868SOL     OW15502   0.774   5.496   1.379
 4868SOL    HW115503   0.859   5.549   1.377
 4868SOL    HW215504   0.724   5.508   1.293
 4869SOL     OW15505   0.329   2.219   0.562
 4869SOL    HW115506   0.335   2.159   0.482
 4869SOL    HW215507   0.239   2.208   0.605
 4870SOL     OW15508   4.046   6.026   1.895
 4870SOL    HW115509   4.070   5.929   1.886
 4870SOL    HW215510   4.063   6.072   1.808
 4871SOL     OW15511   1.520   1.464   3.247
 4871SOL    HW115512   1.429   1.498   3.225
 4871SOL    HW215513   1.570   1.447   3.162
 4872SOL     OW15514   0.790   0.003   2.833
 4872SOL    HW115515   0.784   0.070   2.907
 4872SOL    HW215516   0.881   0.008   2.792
 4873SOL     OW15517   7.019   4.913   5.202
 4873SOL    HW115518   6.996   4.871   5.115
 4873SOL    HW215519   6.974   4.864   5.276
 4874SOL     OW15520   5.411   3.912   2.327
 4874SOL    HW115521   5.507   3.914   2.302
 4874SOL    HW215522   5.395   3.974   2.404
 4875SOL     OW15523   5.568   1.116   1.187
 4875SOL    HW115524   5.650   1.065   1.214
 4875SOL    HW215525   5.582   1.155   1.096
 4876SOL     OW15526   5.842   0.178   6.033
 4876SOL    HW115527   5.884   0.099   6.078
 4876SOL    HW215528   5.771   0.215   6.092
 4877SOL     OW15529   6.508   1.826   0.958
 4877SOL    HW115530   6.445   1.750   0.942
 4877SOL    HW215531   6.533   1.869   0.871
 4878SOL     OW15532   0.132   1.761   1.733
 4878SOL    HW115533   0.134   1.670   1.693
 4878SOL    HW215534   0.184   1.761   1.819
 4879SOL     OW15535   4.294   4.729   2.852
 4879SOL    HW115536   4.211   4.704   2.802
 4879SOL    HW215537   4.371   4.675   2.819
 4880SOL     OW15538   5.252   1.644   0.408
 4880SOL    HW115539   5.281   1.549   0.398
 4880SOL    HW215540   5.317   1.704   0.361
 4881SOL     OW15541   2.889   6.181   5.900
 4881SOL    HW115542   2.906   6.128   5.817
 4881SOL    HW215543   2.807   6.236   5.888
 4882SOL     OW15544   6.448   1.470   5.237
 4882SOL    HW115545   6.511   1.529   5.185
 4882SOL    HW215546   6.439   1.505   5.330
 4883SOL     OW15547   5.897   4.244   2.588
 4883SOL    HW115548   5.920   4.299   2.668
 4883SOL    HW215549   5.896   4.303   2.507
 4884SOL     OW15550   4.666   0.369   1.694
 4884SOL    HW115551   4.719   0.284   1.696
 4884SOL    HW215552   4.623   0.380   1.605
 4885SOL     OW15553   1.936   6.536   1.371
 4885SOL    HW115554   1.860   6.477   1.346
 4885SOL    HW215555   1.957   6.598   1.295
 4886SOL     OW15556   7.019   6.445   6.819
 4886SOL    HW115557   7.013   6.536   6.778
 4886SOL    HW215558   0.071   6.443   6.883
 4887SOL     OW15559   6.787   2.112   3.904
 4887SOL    HW115560   6.787   2.202   3.861
 4887SOL    HW215561   6.747   2.119   3.996
 4888SOL     OW15562   1.831   6.463   3.239
 4888SOL    HW115563   1.832   6.561   3.219
 4888SOL    HW215564   1.755   6.443   3.301
 4889SOL     OW15565   1.229   2.046   0.599
 4889SOL    HW115566   1.135   2.081   0.596
 4889SOL    HW215567   1.267   2.044   0.507
 4890SOL     OW15568   0.583   1.548   4.256
 4890SOL    HW115569   0.653   1.551   4.185
 4890SOL    HW215570   0.624   1.516   4.342
 4891SOL     OW15571   0.887   4.737   0.522
 4891SOL    HW115572   0.857   4.690   0.605
 4891SOL    HW215573   0.973   4.785   0.541
 4892SOL     OW15574   1.590   5.867   1.988
 4892SOL    HW115575   1.544   5.924   2.057
 4892SOL    HW215576   1.633   5.926   1.920
 4893SOL     OW15577   6.688   4.406   6.819
 4893SOL    HW115578   6.760   4.368   6.876
 4893SOL    HW215579   6.622   4.335   6.796
 4894SOL     OW15580   1.927   0.277   3.389
 4894SOL    HW115581   1.980   0.279   3.304
 4894SOL    HW215582   1.833   0.248   3.369
 4895SOL     OW15583   1.291   3.699   0.556
 4895SOL    HW115584   1.356   3.622   0.558
 4895SOL    HW215585   1.198   3.664   0.548
 4896SOL     OW15586   3.126   5.375   3.788
 4896SOL    HW115587   3.062   5.303   3.762
 4896SOL    HW215588   3.117   5.452   3.725
 4897SOL     OW15589   3.472   4.641   6.596
 4897SOL    HW115590   3.446   4.559   6.646
 4897SOL    HW215591   3.556   4.625   6.546
 4898SOL     OW15592   5.785   2.225   5.149
 4898SOL    HW115593   5.691   2.192   5.153
 4898SOL    HW215594   5.841   2.172   5.212
 4899SOL     OW15595   6.259   4.976   2.538
 4899SOL    HW115596   6.292   5.055   2.486
 4899SOL    HW215597   6.334   4.911   2.551
 4900SOL     OW15598   0.185   6.503   5.643
 4900SOL    HW115599   0.194   6.576   5.575
 4900SOL    HW215600   0.088   6.486   5.660
 4901SOL     OW15601   1.557   0.398   4.259
 4901SOL    HW115602   1.501   0.323   4.224
 4901SOL    HW215603   1.598   0.447   4.183
 4902SOL     OW15604   1.492   4.266   2.350
 4902SOL    HW115605   1.400   4.298   2.329
 4902SOL    HW215606   1.497   4.236   2.445
 4903SOL     OW15607   3.761   6.690   6.836
 4903SOL    HW115608   3.720   6.602   6.813
 4903SOL    HW215609   3.696   6.763   6.815
 4904SOL     OW15610   1.889   5.707   4.527
 4904SOL    HW115611   1.931   5.624   4.492
 4904SOL    HW215612   1.871   5.770   4.452
 4905SOL     OW15613   4.636   2.570   2.172
 4905SOL    HW115614   4.568   2.513   2.127
 4905SOL    HW215615   4.701   2.606   2.104
 4906SOL     OW15616   4.605   0.005   0.566
 4906SOL    HW115617   4.584   0.092   0.610
 4906SOL    HW215618   4.704   7.021   0.553
 4907SOL     OW15619   3.999   6.577   3.327
 4907SOL    HW115620   3.913   6.608   3.286
 4907SOL    HW215621   3.983   6.491   3.376
 4908SOL     OW15622   3.934   5.702   6.902
 4908SOL    HW115623   3.851   5.707   6.847
 4908SOL    HW215624   4.014   5.702   6.841
 4909SOL     OW15625   6.191   6.879   5.527
 4909SOL    HW115626   6.265   6.811   5.525
 4909SOL    HW215627   6.213   6.953   5.464
 4910SOL     OW15628   4.959   0.372   5.372
 4910SOL    HW115629   4.866   0.338   5.366
 4910SOL    HW215630   5.024   0.297   5.358
 4911SOL     OW15631   0.059   1.869   6.004
 4911SOL    HW115632   0.121   1.862   6.082
 4911SOL    HW215633   0.086   1.945   5.946
 4912SOL     OW15634   4.140   1.762   2.325
 4912SOL    HW115635   4.111   1.685   2.267
 4912SOL    HW215636   4.161   1.841   2.267
 4913SOL     OW15637   3.291   4.118   3.518
 4913SOL    HW115638   3.302   4.204   3.569
 4913SOL    HW215639   3.249   4.050   3.578
 4914SOL     OW15640   2.797   0.661   4.367
 4914SOL    HW115641   2.810   0.752   4.327
 4914SOL    HW215642   2.852   0.652   4.450
 4915SOL     OW15643   4.334   6.580   4.308
 4915SOL    HW115644   4.345   6.673   4.271
 4915SOL    HW215645   4.346   6.583   4.407
 4916SOL     OW15646   2.760   2.144   3.068
 4916SOL    HW115647   2.737   2.206   2.994
 4916SOL    HW215648   2.779   2.196   3.151
 4917SOL     OW15649   1.584   4.026   1.077
 4917SOL    HW115650   1.637   4.001   1.159
 4917SOL    HW215651   1.643   4.023   0.997
 4918SOL     OW15652   2.714   0.422   2.641
 4918SOL    HW115653   2.650   0.386   2.573
 4918SOL    HW215654   2.664   0.450   2.722
 4919SOL     OW15655   1.552   1.700   2.876
 4919SOL    HW115656   1.559   1.601   2.862
 4919SOL    HW215657   1.581   1.747   2.793
 4920SOL     OW15658   4.281   0.645   0.380
 4920SOL    HW115659   4.285   0.547   0.359
 4920SOL    HW215660   4.361   0.671   0.434
 4921SOL     OW15661   2.251   3.706   1.628
 4921SOL    HW115662   2.187   3.761   1.681
 4921SOL    HW215663   2.240   3.610   1.652
 4922SOL     OW15664   1.454   3.275   5.345
 4922SOL    HW115665   1.515   3.196   5.341
 4922SOL    HW215666   1.391   3.272   5.267
 4923SOL     OW15667   5.347   6.970   1.978
 4923SOL    HW115668   5.369   6.886   1.929
 4923SOL    HW215669   5.261   6.958   2.028
 4924SOL     OW15670   1.837   3.582   4.370
 4924SOL    HW115671   1.807   3.676   4.354
 4924SOL    HW215672   1.798   3.549   4.456
 4925SOL     OW15673   5.278   6.352   1.019
 4925SOL    HW115674   5.333   6.384   1.096
 4925SOL    HW215675   5.200   6.413   1.007
 4926SOL     OW15676   5.642   3.065   1.472
 4926SOL    HW115677   5.673   3.141   1.529
 4926SOL    HW215678   5.718   3.034   1.414
 4927SOL     OW15679   3.648   2.933   2.607
 4927SOL    HW115680   3.690   2.949   2.519
 4927SOL    HW215681   3.552   2.905   2.594
 4928SOL     OW15682   0.118   6.932   6.518
 4928SOL    HW115683   0.125   6.966   6.611
 4928SOL    HW215684   0.196   6.872   6.498
 4929SOL     OW15685   0.907   4.172   5.345
 4929SOL    HW115686   0.846   4.199   5.270
 4929SOL    HW215687   0.907   4.072   5.353
 4930SOL     OW15688   0.743   1.125   0.494
 4930SOL    HW115689   0.700   1.106   0.582
 4930SOL    HW215690   0.764   1.222   0.488
 4931SOL     OW15691   0.578   0.531   6.791
 4931SOL    HW115692   0.540   0.563   6.704
 4931SOL    HW215693   0.553   0.435   6.805
 4932SOL     OW15694   2.456   2.738   1.810
 4932SOL    HW115695   2.535   2.681   1.788
 4932SOL    HW215696   2.427   2.788   1.728
 4933SOL     OW15697   2.585   1.517   4.101
 4933SOL    HW115698   2.649   1.443   4.079
 4933SOL    HW215699   2.547   1.502   4.192
 4934SOL     OW15700   0.674   5.242   4.359
 4934SOL    HW115701   0.705   5.180   4.431
 4934SOL    HW215702   0.594   5.293   4.391
 4935SOL     OW15703   1.486   1.247   6.236
 4935SOL    HW115704   1.569   1.199   6.206
 4935SOL    HW215705   1.498   1.277   6.330
 4936SOL     OW15706   2.771   5.859   1.489
 4936SOL    HW115707   2.752   5.803   1.408
 4936SOL    HW215708   2.705   5.934   1.494
 4937SOL     OW15709   0.880   3.701   6.319
 4937SOL    HW115710   0.940   3.780   6.337
 4937SOL    HW215711   0.906   3.659   6.233
 4938SOL     OW15712   3.297   4.344   1.568
 4938SOL    HW115713   3.217   4.404   1.574
 4938SOL    HW215714   3.374   4.387   1.615
 4939SOL     OW15715   2.056   1.788   1.664
 4939SOL    HW115716   2.104   1.768   1.750
 4939SOL    HW215717   1.979   1.850   1.683
 4940SOL     OW15718   6.718   2.166   4.997
 4940SOL    HW115719   6.788   2.236   5.008
 4940SOL    HW215720   6.675   2.147   5.085
 4941SOL     OW15721   4.074   2.439   5.391
 4941SOL    HW115722   4.107   2.464   5.482
 4941SOL    HW215723   4.108   2.505   5.323
 4942SOL     OW15724   5.646   3.118   4.181
 4942SOL    HW115725   5.695   3.140   4.265
 4942SOL    HW215726   5.622   3.020   4.181
 4943SOL     OW15727   5.784   3.491   6.864
 4943SOL    HW115728   5.792   3.455   6.957
 4943SOL    HW215729   5.691   3.480   6.831
 4944SOL     OW15730   1.990   4.666   0.659
 4944SOL    HW115731   1.908   4.700   0.612
 4944SOL    HW215732   1.977   4.674   0.758
 4945SOL     OW15733   2.016   1.178   5.227
 4945SOL    HW115734   2.047   1.232   5.306
 4945SOL    HW215735   2.056   1.086   5.231
 4946SOL     OW15736   1.231   4.366   0.048
 4946SOL    HW115737   1.147   4.313   0.056
 4946SOL    HW215738   1.239   4.403   6.980
 4947SOL     OW15739   2.621   0.660   2.394
 4947SOL    HW115740   2.606   0.743   2.341
 4947SOL    HW215741   2.627   0.683   2.491
 4948SOL     OW15742   1.853   2.418   2.375
 4948SOL    HW115743   1.790   2.380   2.443
 4948SOL    HW215744   1.898   2.499   2.412
 4949SOL     OW15745   6.644   3.465   6.020
 4949SOL    HW115746   6.705   3.530   6.065
 4949SOL    HW215747   6.559   3.458   6.072
 4950SOL     OW15748   2.339   4.379   5.271
 4950SOL    HW115749   2.349   4.419   5.180
 4950SOL    HW215750   2.249   4.402   5.308
 4951SOL     OW15751   6.303   6.072   3.987
 4951SOL    HW115752   6.275   6.158   3.944
 4951SOL    HW215753   6.398   6.080   4.017
 4952SOL     OW15754   0.050   0.638   6.658
 4952SOL    HW115755   0.109   0.601   6.586
 4952SOL    HW215756   0.018   0.729   6.631
 4953SOL     OW15757   1.565   2.069   4.515
 4953SOL    HW115758   1.486   2.052   4.456
 4953SOL    HW215759   1.635   1.999   4.497
 4954SOL     OW15760   2.244   4.172   5.531
 4954SOL    HW115761   2.250   4.099   5.462
 4954SOL    HW215762   2.193   4.249   5.493
 4955SOL     OW15763   2.808   5.299   0.364
 4955SOL    HW115764   2.893   5.262   0.328
 4955SOL    HW215765   2.741   5.226   0.374
 4956SOL     OW15766   2.855   0.563   5.364
 4956SOL    HW115767   2.949   0.597   5.368
 4956SOL    HW215768   2.851   0.484   5.303
 4957SOL     OW15769   5.899   3.942   0.021
 4957SOL    HW115770   5.924   3.955   6.950
 4957SOL    HW215771   5.812   3.893   0.026
 4958SOL     OW15772   1.960   6.056   5.390
 4958SOL    HW115773   1.866   6.038   5.418
 4958SOL    HW215774   1.963   6.078   5.293
 4959SOL     OW15775   6.945   2.171   1.277
 4959SOL    HW115776   7.002   2.243   1.237
 4959SOL    HW215777   6.898   2.208   1.357
 4960SOL     OW15778   3.995   5.057   3.806
 4960SOL    HW115779   4.084   5.040   3.764
 4960SOL    HW215780   3.981   5.155   3.818
 4961SOL     OW15781   2.974   1.039   6.883
 4961SOL    HW115782   3.012   1.117   6.932
 4961SOL    HW215783   2.888   1.011   6.926
 4962SOL     OW15784   6.492   2.426   0.527
 4962SOL    HW115785   6.498   2.326   0.527
 4962SOL    HW215786   6.444   2.456   0.444
 4963SOL     OW15787   1.240   5.549   0.704
 4963SOL    HW115788   1.192   5.616   0.647
 4963SOL    HW215789   1.210   5.558   0.799
 4964SOL     OW15790   2.433   6.798   4.555
 4964SOL    HW115791   2.462   6.813   4.460
 4964SOL    HW215792   2.427   6.886   4.602
 4965SOL     OW15793   1.211   6.876   2.866
 4965SOL    HW115794   1.144   6.809   2.835
 4965SOL    HW215795   1.247   6.848   2.955
 4966SOL     OW15796   2.664   5.889   4.392
 4966SOL    HW115797   2.754   5.910   4.430
 4966SOL    HW215798   2.596   5.953   4.428
 4967SOL     OW15799   3.697   4.506   5.582
 4967SOL    HW115800   3.603   4.532   5.561
 4967SOL    HW215801   3.715   4.415   5.544
 4968SOL     OW15802   0.232   0.917   4.317
 4968SOL    HW115803   0.322   0.892   4.354
 4968SOL    HW215804   0.169   0.934   4.392
 4969SOL     OW15805   0.163   6.510   2.499
 4969SOL    HW115806   0.179   6.544   2.406
 4969SOL    HW215807   0.076   6.462   2.503
 4970SOL     OW15808   1.972   1.144   1.783
 4970SOL    HW115809   1.908   1.134   1.859
 4970SOL    HW215810   2.033   1.065   1.779
 4971SOL     OW15811   6.273   5.907   2.867
 4971SOL    HW115812   6.251   5.810   2.857
 4971SOL    HW215813   6.211   5.948   2.934
 4972SOL     OW15814   1.144   4.218   1.051
 4972SOL    HW115815   1.145   4.307   1.097
 4972SOL    HW215816   1.218   4.161   1.088
 4973SOL     OW15817   0.201   0.369   1.939
 4973SOL    HW115818   0.132   0.420   1.887
 4973SOL    HW215819   0.204   0.274   1.906
 4974SOL     OW15820   5.047   4.270   6.533
 4974SOL    HW115821   5.117   4.342   6.530
 4974SOL    HW215822   5.017   4.257   6.627
 4975SOL     OW15823   4.992   3.761   0.984
 4975SOL    HW115824   4.971   3.663   0.982
 4975SOL    HW215825   5.092   3.773   0.987
 4976SOL     OW15826   0.791   0.848   4.486
 4976SOL    HW115827   0.737   0.932   4.478
 4976SOL    HW215828   0.748   0.776   4.432
 4977SOL     OW15829   3.673   3.740   6.847
 4977SOL    HW115830   3.740   3.770   6.915
 4977SOL    HW215831   3.665   3.809   6.775
 4978SOL     OW15832   4.814   4.751   5.507
 4978SOL    HW115833   4.721   4.715   5.502
 4978SOL    HW215834   4.818   4.823   5.576
 4979SOL     OW15835   0.652   6.842   0.108
 4979SOL    HW115836   0.714   6.880   0.177
 4979SOL    HW215837   0.615   6.916   0.052
 4980SOL     OW15838   6.577   4.598   2.926
 4980SOL    HW115839   6.585   4.696   2.907
 4980SOL    HW215840   6.607   4.579   3.019
 4981SOL     OW15841   3.224   5.434   2.099
 4981SOL    HW115842   3.313   5.390   2.098
 4981SOL    HW215843   3.216   5.495   2.020
 4982SOL     OW15844   4.222   1.594   6.599
 4982SOL    HW115845   4.251   1.684   6.566
 4982SOL    HW215846   4.159   1.605   6.675
 4983SOL     OW15847   6.024   4.938   3.991
 4983SOL    HW115848   6.115   4.901   3.972
 4983SOL    HW215849   5.984   4.891   4.069
 4984SOL     OW15850   4.738   4.146   2.755
 4984SOL    HW115851   4.678   4.203   2.810
 4984SOL    HW215852   4.833   4.173   2.771
 4985SOL     OW15853   4.949   6.257   2.704
 4985SOL    HW115854   5.035   6.209   2.722
 4985SOL    HW215855   4.940   6.335   2.767
 4986SOL     OW15856   6.640   4.829   1.235
 4986SOL    HW115857   6.587   4.769   1.295
 4986SOL    HW215858   6.680   4.903   1.288
 4987SOL     OW15859   0.863   6.271   2.880
 4987SOL    HW115860   0.893   6.363   2.855
 4987SOL    HW215861   0.766   6.272   2.903
 4988SOL     OW15862   6.279   1.013   3.385
 4988SOL    HW115863   6.213   1.044   3.453
 4988SOL    HW215864   6.358   0.971   3.431
 4989SOL     OW15865   4.814   0.618   1.654
 4989SOL    HW115866   4.765   0.531   1.658
 4989SOL    HW215867   4.855   0.637   1.744
 4990SOL     OW15868   3.790   1.987   6.943
 4990SOL    HW115869   3.871   1.943   6.904
 4990SOL    HW215870   3.796   2.086   6.928
 4991SOL     OW15871   0.066   5.823   4.075
 4991SOL    HW115872   0.120   5.906   4.091
 4991SOL    HW215873   6.996   5.848   4.054
 4992SOL     OW15874   6.345   1.808   2.850
 4992SOL    HW115875   6.384   1.889   2.806
 4992SOL    HW215876   6.246   1.817   2.853
 4993SOL     OW15877   4.128   6.734   4.787
 4993SOL    HW115878   4.200   6.665   4.800
 4993SOL    HW215879   4.051   6.712   4.847
 4994SOL     OW15880   2.101   5.370   4.999
 4994SOL    HW115881   2.074   5.465   4.979
 4994SOL    HW215882   2.144   5.367   5.089
 4995SOL     OW15883   0.545   0.718   4.971
 4995SOL    HW115884   0.641   0.702   4.994
 4995SOL    HW215885   0.490   0.713   5.054
 4996SOL     OW15886   0.034   1.591   3.444
 4996SOL    HW115887   0.110   1.621   3.501
 4996SOL    HW215888   0.068   1.559   3.356
 4997SOL     OW15889   3.623   2.585   1.430
 4997SOL    HW115890   3.530   2.616   1.408
 4997SOL    HW215891   3.634   2.581   1.529
 4998SOL     OW15892   1.775   3.580   3.510
 4998SOL    HW115893   1.856   3.566   3.452
 4998SOL    HW215894   1.719   3.497   3.509
 4999SOL     OW15895   0.372   3.321   5.050
 4999SOL    HW115896   0.377   3.413   5.088
 4999SOL    HW215897   0.354   3.256   5.124
 5000SOL     OW15898   3.079   6.521   3.439
 5000SOL    HW115899   3.008   6.453   3.422
 5000SOL    HW215900   3.039   6.613   3.436
 5001SOL     OW15901   0.323   5.882   2.500
 5001SOL    HW115902   0.319   5.952   2.429
 5001SOL    HW215903   0.394   5.816   2.478
 5002SOL     OW15904   0.610   4.664   2.401
 5002SOL    HW115905   0.607   4.635   2.497
 5002SOL    HW215906   0.526   4.714   2.379
 5003SOL     OW15907   3.935   6.243   3.053
 5003SOL    HW115908   4.018   6.215   3.004
 5003SOL    HW215909   3.920   6.340   3.039
 5004SOL     OW15910   2.512   5.423   5.431
 5004SOL    HW115911   2.553   5.411   5.521
 5004SOL    HW215912   2.537   5.513   5.394
 5005SOL     OW15913   2.445   3.034   6.082
 5005SOL    HW115914   2.360   3.013   6.130
 5005SOL    HW215915   2.442   3.128   6.049
 5006SOL     OW15916   5.517   0.921   2.243
 5006SOL    HW115917   5.428   0.956   2.275
 5006SOL    HW215918   5.590   0.959   2.300
 5007SOL     OW15919   6.875   0.495   1.038
 5007SOL    HW115920   6.970   0.516   1.061
 5007SOL    HW215921   6.848   0.547   0.956
 5008SOL     OW15922   6.426   5.625   1.234
 5008SOL    HW115923   6.510   5.678   1.222
 5008SOL    HW215924   6.348   5.676   1.199
 5009SOL     OW15925   1.131   2.810   0.461
 5009SOL    HW115926   1.215   2.812   0.515
 5009SOL    HW215927   1.124   2.894   0.407
 5010SOL     OW15928   3.882   2.287   0.622
 5010SOL    HW115929   3.847   2.247   0.537
 5010SOL    HW215930   3.973   2.327   0.605
 5011SOL     OW15931   2.347   4.121   1.506
 5011SOL    HW115932   2.276   4.060   1.470
 5011SOL    HW215933   2.423   4.126   1.441
 5012SOL     OW15934   6.039   3.099   5.199
 5012SOL    HW115935   6.105   3.138   5.135
 5012SOL    HW215936   5.982   3.172   5.236
 5013SOL     OW15937   5.767   0.625   5.618
 5013SOL    HW115938   5.771   0.618   5.518
 5013SOL    HW215939   5.735   0.538   5.656
 5014SOL     OW15940   6.848   4.352   7.022
 5014SOL    HW115941   6.789   4.354   0.077
 5014SOL    HW215942   6.943   4.369   0.026
 5015SOL     OW15943   5.331   0.671   4.545
 5015SOL    HW115944   5.379   0.583   4.542
 5015SOL    HW215945   5.248   0.665   4.490
 5016SOL     OW15946   0.916   2.762   4.649
 5016SOL    HW115947   0.916   2.859   4.624
 5016SOL    HW215948   0.865   2.710   4.581
 5017SOL     OW15949   1.137   2.361   1.121
 5017SOL    HW115950   1.209   2.328   1.183
 5017SOL    HW215951   1.172   2.438   1.068
 5018SOL     OW15952   1.605   5.038   2.444
 5018SOL    HW115953   1.587   4.941   2.463
 5018SOL    HW215954   1.684   5.046   2.383
 5019SOL     OW15955   2.359   5.875   6.019
 5019SOL    HW115956   2.439   5.815   6.022
 5019SOL    HW215957   2.289   5.834   5.960
 5020SOL     OW15958   0.256   6.710   5.463
 5020SOL    HW115959   0.196   6.772   5.514
 5020SOL    HW215960   0.313   6.763   5.401
 5021SOL     OW15961   1.413   0.714   1.691
 5021SOL    HW115962   1.314   0.713   1.678
 5021SOL    HW215963   1.457   0.670   1.613
 5022SOL     OW15964   1.011   2.641   1.215
 5022SOL    HW115965   1.047   2.682   1.131
 5022SOL    HW215966   0.974   2.712   1.274
 5023SOL     OW15967   0.128   4.288   1.530
 5023SOL    HW115968   0.150   4.370   1.476
 5023SOL    HW215969   0.030   4.268   1.521
 5024SOL     OW15970   5.942   5.028   0.679
 5024SOL    HW115971   5.978   5.106   0.729
 5024SOL    HW215972   5.853   5.051   0.640
 5025SOL     OW15973   4.205   1.747   3.651
 5025SOL    HW115974   4.236   1.791   3.566
 5025SOL    HW215975   4.105   1.744   3.653
 5026SOL     OW15976   7.001   5.330   4.869
 5026SOL    HW115977   0.016   5.358   4.957
 5026SOL    HW215978   6.925   5.268   4.886
 5027SOL     OW15979   6.007   0.552   1.581
 5027SOL    HW115980   5.977   0.599   1.497
 5027SOL    HW215981   5.946   0.578   1.656
 5028SOL     OW15982   6.683   2.010   3.426
 5028SOL    HW115983   6.585   2.027   3.432
 5028SOL    HW215984   6.699   1.930   3.368
 5029SOL     OW15985   6.451   2.447   2.393
 5029SOL    HW115986   6.430   2.531   2.444
 5029SOL    HW215987   6.384   2.377   2.418
 5030SOL     OW15988   6.802   6.019   6.170
 5030SOL    HW115989   6.816   6.062   6.259
 5030SOL    HW215990   6.882   6.035   6.112
 5031SOL     OW15991   0.130   1.077   5.610
 5031SOL    HW115992   0.204   1.138   5.639
 5031SOL    HW215993   0.164   1.013   5.542
 5032SOL     OW15994   2.496   1.862   5.818
 5032SOL    HW115995   2.476   1.930   5.888
 5032SOL    HW215996   2.519   1.775   5.862
 5033SOL     OW15997   2.020   0.385   0.134
 5033SOL    HW115998   2.073   0.375   0.218
 5033SOL    HW215999   1.984   0.295   0.106
 5034SOL     OW16000   5.380   6.816   4.115
 5034SOL    HW116001   5.354   6.845   4.023
 5034SOL    HW216002   5.394   6.717   4.117
 5035SOL     OW16003   0.718   3.877   5.627
 5035SOL    HW116004   0.748   3.789   5.665
 5035SOL    HW216005   0.692   3.863   5.531
 5036SOL     OW16006   6.365   5.144   6.494
 5036SOL    HW116007   6.381   5.054   6.536
 5036SOL    HW216008   6.451   5.195   6.492
 5037SOL     OW16009   4.449   4.580   1.567
 5037SOL    HW116010   4.530   4.557   1.512
 5037SOL    HW216011   4.454   4.532   1.655
 5038SOL     OW16012   4.085   3.502   3.921
 5038SOL    HW116013   4.018   3.428   3.927
 5038SOL    HW216014   4.148   3.483   3.845
 5039SOL     OW16015   2.115   3.209   5.581
 5039SOL    HW116016   2.174   3.236   5.657
 5039SOL    HW216017   2.159   3.137   5.528
 5040SOL     OW16018   0.988   5.834   5.100
 5040SOL    HW116019   0.944   5.745   5.090
 5040SOL    HW216020   1.004   5.852   5.197
 5041SOL     OW16021   1.157   2.292   2.085
 5041SOL    HW116022   1.181   2.345   2.166
 5041SOL    HW216023   1.233   2.231   2.062
 5042SOL     OW16024   0.011   2.823   0.488
 5042SOL    HW116025   7.001   2.914   0.511
 5042SOL    HW216026   7.013   2.759   0.561
 5043SOL     OW16027   4.565   0.689   6.802
 5043SOL    HW116028   4.654   0.644   6.796
 5043SOL    HW216029   4.528   0.677   6.894
 5044SOL     OW16030   0.595   5.621   1.158
 5044SOL    HW116031   0.607   5.720   1.150
 5044SOL    HW216032   0.500   5.597   1.139
 5045SOL     OW16033   6.514   5.742   5.989
 5045SOL    HW116034   6.530   5.660   5.934
 5045SOL    HW216035   6.429   5.785   5.960
 5046SOL     OW16036   3.552   4.152   3.812
 5046SOL    HW116037   3.606   4.159   3.896
 5046SOL    HW216038   3.612   4.144   3.733
 5047SOL     OW16039   2.249   4.177   3.054
 5047SOL    HW116040   2.226   4.080   3.059
 5047SOL    HW216041   2.185   4.229   3.111
 5048SOL     OW16042   1.443   0.876   4.383
 5048SOL    HW116043   1.479   0.866   4.475
 5048SOL    HW216044   1.425   0.973   4.365
 5049SOL     OW16045   4.453   1.009   0.298
 5049SOL    HW116046   4.522   0.969   0.237
 5049SOL    HW216047   4.450   0.957   0.383
 5050SOL     OW16048   1.598   1.245   6.756
 5050SOL    HW116049   1.520   1.292   6.796
 5050SOL    HW216050   1.567   1.164   6.707
 5051SOL     OW16051   4.608   4.247   1.676
 5051SOL    HW116052   4.620   4.166   1.618
 5051SOL    HW216053   4.524   4.236   1.730
 5052SOL     OW16054   3.120   1.958   6.031
 5052SOL    HW116055   3.044   1.982   6.091
 5052SOL    HW216056   3.096   1.977   5.936
 5053SOL     OW16057   1.021   5.180   3.064
 5053SOL    HW116058   1.007   5.279   3.061
 5053SOL    HW216059   1.075   5.157   3.145
 5054SOL     OW16060   2.801   4.878   5.145
 5054SOL    HW116061   2.814   4.788   5.102
 5054SOL    HW216062   2.703   4.898   5.152
 5055SOL     OW16063   0.810   2.449   6.012
 5055SOL    HW116064   0.724   2.480   6.051
 5055SOL    HW216065   0.791   2.391   5.933
 5056SOL     OW16066   5.295   3.980   5.662
 5056SOL    HW116067   5.264   3.885   5.665
 5056SOL    HW216068   5.247   4.033   5.732
 5057SOL     OW16069   6.980   0.100   3.160
 5057SOL    HW116070   6.975   0.007   3.196
 5057SOL    HW216071   0.046   0.138   3.179
 5058SOL     OW16072   3.556   4.266   6.623
 5058SOL    HW116073   3.612   4.320   6.559
 5058SOL    HW216074   3.509   4.194   6.573
 5059SOL     OW16075   0.084   0.543   3.111
 5059SOL    HW116076   0.181   0.566   3.103
 5059SOL    HW216077   0.032   0.625   3.132
 5060SOL     OW16078   0.227   2.448   6.619
 5060SOL    HW116079   0.264   2.538   6.596
 5060SOL    HW216080   0.133   2.457   6.651
 5061SOL     OW16081   4.533   2.579   0.597
 5061SOL    HW116082   4.576   2.517   0.531
 5061SOL    HW216083   4.585   2.578   0.682
 5062SOL     OW16084   6.080   0.113   2.422
 5062SOL    HW116085   6.157   0.176   2.426
 5062SOL    HW216086   6.038   0.117   2.331
 5063SOL     OW16087   0.155   0.095   1.978
 5063SOL    HW116088   0.246   0.084   2.016
 5063SOL    HW216089   0.090   0.042   2.033
 5064SOL     OW16090   5.158   2.915   0.781
 5064SOL    HW116091   5.152   2.947   0.876
 5064SOL    HW216092   5.110   2.979   0.721
 5065SOL     OW16093   3.334   0.593   5.520
 5065SOL    HW116094   3.311   0.496   5.530
 5065SOL    HW216095   3.408   0.617   5.584
 5066SOL     OW16096   5.035   4.957   2.100
 5066SOL    HW116097   5.071   4.882   2.045
 5066SOL    HW216098   5.015   4.923   2.192
 5067SOL     OW16099   4.675   1.378   1.071
 5067SOL    HW116100   4.678   1.306   1.140
 5067SOL    HW216101   4.720   1.346   0.987
 5068SOL     OW16102   2.307   4.604   1.071
 5068SOL    HW116103   2.290   4.576   1.166
 5068SOL    HW216104   2.392   4.563   1.039
 5069SOL     OW16105   1.958   4.555   3.386
 5069SOL    HW116106   1.904   4.587   3.464
 5069SOL    HW216107   2.030   4.621   3.366
 5070SOL     OW16108   4.976   3.222   3.638
 5070SOL    HW116109   4.940   3.226   3.731
 5070SOL    HW216110   5.076   3.228   3.640
 5071SOL     OW16111   4.417   2.331   4.821
 5071SOL    HW116112   4.447   2.249   4.870
 5071SOL    HW216113   4.350   2.380   4.876
 5072SOL     OW16114   0.434   5.911   0.601
 5072SOL    HW116115   0.506   5.979   0.590
 5072SOL    HW216116   0.348   5.957   0.627
 5073SOL     OW16117   6.548   6.585   3.134
 5073SOL    HW116118   6.495   6.661   3.170
 5073SOL    HW216119   6.508   6.499   3.166
 5074SOL     OW16120   3.589   3.386   6.620
 5074SOL    HW116121   3.533   3.463   6.650
 5074SOL    HW216122   3.629   3.340   6.700
 5075SOL     OW16123   0.325   1.253   5.700
 5075SOL    HW116124   0.414   1.221   5.733
 5075SOL    HW216125   0.312   1.348   5.729
 5076SOL     OW16126   4.009   0.761   1.118
 5076SOL    HW116127   4.009   0.860   1.127
 5076SOL    HW216128   4.087   0.723   1.167
 5077SOL     OW16129   0.724   2.644   3.833
 5077SOL    HW116130   0.798   2.579   3.816
 5077SOL    HW216131   0.653   2.601   3.889
 5078SOL     OW16132   0.957   1.833   3.501
 5078SOL    HW116133   1.020   1.909   3.483
 5078SOL    HW216134   0.965   1.765   3.429
 5079SOL     OW16135   3.125   4.873   6.257
 5079SOL    HW116136   3.048   4.810   6.246
 5079SOL    HW216137   3.177   4.849   6.339
 5080SOL     OW16138   5.698   6.770   5.058
 5080SOL    HW116139   5.763   6.813   5.121
 5080SOL    HW216140   5.726   6.675   5.042
 5081SOL     OW16141   4.173   3.428   3.046
 5081SOL    HW116142   4.159   3.347   2.989
 5081SOL    HW216143   4.142   3.409   3.139
 5082SOL     OW16144   5.799   6.183   5.140
 5082SOL    HW116145   5.716   6.224   5.103
 5082SOL    HW216146   5.784   6.159   5.236
 5083SOL     OW16147   1.866   6.392   2.464
 5083SOL    HW116148   1.890   6.369   2.558
 5083SOL    HW216149   1.790   6.334   2.433
 5084SOL     OW16150   1.087   4.968   4.822
 5084SOL    HW116151   1.042   4.890   4.778
 5084SOL    HW216152   1.158   5.004   4.762
 5085SOL     OW16153   5.679   2.348   6.081
 5085SOL    HW116154   5.610   2.385   6.143
 5085SOL    HW216155   5.681   2.402   5.997
 5086SOL     OW16156   6.236   5.400   3.998
 5086SOL    HW116157   6.169   5.342   4.044
 5086SOL    HW216158   6.313   5.344   3.966
 5087SOL     OW16159   0.075   5.972   3.724
 5087SOL    HW116160   7.020   5.918   3.695
 5087SOL    HW216161   0.145   5.968   3.653
 5088SOL     OW16162   6.025   1.297   5.245
 5088SOL    HW116163   6.016   1.383   5.295
 5088SOL    HW216164   6.052   1.315   5.151
 5089SOL     OW16165   6.491   3.352   3.151
 5089SOL    HW116166   6.579   3.385   3.185
 5089SOL    HW216167   6.418   3.411   3.186
 5090SOL     OW16168   2.098   4.006   1.453
 5090SOL    HW116169   2.060   3.928   1.503
 5090SOL    HW216170   2.092   3.988   1.355
 5091SOL     OW16171   0.910   5.985   2.928
 5091SOL    HW116172   0.891   5.941   2.840
 5091SOL    HW216173   0.905   6.084   2.917
 5092SOL     OW16174   3.393   2.666   1.336
 5092SOL    HW116175   3.364   2.748   1.287
 5092SOL    HW216176   3.313   2.609   1.357
 5093SOL     OW16177   1.452   2.008   1.530
 5093SOL    HW116178   1.385   2.013   1.456
 5093SOL    HW216179   1.476   2.100   1.561
 5094SOL     OW16180   1.083   0.331   5.420
 5094SOL    HW116181   1.096   0.263   5.348
 5094SOL    HW216182   1.096   0.288   5.509
 5095SOL     OW16183   1.201   1.006   4.491
 5095SOL    HW116184   1.148   0.930   4.455
 5095SOL    HW216185   1.227   1.067   4.417
 5096SOL     OW16186   4.345   3.930   0.644
 5096SOL    HW116187   4.380   3.838   0.662
 5096SOL    HW216188   4.295   3.964   0.724
 5097SOL     OW16189   1.677   0.254   6.366
 5097SOL    HW116190   1.664   0.352   6.350
 5097SOL    HW216191   1.588   0.209   6.374
 5098SOL     OW16192   0.308   0.564   1.511
 5098SOL    HW116193   0.317   0.570   1.611
 5098SOL    HW216194   0.313   0.656   1.472
 5099SOL     OW16195   1.190   0.287   6.074
 5099SOL    HW116196   1.286   0.295   6.045
 5099SOL    HW216197   1.177   0.337   6.159
 5100SOL     OW16198   4.515   6.712   6.001
 5100SOL    HW116199   4.447   6.774   5.962
 5100SOL    HW216200   4.552   6.654   5.928
 5101SOL     OW16201   5.233   6.505   0.184
 5101SOL    HW116202   5.320   6.525   0.138
 5101SOL    HW216203   5.236   6.539   0.278
 5102SOL     OW16204   6.042   0.394   5.424
 5102SOL    HW116205   6.137   0.364   5.413
 5102SOL    HW216206   5.993   0.331   5.483
 5103SOL     OW16207   7.015   0.923   4.153
 5103SOL    HW116208   0.008   0.918   4.055
 5103SOL    HW216209   0.077   0.929   4.202
 5104SOL     OW16210   1.646   6.767   1.270
 5104SOL    HW116211   1.594   6.685   1.293
 5104SOL    HW216212   1.689   6.755   1.180
 5105SOL     OW16213   4.375   3.926   6.737
 5105SOL    HW116214   4.474   3.935   6.745
 5105SOL    HW216215   4.331   4.013   6.758
 5106SOL     OW16216   3.633   0.249   2.280
 5106SOL    HW116217   3.573   0.264   2.201
 5106SOL    HW216218   3.577   0.221   2.358
 5107SOL     OW16219   2.962   0.545   0.038
 5107SOL    HW116220   2.956   0.620   0.104
 5107SOL    HW216221   2.869   0.517   0.012
 5108SOL     OW16222   3.028   3.960   3.667
 5108SOL    HW116223   3.030   4.042   3.725
 5108SOL    HW216224   3.046   3.879   3.723
 5109SOL     OW16225   1.150   1.662   0.957
 5109SOL    HW116226   1.129   1.758   0.937
 5109SOL    HW216227   1.103   1.603   0.893
 5110SOL     OW16228   0.960   6.674   6.345
 5110SOL    HW116229   0.947   6.615   6.265
 5110SOL    HW216230   0.873   6.719   6.368
 5111SOL     OW16231   0.705   0.996   5.555
 5111SOL    HW116232   0.727   1.052   5.635
 5111SOL    HW216233   0.624   0.941   5.574
 5112SOL     OW16234   0.550   6.666   3.298
 5112SOL    HW116235   0.647   6.672   3.273
 5112SOL    HW216236   0.516   6.575   3.276
 5113SOL     OW16237   1.098   0.441   1.138
 5113SOL    HW116238   1.142   0.483   1.059
 5113SOL    HW216239   1.000   0.437   1.123
 5114SOL     OW16240   3.255   3.170   0.228
 5114SOL    HW116241   3.301   3.258   0.224
 5114SOL    HW216242   3.163   3.182   0.266
 5115SOL     OW16243   1.475   4.428   5.779
 5115SOL    HW116244   1.526   4.384   5.854
 5115SOL    HW216245   1.535   4.438   5.700
 5116SOL     OW16246   5.114   5.695   5.849
 5116SOL    HW116247   5.131   5.636   5.770
 5116SOL    HW216248   5.164   5.660   5.928
 5117SOL     OW16249   2.146   4.710   4.121
 5117SOL    HW116250   2.079   4.777   4.154
 5117SOL    HW216251   2.238   4.740   4.147
 5118SOL     OW16252   4.454   6.681   0.318
 5118SOL    HW116253   4.354   6.686   0.323
 5118SOL    HW216254   4.487   6.617   0.388
 5119SOL     OW16255   5.054   0.330   1.534
 5119SOL    HW116256   5.109   0.266   1.587
 5119SOL    HW216257   4.975   0.282   1.496
 5120SOL     OW16258   6.074   1.428   2.934
 5120SOL    HW116259   6.171   1.426   2.954
 5120SOL    HW216260   6.029   1.494   2.994
 5121SOL     OW16261   1.092   3.003   6.143
 5121SOL    HW116262   1.183   2.970   6.167
 5121SOL    HW216263   1.045   3.036   6.225
 5122SOL     OW16264   2.679   0.753   3.817
 5122SOL    HW116265   2.681   0.702   3.903
 5122SOL    HW216266   2.584   0.774   3.793
 5123SOL     OW16267   5.517   3.357   4.347
 5123SOL    HW116268   5.428   3.339   4.304
 5123SOL    HW216269   5.568   3.272   4.355
 5124SOL     OW16270   2.546   5.614   6.486
 5124SOL    HW116271   2.592   5.633   6.573
 5124SOL    HW216272   2.470   5.678   6.475
 5125SOL     OW16273   0.109   3.822   4.318
 5125SOL    HW116274   0.110   3.740   4.261
 5125SOL    HW216275   0.106   3.796   4.414
 5126SOL     OW16276   6.020   4.807   5.717
 5126SOL    HW116277   5.983   4.723   5.677
 5126SOL    HW216278   6.118   4.812   5.697
 5127SOL     OW16279   5.950   3.894   0.933
 5127SOL    HW116280   5.889   3.958   0.885
 5127SOL    HW216281   5.928   3.894   1.031
 5128SOL     OW16282   1.039   0.419   0.046
 5128SOL    HW116283   1.050   0.324   0.075
 5128SOL    HW216284   0.941   0.442   0.043
 5129SOL     OW16285   5.445   0.619   3.102
 5129SOL    HW116286   5.476   0.580   3.189
 5129SOL    HW216287   5.379   0.692   3.119
 5130SOL     OW16288   0.889   5.701   4.636
 5130SOL    HW116289   0.888   5.641   4.716
 5130SOL    HW216290   0.865   5.794   4.663
 5131SOL     OW16291   3.086   4.860   3.346
 5131SOL    HW116292   3.053   4.946   3.308
 5131SOL    HW216293   3.011   4.794   3.349
 5132SOL     OW16294   3.133   1.546   6.452
 5132SOL    HW116295   3.218   1.506   6.417
 5132SOL    HW216296   3.058   1.527   6.389
 5133SOL     OW16297   3.485   5.317   5.979
 5133SOL    HW116298   3.490   5.353   6.072
 5133SOL    HW216299   3.574   5.329   5.934
 5134SOL     OW16300   6.382   6.925   1.810
 5134SOL    HW116301   6.421   6.858   1.747
 5134SOL    HW216302   6.436   6.927   1.895
 5135SOL     OW16303   6.208   3.590   2.672
 5135SOL    HW116304   6.184   3.534   2.592
 5135SOL    HW216305   6.303   3.575   2.696
 5136SOL     OW16306   0.130   1.098   5.944
 5136SOL    HW116307   0.095   1.023   6.001
 5136SOL    HW216308   0.075   1.180   5.960
 5137SOL     OW16309   4.635   2.725   5.350
 5137SOL    HW116310   4.683   2.726   5.263
 5137SOL    HW216311   4.666   2.802   5.406
 5138SOL     OW16312   3.348   3.985   3.765
 5138SOL    HW116313   3.435   4.032   3.779
 5138SOL    HW216314   3.358   3.888   3.790
 5139SOL     OW16315   1.246   0.353   4.531
 5139SOL    HW116316   1.287   0.265   4.553
 5139SOL    HW216317   1.179   0.377   4.601
 5140SOL     OW16318   4.009   1.687   6.322
 5140SOL    HW116319   4.036   1.594   6.346
 5140SOL    HW216320   3.968   1.732   6.401
 5141SOL     OW16321   6.240   2.914   1.141
 5141SOL    HW116322   6.239   2.999   1.087
 5141SOL    HW216323   6.283   2.841   1.087
 5142SOL     OW16324   5.848   6.802   3.709
 5142SOL    HW116325   5.923   6.765   3.654
 5142SOL    HW216326   5.776   6.733   3.718
 5143SOL     OW16327   0.653   4.094   4.527
 5143SOL    HW116328   0.645   4.043   4.612
 5143SOL    HW216329   0.688   4.186   4.547
 5144SOL     OW16330   2.235   3.391   6.658
 5144SOL    HW116331   2.159   3.440   6.616
 5144SOL    HW216332   2.322   3.431   6.628
 5145SOL     OW16333   3.644   6.154   6.335
 5145SOL    HW116334   3.744   6.158   6.343
 5145SOL    HW216335   3.617   6.185   6.244
 5146SOL     OW16336   4.085   4.355   5.610
 5146SOL    HW116337   4.030   4.271   5.617
 5146SOL    HW216338   4.079   4.389   5.516
 5147SOL     OW16339   5.270   3.787   2.852
 5147SOL    HW116340   5.334   3.758   2.922
 5147SOL    HW216341   5.240   3.708   2.799
 5148SOL     OW16342   0.980   0.495   1.975
 5148SOL    HW116343   1.039   0.571   2.000
 5148SOL    HW216344   0.953   0.444   2.057
 5149SOL     OW16345   5.858   4.685   3.944
 5149SOL    HW116346   5.844   4.731   4.032
 5149SOL    HW216347   5.955   4.688   3.920
 5150SOL     OW16348   1.181   5.342   3.455
 5150SOL    HW116349   1.136   5.265   3.410
 5150SOL    HW216350   1.208   5.316   3.548
 5151SOL     OW16351   6.093   4.687   1.096
 5151SOL    HW116352   6.159   4.753   1.131
 5151SOL    HW216353   6.057   4.632   1.171
 5152SOL     OW16354   1.466   6.363   6.532
 5152SOL    HW116355   1.413   6.371   6.617
 5152SOL    HW216356   1.455   6.446   6.478
 5153SOL     OW16357   1.728   0.895   0.458
 5153SOL    HW116358   1.732   0.872   0.361
 5153SOL    HW216359   1.674   0.979   0.471
 5154SOL     OW16360   0.809   2.569   6.775
 5154SOL    HW116361   0.794   2.665   6.801
 5154SOL    HW216362   0.725   2.533   6.734
 5155SOL     OW16363   2.659   1.666   0.609
 5155SOL    HW116364   2.601   1.722   0.668
 5155SOL    HW216365   2.633   1.570   0.619
 5156SOL     OW16366   5.021   5.387   4.825
 5156SOL    HW116367   5.095   5.354   4.767
 5156SOL    HW216368   4.941   5.327   4.816
 5157SOL     OW16369   3.579   1.593   1.977
 5157SOL    HW116370   3.650   1.620   2.042
 5157SOL    HW216371   3.620   1.547   1.899
 5158SOL     OW16372   3.676   1.672   1.104
 5158SOL    HW116373   3.614   1.601   1.071
 5158SOL    HW216374   3.770   1.642   1.092
 5159SOL     OW16375   5.982   3.667   6.745
 5159SOL    HW116376   5.908   3.617   6.790
 5159SOL    HW216377   6.010   3.618   6.662
 5160SOL     OW16378   6.382   6.780   3.248
 5160SOL    HW116379   6.367   6.742   3.339
 5160SOL    HW216380   6.422   6.872   3.256
 5161SOL     OW16381   1.201   3.182   6.721
 5161SOL    HW116382   1.292   3.192   6.761
 5161SOL    HW216383   1.196   3.097   6.669
 5162SOL     OW16384   0.109   5.496   2.492
 5162SOL    HW116385   0.152   5.543   2.415
 5162SOL    HW216386   0.112   5.397   2.477
 5163SOL     OW16387   3.236   6.189   2.012
 5163SOL    HW116388   3.217   6.284   1.988
 5163SOL    HW216389   3.274   6.185   2.104
 5164SOL     OW16390   2.832   2.974   0.618
 5164SOL    HW116391   2.858   2.994   0.524
 5164SOL    HW216392   2.752   2.914   0.619
 5165SOL     OW16393   1.570   4.723   0.129
 5165SOL    HW116394   1.563   4.628   0.161
 5165SOL    HW216395   1.497   4.741   0.063
 5166SOL     OW16396   1.798   5.363   1.786
 5166SOL    HW116397   1.779   5.299   1.712
 5166SOL    HW216398   1.895   5.385   1.787
 5167SOL     OW16399   5.557   3.815   5.344
 5167SOL    HW116400   5.591   3.909   5.349
 5167SOL    HW216401   5.621   3.758   5.292
 5168SOL     OW16402   4.986   2.433   2.205
 5168SOL    HW116403   4.931   2.383   2.271
 5168SOL    HW216404   4.974   2.531   2.218
 5169SOL     OW16405   3.976   1.277   3.804
 5169SOL    HW116406   3.946   1.365   3.840
 5169SOL    HW216407   3.984   1.283   3.705
 5170SOL     OW16408   1.373   3.139   6.082
 5170SOL    HW116409   1.290   3.105   6.038
 5170SOL    HW216410   1.348   3.183   6.168
 5171SOL     OW16411   1.218   5.023   5.611
 5171SOL    HW116412   1.275   5.089   5.659
 5171SOL    HW216413   1.270   4.939   5.593
 5172SOL     OW16414   1.102   5.120   4.410
 5172SOL    HW116415   1.157   5.129   4.493
 5172SOL    HW216416   1.099   5.208   4.363
 5173SOL     OW16417   4.697   3.801   6.195
 5173SOL    HW116418   4.634   3.723   6.202
 5173SOL    HW216419   4.646   3.882   6.164
 5174SOL     OW16420   1.274   6.822   3.800
 5174SOL    HW116421   1.308   6.903   3.752
 5174SOL    HW216422   1.223   6.850   3.881
 5175SOL     OW16423   3.069   4.297   6.343
 5175SOL    HW116424   3.158   4.278   6.301
 5175SOL    HW216425   3.000   4.237   6.303
 5176SOL     OW16426   5.403   5.491   6.452
 5176SOL    HW116427   5.502   5.506   6.455
 5176SOL    HW216428   5.357   5.568   6.496
 5177SOL     OW16429   5.048   0.065   0.893
 5177SOL    HW116430   5.081   7.005   0.851
 5177SOL    HW216431   4.963   0.094   0.848
 5178SOL     OW16432   0.947   4.331   2.253
 5178SOL    HW116433   0.982   4.271   2.182
 5178SOL    HW216434   0.869   4.288   2.298
 5179SOL     OW16435   5.078   3.867   2.649
 5179SOL    HW116436   4.989   3.864   2.695
 5179SOL    HW216437   5.151   3.848   2.715
 5180SOL     OW16438   2.954   6.587   1.112
 5180SOL    HW116439   2.884   6.540   1.166
 5180SOL    HW216440   2.947   6.686   1.126
 5181SOL     OW16441   0.038   0.958   6.959
 5181SOL    HW116442   0.013   0.865   6.932
 5181SOL    HW216443   0.003   1.023   6.891
 5182SOL     OW16444   4.242   4.680   2.582
 5182SOL    HW116445   4.296   4.623   2.519
 5182SOL    HW216446   4.207   4.760   2.533
 5183SOL     OW16447   4.009   2.188   3.272
 5183SOL    HW116448   4.074   2.173   3.197
 5183SOL    HW216449   4.054   2.239   3.345
 5184SOL     OW16450   2.238   2.528   3.855
 5184SOL    HW116451   2.238   2.431   3.829
 5184SOL    HW216452   2.329   2.566   3.841
 5185SOL     OW16453   4.895   0.370   2.642
 5185SOL    HW116454   4.940   0.458   2.654
 5185SOL    HW216455   4.963   0.299   2.625
 5186SOL     OW16456   6.298   3.353   5.774
 5186SOL    HW116457   6.265   3.323   5.863
 5186SOL    HW216458   6.382   3.303   5.750
 5187SOL     OW16459   2.382   5.170   4.700
 5187SOL    HW116460   2.468   5.119   4.692
 5187SOL    HW216461   2.333   5.167   4.612
 5188SOL     OW16462   7.004   6.407   1.459
 5188SOL    HW116463   0.022   6.394   1.369
 5188SOL    HW216464   6.980   6.503   1.470
 5189SOL     OW16465   5.713   6.830   6.367
 5189SOL    HW116466   5.780   6.758   6.346
 5189SOL    HW216467   5.719   6.901   6.297
 5190SOL     OW16468   1.795   2.883   1.934
 5190SOL    HW116469   1.807   2.924   1.844
 5190SOL    HW216470   1.818   2.951   2.004
 5191SOL     OW16471   3.075   6.132   2.352
 5191SOL    HW116472   3.051   6.155   2.446
 5191SOL    HW216473   3.092   6.034   2.345
 5192SOL     OW16474   1.530   6.109   1.286
 5192SOL    HW116475   1.470   6.160   1.348
 5192SOL    HW216476   1.518   6.011   1.301
 5193SOL     OW16477   5.649   0.621   6.617
 5193SOL    HW116478   5.748   0.631   6.603
 5193SOL    HW216479   5.608   0.581   6.536
 5194SOL     OW16480   3.400   1.661   6.073
 5194SOL    HW116481   3.425   1.626   6.164
 5194SOL    HW216482   3.447   1.748   6.058
 5195SOL     OW16483   0.612   0.534   3.464
 5195SOL    HW116484   0.568   0.445   3.469
 5195SOL    HW216485   0.613   0.566   3.370
 5196SOL     OW16486   4.872   6.677   2.638
 5196SOL    HW116487   4.886   6.621   2.720
 5196SOL    HW216488   4.934   6.756   2.640
 5197SOL     OW16489   2.008   3.528   6.571
 5197SOL    HW116490   2.026   3.545   6.475
 5197SOL    HW216491   1.957   3.604   6.610
 5198SOL     OW16492   4.216   5.637   3.292
 5198SOL    HW116493   4.124   5.628   3.253
 5198SOL    HW216494   4.212   5.693   3.374
 5199SOL     OW16495   6.957   5.645   1.191
 5199SOL    HW116496   6.878   5.584   1.195
 5199SOL    HW216497   7.014   5.632   1.272
 5200SOL     OW16498   0.653   3.787   5.366
 5200SOL    HW116499   0.622   3.694   5.386
 5200SOL    HW216500   0.588   3.831   5.304
 5201SOL     OW16501   0.910   6.596   4.177
 5201SOL    HW116502   0.871   6.539   4.105
 5201SOL    HW216503   0.867   6.573   4.265
 5202SOL     OW16504   0.088   3.573   6.784
 5202SOL    HW116505   0.036   3.499   6.827
 5202SOL    HW216506   0.096   3.555   6.686
 5203SOL     OW16507   1.114   2.538   0.087
 5203SOL    HW116508   1.094   2.493   0.173
 5203SOL    HW216509   1.207   2.575   0.088
 5204SOL     OW16510   3.952   5.017   0.443
 5204SOL    HW116511   3.941   4.989   0.347
 5204SOL    HW216512   3.863   5.034   0.483
 5205SOL     OW16513   1.714   0.466   1.659
 5205SOL    HW116514   1.762   0.393   1.610
 5205SOL    HW216515   1.747   0.555   1.628
 5206SOL     OW16516   0.625   4.559   6.867
 5206SOL    HW116517   0.602   4.559   6.770
 5206SOL    HW216518   0.704   4.499   6.883
 5207SOL     OW16519   1.358   5.479   4.395
 5207SOL    HW116520   1.436   5.457   4.336
 5207SOL    HW216521   1.279   5.503   4.339
 5208SOL     OW16522   3.892   0.991   0.511
 5208SOL    HW116523   3.837   1.074   0.525
 5208SOL    HW216524   3.842   0.912   0.548
 5209SOL     OW16525   5.845   6.169   3.784
 5209SOL    HW116526   5.840   6.074   3.754
 5209SOL    HW216527   5.867   6.173   3.881
 5210SOL     OW16528   5.354   3.716   4.779
 5210SOL    HW116529   5.283   3.740   4.845
 5210SOL    HW216530   5.407   3.799   4.756
 5211SOL     OW16531   3.512   3.171   3.737
 5211SOL    HW116532   3.413   3.182   3.742
 5211SOL    HW216533   3.555   3.224   3.810
 5212SOL     OW16534   6.953   2.629   0.662
 5212SOL    HW116535   6.907   2.630   0.750
 5212SOL    HW216536   6.923   2.549   0.610
 5213SOL     OW16537   5.270   2.108   5.972
 5213SOL    HW116538   5.353   2.102   5.916
 5213SOL    HW216539   5.258   2.022   6.022
 5214SOL     OW16540   5.576   1.510   6.454
 5214SOL    HW116541   5.483   1.511   6.491
 5214SOL    HW216542   5.589   1.427   6.399
 5215SOL     OW16543   5.854   5.317   3.206
 5215SOL    HW116544   5.877   5.381   3.133
 5215SOL    HW216545   5.894   5.228   3.186
 5216SOL     OW16546   4.730   5.623   1.237
 5216SOL    HW116547   4.767   5.716   1.248
 5216SOL    HW216548   4.734   5.575   1.324
 5217SOL     OW16549   2.958   5.207   3.661
 5217SOL    HW116550   2.873   5.254   3.639
 5217SOL    HW216551   2.998   5.169   3.577
 5218SOL     OW16552   1.885   0.668   3.765
 5218SOL    HW116553   1.906   0.613   3.684
 5218SOL    HW216554   1.787   0.687   3.769
 5219SOL     OW16555   3.682   0.133   6.535
 5219SOL    HW116556   3.647   0.183   6.614
 5219SOL    HW216557   3.769   0.174   6.505
 5220SOL     OW16558   0.898   5.185   2.473
 5220SOL    HW116559   0.823   5.246   2.450
 5220SOL    HW216560   0.965   5.184   2.398
 5221SOL     OW16561   5.632   1.872   4.444
 5221SOL    HW116562   5.595   1.964   4.439
 5221SOL    HW216563   5.703   1.868   4.515
 5222SOL     OW16564   2.718   0.082   3.919
 5222SOL    HW116565   2.777   0.053   3.844
 5222SOL    HW216566   2.769   0.082   4.004
 5223SOL     OW16567   4.477   0.345   0.899
 5223SOL    HW116568   4.436   0.255   0.902
 5223SOL    HW216569   4.546   0.353   0.971
 5224SOL     OW16570   6.705   1.782   3.223
 5224SOL    HW116571   6.622   1.802   3.171
 5224SOL    HW216572   6.785   1.799   3.165
 5225SOL     OW16573   6.199   0.585   3.064
 5225SOL    HW116574   6.193   0.665   3.123
 5225SOL    HW216575   6.147   0.510   3.105
 5226SOL     OW16576   0.508   6.487   5.400
 5226SOL    HW116577   0.486   6.430   5.479
 5226SOL    HW216578   0.488   6.582   5.421
 5227SOL     OW16579   0.781   4.918   4.033
 5227SOL    HW116580   0.684   4.905   4.011
 5227SOL    HW216581   0.792   5.006   4.080
 5228SOL     OW16582   6.467   2.797   0.182
 5228SOL    HW116583   6.517   2.865   0.236
 5228SOL    HW216584   6.368   2.812   0.193
 5229SOL     OW16585   2.073   4.501   6.329
 5229SOL    HW116586   2.139   4.436   6.291
 5229SOL    HW216587   2.121   4.581   6.364
 5230SOL     OW16588   0.726   0.306   0.896
 5230SOL    HW116589   0.638   0.354   0.908
 5230SOL    HW216590   0.772   0.343   0.816
 5231SOL     OW16591   3.289   2.933   4.336
 5231SOL    HW116592   3.231   2.855   4.361
 5231SOL    HW216593   3.339   2.965   4.417
 5232SOL     OW16594   3.113   2.351   6.108
 5232SOL    HW116595   3.126   2.284   6.182
 5232SOL    HW216596   3.171   2.326   6.030
 5233SOL     OW16597   6.800   6.608   1.394
 5233SOL    HW116598   6.735   6.554   1.446
 5233SOL    HW216599   6.752   6.680   1.344
 5234SOL     OW16600   3.166   0.353   0.014
 5234SOL    HW116601   3.081   0.403   0.031
 5234SOL    HW216602   3.148   0.255   0.014
 5235SOL     OW16603   1.477   2.803   1.542
 5235SOL    HW116604   1.478   2.798   1.642
 5235SOL    HW216605   1.452   2.714   1.505
 5236SOL     OW16606   5.365   3.233   1.124
 5236SOL    HW116607   5.392   3.173   1.049
 5236SOL    HW216608   5.381   3.186   1.211
 5237SOL     OW16609   3.003   2.009   5.323
 5237SOL    HW116610   2.924   2.004   5.260
 5237SOL    HW216611   3.013   1.921   5.369
 5238SOL     OW16612   1.592   4.920   0.698
 5238SOL    HW116613   1.520   4.989   0.702
 5238SOL    HW216614   1.661   4.939   0.768
 5239SOL     OW16615   3.611   3.775   4.289
 5239SOL    HW116616   3.564   3.785   4.376
 5239SOL    HW216617   3.585   3.851   4.228
 5240SOL     OW16618   3.072   2.094   5.779
 5240SOL    HW116619   2.975   2.083   5.800
 5240SOL    HW216620   3.082   2.130   5.686
 5241SOL     OW16621   1.262   5.887   6.374
 5241SOL    HW116622   1.254   5.817   6.303
 5241SOL    HW216623   1.349   5.878   6.421
 5242SOL     OW16624   5.959   0.144   5.281
 5242SOL    HW116625   5.871   0.165   5.325
 5242SOL    HW216626   5.965   0.191   5.193
 5243SOL     OW16627   1.128   5.837   0.976
 5243SOL    HW116628   1.155   5.750   0.934
 5243SOL    HW216629   1.106   5.822   1.073
 5244SOL     OW16630   4.499   4.023   5.856
 5244SOL    HW116631   4.582   3.988   5.814
 5244SOL    HW216632   4.446   4.074   5.789
 5245SOL     OW16633   4.604   4.043   6.122
 5245SOL    HW116634   4.544   4.075   6.048
 5245SOL    HW216635   4.622   4.118   6.185
 5246SOL     OW16636   6.613   4.300   2.755
 5246SOL    HW116637   6.516   4.277   2.765
 5246SOL    HW216638   6.621   4.388   2.708
 5247SOL     OW16639   0.816   6.418   0.045
 5247SOL    HW116640   0.894   6.472   0.014
 5247SOL    HW216641   0.822   6.403   0.143
 5248SOL     OW16642   5.141   0.188   5.703
 5248SOL    HW116643   5.198   0.138   5.638
 5248SOL    HW216644   5.189   0.197   5.790
 5249SOL     OW16645   0.661   5.229   4.933
 5249SOL    HW116646   0.656   5.286   4.852
 5249SOL    HW216647   0.667   5.133   4.906
 5250SOL     OW16648   0.154   1.351   6.227
 5250SOL    HW116649   0.197   1.369   6.138
 5250SOL    HW216650   0.102   1.432   6.255
 5251SOL     OW16651   0.501   3.184   1.241
 5251SOL    HW116652   0.402   3.173   1.246
 5251SOL    HW216653   0.522   3.276   1.207
 5252SOL     OW16654   2.010   5.549   1.078
 5252SOL    HW116655   1.983   5.454   1.060
 5252SOL    HW216656   2.096   5.549   1.129
 5253SOL     OW16657   5.953   3.743   4.707
 5253SOL    HW116658   5.901   3.822   4.674
 5253SOL    HW216659   6.036   3.732   4.652
 5254SOL     OW16660   5.271   1.699   3.518
 5254SOL    HW116661   5.337   1.767   3.488
 5254SOL    HW216662   5.195   1.745   3.566
 5255SOL     OW16663   4.385   0.201   4.547
 5255SOL    HW116664   4.423   0.177   4.458
 5255SOL    HW216665   4.339   0.290   4.541
 5256SOL     OW16666   5.231   0.951   3.239
 5256SOL    HW116667   5.296   0.894   3.289
 5256SOL    HW216668   5.256   0.954   3.142
 5257SOL     OW16669   4.884   0.167   2.062
 5257SOL    HW116670   4.803   0.108   2.055
 5257SOL    HW216671   4.857   0.262   2.046
 5258SOL     OW16672   4.958   4.690   1.744
 5258SOL    HW116673   4.927   4.596   1.759
 5258SOL    HW216674   4.952   4.713   1.647
 5259SOL     OW16675   4.696   6.074   1.517
 5259SOL    HW116676   4.670   6.170   1.507
 5259SOL    HW216677   4.681   6.026   1.431
 5260SOL     OW16678   4.847   3.187   0.425
 5260SOL    HW116679   4.843   3.287   0.426
 5260SOL    HW216680   4.770   3.150   0.477
 5261SOL     OW16681   0.898   2.482   5.318
 5261SOL    HW116682   0.910   2.387   5.347
 5261SOL    HW216683   0.964   2.539   5.366
 5262SOL     OW16684   2.247   6.678   2.680
 5262SOL    HW116685   2.298   6.690   2.595
 5262SOL    HW216686   2.222   6.582   2.690
 5263SOL     OW16687   1.023   0.110   6.317
 5263SOL    HW116688   1.064   0.036   6.371
 5263SOL    HW216689   0.924   0.097   6.314
 5264SOL     OW16690   6.264   1.486   1.717
 5264SOL    HW116691   6.171   1.452   1.701
 5264SOL    HW216692   6.302   1.442   1.798
 5265SOL     OW16693   5.119   4.213   2.169
 5265SOL    HW116694   5.154   4.200   2.076
 5265SOL    HW216695   5.187   4.180   2.235
 5266SOL     OW16696   2.727   6.301   1.435
 5266SOL    HW116697   2.705   6.204   1.426
 5266SOL    HW216698   2.644   6.353   1.455
 5267SOL     OW16699   4.765   5.091   5.703
 5267SOL    HW116700   4.812   5.027   5.764
 5267SOL    HW216701   4.666   5.083   5.717
 5268SOL     OW16702   6.404   5.512   5.321
 5268SOL    HW116703   6.375   5.571   5.246
 5268SOL    HW216704   6.474   5.558   5.375
 5269SOL     OW16705   2.356   6.377   3.910
 5269SOL    HW116706   2.382   6.444   3.980
 5269SOL    HW216707   2.303   6.423   3.839
 5270SOL     OW16708   4.733   1.877   1.683
 5270SOL    HW116709   4.772   1.821   1.610
 5270SOL    HW216710   4.803   1.899   1.750
 5271SOL     OW16711   4.284   5.246   4.259
 5271SOL    HW116712   4.239   5.156   4.261
 5271SOL    HW216713   4.256   5.295   4.176
 5272SOL     OW16714   0.677   6.203   3.943
 5272SOL    HW116715   0.679   6.145   3.862
 5272SOL    HW216716   0.747   6.172   4.008
 5273SOL     OW16717   1.323   3.074   3.764
 5273SOL    HW116718   1.365   3.088   3.853
 5273SOL    HW216719   1.317   3.162   3.716
 5274SOL     OW16720   6.223   5.330   3.076
 5274SOL    HW116721   6.167   5.389   3.018
 5274SOL    HW216722   6.217   5.236   3.043
 5275SOL     OW16723   3.295   0.808   6.265
 5275SOL    HW116724   3.298   0.714   6.231
 5275SOL    HW216725   3.370   0.823   6.328
 5276SOL     OW16726   0.105   6.223   0.403
 5276SOL    HW116727   0.171   6.147   0.406
 5276SOL    HW216728   0.141   6.300   0.455
 5277SOL     OW16729   1.854   1.931   3.004
 5277SOL    HW116730   1.780   1.884   3.053
 5277SOL    HW216731   1.938   1.925   3.058
 5278SOL     OW16732   5.744   6.908   5.739
 5278SOL    HW116733   5.673   6.954   5.792
 5278SOL    HW216734   5.703   6.860   5.663
 5279SOL     OW16735   1.065   6.364   6.505
 5279SOL    HW116736   1.021   6.440   6.554
 5279SOL    HW216737   1.010   6.341   6.425
 5280SOL     OW16738   3.704   6.065   5.143
 5280SOL    HW116739   3.725   6.089   5.048
 5280SOL    HW216740   3.606   6.047   5.151
 5281SOL     OW16741   1.023   1.537   4.127
 5281SOL    HW116742   0.939   1.553   4.074
 5281SOL    HW216743   1.005   1.554   4.224
 5282SOL     OW16744   1.968   0.073   2.398
 5282SOL    HW116745   1.990   0.000   2.463
 5282SOL    HW216746   2.027   0.152   2.416
 5283SOL     OW16747   1.466   0.901   3.289
 5283SOL    HW116748   1.519   0.970   3.338
 5283SOL    HW216749   1.422   0.839   3.355
 5284SOL     OW16750   4.628   2.604   2.856
 5284SOL    HW116751   4.639   2.527   2.918
 5284SOL    HW216752   4.624   2.689   2.910
 5285SOL     OW16753   1.003   3.698   4.456
 5285SOL    HW116754   1.045   3.609   4.473
 5285SOL    HW216755   0.946   3.694   4.374
 5286SOL     OW16756   6.075   3.338   0.636
 5286SOL    HW116757   6.128   3.256   0.655
 5286SOL    HW216758   6.125   3.418   0.670
 5287SOL     OW16759   2.916   5.165   1.433
 5287SOL    HW116760   3.002   5.134   1.473
 5287SOL    HW216761   2.911   5.265   1.437
 5288SOL     OW16762   4.571   0.552   2.835
 5288SOL    HW116763   4.539   0.594   2.921
 5288SOL    HW216764   4.498   0.557   2.767
 5289SOL     OW16765   2.687   5.116   6.283
 5289SOL    HW116766   2.605   5.081   6.237
 5289SOL    HW216767   2.749   5.155   6.215
 5290SOL     OW16768   1.600   3.643   5.695
 5290SOL    HW116769   1.606   3.548   5.663
 5290SOL    HW216770   1.644   3.651   5.784
 5291SOL     OW16771   2.994   4.626   5.985
 5291SOL    HW116772   2.938   4.699   6.025
 5291SOL    HW216773   3.007   4.643   5.888
 5292SOL     OW16774   5.670   4.891   6.120
 5292SOL    HW116775   5.744   4.914   6.183
 5292SOL    HW216776   5.651   4.793   6.126
 5293SOL     OW16777   1.735   6.541   5.086
 5293SOL    HW116778   1.760   6.637   5.076
 5293SOL    HW216779   1.762   6.509   5.177
 5294SOL     OW16780   4.765   1.810   5.627
 5294SOL    HW116781   4.673   1.841   5.649
 5294SOL    HW216782   4.792   1.846   5.538
 5295SOL     OW16783   3.708   0.908   3.287
 5295SOL    HW116784   3.789   0.885   3.234
 5295SOL    HW216785   3.717   1.001   3.322
 5296SOL     OW16786   3.517   4.035   0.165
 5296SOL    HW116787   3.615   4.053   0.159
 5296SOL    HW216788   3.483   4.060   0.255
 5297SOL     OW16789   1.582   3.408   0.290
 5297SOL    HW116790   1.622   3.395   0.200
 5297SOL    HW216791   1.483   3.418   0.282
 5298SOL     OW16792   1.818   6.019   6.356
 5298SOL    HW116793   1.903   6.038   6.307
 5298SOL    HW216794   1.741   6.022   6.293
 5299SOL     OW16795   3.025   2.698   0.416
 5299SOL    HW116796   3.004   2.604   0.390
 5299SOL    HW216797   2.947   2.757   0.392
 5300SOL     OW16798   0.855   5.617   1.060
 5300SOL    HW116799   0.760   5.593   1.078
 5300SOL    HW216800   0.886   5.683   1.128
 5301SOL     OW16801   4.207   1.527   6.077
 5301SOL    HW116802   4.272   1.603   6.068
 5301SOL    HW216803   4.229   1.456   6.011
 5302SOL     OW16804   5.789   5.919   3.777
 5302SOL    HW116805   5.690   5.910   3.787
 5302SOL    HW216806   5.832   5.830   3.793
 5303SOL     OW16807   0.115   5.404   5.090
 5303SOL    HW116808   0.120   5.417   5.189
 5303SOL    HW216809   0.208   5.403   5.052
 5304SOL     OW16810   5.788   1.179   0.294
 5304SOL    HW116811   5.705   1.122   0.300
 5304SOL    HW216812   5.827   1.189   0.385
 5305SOL     OW16813   0.812   4.900   2.376
 5305SOL    HW116814   0.775   4.823   2.428
 5305SOL    HW216815   0.817   4.981   2.435
 5306SOL     OW16816   0.742   4.591   5.653
 5306SOL    HW116817   0.818   4.650   5.628
 5306SOL    HW216818   0.755   4.501   5.612
 5307SOL     OW16819   3.744   1.978   0.185
 5307SOL    HW116820   3.752   1.966   0.086
 5307SOL    HW216821   3.706   1.896   0.226
 5308SOL     OW16822   1.510   4.136   2.593
 5308SOL    HW116823   1.569   4.185   2.658
 5308SOL    HW216824   1.420   4.122   2.634
 5309SOL     OW16825   3.867   4.876   1.871
 5309SOL    HW116826   3.780   4.830   1.885
 5309SOL    HW216827   3.921   4.872   1.955
 5310SOL     OW16828   6.071   3.554   1.580
 5310SOL    HW116829   5.996   3.593   1.633
 5310SOL    HW216830   6.126   3.494   1.638
 5311SOL     OW16831   5.920   6.719   0.302
 5311SOL    HW116832   5.834   6.727   0.250
 5311SOL    HW216833   5.942   6.808   0.342
 5312SOL     OW16834   0.936   5.645   1.773
 5312SOL    HW116835   0.840   5.659   1.751
 5312SOL    HW216836   0.953   5.548   1.791
 5313SOL     OW16837   1.265   2.936   5.861
 5313SOL    HW116838   1.178   2.891   5.883
 5313SOL    HW216839   1.335   2.906   5.925
 5314SOL     OW16840   4.188   6.760   0.014
 5314SOL    HW116841   4.101   6.732   0.056
 5314SOL    HW216842   4.249   6.681   0.006
 5315SOL     OW16843   5.035   3.467   1.912
 5315SOL    HW116844   5.064   3.392   1.853
 5315SOL    HW216845   5.079   3.552   1.882
 5316SOL     OW16846   1.049   3.396   5.360
 5316SOL    HW116847   1.099   3.444   5.287
 5316SOL    HW216848   0.962   3.442   5.377
 5317SOL     OW16849   5.939   1.956   5.193
 5317SOL    HW116850   5.896   1.885   5.248
 5317SOL    HW216851   5.986   2.021   5.252
 5318SOL     OW16852   0.740   2.443   0.774
 5318SOL    HW116853   0.699   2.534   0.781
 5318SOL    HW216854   0.766   2.426   0.679
 5319SOL     OW16855   4.219   6.075   0.901
 5319SOL    HW116856   4.229   6.140   0.976
 5319SOL    HW216857   4.259   6.114   0.817
 5320SOL     OW16858   4.321   4.973   0.857
 5320SOL    HW116859   4.296   5.040   0.927
 5320SOL    HW216860   4.252   4.973   0.785
 5321SOL     OW16861   2.141   4.566   4.411
 5321SOL    HW116862   2.172   4.632   4.342
 5321SOL    HW216863   2.162   4.473   4.380
 5322SOL     OW16864   5.066   5.938   0.460
 5322SOL    HW116865   5.073   5.945   0.360
 5322SOL    HW216866   5.050   6.029   0.498
 5323SOL     OW16867   3.783   1.962   6.110
 5323SOL    HW116868   3.689   1.968   6.076
 5323SOL    HW216869   3.804   1.866   6.131
 5324SOL     OW16870   3.552   2.238   0.882
 5324SOL    HW116871   3.564   2.338   0.886
 5324SOL    HW216872   3.634   2.196   0.844
 5325SOL     OW16873   4.348   0.439   4.275
 5325SOL    HW116874   4.419   0.509   4.264
 5325SOL    HW216875   4.392   0.349   4.280
 5326SOL     OW16876   6.760   5.548   3.077
 5326SOL    HW116877   6.750   5.490   2.996
 5326SOL    HW216878   6.673   5.549   3.127
 5327SOL     OW16879   5.835   3.276   5.240
 5327SOL    HW116880   5.837   3.284   5.339
 5327SOL    HW216881   5.756   3.220   5.212
 5328SOL     OW16882   3.817   3.916   5.977
 5328SOL    HW116883   3.789   3.953   6.066
 5328SOL    HW216884   3.794   3.819   5.972
 5329SOL     OW16885   0.515   4.554   6.627
 5329SOL    HW116886   0.416   4.549   6.634
 5329SOL    HW216887   0.549   4.480   6.569
 5330SOL     OW16888   4.614   3.954   0.089
 5330SOL    HW116889   4.641   4.025   0.153
 5330SOL    HW216890   4.515   3.940   0.095
 5331SOL     OW16891   6.386   1.433   6.069
 5331SOL    HW116892   6.304   1.452   6.014
 5331SOL    HW216893   6.392   1.334   6.086
 5332SOL     OW16894   0.676   3.214   1.593
 5332SOL    HW116895   0.581   3.223   1.564
 5332SOL    HW216896   0.685   3.243   1.688
 5333SOL     OW16897   0.891   0.955   3.186
 5333SOL    HW116898   0.859   1.019   3.256
 5333SOL    HW216899   0.991   0.953   3.186
 5334SOL     OW16900   3.434   0.254   4.397
 5334SOL    HW116901   3.346   0.264   4.349
 5334SOL    HW216902   3.490   0.335   4.381
 5335SOL     OW16903   6.989   5.976   0.916
 5335SOL    HW116904   6.913   6.006   0.858
 5335SOL    HW216905   0.005   5.893   0.877
 5336SOL     OW16906   1.987   3.752   2.789
 5336SOL    HW116907   2.045   3.780   2.866
 5336SOL    HW216908   2.009   3.657   2.765
 5337SOL     OW16909   4.832   4.333   1.296
 5337SOL    HW116910   4.831   4.233   1.287
 5337SOL    HW216911   4.854   4.374   1.207
 5338SOL     OW16912   5.877   1.796   0.340
 5338SOL    HW116913   5.919   1.734   0.274
 5338SOL    HW216914   5.786   1.763   0.365
 5339SOL     OW16915   6.798   1.805   3.826
 5339SOL    HW116916   6.755   1.895   3.830
 5339SOL    HW216917   6.740   1.742   3.774
 5340SOL     OW16918   4.553   4.626   0.964
 5340SOL    HW116919   4.541   4.622   1.063
 5340SOL    HW216920   4.638   4.674   0.942
 5341SOL     OW16921   3.850   2.623   6.686
 5341SOL    HW116922   3.932   2.629   6.628
 5341SOL    HW216923   3.794   2.705   6.672
 5342SOL     OW16924   4.136   0.025   3.986
 5342SOL    HW116925   4.219   0.080   3.975
 5342SOL    HW216926   4.161   6.959   4.021
 5343SOL     OW16927   3.384   4.174   4.779
 5343SOL    HW116928   3.318   4.124   4.723
 5343SOL    HW216929   3.335   4.239   4.838
 5344SOL     OW16930   2.055   2.802   2.257
 5344SOL    HW116931   2.149   2.808   2.292
 5344SOL    HW216932   2.021   2.895   2.240
 5345SOL     OW16933   4.055   5.848   1.539
 5345SOL    HW116934   4.131   5.792   1.508
 5345SOL    HW216935   3.976   5.835   1.478
 5346SOL     OW16936   3.132   6.200   3.940
 5346SOL    HW116937   3.225   6.169   3.958
 5346SOL    HW216938   3.077   6.193   4.023
 5347SOL     OW16939   0.740   2.499   2.539
 5347SOL    HW116940   0.703   2.474   2.449
 5347SOL    HW216941   0.682   2.461   2.611
 5348SOL     OW16942   7.018   1.826   0.875
 5348SOL    HW116943   6.936   1.854   0.926
 5348SOL    HW216944   6.991   1.800   0.782
 5349SOL     OW16945   1.379   2.644   0.116
 5349SOL    HW116946   1.402   2.741   0.108
 5349SOL    HW216947   1.460   2.592   0.141
 5350SOL     OW16948   1.335   0.448   5.563
 5350SOL    HW116949   1.391   0.451   5.480
 5350SOL    HW216950   1.241   0.472   5.541
 5351SOL     OW16951   6.034   5.380   1.606
 5351SOL    HW116952   6.088   5.386   1.690
 5351SOL    HW216953   6.095   5.391   1.527
 5352SOL     OW16954   1.639   5.604   4.084
 5352SOL    HW116955   1.703   5.587   4.009
 5352SOL    HW216956   1.546   5.605   4.048
 5353SOL     OW16957   3.783   5.540   3.804
 5353SOL    HW116958   3.731   5.456   3.821
 5353SOL    HW216959   3.755   5.610   3.870
 5354SOL     OW16960   2.373   5.038   1.390
 5354SOL    HW116961   2.308   4.969   1.359
 5354SOL    HW216962   2.442   4.996   1.448
 5355SOL     OW16963   5.005   2.891   3.506
 5355SOL    HW116964   4.984   2.798   3.538
 5355SOL    HW216965   4.953   2.910   3.423
 5356SOL     OW16966   6.008   4.591   1.329
 5356SOL    HW116967   6.058   4.608   1.414
 5356SOL    HW216968   6.022   4.496   1.301
 5357SOL     OW16969   3.612   6.771   0.187
 5357SOL    HW116970   3.620   6.743   0.283
 5357SOL    HW216971   3.625   6.692   0.128
 5358SOL     OW16972   4.401   1.267   0.446
 5358SOL    HW116973   4.353   1.337   0.392
 5358SOL    HW216974   4.391   1.178   0.401
 5359SOL     OW16975   1.938   1.685   6.846
 5359SOL    HW116976   1.938   1.769   6.793
 5359SOL    HW216977   1.851   1.638   6.833
 5360SOL     OW16978   4.448   6.591   5.355
 5360SOL    HW116979   4.382   6.654   5.396
 5360SOL    HW216980   4.457   6.510   5.414
 5361SOL     OW16981   2.045   0.108   4.864
 5361SOL    HW116982   2.084   0.016   4.863
 5361SOL    HW216983   1.999   0.126   4.777
 5362SOL     OW16984   5.831   5.043   3.467
 5362SOL    HW116985   5.929   5.060   3.457
 5362SOL    HW216986   5.791   5.114   3.526
 5363SOL     OW16987   0.483   7.018   6.554
 5363SOL    HW116988   0.458   6.974   6.468
 5363SOL    HW216989   0.464   6.956   6.630
 5364SOL     OW16990   6.881   5.617   1.569
 5364SOL    HW116991   6.843   5.687   1.629
 5364SOL    HW216992   6.887   5.530   1.618
 5365SOL     OW16993   3.649   3.050   0.075
 5365SOL    HW116994   3.746   3.039   0.055
 5365SOL    HW216995   3.595   3.024   7.020
 5366SOL     OW16996   4.980   5.919   1.730
 5366SOL    HW116997   5.053   5.904   1.797
 5366SOL    HW216998   4.964   6.017   1.720
 5367SOL     OW16999   0.559   5.730   0.781
 5367SOL    HW117000   0.526   5.774   0.698
 5367SOL    HW217001   0.602   5.798   0.840
 5368SOL     OW17002   5.237   0.430   2.577
 5368SOL    HW117003   5.315   0.429   2.516
 5368SOL    HW217004   5.262   0.476   2.662
 5369SOL     OW17005   3.259   0.058   2.022
 5369SOL    HW117006   3.159   0.065   2.017
 5369SOL    HW217007   3.287   0.055   2.118
 5370SOL     OW17008   4.586   2.948   1.348
 5370SOL    HW117009   4.527   2.909   1.419
 5370SOL    HW217010   4.605   2.878   1.279
 5371SOL     OW17011   1.660   3.977   4.536
 5371SOL    HW117012   1.684   3.966   4.440
 5371SOL    HW217013   1.705   4.058   4.573
 5372SOL     OW17014   2.240   6.088   3.708
 5372SOL    HW117015   2.187   6.004   3.694
 5372SOL    HW217016   2.282   6.086   3.798
 5373SOL     OW17017   3.276   5.836   3.885
 5373SOL    HW117018   3.312   5.799   3.971
 5373SOL    HW217019   3.311   5.781   3.809
 5374SOL     OW17020   1.138   4.153   0.339
 5374SOL    HW117021   1.097   4.238   0.371
 5374SOL    HW217022   1.104   4.133   0.247
 5375SOL     OW17023   1.460   4.348   4.391
 5375SOL    HW117024   1.539   4.336   4.452
 5375SOL    HW217025   1.403   4.423   4.425
 5376SOL     OW17026   2.149   3.280   0.824
 5376SOL    HW117027   2.078   3.335   0.867
 5376SOL    HW217028   2.213   3.247   0.893
 5377SOL     OW17029   0.297   0.142   1.671
 5377SOL    HW117030   0.352   0.187   1.741
 5377SOL    HW217031   0.269   0.052   1.704
 5378SOL     OW17032   0.210   0.331   2.400
 5378SOL    HW117033   0.170   0.267   2.465
 5378SOL    HW217034   0.145   0.349   2.326
 5379SOL     OW17035   1.649   5.607   5.267
 5379SOL    HW117036   1.640   5.557   5.181
 5379SOL    HW217037   1.645   5.705   5.249
 5380SOL     OW17038   1.690   1.627   3.792
 5380SOL    HW117039   1.766   1.689   3.812
 5380SOL    HW217040   1.712   1.573   3.711
 5381SOL     OW17041   6.300   4.020   0.991
 5381SOL    HW117042   6.284   3.963   1.071
 5381SOL    HW217043   6.281   4.116   1.014
 5382SOL     OW17044   3.331   0.422   2.489
 5382SOL    HW117045   3.295   0.462   2.574
 5382SOL    HW217046   3.422   0.458   2.471
 5383SOL     OW17047   2.596   2.441   5.449
 5383SOL    HW117048   2.535   2.485   5.384
 5383SOL    HW217049   2.691   2.453   5.420
 5384SOL     OW17050   5.690   0.247   4.305
 5384SOL    HW117051   5.664   0.313   4.234
 5384SOL    HW217052   5.766   0.284   4.359
 5385SOL     OW17053   3.117   3.038   3.944
 5385SOL    HW117054   3.078   3.128   3.965
 5385SOL    HW217055   3.051   2.967   3.967
 5386SOL     OW17056   4.733   0.195   4.594
 5386SOL    HW117057   4.812   0.241   4.553
 5386SOL    HW217058   4.687   0.258   4.658
 5387SOL     OW17059   2.844   5.907   3.600
 5387SOL    HW117060   2.843   5.964   3.518
 5387SOL    HW217061   2.926   5.925   3.653
 5388SOL     OW17062   6.200   0.499   3.647
 5388SOL    HW117063   6.107   0.463   3.640
 5388SOL    HW217064   6.257   0.435   3.699
 5389SOL     OW17065   5.189   0.762   1.811
 5389SOL    HW117066   5.171   0.773   1.713
 5389SOL    HW217067   5.108   0.724   1.856
 5390SOL     OW17068   4.740   4.093   3.226
 5390SOL    HW117069   4.726   3.998   3.200
 5390SOL    HW217070   4.666   4.149   3.191
 5391SOL     OW17071   1.674   2.416   1.422
 5391SOL    HW117072   1.682   2.493   1.486
 5391SOL    HW217073   1.606   2.351   1.457
 5392SOL     OW17074   5.945   3.151   0.882
 5392SOL    HW117075   5.932   3.061   0.840
 5392SOL    HW217076   5.968   3.217   0.811
 5393SOL     OW17077   5.396   0.001   6.357
 5393SOL    HW117078   5.436   7.017   6.265
 5393SOL    HW217079   5.459   6.987   6.424
 5394SOL     OW17080   6.823   4.061   6.967
 5394SOL    HW117081   6.797   4.153   6.997
 5394SOL    HW217082   6.917   4.042   6.995
 5395SOL     OW17083   4.876   1.091   2.034
 5395SOL    HW117084   4.961   1.088   2.088
 5395SOL    HW217085   4.797   1.092   2.096
 5396SOL     OW17086   5.008   4.284   2.913
 5396SOL    HW117087   5.078   4.252   2.849
 5396SOL    HW217088   5.017   4.383   2.925
 5397SOL     OW17089   0.063   2.968   2.094
 5397SOL    HW117090   0.014   3.030   2.032
 5397SOL    HW217091   0.142   3.015   2.132
 5398SOL     OW17092   3.218   1.822   2.483
 5398SOL    HW117093   3.260   1.836   2.394
 5398SOL    HW217094   3.147   1.891   2.498
 5399SOL     OW17095   2.305   5.565   6.685
 5399SOL    HW117096   2.237   5.580   6.756
 5399SOL    HW217097   2.341   5.653   6.653
 5400SOL     OW17098   2.707   3.846   0.627
 5400SOL    HW117099   2.673   3.817   0.717
 5400SOL    HW217100   2.795   3.802   0.610
 5401SOL     OW17101   5.863   3.588   1.791
 5401SOL    HW117102   5.764   3.599   1.788
 5401SOL    HW217103   5.886   3.492   1.807
 5402SOL     OW17104   2.234   4.575   1.918
 5402SOL    HW117105   2.270   4.508   1.983
 5402SOL    HW217106   2.300   4.649   1.906
 5403SOL     OW17107   6.408   2.560   6.559
 5403SOL    HW117108   6.347   2.630   6.597
 5403SOL    HW217109   6.390   2.551   6.461
 5404SOL     OW17110   1.060   1.272   2.975
 5404SOL    HW117111   1.057   1.237   2.882
 5404SOL    HW217112   0.967   1.277   3.012
 5405SOL     OW17113   5.621   5.896   7.014
 5405SOL    HW117114   5.634   5.830   6.940
 5405SOL    HW217115   5.529   5.934   7.009
 5406SOL     OW17116   2.402   0.541   0.070
 5406SOL    HW117117   2.338   0.565   7.021
 5406SOL    HW217118   2.377   0.591   0.153
 5407SOL     OW17119   4.255   3.126   1.237
 5407SOL    HW117120   4.286   3.031   1.234
 5407SOL    HW217121   4.296   3.172   1.315
 5408SOL     OW17122   3.170   1.085   6.516
 5408SOL    HW117123   3.102   1.116   6.582
 5408SOL    HW217124   3.152   1.127   6.427
 5409SOL     OW17125   6.012   1.013   3.812
 5409SOL    HW117126   6.042   0.918   3.800
 5409SOL    HW217127   6.066   1.056   3.884
 5410SOL     OW17128   2.573   2.226   1.600
 5410SOL    HW117129   2.618   2.256   1.684
 5410SOL    HW217130   2.605   2.134   1.576
 5411SOL     OW17131   6.358   5.464   5.623
 5411SOL    HW117132   6.290   5.393   5.607
 5411SOL    HW217133   6.356   5.530   5.548
 5412SOL     OW17134   3.759   1.170   6.752
 5412SOL    HW117135   3.795   1.158   6.845
 5412SOL    HW217136   3.803   1.105   6.691
 5413SOL     OW17137   2.138   1.484   1.152
 5413SOL    HW117138   2.063   1.549   1.156
 5413SOL    HW217139   2.224   1.529   1.177
 5414SOL     OW17140   5.144   2.345   4.899
 5414SOL    HW117141   5.144   2.445   4.893
 5414SOL    HW217142   5.164   2.318   4.993
 5415SOL     OW17143   1.605   5.614   0.843
 5415SOL    HW117144   1.571   5.698   0.886
 5415SOL    HW217145   1.528   5.560   0.809
 5416SOL     OW17146   4.618   5.119   6.005
 5416SOL    HW117147   4.614   5.170   6.091
 5416SOL    HW217148   4.695   5.055   6.007
 5417SOL     OW17149   4.003   6.758   5.288
 5417SOL    HW117150   4.017   6.675   5.233
 5417SOL    HW217151   4.034   6.741   5.382
 5418SOL     OW17152   3.437   6.577   3.612
 5418SOL    HW117153   3.529   6.537   3.612
 5418SOL    HW217154   3.374   6.515   3.659
 5419SOL     OW17155   2.615   5.388   0.544
 5419SOL    HW117156   2.694   5.374   0.484
 5419SOL    HW217157   2.642   5.446   0.621
 5420SOL     OW17158   1.054   2.242   2.417
 5420SOL    HW117159   1.096   2.155   2.391
 5420SOL    HW217160   1.113   2.317   2.387
 5421SOL     OW17161   2.215   3.079   2.667
 5421SOL    HW117162   2.300   3.029   2.684
 5421SOL    HW217163   2.229   3.146   2.594
 5422SOL     OW17164   0.701   5.653   0.217
 5422SOL    HW117165   0.737   5.662   0.125
 5422SOL    HW217166   0.669   5.560   0.232
 5423SOL     OW17167   5.938   2.789   7.014
 5423SOL    HW117168   5.880   2.834   6.946
 5423SOL    HW217169   5.884   2.770   0.071
 5424SOL     OW17170   5.089   2.956   4.261
 5424SOL    HW117171   5.116   2.876   4.208
 5424SOL    HW217172   5.133   2.954   4.351
 5425SOL     OW17173   4.067   1.597   4.110
 5425SOL    HW117174   4.160   1.634   4.111
 5425SOL    HW217175   4.072   1.497   4.103
 5426SOL     OW17176   6.426   5.223   3.948
 5426SOL    HW117177   6.457   5.134   3.981
 5426SOL    HW217178   6.449   5.233   3.851
 5427SOL     OW17179   4.490   4.905   0.331
 5427SOL    HW117180   4.473   4.876   0.237
 5427SOL    HW217181   4.589   4.910   0.346
 5428SOL     OW17182   0.200   6.870   1.692
 5428SOL    HW117183   0.178   6.822   1.607
 5428SOL    HW217184   0.159   6.821   1.769
 5429SOL     OW17185   1.409   2.123   6.515
 5429SOL    HW117186   1.319   2.134   6.473
 5429SOL    HW217187   1.415   2.033   6.559
 5430SOL     OW17188   0.509   3.321   6.154
 5430SOL    HW117189   0.431   3.349   6.210
 5430SOL    HW217190   0.594   3.342   6.202
 5431SOL     OW17191   3.416   5.673   0.522
 5431SOL    HW117192   3.397   5.743   0.454
 5431SOL    HW217193   3.433   5.586   0.477
 5432SOL     OW17194   5.138   6.656   6.816
 5432SOL    HW117195   5.039   6.652   6.804
 5432SOL    HW217196   5.160   6.660   6.914
 5433SOL     OW17197   0.502   1.937   3.960
 5433SOL    HW117198   0.423   1.890   4.001
 5433SOL    HW217199   0.563   1.869   3.919
 5434SOL     OW17200   4.192   0.680   5.195
 5434SOL    HW117201   4.245   0.765   5.201
 5434SOL    HW217202   4.101   0.701   5.157
 5435SOL     OW17203   5.138   1.066   1.812
 5435SOL    HW117204   5.049   1.022   1.816
 5435SOL    HW217205   5.192   1.040   1.892
 5436SOL     OW17206   5.077   3.854   3.832
 5436SOL    HW117207   5.141   3.926   3.860
 5436SOL    HW217208   5.030   3.818   3.913
 5437SOL     OW17209   3.309   4.788   5.941
 5437SOL    HW117210   3.395   4.804   5.990
 5437SOL    HW217211   3.239   4.851   5.976
 5438SOL     OW17212   6.626   3.626   2.369
 5438SOL    HW117213   6.714   3.578   2.365
 5438SOL    HW217214   6.609   3.658   2.462
 5439SOL     OW17215   1.237   2.573   0.916
 5439SOL    HW117216   1.336   2.582   0.931
 5439SOL    HW217217   1.194   2.662   0.927
 5440SOL     OW17218   0.577   1.218   2.067
 5440SOL    HW117219   0.608   1.129   2.100
 5440SOL    HW217220   0.633   1.290   2.107
 5441SOL     OW17221   4.902   2.338   2.627
 5441SOL    HW117222   4.869   2.334   2.533
 5441SOL    HW217223   4.924   2.433   2.650
 5442SOL     OW17224   3.178   5.761   3.220
 5442SOL    HW117225   3.188   5.670   3.262
 5442SOL    HW217226   3.267   5.793   3.187
 5443SOL     OW17227   2.439   0.853   3.782
 5443SOL    HW117228   2.356   0.799   3.768
 5443SOL    HW217229   2.413   0.949   3.793
 5444SOL     OW17230   1.741   0.657   4.366
 5444SOL    HW117231   1.800   0.611   4.299
 5444SOL    HW217232   1.656   0.606   4.375
 5445SOL     OW17233   6.024   3.712   3.620
 5445SOL    HW117234   5.990   3.805   3.631
 5445SOL    HW217235   5.992   3.655   3.696
 5446SOL     OW17236   6.590   5.373   5.157
 5446SOL    HW117237   6.519   5.399   5.223
 5446SOL    HW217238   6.679   5.407   5.188
 5447SOL     OW17239   2.603   1.433   6.506
 5447SOL    HW117240   2.526   1.497   6.501
 5447SOL    HW217241   2.686   1.482   6.531
 5448SOL     OW17242   4.686   2.877   5.015
 5448SOL    HW117243   4.734   2.794   5.045
 5448SOL    HW217244   4.605   2.890   5.073
 5449SOL     OW17245   1.904   2.543   6.765
 5449SOL    HW117246   1.949   2.607   6.703
 5449SOL    HW217247   1.829   2.497   6.718
 5450SOL     OW17248   1.651   0.557   2.091
 5450SOL    HW117249   1.664   0.583   2.187
 5450SOL    HW217250   1.675   0.460   2.080
 5451SOL     OW17251   1.108   6.331   3.317
 5451SOL    HW117252   1.161   6.262   3.366
 5451SOL    HW217253   1.149   6.348   3.227
 5452SOL     OW17254   2.236   4.177   6.580
 5452SOL    HW117255   2.301   4.178   6.505
 5452SOL    HW217256   2.149   4.218   6.550
 5453SOL     OW17257   5.672   4.693   1.519
 5453SOL    HW117258   5.586   4.719   1.564
 5453SOL    HW217259   5.740   4.765   1.530
 5454SOL     OW17260   6.926   4.039   6.624
 5454SOL    HW117261   6.973   4.078   6.703
 5454SOL    HW217262   6.904   3.943   6.643
 5455SOL     OW17263   6.214   3.629   0.502
 5455SOL    HW117264   6.185   3.671   0.416
 5455SOL    HW217265   6.176   3.681   0.579
 5456SOL     OW17266   2.955   0.434   6.758
 5456SOL    HW117267   3.030   0.386   6.804
 5456SOL    HW217268   2.885   0.367   6.731
 5457SOL     OW17269   6.164   2.632   6.886
 5457SOL    HW117270   6.134   2.703   6.950
 5457SOL    HW217271   6.115   2.642   6.800
 5458SOL     OW17272   0.599   4.442   0.504
 5458SOL    HW117273   0.581   4.514   0.571
 5458SOL    HW217274   0.516   4.423   0.451
 5459SOL     OW17275   2.499   3.927   6.494
 5459SOL    HW117276   2.568   3.855   6.487
 5459SOL    HW217277   2.412   3.887   6.521
 5460SOL     OW17278   3.595   0.273   3.188
 5460SOL    HW117279   3.562   0.199   3.246
 5460SOL    HW217280   3.522   0.300   3.124
 5461SOL     OW17281   5.958   6.898   5.221
 5461SOL    HW117282   5.996   6.974   5.273
 5461SOL    HW217283   5.935   6.929   5.128
 5462SOL     OW17284   1.019   0.110   6.626
 5462SOL    HW117285   0.920   0.121   6.617
 5462SOL    HW217286   1.064   0.195   6.597
 5463SOL     OW17287   6.713   2.435   0.286
 5463SOL    HW117288   6.757   2.489   0.215
 5463SOL    HW217289   6.616   2.427   0.268
 5464SOL     OW17290   0.988   1.519   3.729
 5464SOL    HW117291   1.060   1.541   3.664
 5464SOL    HW217292   0.998   1.576   3.811
 5465SOL     OW17293   3.889   6.121   3.308
 5465SOL    HW117294   3.894   6.169   3.220
 5465SOL    HW217295   3.796   6.084   3.320
 5466SOL     OW17296   5.277   4.027   5.387
 5466SOL    HW117297   5.288   4.005   5.484
 5466SOL    HW217298   5.311   4.119   5.370
 5467SOL     OW17299   5.378   2.641   3.249
 5467SOL    HW117300   5.291   2.652   3.202
 5467SOL    HW217301   5.450   2.624   3.181
 5468SOL     OW17302   5.654   2.214   4.752
 5468SOL    HW117303   5.698   2.187   4.666
 5468SOL    HW217304   5.610   2.303   4.739
 5469SOL     OW17305   3.960   5.664   6.515
 5469SOL    HW117306   4.020   5.586   6.496
 5469SOL    HW217307   3.913   5.649   6.602
 5470SOL     OW17308   3.310   6.044   2.548
 5470SOL    HW117309   3.403   6.069   2.519
 5470SOL    HW217310   3.314   5.962   2.605
 5471SOL     OW17311   5.110   0.175   2.625
 5471SOL    HW117312   5.164   0.258   2.638
 5471SOL    HW217313   5.167   0.104   2.584
 5472SOL     OW17314   4.030   3.952   5.800
 5472SOL    HW117315   3.950   3.945   5.860
 5472SOL    HW217316   4.081   3.866   5.803
 5473SOL     OW17317   0.023   3.592   3.062
 5473SOL    HW117318   0.058   3.678   3.098
 5473SOL    HW217319   6.949   3.599   3.050
 5474SOL     OW17320   1.649   4.375   4.578
 5474SOL    HW117321   1.717   4.431   4.531
 5474SOL    HW217322   1.693   4.325   4.653
 5475SOL     OW17323   2.350   2.417   1.595
 5475SOL    HW117324   2.447   2.392   1.586
 5475SOL    HW217325   2.335   2.461   1.683
 5476SOL     OW17326   1.770   4.372   5.404
 5476SOL    HW117327   1.759   4.324   5.492
 5476SOL    HW217328   1.717   4.457   5.406
 5477SOL     OW17329   2.332   4.406   3.793
 5477SOL    HW117330   2.411   4.466   3.787
 5477SOL    HW217331   2.303   4.377   3.702
 5478SOL     OW17332   4.079   5.389   5.280
 5478SOL    HW117333   4.085   5.296   5.244
 5478SOL    HW217334   4.092   5.455   5.206
 5479SOL     OW17335   4.781   1.455   6.226
 5479SOL    HW117336   4.823   1.488   6.141
 5479SOL    HW217337   4.717   1.523   6.260
 5480SOL     OW17338   6.930   4.085   3.249
 5480SOL    HW117339   6.904   3.990   3.266
 5480SOL    HW217340   7.023   4.088   3.212
 5481SOL     OW17341   4.384   1.422   4.363
 5481SOL    HW117342   4.388   1.515   4.400
 5481SOL    HW217343   4.309   1.372   4.408
 5482SOL     OW17344   3.688   4.778   1.602
 5482SOL    HW117345   3.718   4.873   1.597
 5482SOL    HW217346   3.658   4.757   1.694
 5483SOL     OW17347   0.173   2.056   5.863
 5483SOL    HW117348   0.241   2.116   5.904
 5483SOL    HW217349   0.130   2.102   5.786
 5484SOL     OW17350   4.310   0.867   4.860
 5484SOL    HW117351   4.369   0.941   4.827
 5484SOL    HW217352   4.246   0.904   4.928
 5485SOL     OW17353   4.407   0.285   5.524
 5485SOL    HW117354   4.496   0.265   5.481
 5485SOL    HW217355   4.334   0.266   5.459
 5486SOL     OW17356   2.849   5.588   5.577
 5486SOL    HW117357   2.852   5.687   5.567
 5486SOL    HW217358   2.775   5.563   5.639
 5487SOL     OW17359   3.969   3.707   6.622
 5487SOL    HW117360   3.907   3.663   6.687
 5487SOL    HW217361   4.061   3.708   6.659
 5488SOL     OW17362   6.355   0.630   1.362
 5488SOL    HW117363   6.414   0.674   1.430
 5488SOL    HW217364   6.299   0.560   1.406
 5489SOL     OW17365   6.943   3.496   1.356
 5489SOL    HW117366   6.964   3.402   1.382
 5489SOL    HW217367   6.920   3.549   1.437
 5490SOL     OW17368   2.443   0.111   2.273
 5490SOL    HW117369   2.533   0.140   2.239
 5490SOL    HW217370   2.382   0.097   2.195
 5491SOL     OW17371   0.692   2.832   0.159
 5491SOL    HW117372   0.616   2.783   0.202
 5491SOL    HW217373   0.730   2.776   0.085
 5492SOL     OW17374   0.418   3.049   5.999
 5492SOL    HW117375   0.425   3.131   6.056
 5492SOL    HW217376   0.509   3.023   5.967
 5493SOL     OW17377   3.899   3.683   3.302
 5493SOL    HW117378   3.964   3.671   3.226
 5493SOL    HW217379   3.873   3.779   3.308
 5494SOL     OW17380   6.932   4.064   5.256
 5494SOL    HW117381   6.937   4.044   5.354
 5494SOL    HW217382   6.902   3.982   5.207
 5495SOL     OW17383   5.694   0.760   1.225
 5495SOL    HW117384   5.601   0.794   1.242
 5495SOL    HW217385   5.746   0.829   1.175
 5496SOL     OW17386   4.282   1.147   3.543
 5496SOL    HW117387   4.282   1.056   3.501
 5496SOL    HW217388   4.270   1.138   3.642
 5497SOL     OW17389   0.422   1.547   5.581
 5497SOL    HW117390   0.406   1.607   5.503
 5497SOL    HW217391   0.486   1.475   5.554
 5498SOL     OW17392   6.669   4.940   2.122
 5498SOL    HW117393   6.639   4.915   2.214
 5498SOL    HW217394   6.715   4.862   2.080
 5499SOL     OW17395   0.865   0.432   3.723
 5499SOL    HW117396   0.767   0.452   3.732
 5499SOL    HW217397   0.882   0.390   3.634
 5500SOL     OW17398   1.047   0.683   0.046
 5500SOL    HW117399   1.060   0.589   0.077
 5500SOL    HW217400   1.066   0.689   6.973
 5501SOL     OW17401   3.953   1.836   0.849
 5501SOL    HW117402   3.864   1.871   0.821
 5501SOL    HW217403   3.979   1.877   0.937
 5502SOL     OW17404   5.837   3.433   6.364
 5502SOL    HW117405   5.783   3.422   6.280
 5502SOL    HW217406   5.780   3.414   6.443
 5503SOL     OW17407   0.022   4.473   0.969
 5503SOL    HW117408   0.053   4.422   0.890
 5503SOL    HW217409   0.002   4.410   1.044
 5504SOL     OW17410   4.537   1.169   5.269
 5504SOL    HW117411   4.534   1.267   5.286
 5504SOL    HW217412   4.632   1.137   5.270
 5505SOL     OW17413   2.064   5.014   3.403
 5505SOL    HW117414   2.136   5.078   3.429
 5505SOL    HW217415   1.975   5.054   3.425
 5506SOL     OW17416   0.280   3.273   0.217
 5506SOL    HW117417   0.327   3.189   0.248
 5506SOL    HW217418   0.213   3.300   0.286
 5507SOL     OW17419   3.949   0.632   5.041
 5507SOL    HW117420   3.896   0.566   4.987
 5507SOL    HW217421   3.912   0.723   5.027
 5508SOL     OW17422   1.020   0.605   0.450
 5508SOL    HW117423   0.937   0.549   0.441
 5508SOL    HW217424   1.032   0.634   0.545
 5509SOL     OW17425   0.433   5.814   0.216
 5509SOL    HW117426   0.384   5.757   0.282
 5509SOL    HW217427   0.532   5.806   0.231
 5510SOL     OW17428   4.736   5.151   6.626
 5510SOL    HW117429   4.678   5.101   6.691
 5510SOL    HW217430   4.819   5.181   6.673
 5511SOL     OW17431   1.146   1.135   5.078
 5511SOL    HW117432   1.185   1.065   5.138
 5511SOL    HW217433   1.153   1.224   5.122
 5512SOL     OW17434   3.201   1.273   0.710
 5512SOL    HW117435   3.230   1.355   0.760
 5512SOL    HW217436   3.112   1.289   0.668
 5513SOL     OW17437   3.585   5.001   5.491
 5513SOL    HW117438   3.655   4.938   5.524
 5513SOL    HW217439   3.522   4.952   5.431
 5514SOL     OW17440   3.410   0.204   5.226
 5514SOL    HW117441   3.474   0.271   5.188
 5514SOL    HW217442   3.449   0.164   5.308
 5515SOL     OW17443   1.655   5.672   1.807
 5515SOL    HW117444   1.631   5.585   1.850
 5515SOL    HW217445   1.619   5.748   1.863
 5516SOL     OW17446   2.349   2.749   4.994
 5516SOL    HW117447   2.390   2.823   5.046
 5516SOL    HW217448   2.346   2.773   4.897
 5517SOL     OW17449   2.060   3.704   1.890
 5517SOL    HW117450   1.965   3.710   1.921
 5517SOL    HW217451   2.108   3.634   1.944
 5518SOL     OW17452   6.289   4.792   5.675
 5518SOL    HW117453   6.349   4.872   5.682
 5518SOL    HW217454   6.298   4.736   5.758
 5519SOL     OW17455   5.667   3.197   3.447
 5519SOL    HW117456   5.627   3.266   3.387
 5519SOL    HW217457   5.765   3.216   3.458
 5520SOL     OW17458   5.845   6.556   2.012
 5520SOL    HW117459   5.786   6.584   1.936
 5520SOL    HW217460   5.816   6.603   2.096
 5521SOL     OW17461   5.683   5.607   1.364
 5521SOL    HW117462   5.592   5.646   1.349
 5521SOL    HW217463   5.745   5.640   1.293
 5522SOL     OW17464   6.557   5.609   1.727
 5522SOL    HW117465   6.643   5.604   1.778
 5522SOL    HW217466   6.550   5.530   1.666
 5523SOL     OW17467   4.928   1.064   2.417
 5523SOL    HW117468   4.836   1.104   2.415
 5523SOL    HW217469   4.990   1.120   2.362
 5524SOL     OW17470   3.162   0.006   4.463
 5524SOL    HW117471   3.192   0.066   4.537
 5524SOL    HW217472   3.236   7.021   4.397
 5525SOL     OW17473   0.617   2.419   0.339
 5525SOL    HW117474   0.697   2.392   0.393
 5525SOL    HW217475   0.637   2.405   0.242
 5526SOL     OW17476   4.525   4.553   2.755
 5526SOL    HW117477   4.495   4.504   2.673
 5526SOL    HW217478   4.595   4.500   2.802
 5527SOL     OW17479   4.839   3.551   3.190
 5527SOL    HW117480   4.845   3.604   3.105
 5527SOL    HW217481   4.887   3.464   3.178
 5528SOL     OW17482   1.381   1.306   1.280
 5528SOL    HW117483   1.459   1.306   1.343
 5528SOL    HW217484   1.342   1.214   1.276
 5529SOL     OW17485   2.764   7.004   3.621
 5529SOL    HW117486   2.830   6.991   3.546
 5529SOL    HW217487   2.728   6.915   3.649
 5530SOL     OW17488   6.554   2.232   1.602
 5530SOL    HW117489   6.508   2.176   1.533
 5530SOL    HW217490   6.566   2.179   1.686
 5531SOL     OW17491   3.879   3.620   1.594
 5531SOL    HW117492   3.871   3.573   1.682
 5531SOL    HW217493   3.848   3.715   1.604
 5532SOL     OW17494   1.915   2.941   0.713
 5532SOL    HW117495   1.997   2.890   0.689
 5532SOL    HW217496   1.879   2.908   0.800
 5533SOL     OW17497   4.786   1.503   3.827
 5533SOL    HW117498   4.762   1.585   3.879
 5533SOL    HW217499   4.721   1.491   3.752
 5534SOL     OW17500   0.992   1.035   6.287
 5534SOL    HW117501   0.899   1.032   6.324
 5534SOL    HW217502   1.012   0.948   6.242
 5535SOL     OW17503   1.069   1.214   2.679
 5535SOL    HW117504   1.018   1.293   2.645
 5535SOL    HW217505   1.055   1.137   2.616
 5536SOL     OW17506   4.072   0.393   4.312
 5536SOL    HW117507   4.161   0.404   4.356
 5536SOL    HW217508   4.044   0.296   4.317
 5537SOL     OW17509   3.789   1.643   2.694
 5537SOL    HW117510   3.799   1.584   2.775
 5537SOL    HW217511   3.706   1.698   2.703
 5538SOL     OW17512   3.852   6.117   4.604
 5538SOL    HW117513   3.806   6.196   4.562
 5538SOL    HW217514   3.788   6.040   4.608
 5539SOL     OW17515   1.814   3.649   1.470
 5539SOL    HW117516   1.731   3.611   1.512
 5539SOL    HW217517   1.894   3.619   1.522
 5540SOL     OW17518   4.554   4.867   3.748
 5540SOL    HW117519   4.545   4.771   3.775
 5540SOL    HW217520   4.566   4.874   3.649
 5541SOL     OW17521   4.970   1.054   6.264
 5541SOL    HW117522   4.989   0.963   6.299
 5541SOL    HW217523   4.902   1.099   6.323
 5542SOL     OW17524   3.956   3.525   6.207
 5542SOL    HW117525   4.039   3.543   6.155
 5542SOL    HW217526   3.932   3.607   6.260
 5543SOL     OW17527   5.706   3.792   6.949
 5543SOL    HW117528   5.667   3.803   6.857
 5543SOL    HW217529   5.678   3.704   6.987
 5544SOL     OW17530   5.446   0.439   6.451
 5544SOL    HW117531   5.387   0.469   6.375
 5544SOL    HW217532   5.401   0.458   6.538
 5545SOL     OW17533   4.004   1.898   3.331
 5545SOL    HW117534   3.950   1.982   3.338
 5545SOL    HW217535   4.077   1.900   3.400
 5546SOL     OW17536   1.109   5.479   5.637
 5546SOL    HW117537   1.088   5.389   5.600
 5546SOL    HW217538   1.200   5.476   5.680
 5547SOL     OW17539   3.261   6.058   4.967
 5547SOL    HW117540   3.243   6.155   4.946
 5547SOL    HW217541   3.179   6.004   4.947
 5548SOL     OW17542   6.217   3.580   5.501
 5548SOL    HW117543   6.295   3.622   5.547
 5548SOL    HW217544   6.172   3.516   5.564
 5549SOL     OW17545   3.341   5.020   6.795
 5549SOL    HW117546   3.315   5.111   6.827
 5549SOL    HW217547   3.260   4.962   6.791
 5550SOL     OW17548   2.560   5.752   1.820
 5550SOL    HW117549   2.488   5.822   1.818
 5550SOL    HW217550   2.519   5.662   1.804
 5551SOL     OW17551   1.525   0.542   3.258
 5551SOL    HW117552   1.580   0.623   3.241
 5551SOL    HW217553   1.448   0.540   3.194
 5552SOL     OW17554   0.167   1.580   0.576
 5552SOL    HW117555   0.116   1.663   0.600
 5552SOL    HW217556   0.259   1.606   0.546
 5553SOL     OW17557   4.544   6.978   6.930
 5553SOL    HW117558   4.633   6.933   6.929
 5553SOL    HW217559   4.474   6.911   6.955
 5554SOL     OW17560   3.049   2.473   5.325
 5554SOL    HW117561   2.981   2.413   5.368
 5554SOL    HW217562   3.117   2.418   5.277
 5555SOL     OW17563   0.583   5.402   3.154
 5555SOL    HW117564   0.639   5.474   3.195
 5555SOL    HW217565   0.487   5.418   3.175
 5556SOL     OW17566   1.053   2.076   4.882
 5556SOL    HW117567   1.061   2.166   4.839
 5556SOL    HW217568   1.126   2.064   4.949
 5557SOL     OW17569   2.590   5.950   3.672
 5557SOL    HW117570   2.592   6.043   3.709
 5557SOL    HW217571   2.683   5.918   3.656
 5558SOL     OW17572   5.071   2.894   5.213
 5558SOL    HW117573   5.120   2.812   5.184
 5558SOL    HW217574   5.127   2.975   5.193
 5559SOL     OW17575   2.409   7.024   0.886
 5559SOL    HW117576   2.409   0.002   0.986
 5559SOL    HW217577   2.496   6.989   0.853
 5560SOL     OW17578   0.522   0.962   2.868
 5560SOL    HW117579   0.554   0.956   2.963
 5560SOL    HW217580   0.586   1.017   2.815
 5561SOL     OW17581   1.561   3.366   4.027
 5561SOL    HW117582   1.488   3.422   4.065
 5561SOL    HW217583   1.648   3.391   4.069
 5562SOL     OW17584   1.911   2.509   6.355
 5562SOL    HW117585   1.854   2.464   6.424
 5562SOL    HW217586   1.898   2.464   6.267
 5563SOL     OW17587   4.438   6.491   2.334
 5563SOL    HW117588   4.495   6.478   2.415
 5563SOL    HW217589   4.356   6.434   2.341
 5564SOL     OW17590   5.005   4.051   1.842
 5564SOL    HW117591   4.985   4.008   1.754
 5564SOL    HW217592   4.923   4.052   1.899
 5565SOL     OW17593   4.229   2.301   5.655
 5565SOL    HW117594   4.258   2.388   5.694
 5565SOL    HW217595   4.134   2.284   5.678
 5566SOL     OW17596   1.999   5.465   0.714
 5566SOL    HW117597   2.051   5.397   0.662
 5566SOL    HW217598   1.962   5.534   0.652
 5567SOL     OW17599   1.680   5.654   1.159
 5567SOL    HW117600   1.750   5.587   1.134
 5567SOL    HW217601   1.590   5.618   1.133
 5568SOL     OW17602   4.399   1.447   1.120
 5568SOL    HW117603   4.395   1.473   1.216
 5568SOL    HW217604   4.494   1.430   1.094
 5569SOL     OW17605   4.270   1.718   1.499
 5569SOL    HW117606   4.309   1.808   1.478
 5569SOL    HW217607   4.316   1.648   1.445
 5570SOL     OW17608   6.356   4.413   5.313
 5570SOL    HW117609   6.280   4.465   5.274
 5570SOL    HW217610   6.442   4.443   5.271
 5571SOL     OW17611   0.122   5.785   0.469
 5571SOL    HW117612   0.093   5.769   0.375
 5571SOL    HW217613   0.147   5.881   0.481
 5572SOL     OW17614   3.990   2.414   6.118
 5572SOL    HW117615   3.986   2.345   6.191
 5572SOL    HW217616   3.899   2.426   6.079
 5573SOL     OW17617   1.360   3.920   0.706
 5573SOL    HW117618   1.275   3.971   0.718
 5573SOL    HW217619   1.342   3.839   0.650
 5574SOL     OW17620   0.308   6.554   4.737
 5574SOL    HW117621   0.258   6.524   4.818
 5574SOL    HW217622   0.243   6.583   4.667
 5575SOL     OW17623   1.306   1.037   1.110
 5575SOL    HW117624   1.277   0.953   1.063
 5575SOL    HW217625   1.279   1.032   1.206
 5576SOL     OW17626   5.815   5.915   0.457
 5576SOL    HW117627   5.757   5.858   0.398
 5576SOL    HW217628   5.881   5.964   0.401
 5577SOL     OW17629   2.435   3.469   5.321
 5577SOL    HW117630   2.413   3.567   5.323
 5577SOL    HW217631   2.357   3.418   5.284
 5578SOL     OW17632   4.355   2.732   0.307
 5578SOL    HW117633   4.402   2.738   0.219
 5578SOL    HW217634   4.416   2.763   0.380
 5579SOL     OW17635   5.462   3.606   6.935
 5579SOL    HW117636   5.410   3.526   6.905
 5579SOL    HW217637   5.400   3.684   6.945
 5580SOL     OW17638   5.170   0.890   0.647
 5580SOL    HW117639   5.177   0.799   0.687
 5580SOL    HW217640   5.105   0.945   0.699
 5581SOL     OW17641   1.616   0.539   6.371
 5581SOL    HW117642   1.664   0.600   6.434
 5581SOL    HW217643   1.519   0.560   6.372
 5582SOL     OW17644   3.592   3.344   3.927
 5582SOL    HW117645   3.530   3.291   3.985
 5582SOL    HW217646   3.593   3.439   3.957
 5583SOL     OW17647   3.412   7.008   1.811
 5583SOL    HW117648   3.352   6.998   1.890
 5583SOL    HW217649   3.381   0.059   1.754
 5584SOL     OW17650   6.384   4.389   2.994
 5584SOL    HW117651   6.469   4.437   2.973
 5584SOL    HW217652   6.405   4.295   3.022
 5585SOL     OW17653   6.769   0.702   3.871
 5585SOL    HW117654   6.790   0.605   3.876
 5585SOL    HW217655   6.818   0.743   3.793
 5586SOL     OW17656   2.491   1.538   6.026
 5586SOL    HW117657   2.562   1.575   5.966
 5586SOL    HW217658   2.418   1.499   5.970
 5587SOL     OW17659   4.040   0.579   3.616
 5587SOL    HW117660   4.123   0.578   3.560
 5587SOL    HW217661   3.964   0.616   3.562
 5588SOL     OW17662   2.455   0.200   5.434
 5588SOL    HW117663   2.367   0.246   5.447
 5588SOL    HW217664   2.453   0.148   5.349
 5589SOL     OW17665   4.891   2.714   6.118
 5589SOL    HW117666   4.796   2.691   6.135
 5589SOL    HW217667   4.934   2.745   6.204
 5590SOL     OW17668   0.016   5.953   4.404
 5590SOL    HW117669   0.059   6.020   4.343
 5590SOL    HW217670   7.007   6.000   4.486
 5591SOL     OW17671   5.730   0.609   0.068
 5591SOL    HW117672   5.661   0.539   0.090
 5591SOL    HW217673   5.809   0.565   0.026
 5592SOL     OW17674   1.649   3.989   2.787
 5592SOL    HW117675   1.705   3.983   2.705
 5592SOL    HW217676   1.706   3.980   2.868
 5593SOL     OW17677   1.454   2.793   5.999
 5593SOL    HW117678   1.528   2.744   6.045
 5593SOL    HW217679   1.425   2.741   5.918
 5594SOL     OW17680   1.841   0.007   0.449
 5594SOL    HW117681   1.871   6.939   0.427
 5594SOL    HW217682   1.762   0.003   0.511
 5595SOL     OW17683   6.589   1.610   5.970
 5595SOL    HW117684   6.666   1.557   6.005
 5595SOL    HW217685   6.522   1.549   5.928
 5596SOL     OW17686   5.094   0.706   2.464
 5596SOL    HW117687   5.125   0.632   2.525
 5596SOL    HW217688   4.994   0.706   2.460
 5597SOL     OW17689   6.248   1.395   6.537
 5597SOL    HW117690   6.194   1.460   6.484
 5597SOL    HW217691   6.192   1.314   6.557
 5598SOL     OW17692   6.366   1.601   3.899
 5598SOL    HW117693   6.426   1.557   3.832
 5598SOL    HW217694   6.412   1.603   3.988
 5599SOL     OW17695   4.894   4.083   2.193
 5599SOL    HW117696   4.976   4.140   2.199
 5599SOL    HW217697   4.843   4.105   2.110
 5600SOL     OW17698   2.285   0.949   2.863
 5600SOL    HW117699   2.264   0.946   2.765
 5600SOL    HW217700   2.341   1.030   2.882
 5601SOL     OW17701   5.347   3.463   5.635
 5601SOL    HW117702   5.268   3.403   5.646
 5601SOL    HW217703   5.361   3.482   5.537
 5602SOL     OW17704   0.414   2.477   3.448
 5602SOL    HW117705   0.498   2.511   3.406
 5602SOL    HW217706   0.402   2.380   3.424
 5603SOL     OW17707   4.085   2.174   4.881
 5603SOL    HW117708   4.131   2.260   4.906
 5603SOL    HW217709   4.074   2.170   4.782
 5604SOL     OW17710   0.836   0.065   3.788
 5604SOL    HW117711   0.829   0.082   3.886
 5604SOL    HW217712   0.745   0.056   3.748
 5605SOL     OW17713   2.507   6.075   4.502
 5605SOL    HW117714   2.507   6.163   4.551
 5605SOL    HW217715   2.413   6.045   4.490
 5606SOL     OW17716   4.557   2.131   0.536
 5606SOL    HW117717   4.633   2.081   0.494
 5606SOL    HW217718   4.578   2.149   0.632
 5607SOL     OW17719   6.056   2.951   2.077
 5607SOL    HW117720   6.079   2.857   2.099
 5607SOL    HW217721   6.140   3.005   2.067
 5608SOL     OW17722   4.924   1.280   3.762
 5608SOL    HW117723   4.862   1.216   3.717
 5608SOL    HW217724   4.877   1.366   3.779
 5609SOL     OW17725   6.286   6.741   1.018
 5609SOL    HW117726   6.333   6.788   1.093
 5609SOL    HW217727   6.221   6.676   1.055
 5610SOL     OW17728   5.218   4.503   0.151
 5610SOL    HW117729   5.169   4.420   0.177
 5610SOL    HW217730   5.315   4.492   0.172
 5611SOL     OW17731   0.163   5.299   1.748
 5611SOL    HW117732   0.209   5.259   1.827
 5611SOL    HW217733   0.218   5.373   1.711
 5612SOL     OW17734   2.998   0.998   0.759
 5612SOL    HW117735   2.907   1.020   0.793
 5612SOL    HW217736   3.001   1.010   0.660
 5613SOL     OW17737   6.707   5.035   5.189
 5613SOL    HW117738   6.692   4.939   5.162
 5613SOL    HW217739   6.803   5.047   5.213
 5614SOL     OW17740   6.084   1.912   4.496
 5614SOL    HW117741   6.011   1.882   4.558
 5614SOL    HW217742   6.152   1.840   4.487
 5615SOL     OW17743   6.713   3.130   2.739
 5615SOL    HW117744   6.682   3.046   2.783
 5615SOL    HW217745   6.810   3.145   2.759
 5616SOL     OW17746   1.786   3.577   3.012
 5616SOL    HW117747   1.874   3.578   3.058
 5616SOL    HW217748   1.721   3.636   3.061
 5617SOL     OW17749   2.195   5.231   6.484
 5617SOL    HW117750   2.112   5.277   6.453
 5617SOL    HW217751   2.234   5.282   6.561
 5618SOL     OW17752   6.822   5.779   3.957
 5618SOL    HW117753   6.760   5.818   3.889
 5618SOL    HW217754   6.876   5.706   3.914
 5619SOL     OW17755   3.625   3.278   4.710
 5619SOL    HW117756   3.705   3.230   4.746
 5619SOL    HW217757   3.655   3.353   4.651
 5620SOL     OW17758   4.563   4.425   5.690
 5620SOL    HW117759   4.496   4.353   5.703
 5620SOL    HW217760   4.644   4.407   5.746
 5621SOL     OW17761   1.565   2.698   4.952
 5621SOL    HW117762   1.624   2.697   4.871
 5621SOL    HW217763   1.501   2.775   4.947
 5622SOL     OW17764   5.065   5.671   4.833
 5622SOL    HW117765   5.055   5.578   4.870
 5622SOL    HW217766   4.978   5.702   4.797
 5623SOL     OW17767   4.898   6.558   3.951
 5623SOL    HW117768   4.856   6.470   3.929
 5623SOL    HW217769   4.827   6.628   3.962
 5624SOL     OW17770   0.074   5.340   4.452
 5624SOL    HW117771   7.004   5.319   4.427
 5624SOL    HW217772   0.076   5.416   4.516
 5625SOL     OW17773   1.257   5.698   4.557
 5625SOL    HW117774   1.176   5.696   4.497
 5625SOL    HW217775   1.316   5.621   4.536
 5626SOL     OW17776   1.933   4.140   4.427
 5626SOL    HW117777   1.963   4.091   4.509
 5626SOL    HW217778   1.953   4.237   4.437
 5627SOL     OW17779   1.082   5.550   0.370
 5627SOL    HW117780   1.126   5.607   0.300
 5627SOL    HW217781   1.090   5.594   0.459
 5628SOL     OW17782   2.663   2.756   0.920
 5628SOL    HW117783   2.576   2.760   0.970
 5628SOL    HW217784   2.702   2.665   0.928
 5629SOL     OW17785   5.118   4.201   1.430
 5629SOL    HW117786   5.041   4.140   1.414
 5629SOL    HW217787   5.096   4.264   1.504
 5630SOL     OW17788   1.890   3.738   6.688
 5630SOL    HW117789   1.939   3.782   6.764
 5630SOL    HW217790   1.881   3.804   6.613
 5631SOL     OW17791   4.516   0.687   2.386
 5631SOL    HW117792   4.561   0.675   2.298
 5631SOL    HW217793   4.584   0.705   2.457
 5632SOL     OW17794   6.005   6.926   5.731
 5632SOL    HW117795   5.913   6.887   5.731
 5632SOL    HW217796   6.056   6.890   5.653
 5633SOL     OW17797   0.167   4.523   5.947
 5633SOL    HW117798   0.165   4.481   5.856
 5633SOL    HW217799   0.126   4.614   5.942
 5634SOL     OW17800   3.074   6.404   6.433
 5634SOL    HW117801   3.163   6.446   6.416
 5634SOL    HW217802   3.068   6.377   6.529
 5635SOL     OW17803   2.404   6.936   6.720
 5635SOL    HW117804   2.408   6.943   6.621
 5635SOL    HW217805   2.381   6.842   6.746
 5636SOL     OW17806   6.517   1.109   5.743
 5636SOL    HW117807   6.603   1.117   5.692
 5636SOL    HW217808   6.479   1.018   5.730
 5637SOL     OW17809   5.409   6.235   4.822
 5637SOL    HW117810   5.323   6.191   4.845
 5637SOL    HW217811   5.391   6.324   4.779
 5638SOL     OW17812   5.080   5.270   1.062
 5638SOL    HW117813   5.148   5.206   1.097
 5638SOL    HW217814   5.110   5.364   1.079
 5639SOL     OW17815   1.110   7.018   1.565
 5639SOL    HW117816   1.150   0.032   1.648
 5639SOL    HW217817   1.135   6.922   1.557
 5640SOL     OW17818   2.938   5.851   3.013
 5640SOL    HW117819   2.867   5.920   3.029
 5640SOL    HW217820   3.028   5.890   3.034
 5641SOL     OW17821   1.242   4.736   4.338
 5641SOL    HW117822   1.275   4.668   4.273
 5641SOL    HW217823   1.320   4.784   4.378
 5642SOL     OW17824   1.443   4.473   0.178
 5642SOL    HW117825   1.396   4.482   0.266
 5642SOL    HW217826   1.385   4.423   0.114
 5643SOL     OW17827   4.261   2.326   4.583
 5643SOL    HW117828   4.316   2.355   4.662
 5643SOL    HW217829   4.271   2.392   4.509
 5644SOL     OW17830   5.300   1.173   5.125
 5644SOL    HW117831   5.330   1.247   5.065
 5644SOL    HW217832   5.369   1.158   5.196
 5645SOL     OW17833   5.197   6.070   2.694
 5645SOL    HW117834   5.199   5.992   2.757
 5645SOL    HW217835   5.287   6.080   2.651
 5646SOL     OW17836   0.278   5.906   3.504
 5646SOL    HW117837   0.364   5.958   3.495
 5646SOL    HW217838   0.283   5.823   3.449
 5647SOL     OW17839   5.774   6.458   0.112
 5647SOL    HW117840   5.770   6.370   0.066
 5647SOL    HW217841   5.848   6.457   0.180
 5648SOL     OW17842   1.964   1.808   3.584
 5648SOL    HW117843   1.999   1.739   3.520
 5648SOL    HW217844   1.894   1.862   3.540
 5649SOL     OW17845   1.007   0.793   4.306
 5649SOL    HW117846   1.011   0.696   4.281
 5649SOL    HW217847   0.935   0.807   4.374
 5650SOL     OW17848   6.765   4.861   0.176
 5650SOL    HW117849   6.678   4.859   0.226
 5650SOL    HW217850   6.838   4.827   0.234
 5651SOL     OW17851   0.206   0.818   1.853
 5651SOL    HW117852   0.209   0.718   1.854
 5651SOL    HW217853   0.288   0.853   1.807
 5652SOL     OW17854   5.095   5.511   1.630
 5652SOL    HW117855   5.064   5.585   1.570
 5652SOL    HW217856   5.024   5.490   1.697
 5653SOL     OW17857   6.794   5.614   5.558
 5653SOL    HW117858   6.788   5.613   5.658
 5653SOL    HW217859   6.798   5.520   5.524
 5654SOL     OW17860   0.022   0.355   5.470
 5654SOL    HW117861   0.121   0.351   5.481
 5654SOL    HW217862   7.019   0.450   5.452
 5655SOL     OW17863   1.121   3.367   3.788
 5655SOL    HW117864   1.219   3.371   3.768
 5655SOL    HW217865   1.105   3.304   3.864
 5656SOL     OW17866   3.106   3.397   0.822
 5656SOL    HW117867   3.066   3.404   0.913
 5656SOL    HW217868   3.158   3.312   0.815
 5657SOL     OW17869   4.393   0.256   1.718
 5657SOL    HW117870   4.369   0.336   1.664
 5657SOL    HW217871   4.489   0.262   1.745
 5658SOL     OW17872   3.583   6.862   5.239
 5658SOL    HW117873   3.648   6.938   5.243
 5658SOL    HW217874   3.518   6.877   5.165
 5659SOL     OW17875   2.992   3.470   3.148
 5659SOL    HW117876   3.079   3.457   3.101
 5659SOL    HW217877   2.931   3.526   3.092
 5660SOL     OW17878   5.280   0.535   0.025
 5660SOL    HW117879   5.327   0.582   6.975
 5660SOL    HW217880   5.229   0.602   0.080
 5661SOL     OW17881   0.080   6.122   5.401
 5661SOL    HW117882   7.006   6.122   5.418
 5661SOL    HW217883   0.127   6.156   5.483
 5662SOL     OW17884   2.744   4.687   3.704
 5662SOL    HW117885   2.791   4.775   3.710
 5662SOL    HW217886   2.811   4.615   3.684
 5663SOL     OW17887   1.103   3.948   0.761
 5663SOL    HW117888   1.079   3.951   0.664
 5663SOL    HW217889   1.134   3.856   0.785
 5664SOL     OW17890   0.198   4.843   2.940
 5664SOL    HW117891   0.159   4.820   3.029
 5664SOL    HW217892   0.280   4.788   2.925
 5665SOL     OW17893   2.298   2.513   6.392
 5665SOL    HW117894   2.209   2.519   6.348
 5665SOL    HW217895   2.306   2.585   6.461
 5666SOL     OW17896   4.547   5.629   0.530
 5666SOL    HW117897   4.594   5.644   0.443
 5666SOL    HW217898   4.530   5.716   0.575
 5667SOL     OW17899   0.126   5.320   2.983
 5667SOL    HW117900   0.039   5.282   3.016
 5667SOL    HW217901   0.198   5.251   2.990
 5668SOL     OW17902   4.423   1.742   6.043
 5668SOL    HW117903   4.371   1.805   5.984
 5668SOL    HW217904   4.396   1.756   6.138
 5669SOL     OW17905   0.229   5.310   5.824
 5669SOL    HW117906   0.220   5.250   5.904
 5669SOL    HW217907   0.276   5.394   5.851
 5670SOL     OW17908   0.334   3.259   3.641
 5670SOL    HW117909   0.250   3.206   3.630
 5670SOL    HW217910   0.314   3.356   3.626
 5671SOL     OW17911   2.224   6.739   6.422
 5671SOL    HW117912   2.147   6.714   6.364
 5671SOL    HW217913   2.271   6.819   6.384
 5672SOL     OW17914   5.173   3.617   5.939
 5672SOL    HW117915   5.173   3.666   5.851
 5672SOL    HW217916   5.164   3.683   6.013
 5673SOL     OW17917   0.695   0.430   2.619
 5673SOL    HW117918   0.643   0.422   2.534
 5673SOL    HW217919   0.701   0.341   2.663
 5674SOL     OW17920   0.444   3.621   1.526
 5674SOL    HW117921   0.416   3.717   1.529
 5674SOL    HW217922   0.397   3.570   1.598
 5675SOL     OW17923   4.556   2.435   5.460
 5675SOL    HW117924   4.558   2.505   5.389
 5675SOL    HW217925   4.468   2.387   5.457
 5676SOL     OW17926   1.489   0.954   1.554
 5676SOL    HW117927   1.477   1.029   1.618
 5676SOL    HW217928   1.455   0.869   1.596
 5677SOL     OW17929   6.444   2.182   3.747
 5677SOL    HW117930   6.455   2.084   3.763
 5677SOL    HW217931   6.440   2.230   3.835
 5678SOL     OW17932   3.760   6.480   3.048
 5678SOL    HW117933   3.707   6.467   2.964
 5678SOL    HW217934   3.761   6.577   3.072
 5679SOL     OW17935   1.590   6.659   4.802
 5679SOL    HW117936   1.651   6.641   4.879
 5679SOL    HW217937   1.565   6.756   4.801
 5680SOL     OW17938   1.206   5.110   6.594
 5680SOL    HW117939   1.198   5.012   6.616
 5680SOL    HW217940   1.297   5.128   6.557
 5681SOL     OW17941   1.032   2.555   6.624
 5681SOL    HW117942   1.056   2.636   6.570
 5681SOL    HW217943   0.955   2.576   6.683
 5682SOL     OW17944   1.389   2.754   5.548
 5682SOL    HW117945   1.367   2.694   5.471
 5682SOL    HW217946   1.488   2.751   5.565
 5683SOL     OW17947   3.525   2.707   6.480
 5683SOL    HW117948   3.428   2.698   6.505
 5683SOL    HW217949   3.533   2.768   6.401
 5684SOL     OW17950   3.799   3.592   4.340
 5684SOL    HW117951   3.759   3.539   4.415
 5684SOL    HW217952   3.730   3.655   4.304
 5685SOL     OW17953   0.529   4.950   2.479
 5685SOL    HW117954   0.593   4.940   2.403
 5685SOL    HW217955   0.491   5.043   2.478
 5686SOL     OW17956   3.798   0.295   0.462
 5686SOL    HW117957   3.880   0.326   0.510
 5686SOL    HW217958   3.716   0.327   0.510
 5687SOL     OW17959   6.009   4.092   4.786
 5687SOL    HW117960   6.086   4.029   4.778
 5687SOL    HW217961   6.022   4.169   4.723
 5688SOL     OW17962   6.008   2.445   1.590
 5688SOL    HW117963   6.054   2.400   1.667
 5688SOL    HW217964   5.988   2.378   1.519
 5689SOL     OW17965   4.693   0.923   0.513
 5689SOL    HW117966   4.639   0.840   0.510
 5689SOL    HW217967   4.706   0.952   0.608
 5690SOL     OW17968   3.937   6.143   0.763
 5690SOL    HW117969   3.981   6.194   0.688
 5690SOL    HW217970   3.953   6.045   0.750
 5691SOL     OW17971   3.127   6.581   2.310
 5691SOL    HW117972   3.062   6.626   2.249
 5691SOL    HW217973   3.210   6.636   2.317
 5692SOL     OW17974   6.623   1.787   5.767
 5692SOL    HW117975   6.677   1.862   5.804
 5692SOL    HW217976   6.599   1.723   5.840
 5693SOL     OW17977   5.010   2.717   2.224
 5693SOL    HW117978   5.098   2.753   2.193
 5693SOL    HW217979   4.955   2.792   2.261
 5694SOL     OW17980   0.397   1.063   3.454
 5694SOL    HW117981   0.450   1.129   3.508
 5694SOL    HW217982   0.302   1.094   3.448
 5695SOL     OW17983   1.315   2.304   3.888
 5695SOL    HW117984   1.405   2.341   3.915
 5695SOL    HW217985   1.307   2.306   3.788
 5696SOL     OW17986   2.855   1.816   4.852
 5696SOL    HW117987   2.852   1.916   4.851
 5696SOL    HW217988   2.949   1.785   4.846
 5697SOL     OW17989   0.120   2.443   0.556
 5697SOL    HW117990   0.107   2.369   0.623
 5697SOL    HW217991   0.104   2.531   0.602
 5698SOL     OW17992   0.482   2.262   2.526
 5698SOL    HW117993   0.573   2.243   2.566
 5698SOL    HW217994   0.429   2.318   2.590
 5699SOL     OW17995   6.357   1.050   3.934
 5699SOL    HW117996   6.320   1.114   3.867
 5699SOL    HW217997   6.451   1.028   3.911
 5700SOL     OW17998   1.106   6.342   4.654
 5700SOL    HW117999   1.184   6.373   4.599
 5700SOL    HW218000   1.102   6.242   4.653
 5701SOL     OW18001   0.490   6.203   2.462
 5701SOL    HW118002   0.455   6.207   2.556
 5701SOL    HW218003   0.428   6.254   2.402
 5702SOL     OW18004   1.689   6.609   6.069
 5702SOL    HW118005   1.742   6.684   6.030
 5702SOL    HW218006   1.616   6.646   6.126
 5703SOL     OW18007   4.730   5.420   6.946
 5703SOL    HW118008   4.792   5.344   6.967
 5703SOL    HW218009   4.738   5.444   6.849
 5704SOL     OW18010   4.533   5.174   3.385
 5704SOL    HW118011   4.601   5.213   3.323
 5704SOL    HW218012   4.478   5.248   3.424
 5705SOL     OW18013   5.895   0.486   0.947
 5705SOL    HW118014   5.991   0.503   0.928
 5705SOL    HW218015   5.884   0.397   0.992
 5706SOL     OW18016   1.711   1.723   0.382
 5706SOL    HW118017   1.758   1.810   0.367
 5706SOL    HW218018   1.625   1.739   0.430
 5707SOL     OW18019   1.478   0.135   6.861
 5707SOL    HW118020   1.496   0.220   6.811
 5707SOL    HW218021   1.380   0.122   6.872
 5708SOL     OW18022   5.092   6.976   2.050
 5708SOL    HW118023   5.029   0.029   2.040
 5708SOL    HW218024   5.061   6.917   2.125
 5709SOL     OW18025   0.540   6.322   3.521
 5709SOL    HW118026   0.632   6.285   3.510
 5709SOL    HW218027   0.513   6.369   3.437
 5710SOL     OW18028   2.851   3.491   6.008
 5710SOL    HW118029   2.860   3.433   5.928
 5710SOL    HW218030   2.759   3.530   6.012
 5711SOL     OW18031   4.914   1.029   3.923
 5711SOL    HW118032   4.970   1.041   4.005
 5711SOL    HW218033   4.923   1.109   3.864
 5712SOL     OW18034   6.732   0.112   5.354
 5712SOL    HW118035   6.759   0.191   5.298
 5712SOL    HW218036   6.784   0.112   5.439
 5713SOL     OW18037   0.537   2.365   2.057
 5713SOL    HW118038   0.624   2.357   2.008
 5713SOL    HW218039   0.483   2.439   2.016
 5714SOL     OW18040   1.389   6.950   0.011
 5714SOL    HW118041   1.449   0.004   0.002
 5714SOL    HW218042   1.360   6.919   6.945
 5715SOL     OW18043   1.012   6.134   2.685
 5715SOL    HW118044   0.992   6.170   2.594
 5715SOL    HW218045   0.953   6.178   2.753
 5716SOL     OW18046   1.786   4.153   5.611
 5716SOL    HW118047   1.688   4.131   5.610
 5716SOL    HW218048   1.827   4.123   5.525
 5717SOL     OW18049   1.251   4.826   1.337
 5717SOL    HW118050   1.267   4.908   1.392
 5717SOL    HW218051   1.166   4.837   1.285
 5718SOL     OW18052   1.956   4.593   6.881
 5718SOL    HW118053   2.013   4.572   6.801
 5718SOL    HW218054   1.861   4.570   6.861
 5719SOL     OW18055   3.173   1.028   6.180
 5719SOL    HW118056   3.220   0.944   6.206
 5719SOL    HW218057   3.132   1.016   6.090
 5720SOL     OW18058   6.995   4.986   4.566
 5720SOL    HW118059   0.026   5.058   4.609
 5720SOL    HW218060   6.925   4.956   4.631
 5721SOL     OW18061   0.906   3.071   0.491
 5721SOL    HW118062   0.811   3.041   0.477
 5721SOL    HW218063   0.916   3.164   0.454
 5722SOL     OW18064   5.513   1.186   4.858
 5722SOL    HW118065   5.575   1.244   4.911
 5722SOL    HW218066   5.541   1.090   4.869
 5723SOL     OW18067   3.366   4.851   0.631
 5723SOL    HW118068   3.279   4.900   0.637
 5723SOL    HW218069   3.439   4.910   0.666
 5724SOL     OW18070   4.511   2.277   6.599
 5724SOL    HW118071   4.459   2.221   6.534
 5724SOL    HW218072   4.450   2.345   6.640
 5725SOL     OW18073   5.342   5.441   3.733
 5725SOL    HW118074   5.318   5.487   3.819
 5725SOL    HW218075   5.427   5.478   3.698
 5726SOL     OW18076   6.194   3.580   5.093
 5726SOL    HW118077   6.171   3.484   5.083
 5726SOL    HW218078   6.122   3.626   5.145
 5727SOL     OW18079   5.649   2.790   2.839
 5727SOL    HW118080   5.661   2.889   2.831
 5727SOL    HW218081   5.571   2.771   2.898
 5728SOL     OW18082   5.920   1.022   5.758
 5728SOL    HW118083   5.864   1.089   5.806
 5728SOL    HW218084   6.011   1.060   5.741
 5729SOL     OW18085   0.632   2.081   0.250
 5729SOL    HW118086   0.726   2.113   0.263
 5729SOL    HW218087   0.617   2.061   0.153
 5730SOL     OW18088   3.952   5.698   5.232
 5730SOL    HW118089   4.026   5.710   5.299
 5730SOL    HW218090   3.966   5.760   5.156
 5731SOL     OW18091   1.601   6.399   4.168
 5731SOL    HW118092   1.662   6.349   4.230
 5731SOL    HW218093   1.656   6.451   4.102
 5732SOL     OW18094   6.056   4.812   4.437
 5732SOL    HW118095   5.994   4.807   4.516
 5732SOL    HW218096   6.108   4.897   4.442
 5733SOL     OW18097   3.562   0.867   6.930
 5733SOL    HW118098   3.609   0.811   6.862
 5733SOL    HW218099   3.630   0.917   6.984
 5734SOL     OW18100   1.568   6.782   5.309
 5734SOL    HW118101   1.624   6.829   5.378
 5734SOL    HW218102   1.616   6.700   5.278
 5735SOL     OW18103   3.727   1.084   2.679
 5735SOL    HW118104   3.761   1.075   2.772
 5735SOL    HW218105   3.697   1.178   2.662
 5736SOL     OW18106   5.131   4.405   6.108
 5736SOL    HW118107   5.067   4.450   6.171
 5736SOL    HW218108   5.130   4.307   6.124
 5737SOL     OW18109   5.181   6.118   1.221
 5737SOL    HW118110   5.239   6.088   1.146
 5737SOL    HW218111   5.228   6.103   1.308
 5738SOL     OW18112   3.482   1.088   6.782
 5738SOL    HW118113   3.564   1.134   6.750
 5738SOL    HW218114   3.506   0.996   6.814
 5739SOL     OW18115   1.883   6.773   5.958
 5739SOL    HW118116   1.879   6.868   5.927
 5739SOL    HW218117   1.970   6.757   6.006
 5740SOL     OW18118   4.885   3.250   0.873
 5740SOL    HW118119   4.804   3.301   0.844
 5740SOL    HW218120   4.925   3.203   0.795
 5741SOL     OW18121   0.710   3.607   4.421
 5741SOL    HW118122   0.718   3.527   4.480
 5741SOL    HW218123   0.658   3.583   4.339
 5742SOL     OW18124   3.887   6.612   3.823
 5742SOL    HW118125   3.936   6.694   3.796
 5742SOL    HW218126   3.804   6.637   3.874
 5743SOL     OW18127   4.198   4.633   6.044
 5743SOL    HW118128   4.157   4.569   5.979
 5743SOL    HW218129   4.269   4.587   6.097
 5744SOL     OW18130   5.867   0.390   3.072
 5744SOL    HW118131   5.960   0.364   3.098
 5744SOL    HW218132   5.857   0.384   2.972
 5745SOL     OW18133   2.326   2.873   3.795
 5745SOL    HW118134   2.274   2.822   3.726
 5745SOL    HW218135   2.294   2.847   3.886
 5746SOL     OW18136   4.341   0.149   3.691
 5746SOL    HW118137   4.338   0.160   3.790
 5746SOL    HW218138   4.272   0.208   3.648
 5747SOL     OW18139   1.286   6.248   1.736
 5747SOL    HW118140   1.191   6.247   1.705
 5747SOL    HW218141   1.332   6.166   1.703
 5748SOL     OW18142   0.431   6.246   0.605
 5748SOL    HW118143   0.332   6.233   0.606
 5748SOL    HW218144   0.467   6.230   0.513
 5749SOL     OW18145   1.842   6.816   4.952
 5749SOL    HW118146   1.930   6.823   4.999
 5749SOL    HW218147   1.858   6.810   4.853
 5750SOL     OW18148   6.608   4.450   5.214
 5750SOL    HW118149   6.641   4.356   5.225
 5750SOL    HW218150   6.590   4.468   5.118
 5751SOL     OW18151   2.073   3.441   4.349
 5751SOL    HW118152   1.974   3.435   4.363
 5751SOL    HW218153   2.103   3.366   4.290
 5752SOL     OW18154   5.600   0.382   1.025
 5752SOL    HW118155   5.676   0.415   0.970
 5752SOL    HW218156   5.530   0.342   0.966
 5753SOL     OW18157   2.882   3.917   5.338
 5753SOL    HW118158   2.934   3.873   5.410
 5753SOL    HW218159   2.894   3.866   5.252
 5754SOL     OW18160   1.821   6.431   1.726
 5754SOL    HW118161   1.887   6.464   1.794
 5754SOL    HW218162   1.798   6.505   1.664
 5755SOL     OW18163   1.945   1.457   6.612
 5755SOL    HW118164   2.023   1.478   6.672
 5755SOL    HW218165   1.863   1.443   6.667
 5756SOL     OW18166   6.641   0.069   2.399
 5756SOL    HW118167   6.572   0.142   2.391
 5756SOL    HW218168   6.613   0.004   2.469
 5757SOL     OW18169   6.902   5.568   3.799
 5757SOL    HW118170   6.979   5.534   3.746
 5757SOL    HW218171   6.840   5.619   3.738
 5758SOL     OW18172   2.240   0.109   3.296
 5758SOL    HW118173   2.195   0.080   3.381
 5758SOL    HW218174   2.218   0.045   3.223
 5759SOL     OW18175   4.615   0.069   2.057
 5759SOL    HW118176   4.598   6.996   2.046
 5759SOL    HW218177   4.544   0.109   2.115
 5760SOL     OW18178   6.950   3.528   2.028
 5760SOL    HW118179   6.860   3.486   2.044
 5760SOL    HW218180   7.018   3.486   2.087
 5761SOL     OW18181   5.193   6.149   4.943
 5761SOL    HW118182   5.179   6.064   4.891
 5761SOL    HW218183   5.111   6.205   4.937
 5762SOL     OW18184   4.465   4.414   0.811
 5762SOL    HW118185   4.518   4.480   0.863
 5762SOL    HW218186   4.403   4.461   0.749
 5763SOL     OW18187   5.312   6.600   0.424
 5763SOL    HW118188   5.388   6.654   0.388
 5763SOL    HW218189   5.332   6.574   0.519
 5764SOL     OW18190   3.976   5.239   3.132
 5764SOL    HW118191   4.009   5.221   3.225
 5764SOL    HW218192   4.006   5.165   3.072
 5765SOL     OW18193   6.641   4.216   0.689
 5765SOL    HW118194   6.572   4.208   0.617
 5765SOL    HW218195   6.602   4.266   0.767
 5766SOL     OW18196   2.053   2.084   4.606
 5766SOL    HW118197   2.129   2.128   4.557
 5766SOL    HW218198   2.085   1.997   4.645
 5767SOL     OW18199   2.175   0.206   6.937
 5767SOL    HW118200   2.230   0.203   6.854
 5767SOL    HW218201   2.205   0.282   6.995
 5768SOL     OW18202   6.670   6.953   3.529
 5768SOL    HW118203   6.682   6.904   3.616
 5768SOL    HW218204   6.716   6.903   3.456
 5769SOL     OW18205   2.457   5.295   5.849
 5769SOL    HW118206   2.472   5.207   5.804
 5769SOL    HW218207   2.472   5.285   5.947
 5770SOL     OW18208   0.521   6.514   6.793
 5770SOL    HW118209   0.536   6.420   6.763
 5770SOL    HW218210   0.517   6.517   6.893
 5771SOL     OW18211   1.963   6.801   3.816
 5771SOL    HW118212   2.048   6.833   3.772
 5771SOL    HW218213   1.961   6.835   3.911
 5772SOL     OW18214   4.407   1.490   2.016
 5772SOL    HW118215   4.383   1.417   1.954
 5772SOL    HW218216   4.348   1.569   1.999
 5773SOL     OW18217   4.288   1.328   2.514
 5773SOL    HW118218   4.366   1.359   2.460
 5773SOL    HW218219   4.230   1.406   2.538
 5774SOL     OW18220   1.732   0.603   5.047
 5774SOL    HW118221   1.751   0.510   5.014
 5774SOL    HW218222   1.681   0.653   4.977
 5775SOL     OW18223   1.129   5.859   2.748
 5775SOL    HW118224   1.106   5.849   2.845
 5775SOL    HW218225   1.108   5.952   2.718
 5776SOL     OW18226   1.353   0.230   3.090
 5776SOL    HW118227   1.335   0.203   2.996
 5776SOL    HW218228   1.426   0.174   3.128
 5777SOL     OW18229   1.434   0.259   3.591
 5777SOL    HW118230   1.352   0.301   3.553
 5777SOL    HW218231   1.515   0.302   3.553
 5778SOL     OW18232   1.660   0.428   0.330
 5778SOL    HW118233   1.577   0.422   0.274
 5778SOL    HW218234   1.690   0.523   0.336
 5779SOL     OW18235   4.667   2.766   6.748
 5779SOL    HW118236   4.614   2.806   6.823
 5779SOL    HW218237   4.748   2.822   6.732
 5780SOL     OW18238   5.618   5.696   4.652
 5780SOL    HW118239   5.555   5.655   4.586
 5780SOL    HW218240   5.587   5.788   4.676
 5781SOL     OW18241   6.704   4.694   4.793
 5781SOL    HW118242   6.777   4.626   4.786
 5781SOL    HW218243   6.669   4.695   4.887
 5782SOL     OW18244   1.350   1.285   0.455
 5782SOL    HW118245   1.327   1.347   0.531
 5782SOL    HW218246   1.291   1.205   0.458
 5783SOL     OW18247   1.187   0.919   2.319
 5783SOL    HW118248   1.246   0.955   2.246
 5783SOL    HW218249   1.236   0.922   2.406
 5784SOL     OW18250   0.158   6.177   6.705
 5784SOL    HW118251   0.122   6.087   6.676
 5784SOL    HW218252   0.083   6.233   6.740
 5785SOL     OW18253   2.250   1.804   0.294
 5785SOL    HW118254   2.240   1.844   0.385
 5785SOL    HW218255   2.220   1.708   0.297
 5786SOL     OW18256   6.763   4.533   0.668
 5786SOL    HW118257   6.760   4.435   0.690
 5786SOL    HW218258   6.767   4.544   0.569
 5787SOL     OW18259   2.408   1.906   5.558
 5787SOL    HW118260   2.423   1.855   5.473
 5787SOL    HW218261   2.469   1.871   5.629
 5788SOL     OW18262   2.726   1.502   2.863
 5788SOL    HW118263   2.660   1.475   2.933
 5788SOL    HW218264   2.679   1.525   2.778
 5789SOL     OW18265   3.532   4.814   6.786
 5789SOL    HW118266   3.490   4.772   6.706
 5789SOL    HW218267   3.498   4.908   6.796
 5790SOL     OW18268   1.498   3.752   4.563
 5790SOL    HW118269   1.543   3.838   4.542
 5790SOL    HW218270   1.410   3.748   4.517
 5791SOL     OW18271   4.079   0.074   1.966
 5791SOL    HW118272   4.070   0.155   1.907
 5791SOL    HW218273   4.037   0.094   2.054
 5792SOL     OW18274   6.749   2.594   3.000
 5792SOL    HW118275   6.789   2.519   2.946
 5792SOL    HW218276   6.726   2.561   3.091
 5793SOL     OW18277   5.165   1.208   3.237
 5793SOL    HW118278   5.071   1.219   3.204
 5793SOL    HW218279   5.175   1.117   3.278
 5794SOL     OW18280   3.676   1.966   0.528
 5794SOL    HW118281   3.607   2.017   0.475
 5794SOL    HW218282   3.762   1.966   0.477
 5795SOL     OW18283   6.312   5.619   6.274
 5795SOL    HW118284   6.283   5.555   6.344
 5795SOL    HW218285   6.342   5.569   6.193
 5796SOL     OW18286   4.150   0.745   0.153
 5796SOL    HW118287   4.078   0.798   0.197
 5796SOL    HW218288   4.208   0.703   0.223
 5797SOL     OW18289   4.254   1.906   5.031
 5797SOL    HW118290   4.257   1.833   5.099
 5797SOL    HW218291   4.228   1.992   5.075
 5798SOL     OW18292   0.863   4.338   5.574
 5798SOL    HW118293   0.945   4.345   5.631
 5798SOL    HW218294   0.881   4.275   5.499
 5799SOL     OW18295   5.464   1.277   3.733
 5799SOL    HW118296   5.475   1.182   3.704
 5799SOL    HW218297   5.433   1.333   3.656
 5800SOL     OW18298   5.295   5.971   0.694
 5800SOL    HW118299   5.385   5.980   0.652
 5800SOL    HW218300   5.250   5.889   0.660
 5801SOL     OW18301   1.147   2.323   4.744
 5801SOL    HW118302   1.142   2.423   4.752
 5801SOL    HW218303   1.239   2.293   4.770
 5802SOL     OW18304   0.878   4.475   0.390
 5802SOL    HW118305   0.870   4.568   0.428
 5802SOL    HW218306   0.798   4.421   0.418
 5803SOL     OW18307   1.218   4.353   2.329
 5803SOL    HW118308   1.126   4.363   2.291
 5803SOL    HW218309   1.228   4.412   2.409
 5804SOL     OW18310   6.259   4.377   3.705
 5804SOL    HW118311   6.317   4.372   3.787
 5804SOL    HW218312   6.261   4.470   3.669
 5805SOL     OW18313   3.334   3.707   6.240
 5805SOL    HW118314   3.433   3.699   6.229
 5805SOL    HW218315   3.306   3.666   6.327
 5806SOL     OW18316   7.021   6.290   6.002
 5806SOL    HW118317   6.966   6.321   6.079
 5806SOL    HW218318   7.017   6.190   5.996
 5807SOL     OW18319   1.534   3.706   1.962
 5807SOL    HW118320   1.504   3.610   1.968
 5807SOL    HW218321   1.471   3.756   1.902
 5808SOL     OW18322   5.936   3.967   3.692
 5808SOL    HW118323   5.844   3.974   3.652
 5808SOL    HW218324   5.973   4.059   3.705
 5809SOL     OW18325   0.203   2.311   5.012
 5809SOL    HW118326   0.256   2.378   5.064
 5809SOL    HW218327   0.199   2.225   5.062
 5810SOL     OW18328   3.236   1.077   4.197
 5810SOL    HW118329   3.251   1.060   4.294
 5810SOL    HW218330   3.178   1.157   4.185
 5811SOL     OW18331   2.553   0.192   5.004
 5811SOL    HW118332   2.490   0.125   4.964
 5811SOL    HW218333   2.611   0.147   5.071
 5812SOL     OW18334   5.647   0.417   4.043
 5812SOL    HW118335   5.729   0.466   4.014
 5812SOL    HW218336   5.595   0.473   4.108
 5813SOL     OW18337   1.285   1.002   0.513
 5813SOL    HW118338   1.236   0.944   0.448
 5813SOL    HW218339   1.347   0.946   0.568
 5814SOL     OW18340   6.249   4.536   0.901
 5814SOL    HW118341   6.224   4.582   0.986
 5814SOL    HW218342   6.172   4.540   0.837
 5815SOL     OW18343   4.588   2.634   4.163
 5815SOL    HW118344   4.515   2.590   4.215
 5815SOL    HW218345   4.651   2.564   4.130
 5816SOL     OW18346   4.847   5.682   0.009
 5816SOL    HW118347   4.821   5.590   7.005
 5816SOL    HW218348   4.845   5.743   6.955
 5817SOL     OW18349   5.121   3.300   5.655
 5817SOL    HW118350   5.124   3.267   5.561
 5817SOL    HW218351   5.033   3.277   5.696
 5818SOL     OW18352   6.668   6.050   5.011
 5818SOL    HW118353   6.698   6.106   5.088
 5818SOL    HW218354   6.649   6.108   4.932
 5819SOL     OW18355   4.305   0.225   6.591
 5819SOL    HW118356   4.396   0.204   6.555
 5819SOL    HW218357   4.255   0.140   6.605
 5820SOL     OW18358   4.652   6.252   3.955
 5820SOL    HW118359   4.697   6.267   4.043
 5820SOL    HW218360   4.611   6.161   3.953
 5821SOL     OW18361   0.770   0.109   2.191
 5821SOL    HW118362   0.716   0.084   2.272
 5821SOL    HW218363   0.794   0.207   2.196
 5822SOL     OW18364   0.491   2.474   2.717
 5822SOL    HW118365   0.438   2.430   2.790
 5822SOL    HW218366   0.451   2.564   2.697
 5823SOL     OW18367   0.625   0.763   5.954
 5823SOL    HW118368   0.582   0.678   5.985
 5823SOL    HW218369   0.622   0.830   6.028
 5824SOL     OW18370   6.752   6.094   2.802
 5824SOL    HW118371   6.736   6.069   2.706
 5824SOL    HW218372   6.674   6.145   2.837
 5825SOL     OW18373   2.462   1.777   5.306
 5825SOL    HW118374   2.368   1.742   5.315
 5825SOL    HW218375   2.506   1.735   5.227
 5826SOL     OW18376   6.968   5.167   5.270
 5826SOL    HW118377   7.001   5.075   5.250
 5826SOL    HW218378   0.009   5.213   5.331
 5827SOL     OW18379   2.030   4.906   5.068
 5827SOL    HW118380   2.018   4.993   5.019
 5827SOL    HW218381   2.085   4.844   5.011
 5828SOL     OW18382   6.887   3.031   1.421
 5828SOL    HW118383   6.884   2.931   1.422
 5828SOL    HW218384   6.831   3.065   1.345
 5829SOL     OW18385   2.790   2.014   2.650
 5829SOL    HW118386   2.807   2.109   2.677
 5829SOL    HW218387   2.873   1.975   2.610
 5830SOL     OW18388   4.128   0.079   5.570
 5830SOL    HW118389   4.194   0.025   5.620
 5830SOL    HW218390   4.109   0.036   5.481
 5831SOL     OW18391   0.023   0.442   4.079
 5831SOL    HW118392   7.002   0.432   4.167
 5831SOL    HW218393   7.006   0.380   4.012
 5832SOL     OW18394   3.641   4.294   5.413
 5832SOL    HW118395   3.545   4.299   5.386
 5832SOL    HW218396   3.679   4.206   5.384
 5833SOL     OW18397   4.137   3.298   5.098
 5833SOL    HW118398   4.086   3.223   5.057
 5833SOL    HW218399   4.210   3.261   5.156
 5834SOL     OW18400   5.894   2.540   0.346
 5834SOL    HW118401   5.902   2.496   0.435
 5834SOL    HW218402   5.799   2.540   0.316
 5835SOL     OW18403   5.024   3.188   2.753
 5835SOL    HW118404   4.990   3.253   2.684
 5835SOL    HW218405   5.124   3.183   2.748
 5836SOL     OW18406   3.078   6.469   2.935
 5836SOL    HW118407   3.006   6.467   2.865
 5836SOL    HW218408   3.167   6.482   2.891
 5837SOL     OW18409   4.484   5.084   5.692
 5837SOL    HW118410   4.492   4.984   5.700
 5837SOL    HW218411   4.405   5.115   5.745
 5838SOL     OW18412   2.319   1.570   5.782
 5838SOL    HW118413   2.343   1.652   5.835
 5838SOL    HW218414   2.401   1.534   5.737
 5839SOL     OW18415   0.125   2.470   3.047
 5839SOL    HW118416   0.058   2.543   3.035
 5839SOL    HW218417   0.079   2.386   3.075
 5840SOL     OW18418   1.532   5.130   6.903
 5840SOL    HW118419   1.574   5.199   6.843
 5840SOL    HW218420   1.605   5.081   6.951
 5841SOL     OW18421   5.390   2.087   2.547
 5841SOL    HW118422   5.403   2.171   2.600
 5841SOL    HW218423   5.333   2.106   2.467
 5842SOL     OW18424   4.244   3.068   1.598
 5842SOL    HW118425   4.184   3.033   1.670
 5842SOL    HW218426   4.207   3.154   1.563
 5843SOL     OW18427   2.078   3.637   2.218
 5843SOL    HW118428   2.113   3.571   2.151
 5843SOL    HW218429   2.106   3.729   2.191
 5844SOL     OW18430   0.829   6.862   5.930
 5844SOL    HW118431   0.766   6.851   5.854
 5844SOL    HW218432   0.920   6.828   5.904
 5845SOL     OW18433   1.122   0.317   2.821
 5845SOL    HW118434   1.090   0.412   2.817
 5845SOL    HW218435   1.209   0.309   2.772
 5846SOL     OW18436   6.276   3.274   4.327
 5846SOL    HW118437   6.281   3.370   4.300
 5846SOL    HW218438   6.361   3.248   4.373
 5847SOL     OW18439   2.163   1.943   2.115
 5847SOL    HW118440   2.250   1.908   2.150
 5847SOL    HW218441   2.176   2.035   2.079
 5848SOL     OW18442   2.162   5.467   3.048
 5848SOL    HW118443   2.074   5.510   3.030
 5848SOL    HW218444   2.168   5.381   2.997
 5849SOL     OW18445   6.737   0.889   6.730
 5849SOL    HW118446   6.736   0.937   6.819
 5849SOL    HW218447   6.643   0.863   6.707
 5850SOL     OW18448   0.857   3.622   2.147
 5850SOL    HW118449   0.885   3.576   2.231
 5850SOL    HW218450   0.870   3.560   2.069
 5851SOL     OW18451   5.180   3.210   2.446
 5851SOL    HW118452   5.098   3.237   2.496
 5851SOL    HW218453   5.154   3.160   2.363
 5852SOL     OW18454   5.177   6.718   3.479
 5852SOL    HW118455   5.215   6.786   3.541
 5852SOL    HW218456   5.077   6.720   3.485
 5853SOL     OW18457   3.048   5.476   5.057
 5853SOL    HW118458   3.134   5.453   5.011
 5853SOL    HW218459   2.973   5.467   4.991
 5854SOL     OW18460   6.555   4.027   5.383
 5854SOL    HW118461   6.507   4.049   5.468
 5854SOL    HW218462   6.605   3.942   5.394
 5855SOL     OW18463   0.678   0.623   4.407
 5855SOL    HW118464   0.758   0.577   4.367
 5855SOL    HW218465   0.650   0.574   4.490
 5856SOL     OW18466   2.067   6.346   3.781
 5856SOL    HW118467   2.125   6.265   3.777
 5856SOL    HW218468   2.116   6.424   3.741
 5857SOL     OW18469   6.167   2.871   5.313
 5857SOL    HW118470   6.210   2.825   5.235
 5857SOL    HW218471   6.138   2.962   5.285
 5858SOL     OW18472   2.687   2.136   2.003
 5858SOL    HW118473   2.710   2.043   2.031
 5858SOL    HW218474   2.762   2.198   2.026
 5859SOL     OW18475   5.643   0.075   1.066
 5859SOL    HW118476   5.695   0.048   1.147
 5859SOL    HW218477   5.647   0.174   1.055
 5860SOL     OW18478   2.014   3.936   1.760
 5860SOL    HW118479   2.062   4.000   1.820
 5860SOL    HW218480   2.015   3.845   1.801
 5861SOL     OW18481   5.268   1.307   4.309
 5861SOL    HW118482   5.293   1.317   4.213
 5861SOL    HW218483   5.319   1.231   4.350
 5862SOL     OW18484   5.161   4.940   3.395
 5862SOL    HW118485   5.170   5.030   3.353
 5862SOL    HW218486   5.234   4.880   3.362
 5863SOL     OW18487   3.149   0.779   4.652
 5863SOL    HW118488   3.165   0.755   4.748
 5863SOL    HW218489   3.236   0.804   4.609
 5864SOL     OW18490   3.953   3.716   1.892
 5864SOL    HW118491   3.940   3.617   1.897
 5864SOL    HW218492   3.988   3.749   1.980
 5865SOL     OW18493   5.498   0.146   4.466
 5865SOL    HW118494   5.569   0.182   4.406
 5865SOL    HW218495   5.467   0.058   4.432
 5866SOL     OW18496   3.634   5.896   6.755
 5866SOL    HW118497   3.574   5.892   6.676
 5866SOL    HW218498   3.585   5.937   6.832
 5867SOL     OW18499   0.335   4.055   1.042
 5867SOL    HW118500   0.432   4.073   1.055
 5867SOL    HW218501   0.281   4.125   1.089
 5868SOL     OW18502   6.970   0.689   5.466
 5868SOL    HW118503   6.903   0.736   5.409
 5868SOL    HW218504   6.982   0.739   5.552
 5869SOL     OW18505   1.898   5.588   3.417
 5869SOL    HW118506   1.989   5.547   3.414
 5869SOL    HW218507   1.906   5.687   3.425
 5870SOL     OW18508   4.839   5.726   4.649
 5870SOL    HW118509   4.869   5.803   4.593
 5870SOL    HW218510   4.832   5.644   4.592
 5871SOL     OW18511   4.196   3.402   0.173
 5871SOL    HW118512   4.162   3.345   0.248
 5871SOL    HW218513   4.124   3.414   0.105
 5872SOL     OW18514   3.713   4.872   6.584
 5872SOL    HW118515   3.650   4.857   6.660
 5872SOL    HW218516   3.804   4.839   6.609
 5873SOL     OW18517   2.062   2.571   0.904
 5873SOL    HW118518   1.993   2.601   0.970
 5873SOL    HW218519   2.016   2.528   0.826
 5874SOL     OW18520   2.681   2.821   1.395
 5874SOL    HW118521   2.760   2.807   1.336
 5874SOL    HW218522   2.642   2.732   1.421
 5875SOL     OW18523   3.648   1.299   1.294
 5875SOL    HW118524   3.585   1.229   1.326
 5875SOL    HW218525   3.619   1.333   1.205
 5876SOL     OW18526   3.000   3.044   0.033
 5876SOL    HW118527   3.051   2.963   0.063
 5876SOL    HW218528   2.986   3.105   0.111
 5877SOL     OW18529   6.414   0.074   0.990
 5877SOL    HW118530   6.494   0.120   0.953
 5877SOL    HW218531   6.428   6.999   0.989
 5878SOL     OW18532   5.203   5.179   3.268
 5878SOL    HW118533   5.301   5.178   3.286
 5878SOL    HW218534   5.171   5.273   3.263
 5879SOL     OW18535   2.674   3.381   6.277
 5879SOL    HW118536   2.767   3.418   6.273
 5879SOL    HW218537   2.678   3.285   6.305
 5880SOL     OW18538   4.692   4.280   6.495
 5880SOL    HW118539   4.631   4.209   6.460
 5880SOL    HW218540   4.787   4.249   6.489
 5881SOL     OW18541   1.347   0.053   2.436
 5881SOL    HW118542   1.323   6.983   2.416
 5881SOL    HW218543   1.381   0.096   2.352
 5882SOL     OW18544   0.618   6.582   5.672
 5882SOL    HW118545   0.653   6.492   5.697
 5882SOL    HW218546   0.672   6.620   5.597
 5883SOL     OW18547   0.386   1.708   0.461
 5883SOL    HW118548   0.403   1.796   0.505
 5883SOL    HW218549   0.466   1.649   0.474
 5884SOL     OW18550   6.555   0.709   4.624
 5884SOL    HW118551   6.478   0.768   4.649
 5884SOL    HW218552   6.604   0.749   4.546
 5885SOL     OW18553   0.802   5.669   0.681
 5885SOL    HW118554   0.723   5.721   0.714
 5885SOL    HW218555   0.799   5.576   0.718
 5886SOL     OW18556   1.251   3.130   3.421
 5886SOL    HW118557   1.181   3.131   3.492
 5886SOL    HW218558   1.227   3.194   3.349
 5887SOL     OW18559   3.161   1.835   2.073
 5887SOL    HW118560   3.250   1.816   2.030
 5887SOL    HW218561   3.138   1.931   2.059
 5888SOL     OW18562   2.439   6.658   0.923
 5888SOL    HW118563   2.471   6.643   0.829
 5888SOL    HW218564   2.339   6.654   0.925
 5889SOL     OW18565   6.566   1.188   1.038
 5889SOL    HW118566   6.627   1.120   0.997
 5889SOL    HW218567   6.557   1.266   0.976
 5890SOL     OW18568   1.692   6.510   2.787
 5890SOL    HW118569   1.630   6.544   2.717
 5890SOL    HW218570   1.764   6.577   2.804
 5891SOL     OW18571   2.442   3.747   0.049
 5891SOL    HW118572   2.431   3.757   6.975
 5891SOL    HW218573   2.403   3.827   0.095
 5892SOL     OW18574   0.016   4.678   1.557
 5892SOL    HW118575   0.090   4.629   1.510
 5892SOL    HW218576   6.952   4.646   1.524
 5893SOL     OW18577   1.615   4.780   1.486
 5893SOL    HW118578   1.578   4.780   1.579
 5893SOL    HW218579   1.541   4.773   1.420
 5894SOL     OW18580   0.651   5.954   5.066
 5894SOL    HW118581   0.571   5.928   5.121
 5894SOL    HW218582   0.734   5.925   5.112
 5895SOL     OW18583   6.196   3.559   3.934
 5895SOL    HW118584   6.207   3.485   4.001
 5895SOL    HW218585   6.114   3.543   3.880
 5896SOL     OW18586   5.153   1.363   1.771
 5896SOL    HW118587   5.151   1.350   1.672
 5896SOL    HW218588   5.171   1.275   1.816
 5897SOL     OW18589   4.077   1.698   1.694
 5897SOL    HW118590   3.991   1.682   1.646
 5897SOL    HW218591   4.151   1.708   1.627
 5898SOL     OW18592   2.429   1.247   5.487
 5898SOL    HW118593   2.508   1.284   5.537
 5898SOL    HW218594   2.446   1.251   5.389
 5899SOL     OW18595   0.077   5.648   6.019
 5899SOL    HW118596   0.025   5.635   6.103
 5899SOL    HW218597   0.172   5.669   6.042
 5900SOL     OW18598   6.513   5.182   3.200
 5900SOL    HW118599   6.471   5.157   3.287
 5900SOL    HW218600   6.527   5.281   3.198
 5901SOL     OW18601   1.533   1.098   0.925
 5901SOL    HW118602   1.506   1.183   0.879
 5901SOL    HW218603   1.465   1.074   0.994
 5902SOL     OW18604   5.774   3.698   5.201
 5902SOL    HW118605   5.851   3.683   5.263
 5902SOL    HW218606   5.794   3.658   5.112
 5903SOL     OW18607   5.333   2.601   6.643
 5903SOL    HW118608   5.237   2.621   6.660
 5903SOL    HW218609   5.391   2.667   6.691
 5904SOL     OW18610   1.461   4.402   1.264
 5904SOL    HW118611   1.549   4.435   1.299
 5904SOL    HW218612   1.468   4.391   1.165
 5905SOL     OW18613   5.424   1.058   3.987
 5905SOL    HW118614   5.358   1.120   4.031
 5905SOL    HW218615   5.388   1.030   3.898
 5906SOL     OW18616   5.483   1.575   5.231
 5906SOL    HW118617   5.448   1.518   5.157
 5906SOL    HW218618   5.563   1.531   5.272
 5907SOL     OW18619   1.441   6.637   0.677
 5907SOL    HW118620   1.525   6.650   0.624
 5907SOL    HW218621   1.361   6.648   0.618
 5908SOL     OW18622   5.358   3.670   0.418
 5908SOL    HW118623   5.447   3.625   0.418
 5908SOL    HW218624   5.291   3.613   0.371
 5909SOL     OW18625   0.581   4.369   6.149
 5909SOL    HW118626   0.493   4.416   6.145
 5909SOL    HW218627   0.649   4.420   6.097
 5910SOL     OW18628   1.658   4.399   0.658
 5910SOL    HW118629   1.716   4.415   0.578
 5910SOL    HW218630   1.586   4.334   0.633
 5911SOL     OW18631   0.637   5.724   6.167
 5911SOL    HW118632   0.597   5.756   6.081
 5911SOL    HW218633   0.724   5.771   6.183
 5912SOL     OW18634   6.179   3.386   6.855
 5912SOL    HW118635   6.222   3.437   6.781
 5912SOL    HW218636   6.096   3.342   6.822
 5913SOL     OW18637   2.165   3.046   5.939
 5913SOL    HW118638   2.214   3.132   5.926
 5913SOL    HW218639   2.208   2.974   5.884
 5914SOL     OW18640   2.244   5.720   0.176
 5914SOL    HW118641   2.158   5.723   0.229
 5914SOL    HW218642   2.230   5.766   0.088
 5915SOL     OW18643   5.555   3.596   1.903
 5915SOL    HW118644   5.459   3.595   1.931
 5915SOL    HW218645   5.561   3.575   1.805
 5916SOL     OW18646   4.051   0.276   5.745
 5916SOL    HW118647   4.088   0.215   5.676
 5916SOL    HW218648   4.122   0.295   5.813
 5917SOL     OW18649   3.709   3.452   3.352
 5917SOL    HW118650   3.757   3.368   3.376
 5917SOL    HW218651   3.776   3.526   3.339
 5918SOL     OW18652   2.088   3.715   4.689
 5918SOL    HW118653   2.026   3.638   4.707
 5918SOL    HW218654   2.129   3.745   4.775
 5919SOL     OW18655   3.294   1.616   0.118
 5919SOL    HW118656   3.203   1.657   0.123
 5919SOL    HW218657   3.288   1.518   0.137
 5920SOL     OW18658   3.202   0.264   6.774
 5920SOL    HW118659   3.201   0.331   6.848
 5920SOL    HW218660   3.168   0.176   6.809
 5921SOL     OW18661   3.593   4.971   5.013
 5921SOL    HW118662   3.508   4.919   5.025
 5921SOL    HW218663   3.666   4.928   5.066
 5922SOL     OW18664   6.453   5.035   3.456
 5922SOL    HW118665   6.364   5.056   3.417
 5922SOL    HW218666   6.483   4.945   3.425
 5923SOL     OW18667   6.389   1.069   2.772
 5923SOL    HW118668   6.470   1.016   2.747
 5923SOL    HW218669   6.400   1.163   2.742
 5924SOL     OW18670   5.691   2.569   4.793
 5924SOL    HW118671   5.642   2.649   4.827
 5924SOL    HW218672   5.741   2.526   4.868
 5925SOL     OW18673   4.547   6.685   3.055
 5925SOL    HW118674   4.562   6.622   3.131
 5925SOL    HW218675   4.549   6.779   3.088
 5926SOL     OW18676   3.294   5.029   1.697
 5926SOL    HW118677   3.248   5.030   1.786
 5926SOL    HW218678   3.327   4.936   1.678
 5927SOL     OW18679   2.087   4.483   2.190
 5927SOL    HW118680   2.161   4.449   2.131
 5927SOL    HW218681   2.117   4.479   2.285
 5928SOL     OW18682   2.538   0.235   2.511
 5928SOL    HW118683   2.604   0.166   2.541
 5928SOL    HW218684   2.483   0.199   2.435
 5929SOL     OW18685   0.784   6.093   6.031
 5929SOL    HW118686   0.853   6.090   5.959
 5929SOL    HW218687   0.701   6.047   5.999
 5930SOL     OW18688   5.665   1.311   3.918
 5930SOL    HW118689   5.595   1.291   3.849
 5930SOL    HW218690   5.691   1.408   3.911
 5931SOL     OW18691   5.643   4.857   2.745
 5931SOL    HW118692   5.621   4.940   2.796
 5931SOL    HW218693   5.681   4.882   2.656
 5932SOL     OW18694   2.166   6.570   0.931
 5932SOL    HW118695   2.099   6.613   0.871
 5932SOL    HW218696   2.202   6.487   0.887
 5933SOL     OW18697   6.787   4.744   1.923
 5933SOL    HW118698   6.842   4.790   1.853
 5933SOL    HW218699   6.721   4.684   1.879
 5934SOL     OW18700   3.389   3.713   3.831
 5934SOL    HW118701   3.308   3.701   3.773
 5934SOL    HW218702   3.466   3.663   3.792
 5935SOL     OW18703   3.692   3.527   4.591
 5935SOL    HW118704   3.630   3.602   4.614
 5935SOL    HW218705   3.776   3.536   4.644
 5936SOL     OW18706   4.160   3.450   6.541
 5936SOL    HW118707   4.079   3.410   6.499
 5936SOL    HW218708   4.163   3.425   6.638
 5937SOL     OW18709   0.406   4.053   1.988
 5937SOL    HW118710   0.349   4.135   1.989
 5937SOL    HW218711   0.349   3.972   1.998
 5938SOL     OW18712   1.408   4.891   4.039
 5938SOL    HW118713   1.412   4.798   4.075
 5938SOL    HW218714   1.384   4.954   4.113
 5939SOL     OW18715   3.350   0.109   3.364
 5939SOL    HW118716   3.288   0.186   3.348
 5939SOL    HW218717   3.420   0.136   3.430
 5940SOL     OW18718   4.425   6.770   2.352
 5940SOL    HW118719   4.500   6.793   2.415
 5940SOL    HW218720   4.444   6.682   2.309
 5941SOL     OW18721   6.072   4.708   1.830
 5941SOL    HW118722   5.973   4.700   1.836
 5941SOL    HW218723   6.113   4.616   1.832
 5942SOL     OW18724   4.336   2.956   6.189
 5942SOL    HW118725   4.257   3.016   6.190
 5942SOL    HW218726   4.418   3.008   6.212
 5943SOL     OW18727   2.788   6.088   0.153
 5943SOL    HW118728   2.797   6.031   0.072
 5943SOL    HW218729   2.753   6.178   0.127
 5944SOL     OW18730   5.891   1.766   1.863
 5944SOL    HW118731   5.858   1.840   1.805
 5944SOL    HW218732   5.950   1.803   1.935
 5945SOL     OW18733   0.090   4.782   5.836
 5945SOL    HW118734   0.160   4.827   5.892
 5945SOL    HW218735   0.011   4.843   5.828
 5946SOL     OW18736   3.390   4.131   5.597
 5946SOL    HW118737   3.365   4.227   5.608
 5946SOL    HW218738   3.310   4.078   5.569
 5947SOL     OW18739   3.810   2.929   1.951
 5947SOL    HW118740   3.786   2.919   2.047
 5947SOL    HW218741   3.745   2.878   1.895
 5948SOL     OW18742   3.734   5.347   3.109
 5948SOL    HW118743   3.823   5.302   3.104
 5948SOL    HW218744   3.667   5.285   3.150
 5949SOL     OW18745   4.108   3.942   1.344
 5949SOL    HW118746   4.192   3.900   1.380
 5949SOL    HW218747   4.040   3.870   1.326
 5950SOL     OW18748   5.337   3.112   5.633
 5950SOL    HW118749   5.293   3.191   5.674
 5950SOL    HW218750   5.365   3.133   5.539
 5951SOL     OW18751   0.591   6.299   4.973
 5951SOL    HW118752   0.533   6.325   5.050
 5951SOL    HW218753   0.550   6.221   4.926
 5952SOL     OW18754   5.902   6.405   3.997
 5952SOL    HW118755   5.926   6.469   4.070
 5952SOL    HW218756   5.905   6.311   4.033
 5953SOL     OW18757   7.019   2.888   5.798
 5953SOL    HW118758   0.074   2.928   5.752
 5953SOL    HW218759   0.002   2.904   5.897
 5954SOL     OW18760   6.715   4.377   5.970
 5954SOL    HW118761   6.728   4.299   6.031
 5954SOL    HW218762   6.647   4.354   5.900
 5955SOL     OW18763   6.292   6.096   2.002
 5955SOL    HW118764   6.315   6.086   2.099
 5955SOL    HW218765   6.375   6.089   1.947
 5956SOL     OW18766   3.392   1.903   0.849
 5956SOL    HW118767   3.331   1.982   0.860
 5956SOL    HW218768   3.343   1.828   0.806
 5957SOL     OW18769   4.922   6.751   5.888
 5957SOL    HW118770   4.899   6.661   5.853
 5957SOL    HW218771   4.937   6.814   5.812
 5958SOL     OW18772   5.695   6.280   2.399
 5958SOL    HW118773   5.654   6.194   2.369
 5958SOL    HW218774   5.642   6.357   2.363
 5959SOL     OW18775   3.328   1.713   5.353
 5959SOL    HW118776   3.373   1.803   5.354
 5959SOL    HW218777   3.312   1.685   5.258
 5960SOL     OW18778   3.797   6.896   4.152
 5960SOL    HW118779   3.786   6.823   4.083
 5960SOL    HW218780   3.710   6.943   4.164
 5961SOL     OW18781   4.290   1.402   3.443
 5961SOL    HW118782   4.308   1.309   3.476
 5961SOL    HW218783   4.345   1.467   3.496
 5962SOL     OW18784   5.225   5.620   1.964
 5962SOL    HW118785   5.130   5.613   1.994
 5962SOL    HW218786   5.266   5.529   1.965
 5963SOL     OW18787   3.876   3.285   3.955
 5963SOL    HW118788   3.780   3.291   3.930
 5963SOL    HW218789   3.891   3.330   4.043
 5964SOL     OW18790   7.024   5.009   6.255
 5964SOL    HW118791   0.054   5.067   6.315
 5964SOL    HW218792   6.934   5.052   6.241
 5965SOL     OW18793   1.929   1.900   6.304
 5965SOL    HW118794   1.935   1.829   6.375
 5965SOL    HW218795   2.015   1.902   6.252
 5966SOL     OW18796   2.939   5.405   5.368
 5966SOL    HW118797   2.911   5.484   5.422
 5966SOL    HW218798   2.907   5.415   5.274
 5967SOL     OW18799   4.068   6.250   2.575
 5967SOL    HW118800   4.095   6.284   2.484
 5967SOL    HW218801   4.006   6.315   2.617
 5968SOL     OW18802   5.908   1.634   3.059
 5968SOL    HW118803   5.854   1.705   3.105
 5968SOL    HW218804   5.900   1.645   2.960
 5969SOL     OW18805   6.246   1.750   5.245
 5969SOL    HW118806   6.221   1.794   5.158
 5969SOL    HW218807   6.325   1.690   5.230
 5970SOL     OW18808   0.319   4.662   2.720
 5970SOL    HW118809   0.257   4.612   2.780
 5970SOL    HW218810   0.337   4.609   2.638
 5971SOL     OW18811   2.140   0.033   3.055
 5971SOL    HW118812   2.042   0.018   3.063
 5971SOL    HW218813   2.179   6.992   2.989
 5972SOL     OW18814   4.031   6.310   0.515
 5972SOL    HW118815   4.069   6.368   0.443
 5972SOL    HW218816   4.087   6.228   0.526
 5973SOL     OW18817   1.933   5.653   2.712
 5973SOL    HW118818   1.843   5.611   2.716
 5973SOL    HW218819   1.924   5.748   2.683
 5974SOL     OW18820   5.788   3.988   6.056
 5974SOL    HW118821   5.874   4.038   6.050
 5974SOL    HW218822   5.712   4.048   6.033
 5975SOL     OW18823   4.270   2.157   0.777
 5975SOL    HW118824   4.342   2.089   0.789
 5975SOL    HW218825   4.301   2.228   0.714
 5976SOL     OW18826   2.989   3.628   5.096
 5976SOL    HW118827   2.979   3.712   5.044
 5976SOL    HW218828   2.902   3.605   5.140
 5977SOL     OW18829   1.488   4.834   1.706
 5977SOL    HW118830   1.452   4.745   1.732
 5977SOL    HW218831   1.412   4.898   1.694
 5978SOL     OW18832   5.714   5.095   2.925
 5978SOL    HW118833   5.629   5.102   2.976
 5978SOL    HW218834   5.789   5.078   2.989
 5979SOL     OW18835   6.943   0.805   3.171
 5979SOL    HW118836   6.922   0.766   3.261
 5979SOL    HW218837   6.860   0.845   3.133
 5980SOL     OW18838   3.767   4.595   6.785
 5980SOL    HW118839   3.760   4.545   6.699
 5980SOL    HW218840   3.706   4.674   6.782
 5981SOL     OW18841   6.844   1.640   1.911
 5981SOL    HW118842   6.857   1.702   1.833
 5981SOL    HW218843   6.884   1.680   1.993
 5982SOL     OW18844   5.870   1.896   6.577
 5982SOL    HW118845   5.939   1.852   6.519
 5982SOL    HW218846   5.779   1.869   6.547
 5983SOL     OW18847   2.568   1.810   4.229
 5983SOL    HW118848   2.646   1.818   4.168
 5983SOL    HW218849   2.484   1.801   4.175
 5984SOL     OW18850   0.304   0.188   4.495
 5984SOL    HW118851   0.311   0.241   4.410
 5984SOL    HW218852   0.269   0.246   4.568
 5985SOL     OW18853   5.401   2.575   4.305
 5985SOL    HW118854   5.426   2.577   4.402
 5985SOL    HW218855   5.480   2.603   4.250
 5986SOL     OW18856   3.357   3.015   4.062
 5986SOL    HW118857   3.270   3.024   4.014
 5986SOL    HW218858   3.343   2.967   4.149
 5987SOL     OW18859   4.339   1.013   5.137
 5987SOL    HW118860   4.264   1.060   5.090
 5987SOL    HW218861   4.395   1.080   5.186
 5988SOL     OW18862   4.147   6.130   4.792
 5988SOL    HW118863   4.071   6.129   4.857
 5988SOL    HW218864   4.126   6.196   4.719
 5989SOL     OW18865   2.378   6.271   6.475
 5989SOL    HW118866   2.365   6.369   6.492
 5989SOL    HW218867   2.419   6.258   6.385
 5990SOL     OW18868   3.562   3.936   0.846
 5990SOL    HW118869   3.610   3.951   0.760
 5990SOL    HW218870   3.620   3.883   0.908
 5991SOL     OW18871   4.364   4.973   5.127
 5991SOL    HW118872   4.273   4.950   5.162
 5991SOL    HW218873   4.383   4.919   5.045
 5992SOL     OW18874   3.754   0.314   4.172
 5992SOL    HW118875   3.827   0.249   4.152
 5992SOL    HW218876   3.793   0.404   4.193
 5993SOL     OW18877   3.502   6.800   5.970
 5993SOL    HW118878   3.527   6.715   6.016
 5993SOL    HW218879   3.526   6.877   6.028
 5994SOL     OW18880   6.095   2.295   1.800
 5994SOL    HW118881   6.120   2.198   1.805
 5994SOL    HW218882   6.178   2.351   1.807
 5995SOL     OW18883   6.735   5.493   1.274
 5995SOL    HW118884   6.729   5.520   1.371
 5995SOL    HW218885   6.648   5.454   1.245
 5996SOL     OW18886   0.700   5.678   6.629
 5996SOL    HW118887   0.612   5.653   6.587
 5996SOL    HW218888   0.685   5.749   6.697
 5997SOL     OW18889   0.548   6.557   2.654
 5997SOL    HW118890   0.569   6.655   2.657
 5997SOL    HW218891   0.546   6.526   2.559
 5998SOL     OW18892   5.155   2.511   2.413
 5998SOL    HW118893   5.103   2.464   2.341
 5998SOL    HW218894   5.091   2.549   2.480
 5999SOL     OW18895   1.186   2.299   2.947
 5999SOL    HW118896   1.194   2.351   3.032
 5999SOL    HW218897   1.220   2.206   2.961
 6000SOL     OW18898   4.174   5.453   2.261
 6000SOL    HW118899   4.166   5.502   2.348
 6000SOL    HW218900   4.131   5.506   2.189
 6001SOL     OW18901   0.642   3.932   6.425
 6001SOL    HW118902   0.550   3.963   6.400
 6001SOL    HW218903   0.674   3.865   6.358
 6002SOL     OW18904   0.416   6.661   1.448
 6002SOL    HW118905   0.461   6.750   1.452
 6002SOL    HW218906   0.458   6.600   1.516
 6003SOL     OW18907   6.068   2.983   4.611
 6003SOL    HW118908   6.099   2.890   4.629
 6003SOL    HW218909   5.968   2.985   4.605
 6004SOL     OW18910   0.183   4.103   3.228
 6004SOL    HW118911   0.227   4.119   3.139
 6004SOL    HW218912   0.234   4.152   3.299
 6005SOL     OW18913   4.184   4.947   4.254
 6005SOL    HW118914   4.231   4.889   4.321
 6005SOL    HW218915   4.177   4.898   4.167
 6006SOL     OW18916   3.603   0.280   6.883
 6006SOL    HW118917   3.700   0.268   6.906
 6006SOL    HW218918   3.558   0.191   6.882
 6007SOL     OW18919   4.883   2.950   3.754
 6007SOL    HW118920   4.920   2.933   3.663
 6007SOL    HW218921   4.890   3.047   3.775
 6008SOL     OW18922   2.630   5.399   5.661
 6008SOL    HW118923   2.547   5.370   5.710
 6008SOL    HW218924   2.702   5.420   5.728
 6009SOL     OW18925   2.715   1.575   4.855
 6009SOL    HW118926   2.757   1.495   4.812
 6009SOL    HW218927   2.772   1.656   4.838
 6010SOL     OW18928   2.310   4.340   2.053
 6010SOL    HW118929   2.378   4.357   2.123
 6010SOL    HW218930   2.355   4.317   1.967
 6011SOL     OW18931   5.200   2.459   1.857
 6011SOL    HW118932   5.230   2.413   1.774
 6011SOL    HW218933   5.115   2.417   1.890
 6012SOL     OW18934   6.881   2.201   0.230
 6012SOL    HW118935   6.888   2.126   0.295
 6012SOL    HW218936   6.805   2.261   0.256
 6013SOL     OW18937   5.937   1.598   2.761
 6013SOL    HW118938   5.994   1.518   2.784
 6013SOL    HW218939   5.866   1.570   2.697
 6014SOL     OW18940   4.524   1.628   0.874
 6014SOL    HW118941   4.549   1.552   0.933
 6014SOL    HW218942   4.583   1.630   0.793
 6015SOL     OW18943   6.173   2.632   5.767
 6015SOL    HW118944   6.198   2.708   5.828
 6015SOL    HW218945   6.165   2.666   5.673
 6016SOL     OW18946   0.903   0.832   5.923
 6016SOL    HW118947   0.821   0.779   5.940
 6016SOL    HW218948   0.926   0.829   5.825
 6017SOL     OW18949   6.116   5.305   2.686
 6017SOL    HW118950   6.062   5.368   2.630
 6017SOL    HW218951   6.055   5.250   2.744
 6018SOL     OW18952   3.649   2.793   0.287
 6018SOL    HW118953   3.619   2.698   0.276
 6018SOL    HW218954   3.570   2.854   0.281
 6019SOL     OW18955   4.983   1.954   4.034
 6019SOL    HW118956   4.966   1.860   4.062
 6019SOL    HW218957   5.013   2.007   4.114
 6020SOL     OW18958   2.107   6.580   1.587
 6020SOL    HW118959   2.030   6.563   1.525
 6020SOL    HW218960   2.144   6.671   1.569
 6021SOL     OW18961   4.860   6.973   2.786
 6021SOL    HW118962   4.958   6.972   2.769
 6021SOL    HW218963   4.825   6.879   2.787
 6022SOL     OW18964   4.515   0.880   4.547
 6022SOL    HW118965   4.437   0.913   4.495
 6022SOL    HW218966   4.514   0.920   4.638
 6023SOL     OW18967   6.335   1.486   2.919
 6023SOL    HW118968   6.418   1.445   2.958
 6023SOL    HW218969   6.349   1.584   2.906
 6024SOL     OW18970   0.413   4.675   3.071
 6024SOL    HW118971   0.459   4.704   3.155
 6024SOL    HW218972   0.477   4.679   2.994
 6025SOL     OW18973   4.540   0.418   1.960
 6025SOL    HW118974   4.458   0.363   1.942
 6025SOL    HW218975   4.599   0.416   1.880
 6026SOL     OW18976   0.497   4.227   4.333
 6026SOL    HW118977   0.415   4.229   4.391
 6026SOL    HW218978   0.560   4.157   4.366
 6027SOL     OW18979   1.911   3.719   5.795
 6027SOL    HW118980   1.946   3.813   5.799
 6027SOL    HW218981   1.964   3.667   5.729
 6028SOL     OW18982   1.058   3.948   0.501
 6028SOL    HW118983   1.032   3.870   0.445
 6028SOL    HW218984   1.091   4.022   0.441
 6029SOL     OW18985   2.011   6.457   6.872
 6029SOL    HW118986   2.030   6.536   6.812
 6029SOL    HW218987   1.916   6.428   6.860
 6030SOL     OW18988   2.701   0.582   3.238
 6030SOL    HW118989   2.628   0.519   3.211
 6030SOL    HW218990   2.756   0.606   3.157
 6031SOL     OW18991   4.324   5.303   4.792
 6031SOL    HW118992   4.282   5.262   4.872
 6031SOL    HW218993   4.423   5.297   4.799
 6032SOL     OW18994   1.686   3.394   2.305
 6032SOL    HW118995   1.713   3.484   2.271
 6032SOL    HW218996   1.726   3.323   2.248
 6033SOL     OW18997   1.983   2.437   2.702
 6033SOL    HW118998   2.057   2.429   2.635
 6033SOL    HW218999   1.910   2.373   2.679
 6034SOL     OW19000   2.004   5.164   4.495
 6034SOL    HW119001   2.019   5.119   4.406
 6034SOL    HW219002   2.009   5.095   4.568
 6035SOL     OW19003   6.271   1.214   3.743
 6035SOL    HW119004   6.217   1.235   3.662
 6035SOL    HW219005   6.368   1.212   3.719
 6036SOL     OW19006   0.190   6.969   4.530
 6036SOL    HW119007   0.225   0.036   4.508
 6036SOL    HW219008   0.211   6.948   4.625
 6037SOL     OW19009   4.815   5.609   6.273
 6037SOL    HW119010   4.868   5.680   6.319
 6037SOL    HW219011   4.876   5.552   6.218
 6038SOL     OW19012   0.893   3.109   5.973
 6038SOL    HW119013   0.973   3.078   6.024
 6038SOL    HW219014   0.812   3.057   6.003
 6039SOL     OW19015   3.214   3.780   3.103
 6039SOL    HW119016   3.249   3.779   3.009
 6039SOL    HW219017   3.242   3.864   3.149
 6040SOL     OW19018   0.170   1.706   6.247
 6040SOL    HW119019   0.144   1.652   6.327
 6040SOL    HW219020   0.188   1.800   6.275
 6041SOL     OW19021   1.550   1.812   6.081
 6041SOL    HW119022   1.605   1.845   6.158
 6041SOL    HW219023   1.558   1.712   6.075
 6042SOL     OW19024   5.913   5.085   1.780
 6042SOL    HW119025   5.858   5.057   1.859
 6042SOL    HW219026   5.956   5.173   1.800
 6043SOL     OW19027   1.146   4.627   4.835
 6043SOL    HW119028   1.084   4.586   4.768
 6043SOL    HW219029   1.131   4.584   4.925
 6044SOL     OW19030   0.381   2.128   1.031
 6044SOL    HW119031   0.454   2.137   1.099
 6044SOL    HW219032   0.387   2.203   0.965
 6045SOL     OW19033   5.127   5.366   1.363
 6045SOL    HW119034   5.087   5.443   1.313
 6045SOL    HW219035   5.128   5.387   1.461
 6046SOL     OW19036   2.974   1.933   0.852
 6046SOL    HW119037   3.031   2.014   0.850
 6046SOL    HW219038   3.002   1.871   0.778
 6047SOL     OW19039   6.538   1.195   3.636
 6047SOL    HW119040   6.629   1.196   3.594
 6047SOL    HW219041   6.503   1.101   3.638
 6048SOL     OW19042   4.564   6.907   3.342
 6048SOL    HW119043   4.505   6.861   3.275
 6048SOL    HW219044   4.600   6.839   3.406
 6049SOL     OW19045   5.146   3.346   6.410
 6049SOL    HW119046   5.130   3.325   6.506
 6049SOL    HW219047   5.110   3.437   6.389
 6050SOL     OW19048   3.766   4.348   5.867
 6050SOL    HW119049   3.718   4.403   5.798
 6050SOL    HW219050   3.781   4.256   5.830
 6051SOL     OW19051   2.284   1.897   3.112
 6051SOL    HW119052   2.379   1.928   3.111
 6051SOL    HW219053   2.242   1.914   3.022
 6052SOL     OW19054   6.768   0.221   0.664
 6052SOL    HW119055   6.842   0.156   0.650
 6052SOL    HW219056   6.791   0.308   0.621
 6053SOL     OW19057   3.454   0.368   6.608
 6053SOL    HW119058   3.419   0.461   6.602
 6053SOL    HW219059   3.441   0.333   6.700
 6054SOL     OW19060   2.414   3.473   0.937
 6054SOL    HW119061   2.357   3.520   1.004
 6054SOL    HW219062   2.393   3.505   0.845
 6055SOL     OW19063   5.350   0.651   5.823
 6055SOL    HW119064   5.390   0.713   5.756
 6055SOL    HW219065   5.316   0.703   5.901
 6056SOL     OW19066   4.557   1.862   5.257
 6056SOL    HW119067   4.470   1.874   5.208
 6056SOL    HW219068   4.603   1.780   5.223
 6057SOL     OW19069   4.625   2.137   4.476
 6057SOL    HW119070   4.677   2.175   4.553
 6057SOL    HW219071   4.631   2.199   4.398
 6058SOL     OW19072   5.494   2.916   3.074
 6058SOL    HW119073   5.514   2.915   3.172
 6058SOL    HW219074   5.400   2.946   3.060
 6059SOL     OW19075   4.722   5.523   5.902
 6059SOL    HW119076   4.651   5.484   5.843
 6059SOL    HW219077   4.790   5.454   5.923
 6060SOL     OW19078   3.316   3.843   5.750
 6060SOL    HW119079   3.232   3.801   5.715
 6060SOL    HW219080   3.395   3.791   5.718
 6061SOL     OW19081   3.589   2.809   0.910
 6061SOL    HW119082   3.563   2.893   0.957
 6061SOL    HW219083   3.665   2.765   0.958
 6062SOL     OW19084   2.632   1.701   4.486
 6062SOL    HW119085   2.687   1.618   4.491
 6062SOL    HW219086   2.618   1.726   4.390
 6063SOL     OW19087   4.089   1.444   6.412
 6063SOL    HW119088   4.143   1.493   6.480
 6063SOL    HW219089   4.041   1.368   6.456
 6064SOL     OW19090   2.381   5.451   2.682
 6064SOL    HW119091   2.340   5.391   2.614
 6064SOL    HW219092   2.432   5.396   2.748
 6065SOL     OW19093   6.066   6.543   1.076
 6065SOL    HW119094   5.989   6.599   1.045
 6065SOL    HW219095   6.034   6.450   1.094
 6066SOL     OW19096   4.655   1.562   1.414
 6066SOL    HW119097   4.652   1.652   1.370
 6066SOL    HW219098   4.695   1.495   1.351
 6067SOL     OW19099   6.522   1.899   6.774
 6067SOL    HW119100   6.454   1.972   6.787
 6067SOL    HW219101   6.580   1.894   6.856
 6068SOL     OW19102   5.866   3.625   4.924
 6068SOL    HW119103   5.920   3.672   4.853
 6068SOL    HW219104   5.901   3.533   4.937
 6069SOL     OW19105   6.381   3.501   6.286
 6069SOL    HW119106   6.415   3.593   6.308
 6069SOL    HW219107   6.291   3.509   6.242
 6070SOL     OW19108   2.984   1.804   6.290
 6070SOL    HW119109   3.045   1.799   6.211
 6070SOL    HW219110   2.951   1.713   6.313
 6071SOL     OW19111   4.689   6.304   5.798
 6071SOL    HW119112   4.664   6.224   5.853
 6071SOL    HW219113   4.718   6.378   5.859
 6072SOL     OW19114   0.853   1.485   2.017
 6072SOL    HW119115   0.899   1.561   1.972
 6072SOL    HW219116   0.870   1.400   1.967
 6073SOL     OW19117   6.396   3.443   0.477
 6073SOL    HW119118   6.313   3.496   0.494
 6073SOL    HW219119   6.458   3.497   0.420
 6074SOL     OW19120   1.507   6.582   4.550
 6074SOL    HW119121   1.587   6.573   4.490
 6074SOL    HW219122   1.536   6.581   4.645
 6075SOL     OW19123   6.491   2.898   6.810
 6075SOL    HW119124   6.423   2.864   6.744
 6075SOL    HW219125   6.449   2.965   6.870
 6076SOL     OW19126   2.082   6.864   5.123
 6076SOL    HW119127   2.054   6.802   5.196
 6076SOL    HW219128   2.054   6.957   5.146
 6077SOL     OW19129   4.859   5.790   2.560
 6077SOL    HW119130   4.825   5.882   2.543
 6077SOL    HW219131   4.793   5.740   2.616
 6078SOL     OW19132   3.400   4.866   2.414
 6078SOL    HW119133   3.467   4.867   2.488
 6078SOL    HW219134   3.435   4.814   2.337
 6079SOL     OW19135   3.298   3.551   6.462
 6079SOL    HW119136   3.202   3.525   6.459
 6079SOL    HW219137   3.323   3.580   6.554
 6080SOL     OW19138   0.106   1.632   1.132
 6080SOL    HW119139   0.050   1.559   1.091
 6080SOL    HW219140   0.048   1.711   1.151
 6081SOL     OW19141   6.461   3.649   4.761
 6081SOL    HW119142   6.487   3.606   4.674
 6081SOL    HW219143   6.362   3.644   4.772
 6082SOL     OW19144   3.570   0.873   3.545
 6082SOL    HW119145   3.637   0.862   3.619
 6082SOL    HW219146   3.616   0.861   3.457
 6083SOL     OW19147   0.941   5.555   5.866
 6083SOL    HW119148   0.851   5.567   5.824
 6083SOL    HW219149   1.009   5.535   5.795
 6084SOL     OW19150   6.913   5.735   4.324
 6084SOL    HW119151   6.928   5.829   4.352
 6084SOL    HW219152   6.981   5.710   4.255
 6085SOL     OW19153   6.867   4.134   0.356
 6085SOL    HW119154   6.857   4.055   0.417
 6085SOL    HW219155   6.951   4.124   0.304
 6086SOL     OW19156   3.713   1.551   4.580
 6086SOL    HW119157   3.625   1.560   4.533
 6086SOL    HW219158   3.748   1.642   4.603
 6087SOL     OW19159   5.138   0.239   6.931
 6087SOL    HW119160   5.159   0.268   7.024
 6087SOL    HW219161   5.198   0.287   6.867
 6088SOL     OW19162   0.374   6.027   4.378
 6088SOL    HW119163   0.467   6.055   4.351
 6088SOL    HW219164   0.326   6.106   4.417
 6089SOL     OW19165   0.580   3.801   1.841
 6089SOL    HW119166   0.671   3.829   1.811
 6089SOL    HW219167   0.511   3.856   1.793
 6090SOL     OW19168   0.515   6.025   6.339
 6090SOL    HW119169   0.462   5.983   6.413
 6090SOL    HW219170   0.607   6.047   6.372
 6091SOL     OW19171   0.852   1.517   2.573
 6091SOL    HW119172   0.753   1.514   2.591
 6091SOL    HW219173   0.868   1.532   2.475
 6092SOL     OW19174   2.886   0.582   3.029
 6092SOL    HW119175   2.866   0.491   2.993
 6092SOL    HW219176   2.985   0.593   3.040
 6093SOL     OW19177   1.637   2.777   2.300
 6093SOL    HW119178   1.683   2.830   2.229
 6093SOL    HW219179   1.705   2.732   2.358
 6094SOL     OW19180   2.418   1.466   1.729
 6094SOL    HW119181   2.483   1.455   1.654
 6094SOL    HW219182   2.334   1.416   1.708
 6095SOL     OW19183   4.812   3.054   6.624
 6095SOL    HW119184   4.809   3.000   6.540
 6095SOL    HW219185   4.725   3.101   6.636
 6096SOL     OW19186   5.834   0.641   3.969
 6096SOL    HW119187   5.790   0.644   3.879
 6096SOL    HW219188   5.912   0.703   3.971
 6097SOL     OW19189   2.348   0.526   3.105
 6097SOL    HW119190   2.320   0.594   3.173
 6097SOL    HW219191   2.386   0.446   3.152
 6098SOL     OW19192   1.744   2.306   5.697
 6098SOL    HW119193   1.772   2.235   5.762
 6098SOL    HW219194   1.776   2.282   5.606
 6099SOL     OW19195   5.538   6.009   5.939
 6099SOL    HW119196   5.593   6.062   6.002
 6099SOL    HW219197   5.517   6.064   5.858
 6100SOL     OW19198   5.940   3.329   6.701
 6100SOL    HW119199   5.898   3.400   6.757
 6100SOL    HW219200   5.869   3.266   6.669
 6101SOL     OW19201   6.930   1.899   5.634
 6101SOL    HW119202   6.871   1.821   5.617
 6101SOL    HW219203   6.886   1.983   5.601
 6102SOL     OW19204   3.517   1.073   4.646
 6102SOL    HW119205   3.609   1.112   4.652
 6102SOL    HW219206   3.449   1.145   4.665
 6103SOL     OW19207   0.158   0.671   3.962
 6103SOL    HW119208   0.099   0.593   3.985
 6103SOL    HW219209   0.104   0.740   3.912
 6104SOL     OW19210   6.482   2.231   6.547
 6104SOL    HW119211   6.394   2.216   6.501
 6104SOL    HW219212   6.484   2.322   6.588
 6105SOL     OW19213   3.377   6.384   5.364
 6105SOL    HW119214   3.353   6.464   5.309
 6105SOL    HW219215   3.395   6.306   5.304
 6106SOL     OW19216   2.492   4.948   6.193
 6106SOL    HW119217   2.483   4.876   6.262
 6106SOL    HW219218   2.402   4.984   6.170
 6107SOL     OW19219   2.068   5.071   4.266
 6107SOL    HW119220   2.001   4.999   4.249
 6107SOL    HW219221   2.057   5.143   4.198
 6108SOL     OW19222   0.735   2.181   3.135
 6108SOL    HW119223   0.773   2.216   3.050
 6108SOL    HW219224   0.764   2.239   3.212
 6109SOL     OW19225   5.119   2.708   6.811
 6109SOL    HW119226   5.072   2.756   6.737
 6109SOL    HW219227   5.053   2.651   6.861
 6110SOL     OW19228   2.701   2.700   6.691
 6110SOL    HW119229   2.605   2.720   6.711
 6110SOL    HW219230   2.721   2.604   6.712
 6111SOL     OW19231   1.284   4.980   2.483
 6111SOL    HW119232   1.198   4.987   2.432
 6111SOL    HW219233   1.361   4.996   2.421
 6112SOL     OW19234   1.769   2.041   2.784
 6112SOL    HW119235   1.824   1.987   2.848
 6112SOL    HW219236   1.738   2.125   2.828
 6113SOL     OW19237   0.574   0.942   6.128
 6113SOL    HW119238   0.615   0.998   6.200
 6113SOL    HW219239   0.480   0.918   6.155
 6114SOL     OW19240   5.162   5.203   0.767
 6114SOL    HW119241   5.078   5.161   0.803
 6114SOL    HW219242   5.205   5.258   0.838
 6115SOL     OW19243   4.834   5.350   3.486
 6115SOL    HW119244   4.870   5.259   3.509
 6115SOL    HW219245   4.897   5.420   3.521
 6116SOL     OW19246   3.276   1.109   1.684
 6116SOL    HW119247   3.253   1.018   1.653
 6116SOL    HW219248   3.199   1.149   1.734
 6117SOL     OW19249   6.500   0.296   5.195
 6117SOL    HW119250   6.564   0.303   5.119
 6117SOL    HW219251   6.501   0.203   5.232
 6118SOL     OW19252   0.352   2.359   1.724
 6118SOL    HW119253   0.330   2.421   1.648
 6118SOL    HW219254   0.273   2.350   1.785
 6119SOL     OW19255   0.231   4.267   4.545
 6119SOL    HW119256   0.220   4.367   4.542
 6119SOL    HW219257   0.143   4.224   4.524
 6120SOL     OW19258   3.222   0.113   3.876
 6120SOL    HW119259   3.132   0.073   3.862
 6120SOL    HW219260   3.228   0.201   3.829
 6121SOL     OW19261   6.820   2.743   4.650
 6121SOL    HW119262   6.860   2.819   4.598
 6121SOL    HW219263   6.797   2.774   4.742
 6122SOL     OW19264   3.912   6.448   2.654
 6122SOL    HW119265   3.924   6.500   2.739
 6122SOL    HW219266   3.820   6.463   2.619
 6123SOL     OW19267   0.143   0.854   1.448
 6123SOL    HW119268   0.236   0.882   1.469
 6123SOL    HW219269   0.095   0.929   1.402
 6124SOL     OW19270   3.247   6.598   4.911
 6124SOL    HW119271   3.297   6.664   4.854
 6124SOL    HW219272   3.149   6.608   4.895
 6125SOL     OW19273   2.267   5.516   1.192
 6125SOL    HW119274   2.306   5.607   1.207
 6125SOL    HW219275   2.307   5.451   1.256
 6126SOL     OW19276   5.134   5.924   4.235
 6126SOL    HW119277   5.189   6.004   4.210
 6126SOL    HW219278   5.038   5.942   4.215
 6127SOL     OW19279   2.307   6.867   1.166
 6127SOL    HW119280   2.329   6.962   1.186
 6127SOL    HW219281   2.392   6.814   1.160
 6128SOL     OW19282   6.906   3.029   0.598
 6128SOL    HW119283   6.882   3.122   0.571
 6128SOL    HW219284   6.831   2.989   0.651
 6129SOL     OW19285   6.414   3.937   2.820
 6129SOL    HW119286   6.339   4.000   2.799
 6129SOL    HW219287   6.427   3.875   2.742
 6130SOL     OW19288   6.688   3.227   4.712
 6130SOL    HW119289   6.649   3.222   4.804
 6130SOL    HW219290   6.699   3.322   4.685
 6131SOL     OW19291   0.124   1.509   5.639
 6131SOL    HW119292   0.223   1.506   5.623
 6131SOL    HW219293   0.076   1.503   5.551
 6132SOL     OW19294   3.648   0.770   1.258
 6132SOL    HW119295   3.679   0.859   1.224
 6132SOL    HW219296   3.670   0.763   1.355
 6133SOL     OW19297   0.684   3.429   2.726
 6133SOL    HW119298   0.731   3.343   2.703
 6133SOL    HW219299   0.741   3.481   2.790
 6134SOL     OW19300   3.934   3.269   6.265
 6134SOL    HW119301   3.861   3.247   6.200
 6134SOL    HW219302   3.973   3.358   6.243
 6135SOL     OW19303   6.293   0.128   2.048
 6135SOL    HW119304   6.327   0.047   2.096
 6135SOL    HW219305   6.361   0.201   2.054
 6136SOL     OW19306   0.614   1.023   2.581
 6136SOL    HW119307   0.576   0.948   2.528
 6136SOL    HW219308   0.714   1.022   2.572
 6137SOL     OW19309   3.739   1.110   6.084
 6137SOL    HW119310   3.812   1.177   6.097
 6137SOL    HW219311   3.745   1.072   5.991
 6138SOL     OW19312   3.319   6.735   2.431
 6138SOL    HW119313   3.414   6.743   2.460
 6138SOL    HW219314   3.260   6.783   2.497
 6139SOL     OW19315   1.942   3.263   5.179
 6139SOL    HW119316   1.978   3.343   5.227
 6139SOL    HW219317   2.018   3.205   5.149
 6140SOL     OW19318   0.490   6.746   2.004
 6140SOL    HW119319   0.403   6.735   2.052
 6140SOL    HW219320   0.565   6.726   2.066
 6141SOL     OW19321   6.259   6.328   4.538
 6141SOL    HW119322   6.171   6.330   4.585
 6141SOL    HW219323   6.329   6.366   4.598
 6142SOL     OW19324   0.486   5.254   0.641
 6142SOL    HW119325   0.417   5.294   0.702
 6142SOL    HW219326   0.454   5.260   0.546
 6143SOL     OW19327   5.760   4.661   6.435
 6143SOL    HW119328   5.820   4.587   6.403
 6143SOL    HW219329   5.812   4.746   6.438
 6144SOL     OW19330   6.989   4.497   2.776
 6144SOL    HW119331   0.037   4.510   2.843
 6144SOL    HW219332   6.924   4.572   2.783
 6145SOL     OW19333   4.807   5.971   3.530
 6145SOL    HW119334   4.889   6.004   3.577
 6145SOL    HW219335   4.726   5.995   3.584
 6146SOL     OW19336   4.618   0.997   3.527
 6146SOL    HW119337   4.541   1.053   3.497
 6146SOL    HW219338   4.700   1.025   3.478
 6147SOL     OW19339   1.618   4.676   2.993
 6147SOL    HW119340   1.537   4.637   3.035
 6147SOL    HW219341   1.599   4.701   2.898
 6148SOL     OW19342   0.131   6.476   4.040
 6148SOL    HW119343   0.093   6.387   4.064
 6148SOL    HW219344   0.061   6.531   3.994
 6149SOL     OW19345   3.409   4.870   3.431
 6149SOL    HW119346   3.311   4.859   3.410
 6149SOL    HW219347   3.463   4.830   3.357
 6150SOL     OW19348   4.336   5.107   6.948
 6150SOL    HW119349   4.261   5.168   6.973
 6150SOL    HW219350   4.402   5.103   7.023
 6151SOL     OW19351   5.973   3.403   5.042
 6151SOL    HW119352   6.052   3.356   5.004
 6151SOL    HW219353   5.951   3.365   5.132
 6152SOL     OW19354   5.230   4.935   5.869
 6152SOL    HW119355   5.161   4.899   5.806
 6152SOL    HW219356   5.316   4.948   5.820
 6153SOL     OW19357   4.667   4.016   1.525
 6153SOL    HW119358   4.756   4.011   1.571
 6153SOL    HW219359   4.610   3.940   1.557
 6154SOL     OW19360   5.441   1.460   2.059
 6154SOL    HW119361   5.446   1.545   2.007
 6154SOL    HW219362   5.440   1.481   2.157
 6155SOL     OW19363   1.579   2.971   4.232
 6155SOL    HW119364   1.670   2.935   4.209
 6155SOL    HW219365   1.527   2.902   4.282
 6156SOL     OW19366   4.581   5.865   2.536
 6156SOL    HW119367   4.628   5.952   2.547
 6156SOL    HW219368   4.597   5.808   2.617
 6157SOL     OW19369   1.360   2.506   3.553
 6157SOL    HW119370   1.368   2.408   3.568
 6157SOL    HW219371   1.398   2.530   3.464
 6158SOL     OW19372   4.992   0.962   6.736
 6158SOL    HW119373   5.047   1.007   6.665
 6158SOL    HW219374   4.899   0.949   6.702
 6159SOL     OW19375   4.877   1.589   7.022
 6159SOL    HW119376   4.954   1.648   0.025
 6159SOL    HW219377   4.833   1.628   6.941
 6160SOL     OW19378   5.421   5.797   0.368
 6160SOL    HW119379   5.332   5.753   0.356
 6160SOL    HW219380   5.470   5.751   0.443
 6161SOL     OW19381   6.028   1.754   5.723
 6161SOL    HW119382   6.021   1.847   5.759
 6161SOL    HW219383   5.946   1.702   5.748
 6162SOL     OW19384   0.895   4.967   4.464
 6162SOL    HW119385   0.806   5.012   4.476
 6162SOL    HW219386   0.965   5.037   4.448
 6163SOL     OW19387   5.647   5.468   1.055
 6163SOL    HW119388   5.600   5.555   1.039
 6163SOL    HW219389   5.614   5.428   1.141
 6164SOL     OW19390   2.111   2.672   1.813
 6164SOL    HW119391   2.054   2.649   1.892
 6164SOL    HW219392   2.181   2.601   1.802
 6165SOL     OW19393   4.001   5.943   0.402
 6165SOL    HW119394   3.913   5.932   0.447
 6165SOL    HW219395   3.995   6.015   0.333
 6166SOL     OW19396   3.299   1.183   5.698
 6166SOL    HW119397   3.234   1.118   5.658
 6166SOL    HW219398   3.348   1.230   5.624
 6167SOL     OW19399   1.077   4.775   2.309
 6167SOL    HW119400   1.015   4.852   2.304
 6167SOL    HW219401   1.056   4.720   2.390
 6168SOL     OW19402   0.743   3.625   1.231
 6168SOL    HW119403   0.732   3.598   1.327
 6168SOL    HW219404   0.803   3.704   1.225
 6169SOL     OW19405   1.902   3.025   1.723
 6169SOL    HW119406   1.846   3.098   1.684
 6169SOL    HW219407   1.999   3.049   1.713
 6170SOL     OW19408   0.425   3.209   5.289
 6170SOL    HW119409   0.462   3.132   5.342
 6170SOL    HW219410   0.354   3.255   5.342
 6171SOL     OW19411   0.533   1.400   0.686
 6171SOL    HW119412   0.520   1.360   0.596
 6171SOL    HW219413   0.448   1.392   0.739
 6172SOL     OW19414   0.837   2.295   3.363
 6172SOL    HW119415   0.883   2.382   3.381
 6172SOL    HW219416   0.817   2.249   3.449
 6173SOL     OW19417   6.548   5.656   2.666
 6173SOL    HW119418   6.642   5.622   2.679
 6173SOL    HW219419   6.549   5.733   2.602
 6174SOL     OW19420   4.826   4.961   3.319
 6174SOL    HW119421   4.745   4.906   3.339
 6174SOL    HW219422   4.853   5.012   3.402
 6175SOL     OW19423   3.566   0.658   4.718
 6175SOL    HW119424   3.484   0.621   4.674
 6175SOL    HW219425   3.543   0.741   4.768
 6176SOL     OW19426   4.494   3.508   5.341
 6176SOL    HW119427   4.558   3.546   5.275
 6176SOL    HW219428   4.414   3.569   5.349
 6177SOL     OW19429   6.009   1.985   1.538
 6177SOL    HW119430   6.022   1.886   1.533
 6177SOL    HW219431   6.003   2.012   1.634
 6178SOL     OW19432   4.875   3.727   1.793
 6178SOL    HW119433   4.869   3.766   1.885
 6178SOL    HW219434   4.811   3.651   1.785
 6179SOL     OW19435   6.847   4.928   1.390
 6179SOL    HW119436   6.873   5.025   1.382
 6179SOL    HW219437   6.909   4.872   1.336
 6180SOL     OW19438   3.066   4.716   0.856
 6180SOL    HW119439   3.149   4.736   0.909
 6180SOL    HW219440   3.054   4.616   0.850
 6181SOL     OW19441   5.197   5.798   6.249
 6181SOL    HW119442   5.281   5.807   6.302
 6181SOL    HW219443   5.210   5.733   6.175
 6182SOL     OW19444   3.943   2.998   0.170
 6182SOL    HW119445   3.891   2.988   0.254
 6182SOL    HW219446   4.020   2.934   0.170
 6183SOL     OW19447   1.691   2.503   1.151
 6183SOL    HW119448   1.697   2.452   1.237
 6183SOL    HW219449   1.680   2.438   1.076
 6184SOL     OW19450   3.338   0.611   5.950
 6184SOL    HW119451   3.327   0.545   6.024
 6184SOL    HW219452   3.275   0.589   5.876
 6185SOL     OW19453   2.782   3.322   5.803
 6185SOL    HW119454   2.700   3.329   5.859
 6185SOL    HW219455   2.803   3.225   5.786
 6186SOL     OW19456   0.145   2.005   1.584
 6186SOL    HW119457   0.160   1.917   1.629
 6186SOL    HW219458   0.232   2.038   1.547
 6187SOL     OW19459   4.716   2.458   4.964
 6187SOL    HW119460   4.687   2.424   4.874
 6187SOL    HW219461   4.762   2.385   5.014
 6188SOL     OW19462   1.826   1.543   5.041
 6188SOL    HW119463   1.826   1.642   5.022
 6188SOL    HW219464   1.735   1.515   5.070
 6189SOL     OW19465   4.078   5.330   2.601
 6189SOL    HW119466   4.116   5.355   2.690
 6189SOL    HW219467   4.030   5.243   2.609
 6190SOL     OW19468   6.286   3.622   5.805
 6190SOL    HW119469   6.199   3.619   5.854
 6190SOL    HW219470   6.316   3.529   5.784
 6191SOL     OW19471   2.343   2.864   5.830
 6191SOL    HW119472   2.322   2.787   5.769
 6191SOL    HW219473   2.439   2.889   5.819
 6192SOL     OW19474   2.169   1.562   6.717
 6192SOL    HW119475   2.178   1.610   6.630
 6192SOL    HW219476   2.172   1.629   6.792
 6193SOL     OW19477   5.131   5.314   0.390
 6193SOL    HW119478   5.128   5.385   0.320
 6193SOL    HW219479   5.049   5.322   0.447
 6194SOL     OW19480   6.774   1.044   6.959
 6194SOL    HW119481   6.744   1.138   6.975
 6194SOL    HW219482   6.795   1.000   0.021
 6195SOL     OW19483   5.364   0.298   4.945
 6195SOL    HW119484   5.265   0.296   4.933
 6195SOL    HW219485   5.399   0.387   4.916
 6196SOL     OW19486   5.403   4.847   2.553
 6196SOL    HW119487   5.438   4.790   2.628
 6196SOL    HW219488   5.421   4.943   2.575
 6197SOL     OW19489   2.706   5.280   2.452
 6197SOL    HW119490   2.624   5.235   2.417
 6197SOL    HW219491   2.697   5.296   2.550
 6198SOL     OW19492   5.654   6.254   6.293
 6198SOL    HW119493   5.581   6.277   6.229
 6198SOL    HW219494   5.713   6.333   6.305
 6199SOL     OW19495   0.862   0.392   0.670
 6199SOL    HW119496   0.809   0.416   0.589
 6199SOL    HW219497   0.918   0.311   0.650
 6200SOL     OW19498   1.301   1.092   2.806
 6200SOL    HW119499   1.342   1.063   2.719
 6200SOL    HW219500   1.214   1.138   2.787
 6201SOL     OW19501   6.983   4.748   4.191
 6201SOL    HW119502   0.035   4.743   4.128
 6201SOL    HW219503   6.911   4.685   4.161
 6202SOL     OW19504   6.176   1.701   3.403
 6202SOL    HW119505   6.170   1.753   3.488
 6202SOL    HW219506   6.085   1.667   3.379
 6203SOL     OW19507   6.352   5.723   1.880
 6203SOL    HW119508   6.301   5.643   1.913
 6203SOL    HW219509   6.418   5.695   1.811
 6204SOL     OW19510   1.070   6.001   4.883
 6204SOL    HW119511   1.038   5.932   4.948
 6204SOL    HW219512   1.152   6.044   4.918
 6205SOL     OW19513   4.725   4.998   2.126
 6205SOL    HW119514   4.821   4.998   2.100
 6205SOL    HW219515   4.680   4.917   2.088
 6206SOL     OW19516   4.632   1.963   3.772
 6206SOL    HW119517   4.535   1.973   3.793
 6206SOL    HW219518   4.649   1.993   3.678
 6207SOL     OW19519   1.613   5.708   4.490
 6207SOL    HW119520   1.632   5.636   4.558
 6207SOL    HW219521   1.677   5.700   4.414
 6208SOL     OW19522   3.315   2.926   6.485
 6208SOL    HW119523   3.391   2.987   6.505
 6208SOL    HW219524   3.255   2.968   6.417
 6209SOL     OW19525   3.467   4.180   0.879
 6209SOL    HW119526   3.548   4.236   0.859
 6209SOL    HW219527   3.491   4.084   0.869
 6210SOL     OW19528   5.136   3.461   2.974
 6210SOL    HW119529   5.086   3.376   2.993
 6210SOL    HW219530   5.199   3.446   2.897
 6211SOL     OW19531   4.767   5.820   5.255
 6211SOL    HW119532   4.691   5.772   5.211
 6211SOL    HW219533   4.853   5.774   5.232
 6212SOL     OW19534   2.544   4.973   5.181
 6212SOL    HW119535   2.494   4.977   5.094
 6212SOL    HW219536   2.490   5.017   5.252
 6213SOL     OW19537   4.677   6.540   0.451
 6213SOL    HW119538   4.750   6.558   0.517
 6213SOL    HW219539   4.685   6.605   0.374
 6214SOL     OW19540   5.813   5.602   5.179
 6214SOL    HW119541   5.829   5.505   5.196
 6214SOL    HW219542   5.830   5.654   5.263
 6215SOL     OW19543   4.979   3.173   6.081
 6215SOL    HW119544   4.929   3.132   6.004
 6215SOL    HW219545   4.994   3.270   6.064
 6216SOL     OW19546   5.545   2.774   3.454
 6216SOL    HW119547   5.502   2.706   3.395
 6216SOL    HW219548   5.535   2.865   3.414
 6217SOL     OW19549   0.909   4.624   2.500
 6217SOL    HW119550   0.946   4.611   2.592
 6217SOL    HW219551   0.912   4.537   2.450
 6218SOL     OW19552   4.713   5.983   0.056
 6218SOL    HW119553   4.622   5.946   0.041
 6218SOL    HW219554   4.777   5.944   7.015
 6219SOL     OW19555   0.990   0.926   5.360
 6219SOL    HW119556   0.923   0.956   5.293
 6219SOL    HW219557   1.081   0.921   5.317
 6220SOL     OW19558   3.533   0.500   0.233
 6220SOL    HW119559   3.554   0.403   0.236
 6220SOL    HW219560   3.610   0.553   0.268
 6221SOL     OW19561   6.753   6.306   6.639
 6221SOL    HW119562   6.790   6.235   6.579
 6221SOL    HW219563   6.782   6.289   6.733
 6222SOL     OW19564   5.947   1.152   1.845
 6222SOL    HW119565   5.853   1.156   1.811
 6222SOL    HW219566   5.953   1.084   1.918
 6223SOL     OW19567   0.636   5.375   3.770
 6223SOL    HW119568   0.613   5.295   3.825
 6223SOL    HW219569   0.629   5.457   3.826
 6224SOL     OW19570   4.339   1.014   6.067
 6224SOL    HW119571   4.246   0.979   6.069
 6224SOL    HW219572   4.341   1.106   6.106
 6225SOL     OW19573   4.134   0.836   6.605
 6225SOL    HW119574   4.045   0.799   6.575
 6225SOL    HW219575   4.152   0.922   6.557
 6226SOL     OW19576   1.420   1.540   4.125
 6226SOL    HW119577   1.383   1.623   4.082
 6226SOL    HW219578   1.484   1.565   4.197
 6227SOL     OW19579   3.214   4.445   5.317
 6227SOL    HW119580   3.133   4.466   5.261
 6227SOL    HW219581   3.200   4.480   5.409
 6228SOL     OW19582   2.074   2.544   3.129
 6228SOL    HW119583   2.112   2.471   3.186
 6228SOL    HW219584   2.056   2.624   3.186
 6229SOL     OW19585   6.977   3.276   4.882
 6229SOL    HW119586   0.047   3.305   4.868
 6229SOL    HW219587   6.915   3.335   4.829
 6230SOL     OW19588   0.242   1.648   2.702
 6230SOL    HW119589   0.284   1.658   2.612
 6230SOL    HW219590   0.151   1.687   2.701
 6231SOL     OW19591   5.313   4.313   0.457
 6231SOL    HW119592   5.368   4.365   0.391
 6231SOL    HW219593   5.228   4.362   0.475
 6232SOL     OW19594   5.620   0.898   0.635
 6232SOL    HW119595   5.674   0.817   0.611
 6232SOL    HW219596   5.524   0.872   0.643
 6233SOL     OW19597   0.664   3.796   2.115
 6233SOL    HW119598   0.731   3.728   2.145
 6233SOL    HW219599   0.646   3.785   2.018
 6234SOL     OW19600   0.350   6.752   4.121
 6234SOL    HW119601   0.376   6.672   4.067
 6234SOL    HW219602   0.254   6.774   4.104
 6235SOL     OW19603   6.957   0.537   2.415
 6235SOL    HW119604   7.013   0.528   2.332
 6235SOL    HW219605   6.971   0.457   2.473
 6236SOL     OW19606   0.808   4.172   0.713
 6236SOL    HW119607   0.757   4.167   0.798
 6236SOL    HW219608   0.898   4.212   0.730
 6237SOL     OW19609   3.689   6.854   0.654
 6237SOL    HW119610   3.638   6.858   0.568
 6237SOL    HW219611   3.664   6.770   0.703
 6238SOL     OW19612   3.202   6.741   3.851
 6238SOL    HW119613   3.208   6.764   3.754
 6238SOL    HW219614   3.125   6.678   3.866
 6239SOL     OW19615   4.512   6.899   2.749
 6239SOL    HW119616   4.515   6.890   2.849
 6239SOL    HW219617   4.552   6.987   2.722
 6240SOL     OW19618   3.113   3.173   4.387
 6240SOL    HW119619   3.096   3.162   4.485
 6240SOL    HW219620   3.198   3.125   4.363
 6241SOL     OW19621   3.415   6.786   4.021
 6241SOL    HW119622   3.331   6.773   3.969
 6241SOL    HW219623   3.395   6.835   4.106
 6242SOL     OW19624   2.826   2.264   2.722
 6242SOL    HW119625   2.820   2.329   2.647
 6242SOL    HW219626   2.790   2.306   2.806
 6243SOL     OW19627   6.007   0.799   6.273
 6243SOL    HW119628   5.997   0.761   6.182
 6243SOL    HW219629   6.100   0.784   6.306
 6244SOL     OW19630   4.561   4.645   3.048
 6244SOL    HW119631   4.600   4.731   3.081
 6244SOL    HW219632   4.552   4.648   2.948
 6245SOL     OW19633   1.120   4.630   2.705
 6245SOL    HW119634   1.158   4.722   2.714
 6245SOL    HW219635   1.191   4.566   2.675
 6246SOL     OW19636   1.373   6.838   4.537
 6246SOL    HW119637   1.280   6.821   4.568
 6246SOL    HW219638   1.423   6.752   4.532
 6247SOL     OW19639   0.006   5.360   3.596
 6247SOL    HW119640   6.931   5.366   3.589
 6247SOL    HW219641   0.032   5.264   3.606
 6248SOL     OW19642   4.220   2.865   6.688
 6248SOL    HW119643   4.240   2.851   6.786
 6248SOL    HW219644   4.142   2.926   6.679
 6249SOL     OW19645   6.997   3.286   1.503
 6249SOL    HW119646   0.009   3.280   1.596
 6249SOL    HW219647   6.938   3.208   1.485
 6250SOL     OW19648   0.090   6.864   0.852
 6250SOL    HW119649   0.092   6.812   0.938
 6250SOL    HW219650   0.118   6.805   0.777
 6251SOL     OW19651   2.938   6.977   4.291
 6251SOL    HW119652   3.003   6.937   4.226
 6251SOL    HW219653   2.988   7.012   4.370
 6252SOL     OW19654   3.006   5.536   6.815
 6252SOL    HW119655   2.933   5.495   6.759
 6252SOL    HW219656   3.095   5.502   6.784
 6253SOL     OW19657   2.993   5.030   4.437
 6253SOL    HW119658   2.966   4.944   4.394
 6253SOL    HW219659   2.941   5.043   4.521
 6254SOL     OW19660   0.303   5.377   0.799
 6254SOL    HW119661   0.268   5.346   0.888
 6254SOL    HW219662   0.230   5.424   0.749
 6255SOL     OW19663   1.743   1.869   1.170
 6255SOL    HW119664   1.648   1.861   1.141
 6255SOL    HW219665   1.762   1.963   1.199
 6256SOL     OW19666   4.932   6.008   2.192
 6256SOL    HW119667   4.891   6.099   2.179
 6256SOL    HW219668   5.030   6.013   2.173
 6257SOL     OW19669   4.444   3.679   0.670
 6257SOL    HW119670   4.467   3.693   0.766
 6257SOL    HW219671   4.522   3.638   0.623
 6258SOL     OW19672   4.363   6.931   5.910
 6258SOL    HW119673   4.393   6.995   5.839
 6258SOL    HW219674   4.265   6.940   5.925
 6259SOL     OW19675   1.841   0.053   5.908
 6259SOL    HW119676   1.909   0.121   5.938
 6259SOL    HW219677   1.792   0.089   5.828
 6260SOL     OW19678   1.942   0.335   0.630
 6260SOL    HW119679   1.849   0.301   0.641
 6260SOL    HW219680   1.940   0.421   0.579
 6261SOL     OW19681   4.686   6.992   1.410
 6261SOL    HW119682   4.742   6.927   1.359
 6261SOL    HW219683   4.590   6.977   1.389
 6262SOL     OW19684   6.411   6.505   2.200
 6262SOL    HW119685   6.417   6.549   2.290
 6262SOL    HW219686   6.484   6.438   2.192
 6263SOL     OW19687   0.404   6.464   4.072
 6263SOL    HW119688   0.307   6.472   4.091
 6263SOL    HW219689   0.418   6.413   3.987
 6264SOL     OW19690   0.284   6.966   1.187
 6264SOL    HW119691   0.360   6.924   1.137
 6264SOL    HW219692   0.320   7.023   1.261
 6265SOL     OW19693   3.918   2.633   0.507
 6265SOL    HW119694   3.833   2.626   0.559
 6265SOL    HW219695   3.986   2.571   0.546
 6266SOL     OW19696   2.818   5.641   2.754
 6266SOL    HW119697   2.859   5.661   2.665
 6266SOL    HW219698   2.890   5.631   2.822
 6267SOL     OW19699   0.859   6.212   5.495
 6267SOL    HW119700   0.954   6.184   5.484
 6267SOL    HW219701   0.801   6.157   5.435
 6268SOL     OW19702   3.875   0.527   1.966
 6268SOL    HW119703   3.902   0.551   2.060
 6268SOL    HW219704   3.776   0.515   1.962
 6269SOL     OW19705   5.652   6.482   1.294
 6269SOL    HW119706   5.703   6.568   1.295
 6269SOL    HW219707   5.716   6.406   1.285
 6270SOL     OW19708   1.304   6.394   0.190
 6270SOL    HW119709   1.310   6.332   0.267
 6270SOL    HW219710   1.394   6.436   0.173
 6271SOL     OW19711   6.100   3.086   6.845
 6271SOL    HW119712   6.039   3.121   6.917
 6271SOL    HW219713   6.051   3.085   6.758
 6272SOL     OW19714   6.254   0.043   0.164
 6272SOL    HW119715   6.244   0.142   0.172
 6272SOL    HW219716   6.180   0.007   0.106
 6273SOL     OW19717   0.283   6.763   2.208
 6273SOL    HW119718   0.309   6.856   2.183
 6273SOL    HW219719   0.304   6.747   2.304
 6274SOL     OW19720   3.185   6.321   4.872
 6274SOL    HW119721   3.179   6.347   4.968
 6274SOL    HW219722   3.121   6.376   4.819
 6275SOL     OW19723   2.364   6.286   0.652
 6275SOL    HW119724   2.320   6.230   0.722
 6275SOL    HW219725   2.426   6.230   0.598
 6276SOL     OW19726   2.485   5.724   3.509
 6276SOL    HW119727   2.518   5.739   3.416
 6276SOL    HW219728   2.490   5.810   3.560
 6277SOL     OW19729   5.302   2.370   1.623
 6277SOL    HW119730   5.366   2.322   1.564
 6277SOL    HW219731   5.233   2.416   1.567
 6278SOL     OW19732   3.263   0.352   5.566
 6278SOL    HW119733   3.340   0.291   5.545
 6278SOL    HW219734   3.180   0.317   5.524
 6279SOL     OW19735   3.424   5.954   1.099
 6279SOL    HW119736   3.511   5.922   1.062
 6279SOL    HW219737   3.349   5.924   1.040
 6280SOL     OW19738   6.575   1.655   6.889
 6280SOL    HW119739   6.561   1.594   6.811
 6280SOL    HW219740   6.559   1.750   6.860
 6281SOL     OW19741   6.217   3.699   4.843
 6281SOL    HW119742   6.232   3.651   4.930
 6281SOL    HW219743   6.120   3.696   4.820
 6282SOL     OW19744   0.097   3.667   6.130
 6282SOL    HW119745   0.046   3.721   6.063
 6282SOL    HW219746   0.194   3.672   6.110
 6283SOL     OW19747   1.322   5.731   5.301
 6283SOL    HW119748   1.406   5.745   5.353
 6283SOL    HW219749   1.324   5.640   5.259
 6284SOL     OW19750   2.176   4.056   6.896
 6284SOL    HW119751   2.092   4.104   6.872
 6284SOL    HW219752   2.248   4.082   6.831
 6285SOL     OW19753   1.829   3.979   3.019
 6285SOL    HW119754   1.880   4.021   3.094
 6285SOL    HW219755   1.784   3.896   3.052
 6286SOL     OW19756   0.731   3.338   4.526
 6286SOL    HW119757   0.709   3.296   4.438
 6286SOL    HW219758   0.807   3.288   4.569
 6287SOL     OW19759   4.285   4.713   5.394
 6287SOL    HW119760   4.269   4.811   5.403
 6287SOL    HW219761   4.313   4.676   5.482
 6288SOL     OW19762   3.621   3.653   6.251
 6288SOL    HW119763   3.613   3.559   6.284
 6288SOL    HW219764   3.676   3.654   6.167
 6289SOL     OW19765   2.257   4.291   6.240
 6289SOL    HW119766   2.338   4.250   6.281
 6289SOL    HW219767   2.284   4.344   6.160
 6290SOL     OW19768   6.035   5.271   6.256
 6290SOL    HW119769   5.963   5.276   6.187
 6290SOL    HW219770   6.117   5.231   6.217
 6291SOL     OW19771   3.333   3.305   2.717
 6291SOL    HW119772   3.247   3.255   2.712
 6291SOL    HW219773   3.322   3.395   2.674
 6292SOL     OW19774   1.941   2.737   4.375
 6292SOL    HW119775   2.032   2.775   4.359
 6292SOL    HW219776   1.897   2.787   4.450
 6293SOL     OW19777   5.075   1.256   0.163
 6293SOL    HW119778   5.148   1.310   0.120
 6293SOL    HW219779   4.994   1.260   0.105
 6294SOL     OW19780   2.999   1.103   3.911
 6294SOL    HW119781   2.930   1.054   3.857
 6294SOL    HW219782   3.048   1.167   3.853
 6295SOL     OW19783   5.313   4.911   4.809
 6295SOL    HW119784   5.227   4.914   4.759
 6295SOL    HW219785   5.312   4.835   4.874
 6296SOL     OW19786   0.058   3.411   6.264
 6296SOL    HW119787   0.066   3.492   6.206
 6296SOL    HW219788   0.069   3.328   6.208
 6297SOL     OW19789   6.430   0.362   4.396
 6297SOL    HW119790   6.493   0.431   4.358
 6297SOL    HW219791   6.461   0.271   4.369
 6298SOL     OW19792   5.742   4.692   6.715
 6298SOL    HW119793   5.755   4.705   6.617
 6298SOL    HW219794   5.650   4.721   6.741
 6299SOL     OW19795   5.085   2.614   2.866
 6299SOL    HW119796   5.135   2.698   2.885
 6299SOL    HW219797   5.037   2.622   2.779
 6300SOL     OW19798   4.006   1.318   6.157
 6300SOL    HW119799   4.034   1.312   6.061
 6300SOL    HW219800   4.052   1.395   6.201
 6301SOL     OW19801   3.262   6.420   6.781
 6301SOL    HW119802   3.325   6.417   6.703
 6301SOL    HW219803   3.257   6.329   6.823
 6302SOL     OW19804   2.643   1.094   5.776
 6302SOL    HW119805   2.661   1.185   5.737
 6302SOL    HW219806   2.696   1.026   5.726
 6303SOL     OW19807   1.188   6.374   5.799
 6303SOL    HW119808   1.270   6.328   5.832
 6303SOL    HW219809   1.121   6.382   5.873
 6304SOL     OW19810   4.302   0.921   3.392
 6304SOL    HW119811   4.278   0.984   3.318
 6304SOL    HW219812   4.388   0.875   3.370
 6305SOL     OW19813   6.919   5.789   5.380
 6305SOL    HW119814   6.866   5.722   5.432
 6305SOL    HW219815   6.971   5.743   5.308
 6306SOL     OW19816   0.136   4.371   3.885
 6306SOL    HW119817   0.177   4.373   3.976
 6306SOL    HW219818   0.191   4.424   3.821
 6307SOL     OW19819   3.934   3.966   3.777
 6307SOL    HW119820   3.923   3.948   3.679
 6307SOL    HW219821   3.961   4.061   3.791
 6308SOL     OW19822   0.260   2.729   6.497
 6308SOL    HW119823   0.325   2.797   6.462
 6308SOL    HW219824   0.173   2.774   6.517
 6309SOL     OW19825   0.910   6.799   4.695
 6309SOL    HW119826   0.866   6.715   4.663
 6309SOL    HW219827   0.844   6.873   4.695
 6310SOL     OW19828   1.423   6.613   2.944
 6310SOL    HW119829   1.407   6.604   3.042
 6310SOL    HW219830   1.496   6.550   2.916
 6311SOL     OW19831   5.615   1.088   6.163
 6311SOL    HW119832   5.584   1.019   6.228
 6311SOL    HW219833   5.714   1.081   6.152
 6312SOL     OW19834   3.007   6.564   6.775
 6312SOL    HW119835   2.966   6.571   6.866
 6312SOL    HW219836   3.105   6.545   6.784
 6313SOL     OW19837   5.020   6.110   3.263
 6313SOL    HW119838   4.999   6.114   3.165
 6313SOL    HW219839   5.117   6.133   3.277
 6314SOL     OW19840   2.847   0.418   1.487
 6314SOL    HW119841   2.894   0.387   1.570
 6314SOL    HW219842   2.755   0.450   1.511
 6315SOL     OW19843   1.857   2.863   4.147
 6315SOL    HW119844   1.880   2.820   4.060
 6315SOL    HW219845   1.903   2.815   4.222
 6316SOL     OW19846   5.463   1.871   5.302
 6316SOL    HW119847   5.444   1.776   5.278
 6316SOL    HW219848   5.522   1.874   5.383
 6317SOL     OW19849   5.262   4.686   2.395
 6317SOL    HW119850   5.323   4.649   2.326
 6317SOL    HW219851   5.316   4.731   2.467
 6318SOL     OW19852   6.615   0.391   6.574
 6318SOL    HW119853   6.703   0.380   6.620
 6318SOL    HW219854   6.630   0.426   6.481
 6319SOL     OW19855   5.431   2.609   4.617
 6319SOL    HW119856   5.409   2.680   4.683
 6319SOL    HW219857   5.519   2.569   4.639
 6320SOL     OW19858   0.620   0.823   4.089
 6320SOL    HW119859   0.650   0.908   4.131
 6320SOL    HW219860   0.528   0.835   4.051
 6321SOL     OW19861   5.560   2.110   0.765
 6321SOL    HW119862   5.600   2.023   0.792
 6321SOL    HW219863   5.498   2.142   0.837
 6322SOL     OW19864   1.924   0.743   0.769
 6322SOL    HW119865   1.930   0.768   0.672
 6322SOL    HW219866   1.896   0.822   0.823
 6323SOL     OW19867   2.816   2.553   1.072
 6323SOL    HW119868   2.883   2.517   1.007
 6323SOL    HW219869   2.761   2.478   1.108
 6324SOL     OW19870   4.722   1.218   1.283
 6324SOL    HW119871   4.660   1.143   1.305
 6324SOL    HW219872   4.807   1.207   1.334
 6325SOL     OW19873   1.613   2.417   2.173
 6325SOL    HW119874   1.611   2.336   2.232
 6325SOL    HW219875   1.695   2.471   2.193
 6326SOL     OW19876   4.908   5.323   5.935
 6326SOL    HW119877   4.881   5.231   5.963
 6326SOL    HW219878   4.982   5.318   5.869
 6327SOL     OW19879   0.109   2.164   3.638
 6327SOL    HW119880   0.152   2.100   3.703
 6327SOL    HW219881   0.018   2.131   3.615
 6328SOL     OW19882   4.357   3.209   5.868
 6328SOL    HW119883   4.327   3.302   5.844
 6328SOL    HW219884   4.289   3.143   5.835
 6329SOL     OW19885   1.293   2.535   5.347
 6329SOL    HW119886   1.208   2.585   5.365
 6329SOL    HW219887   1.291   2.497   5.255
 6330SOL     OW19888   6.702   1.308   2.945
 6330SOL    HW119889   6.628   1.322   3.011
 6330SOL    HW219890   6.680   1.228   2.888
 6331SOL     OW19891   6.467   3.213   4.523
 6331SOL    HW119892   6.407   3.156   4.579
 6331SOL    HW219893   6.543   3.246   4.580
 6332SOL     OW19894   1.910   1.651   1.192
 6332SOL    HW119895   1.867   1.741   1.205
 6332SOL    HW219896   1.842   1.587   1.155
 6333SOL     OW19897   4.872   6.999   0.446
 6333SOL    HW119898   4.889   6.903   0.423
 6333SOL    HW219899   4.949   0.030   0.415
 6334SOL     OW19900   2.949   1.673   2.021
 6334SOL    HW119901   3.031   1.726   2.039
 6334SOL    HW219902   2.891   1.673   2.103
 6335SOL     OW19903   5.512   0.624   0.848
 6335SOL    HW119904   5.608   0.651   0.843
 6335SOL    HW219905   5.498   0.543   0.791
 6336SOL     OW19906   0.250   4.022   6.010
 6336SOL    HW119907   0.318   4.076   5.961
 6336SOL    HW219908   0.292   3.937   6.042
 6337SOL     OW19909   4.205   5.796   4.996
 6337SOL    HW119910   4.132   5.863   4.983
 6337SOL    HW219911   4.280   5.837   5.048
 6338SOL     OW19912   3.114   2.174   4.242
 6338SOL    HW119913   3.034   2.233   4.229
 6338SOL    HW219914   3.173   2.179   4.161
 6339SOL     OW19915   1.092   4.138   2.959
 6339SOL    HW119916   1.098   4.101   3.051
 6339SOL    HW219917   1.007   4.188   2.948
 6340SOL     OW19918   2.513   3.827   1.202
 6340SOL    HW119919   2.562   3.889   1.264
 6340SOL    HW219920   2.567   3.745   1.187
 6341SOL     OW19921   1.267   4.391   3.866
 6341SOL    HW119922   1.361   4.424   3.864
 6341SOL    HW219923   1.216   4.443   3.935
 6342SOL     OW19924   1.844   0.858   2.291
 6342SOL    HW119925   1.745   0.874   2.298
 6342SOL    HW219926   1.892   0.935   2.332
 6343SOL     OW19927   2.923   6.393   0.221
 6343SOL    HW119928   2.965   6.453   0.289
 6343SOL    HW219929   2.853   6.337   0.265
 6344SOL     OW19930   5.618   2.243   3.436
 6344SOL    HW119931   5.605   2.228   3.338
 6344SOL    HW219932   5.696   2.191   3.468
 6345SOL     OW19933   5.351   3.561   1.579
 6345SOL    HW119934   5.363   3.545   1.481
 6345SOL    HW219935   5.296   3.644   1.593
 6346SOL     OW19936   0.392   4.487   5.684
 6346SOL    HW119937   0.441   4.411   5.727
 6346SOL    HW219938   0.443   4.571   5.697
 6347SOL     OW19939   2.710   2.409   2.516
 6347SOL    HW119940   2.664   2.367   2.438
 6347SOL    HW219941   2.647   2.473   2.562
 6348SOL     OW19942   0.266   1.617   5.990
 6348SOL    HW119943   0.290   1.520   5.991
 6348SOL    HW219944   0.204   1.636   6.066
 6349SOL     OW19945   1.351   0.308   0.715
 6349SOL    HW119946   1.441   0.346   0.738
 6349SOL    HW219947   1.359   0.210   0.698
 6350SOL     OW19948   1.084   4.970   1.929
 6350SOL    HW119949   1.009   4.918   1.888
 6350SOL    HW219950   1.151   4.993   1.859
 6351SOL     OW19951   6.684   3.813   3.458
 6351SOL    HW119952   6.746   3.794   3.382
 6351SOL    HW219953   6.728   3.877   3.521
 6352SOL     OW19954   2.082   0.887   4.213
 6352SOL    HW119955   2.161   0.836   4.246
 6352SOL    HW219956   2.028   0.829   4.151
 6353SOL     OW19957   2.311   5.944   6.924
 6353SOL    HW119958   2.367   6.003   6.983
 6353SOL    HW219959   2.249   6.000   6.870
 6354SOL     OW19960   5.194   4.639   2.938
 6354SOL    HW119961   5.128   4.578   2.983
 6354SOL    HW219962   5.193   4.728   2.984
 6355SOL     OW19963   2.629   4.679   0.434
 6355SOL    HW119964   2.575   4.642   0.510
 6355SOL    HW219965   2.726   4.680   0.460
 6356SOL     OW19966   4.964   5.274   6.714
 6356SOL    HW119967   4.932   5.369   6.710
 6356SOL    HW219968   5.062   5.273   6.733
 6357SOL     OW19969   5.994   2.230   1.396
 6357SOL    HW119970   6.008   2.141   1.438
 6357SOL    HW219971   6.076   2.256   1.346
 6358SOL     OW19972   1.153   2.042   6.400
 6358SOL    HW119973   1.126   2.003   6.312
 6358SOL    HW219974   1.105   1.994   6.473
 6359SOL     OW19975   5.706   6.575   0.557
 6359SOL    HW119976   5.621   6.623   0.578
 6359SOL    HW219977   5.784   6.629   0.588
 6360SOL     OW19978   6.987   2.488   3.636
 6360SOL    HW119979   0.053   2.451   3.653
 6360SOL    HW219980   6.920   2.441   3.694
 6361SOL     OW19981   0.159   0.757   0.210
 6361SOL    HW119982   0.196   0.850   0.217
 6361SOL    HW219983   0.089   0.744   0.280
 6362SOL     OW19984   0.962   5.500   6.809
 6362SOL    HW119985   1.028   5.556   6.759
 6362SOL    HW219986   1.004   5.412   6.834
 6363SOL     OW19987   2.428   4.928   3.493
 6363SOL    HW119988   2.451   4.846   3.440
 6363SOL    HW219989   2.437   5.009   3.435
 6364SOL     OW19990   2.719   2.371   4.773
 6364SOL    HW119991   2.806   2.339   4.737
 6364SOL    HW219992   2.721   2.366   4.873
 6365SOL     OW19993   6.211   5.951   4.385
 6365SOL    HW119994   6.113   5.935   4.375
 6365SOL    HW219995   6.228   6.045   4.415
 6366SOL     OW19996   6.177   6.481   5.095
 6366SOL    HW119997   6.270   6.455   5.120
 6366SOL    HW219998   6.122   6.399   5.079
 6367SOL     OW19999   3.384   2.106   3.022
 6367SOL    HW120000   3.419   2.073   3.110
 6367SOL    HW220001   3.459   2.112   2.956
 6368SOL     OW20002   4.751   4.179   3.753
 6368SOL    HW120003   4.793   4.124   3.826
 6368SOL    HW220004   4.776   4.140   3.664
 6369SOL     OW20005   3.347   6.092   6.096
 6369SOL    HW120006   3.253   6.123   6.087
 6369SOL    HW220007   3.348   5.995   6.123
 6370SOL     OW20008   4.895   3.634   3.463
 6370SOL    HW120009   4.810   3.657   3.511
 6370SOL    HW220010   4.876   3.625   3.365
 6371SOL     OW20011   5.008   4.313   1.705
 6371SOL    HW120012   5.034   4.220   1.730
 6371SOL    HW220013   4.938   4.347   1.768
 6372SOL     OW20014   0.273   1.107   2.766
 6372SOL    HW120015   0.285   1.117   2.668
 6372SOL    HW220016   0.352   1.058   2.804
 6373SOL     OW20017   5.519   4.337   1.259
 6373SOL    HW120018   5.615   4.349   1.235
 6373SOL    HW220019   5.505   4.245   1.295
 6374SOL     OW20020   4.861   2.650   0.445
 6374SOL    HW120021   4.950   2.695   0.455
 6374SOL    HW220022   4.803   2.675   0.523
 6375SOL     OW20023   6.890   2.900   2.304
 6375SOL    HW120024   6.798   2.934   2.325
 6375SOL    HW220025   6.925   2.947   2.223
 6376SOL     OW20026   4.409   1.021   5.479
 6376SOL    HW120027   4.466   1.054   5.404
 6376SOL    HW220028   4.315   1.009   5.446
 6377SOL     OW20029   0.243   0.289   0.218
 6377SOL    HW120030   0.339   0.265   0.227
 6377SOL    HW220031   0.235   0.378   0.172
 6378SOL     OW20032   5.641   5.857   2.489
 6378SOL    HW120033   5.559   5.850   2.547
 6378SOL    HW220034   5.613   5.880   2.395
 6379SOL     OW20035   2.392   6.011   6.291
 6379SOL    HW120036   2.351   5.970   6.209
 6379SOL    HW220037   2.402   5.940   6.361
 6380SOL     OW20038   1.038   3.141   5.111
 6380SOL    HW120039   1.039   3.195   5.195
 6380SOL    HW220040   0.952   3.092   5.103
 6381SOL     OW20041   4.526   3.181   0.327
 6381SOL    HW120042   4.523   3.189   0.427
 6381SOL    HW220043   4.441   3.139   0.295
 6382SOL     OW20044   2.671   1.730   1.106
 6382SOL    HW120045   2.746   1.666   1.116
 6382SOL    HW220046   2.656   1.778   1.193
 6383SOL     OW20047   1.934   2.794   2.674
 6383SOL    HW120048   1.908   2.882   2.714
 6383SOL    HW220049   2.017   2.759   2.718
 6384SOL     OW20050   6.168   2.702   2.122
 6384SOL    HW120051   6.205   2.614   2.152
 6384SOL    HW220052   6.201   2.722   2.030
 6385SOL     OW20053   0.572   3.484   1.051
 6385SOL    HW120054   0.641   3.514   1.116
 6385SOL    HW220055   0.562   3.553   0.979
 6386SOL     OW20056   1.833   3.455   0.713
 6386SOL    HW120057   1.862   3.489   0.803
 6386SOL    HW220058   1.911   3.454   0.651
 6387SOL     OW20059   6.310   1.151   0.192
 6387SOL    HW120060   6.218   1.112   0.198
 6387SOL    HW220061   6.374   1.081   0.159
 6388SOL     OW20062   6.396   5.265   2.742
 6388SOL    HW120063   6.297   5.276   2.743
 6388SOL    HW220064   6.429   5.266   2.647
 6389SOL     OW20065   1.575   6.860   0.377
 6389SOL    HW120066   1.626   6.782   0.415
 6389SOL    HW220067   1.488   6.828   0.341
 6390SOL     OW20068   5.762   0.765   0.413
 6390SOL    HW120069   5.859   0.752   0.391
 6390SOL    HW220070   5.728   0.846   0.365
 6391SOL     OW20071   0.690   0.757   5.260
 6391SOL    HW120072   0.717   0.847   5.226
 6391SOL    HW220073   0.745   0.686   5.215
 6392SOL     OW20074   3.454   5.769   3.380
 6392SOL    HW120075   3.439   5.778   3.281
 6392SOL    HW220076   3.552   5.774   3.399
 6393SOL     OW20077   5.634   6.810   1.284
 6393SOL    HW120078   5.645   6.905   1.314
 6393SOL    HW220079   5.548   6.800   1.234
 6394SOL     OW20080   0.884   4.750   0.961
 6394SOL    HW120081   0.894   4.784   1.055
 6394SOL    HW220082   0.924   4.816   0.898
 6395SOL     OW20083   0.770   4.212   2.950
 6395SOL    HW120084   0.779   4.255   2.860
 6395SOL    HW220085   0.673   4.204   2.974
 6396SOL     OW20086   6.590   3.529   0.318
 6396SOL    HW120087   6.614   3.446   0.267
 6396SOL    HW220088   6.554   3.597   0.255
 6397SOL     OW20089   5.578   2.268   3.178
 6397SOL    HW120090   5.542   2.220   3.097
 6397SOL    HW220091   5.538   2.359   3.183
 6398SOL     OW20092   0.801   6.152   1.607
 6398SOL    HW120093   0.868   6.214   1.649
 6398SOL    HW220094   0.753   6.199   1.533
 6399SOL     OW20095   2.223   6.898   6.130
 6399SOL    HW120096   2.224   6.961   6.052
 6399SOL    HW220097   2.187   6.945   6.210
 6400SOL     OW20098   1.596   5.758   2.937
 6400SOL    HW120099   1.536   5.743   2.859
 6400SOL    HW220100   1.661   5.831   2.916
 6401SOL     OW20101   3.975   4.832   3.166
 6401SOL    HW120102   4.015   4.909   3.116
 6401SOL    HW220103   4.032   4.751   3.152
 6402SOL     OW20104   1.974   4.730   3.907
 6402SOL    HW120105   1.888   4.684   3.932
 6402SOL    HW220106   2.039   4.719   3.982
 6403SOL     OW20107   5.562   6.303   5.032
 6403SOL    HW120108   5.500   6.297   5.110
 6403SOL    HW220109   5.513   6.279   4.948
 6404SOL     OW20110   3.459   1.137   2.534
 6404SOL    HW120111   3.496   1.049   2.563
 6404SOL    HW220112   3.489   1.158   2.441
 6405SOL     OW20113   5.272   1.073   2.680
 6405SOL    HW120114   5.371   1.067   2.663
 6405SOL    HW220115   5.256   1.126   2.764
 6406SOL     OW20116   0.974   2.649   2.768
 6406SOL    HW120117   0.881   2.620   2.793
 6406SOL    HW220118   1.008   2.590   2.694
 6407SOL     OW20119   2.284   6.527   3.711
 6407SOL    HW120120   2.357   6.479   3.662
 6407SOL    HW220121   2.278   6.621   3.677
 6408SOL     OW20122   6.790   0.621   0.754
 6408SOL    HW120123   6.769   0.558   0.679
 6408SOL    HW220124   6.839   0.700   0.718
 6409SOL     OW20125   6.507   4.779   3.755
 6409SOL    HW120126   6.544   4.696   3.797
 6409SOL    HW220127   6.559   4.800   3.673
 6410SOL     OW20128   2.852   1.193   5.443
 6410SOL    HW120129   2.944   1.231   5.430
 6410SOL    HW220130   2.804   1.195   5.355
 6411SOL     OW20131   0.378   2.913   2.537
 6411SOL    HW120132   0.465   2.960   2.552
 6411SOL    HW220133   0.347   2.931   2.443
 6412SOL     OW20134   3.422   0.781   6.520
 6412SOL    HW120135   3.516   0.749   6.529
 6412SOL    HW220136   3.359   0.709   6.548
 6413SOL     OW20137   4.280   4.676   4.425
 6413SOL    HW120138   4.181   4.682   4.410
 6413SOL    HW220139   4.328   4.707   4.343
 6414SOL     OW20140   0.935   0.002   6.886
 6414SOL    HW120141   0.943   0.067   6.961
 6414SOL    HW220142   0.971   0.042   6.802
 6415SOL     OW20143   1.630   3.338   3.394
 6415SOL    HW120144   1.540   3.382   3.402
 6415SOL    HW220145   1.618   3.245   3.359
 6416SOL     OW20146   2.974   0.188   6.467
 6416SOL    HW120147   3.055   0.133   6.487
 6416SOL    HW220148   2.973   0.210   6.369
 6417SOL     OW20149   4.834   1.559   1.182
 6417SOL    HW120150   4.771   1.488   1.150
 6417SOL    HW220151   4.782   1.642   1.201
 6418SOL     OW20152   4.042   4.727   1.414
 6418SOL    HW120153   4.010   4.634   1.402
 6418SOL    HW220154   3.994   4.770   1.490
 6419SOL     OW20155   0.755   6.681   6.768
 6419SOL    HW120156   0.665   6.642   6.786
 6419SOL    HW220157   0.748   6.781   6.762
 6420SOL     OW20158   1.514   3.707   3.916
 6420SOL    HW120159   1.475   3.668   3.999
 6420SOL    HW220160   1.553   3.635   3.860
 6421SOL     OW20161   5.492   0.090   1.427
 6421SOL    HW120162   5.396   0.095   1.401
 6421SOL    HW220163   5.544   0.160   1.377
 6422SOL     OW20164   6.997   2.731   4.874
 6422SOL    HW120165   0.067   2.700   4.886
 6422SOL    HW220166   6.986   2.770   4.783
 6423SOL     OW20167   2.368   5.150   4.393
 6423SOL    HW120168   2.298   5.083   4.367
 6423SOL    HW220169   2.458   5.117   4.367
 6424SOL     OW20170   0.323   3.057   4.638
 6424SOL    HW120171   0.285   3.130   4.581
 6424SOL    HW220172   0.368   3.098   4.718
 6425SOL     OW20173   0.046   5.748   2.929
 6425SOL    HW120174   0.135   5.776   2.965
 6425SOL    HW220175   0.058   5.667   2.871
 6426SOL     OW20176   4.567   4.498   4.839
 6426SOL    HW120177   4.547   4.538   4.750
 6426SOL    HW220178   4.489   4.512   4.901
 6427SOL     OW20179   3.372   3.329   3.273
 6427SOL    HW120180   3.352   3.332   3.175
 6427SOL    HW220181   3.296   3.370   3.323
 6428SOL     OW20182   4.838   2.344   0.143
 6428SOL    HW120183   4.761   2.408   0.137
 6428SOL    HW220184   4.803   2.250   0.141
 6429SOL     OW20185   2.099   0.689   5.015
 6429SOL    HW120186   2.036   0.632   4.962
 6429SOL    HW220187   2.111   0.651   5.106
 6430SOL     OW20188   0.140   0.587   5.296
 6430SOL    HW120189   0.132   0.629   5.206
 6430SOL    HW220190   0.068   0.624   5.356
 6431SOL     OW20191   4.835   5.468   2.797
 6431SOL    HW120192   4.790   5.452   2.709
 6431SOL    HW220193   4.766   5.477   2.869
 6432SOL     OW20194   3.163   4.301   6.609
 6432SOL    HW120195   3.137   4.309   6.513
 6432SOL    HW220196   3.105   4.360   6.665
 6433SOL     OW20197   2.687   5.669   6.704
 6433SOL    HW120198   2.711   5.576   6.733
 6433SOL    HW220199   2.756   5.703   6.640
 6434SOL     OW20200   3.184   5.987   6.467
 6434SOL    HW120201   3.133   6.039   6.399
 6434SOL    HW220202   3.210   5.898   6.428
 6435SOL     OW20203   5.838   0.169   0.235
 6435SOL    HW120204   5.825   0.258   0.278
 6435SOL    HW220205   5.785   0.100   0.284
 6436SOL     OW20206   0.608   4.111   3.603
 6436SOL    HW120207   0.583   4.015   3.613
 6436SOL    HW220208   0.581   4.162   3.686
 6437SOL     OW20209   0.828   1.237   5.399
 6437SOL    HW120210   0.907   1.295   5.383
 6437SOL    HW220211   0.855   1.156   5.451
 6438SOL     OW20212   0.456   5.642   6.997
 6438SOL    HW120213   0.434   5.705   0.047
 6438SOL    HW220214   0.543   5.598   7.016
 6439SOL     OW20215   6.066   1.119   3.560
 6439SOL    HW120216   5.977   1.151   3.528
 6439SOL    HW220217   6.059   1.086   3.654
 6440SOL     OW20218   2.535   0.672   5.903
 6440SOL    HW120219   2.548   0.769   5.924
 6440SOL    HW220220   2.509   0.623   5.987
 6441SOL     OW20221   0.452   0.339   3.402
 6441SOL    HW120222   0.379   0.401   3.372
 6441SOL    HW220223   0.414   0.272   3.466
 6442SOL     OW20224   2.279   1.991   5.208
 6442SOL    HW120225   2.330   1.907   5.225
 6442SOL    HW220226   2.335   2.052   5.150
 6443SOL     OW20227   4.286   2.077   0.410
 6443SOL    HW120228   4.286   1.998   0.471
 6443SOL    HW220229   4.376   2.121   0.412
 6444SOL     OW20230   0.025   2.524   5.468
 6444SOL    HW120231   0.028   2.534   5.567
 6444SOL    HW220232   0.085   2.448   5.441
 6445SOL     OW20233   3.220   3.665   3.394
 6445SOL    HW120234   3.182   3.573   3.394
 6445SOL    HW220235   3.208   3.706   3.303
 6446SOL     OW20236   1.628   1.709   6.448
 6446SOL    HW120237   1.629   1.792   6.392
 6446SOL    HW220238   1.722   1.687   6.476
 6447SOL     OW20239   6.505   4.324   1.124
 6447SOL    HW120240   6.408   4.337   1.103
 6447SOL    HW220241   6.540   4.246   1.071
 6448SOL     OW20242   4.636   5.847   2.256
 6448SOL    HW120243   4.623   5.826   2.354
 6448SOL    HW220244   4.725   5.812   2.226
 6449SOL     OW20245   2.757   5.629   1.682
 6449SOL    HW120246   2.792   5.655   1.592
 6449SOL    HW220247   2.702   5.704   1.719
 6450SOL     OW20248   0.735   3.935   1.521
 6450SOL    HW120249   0.698   3.963   1.432
 6450SOL    HW220250   0.719   4.007   1.588
 6451SOL     OW20251   3.567   2.170   0.098
 6451SOL    HW120252   3.628   2.105   0.144
 6451SOL    HW220253   3.605   2.262   0.105
 6452SOL     OW20254   5.596   3.658   3.427
 6452SOL    HW120255   5.693   3.662   3.403
 6452SOL    HW220256   5.558   3.570   3.399
 6453SOL     OW20257   3.603   0.285   1.581
 6453SOL    HW120258   3.506   0.310   1.578
 6453SOL    HW220259   3.658   0.362   1.548
 6454SOL     OW20260   6.658   2.469   2.592
 6454SOL    HW120261   6.605   2.477   2.507
 6454SOL    HW220262   6.738   2.412   2.576
 6455SOL     OW20263   6.669   4.482   3.194
 6455SOL    HW120264   6.593   4.428   3.157
 6455SOL    HW220265   6.737   4.421   3.235
 6456SOL     OW20266   0.612   1.286   2.747
 6456SOL    HW120267   0.514   1.306   2.738
 6456SOL    HW220268   0.636   1.211   2.685
 6457SOL     OW20269   5.146   6.746   1.312
 6457SOL    HW120270   5.161   6.785   1.403
 6457SOL    HW220271   5.069   6.681   1.316
 6458SOL     OW20272   0.786   5.192   4.096
 6458SOL    HW120273   0.760   5.218   4.189
 6458SOL    HW220274   0.841   5.264   4.055
 6459SOL     OW20275   5.847   2.650   3.000
 6459SOL    HW120276   5.779   2.683   2.934
 6459SOL    HW220277   5.879   2.726   3.057
 6460SOL     OW20278   6.862   6.038   5.453
 6460SOL    HW120279   6.885   5.950   5.413
 6460SOL    HW220280   6.856   6.030   5.553
 6461SOL     OW20281   3.160   4.451   0.851
 6461SOL    HW120282   3.109   4.448   0.936
 6461SOL    HW220283   3.244   4.397   0.860
 6462SOL     OW20284   1.769   3.720   5.010
 6462SOL    HW120285   1.770   3.735   5.108
 6462SOL    HW220286   1.752   3.623   4.990
 6463SOL     OW20287   5.095   0.755   1.155
 6463SOL    HW120288   5.000   0.728   1.140
 6463SOL    HW220289   5.143   0.759   1.068
 6464SOL     OW20290   0.937   6.180   4.393
 6464SOL    HW120291   0.883   6.245   4.447
 6464SOL    HW220292   1.021   6.157   4.442
 6465SOL     OW20293   5.264   2.815   2.145
 6465SOL    HW120294   5.319   2.898   2.146
 6465SOL    HW220295   5.324   2.735   2.155
 6466SOL     OW20296   6.851   3.761   6.683
 6466SOL    HW120297   6.909   3.683   6.662
 6466SOL    HW220298   6.777   3.733   6.744
 6467SOL     OW20299   3.430   0.886   0.586
 6467SOL    HW120300   3.416   0.985   0.581
 6467SOL    HW220301   3.416   0.846   0.495
 6468SOL     OW20302   3.441   6.996   0.140
 6468SOL    HW120303   3.482   0.062   0.147
 6468SOL    HW220304   3.509   6.926   0.162
 6469SOL     OW20305   3.101   1.824   3.707
 6469SOL    HW120306   3.085   1.906   3.652
 6469SOL    HW220307   3.014   1.784   3.734
 6470SOL     OW20308   6.842   2.620   0.127
 6470SOL    HW120309   6.940   2.606   0.115
 6470SOL    HW220310   6.809   2.687   0.059
 6471SOL     OW20311   0.200   6.448   4.955
 6471SOL    HW120312   0.203   6.359   4.909
 6471SOL    HW220313   0.253   6.443   5.040
 6472SOL     OW20314   0.108   6.571   2.120
 6472SOL    HW120315   0.095   6.482   2.164
 6472SOL    HW220316   0.173   6.625   2.174
 6473SOL     OW20317   2.200   1.477   4.144
 6473SOL    HW120318   2.118   1.474   4.086
 6473SOL    HW220319   2.277   1.438   4.094
 6474SOL     OW20320   4.042   5.154   5.167
 6474SOL    HW120321   3.975   5.125   5.235
 6474SOL    HW220322   4.084   5.074   5.125
 6475SOL     OW20323   5.549   5.633   3.644
 6475SOL    HW120324   5.621   5.577   3.603
 6475SOL    HW220325   5.498   5.681   3.573
 6476SOL     OW20326   3.755   2.051   6.553
 6476SOL    HW120327   3.691   2.055   6.476
 6476SOL    HW220328   3.798   2.141   6.564
 6477SOL     OW20329   0.243   6.042   1.019
 6477SOL    HW120330   0.272   5.973   1.086
 6477SOL    HW220331   0.147   6.028   0.996
 6478SOL     OW20332   2.550   6.061   1.509
 6478SOL    HW120333   2.545   6.105   1.599
 6478SOL    HW220334   2.458   6.052   1.471
 6479SOL     OW20335   3.115   5.853   4.242
 6479SOL    HW120336   3.059   5.931   4.269
 6479SOL    HW220337   3.087   5.772   4.293
 6480SOL     OW20338   2.573   1.026   6.788
 6480SOL    HW120339   2.522   0.976   6.717
 6480SOL    HW220340   2.599   1.116   6.753
 6481SOL     OW20341   2.966   2.362   1.623
 6481SOL    HW120342   2.977   2.413   1.708
 6481SOL    HW220343   2.964   2.426   1.546
 6482SOL     OW20344   6.797   2.932   5.637
 6482SOL    HW120345   6.859   2.872   5.688
 6482SOL    HW220346   6.821   3.027   5.655
 6483SOL     OW20347   1.450   5.327   4.621
 6483SOL    HW120348   1.403   5.327   4.533
 6483SOL    HW220349   1.525   5.393   4.619
 6484SOL     OW20350   2.857   1.184   3.549
 6484SOL    HW120351   2.948   1.225   3.542
 6484SOL    HW220352   2.863   1.086   3.529
 6485SOL     OW20353   2.327   6.520   4.570
 6485SOL    HW120354   2.389   6.462   4.622
 6485SOL    HW220355   2.364   6.613   4.565
 6486SOL     OW20356   1.366   4.903   3.146
 6486SOL    HW120357   1.454   4.949   3.136
 6486SOL    HW220358   1.295   4.971   3.161
 6487SOL     OW20359   1.261   5.105   4.641
 6487SOL    HW120360   1.330   5.176   4.646
 6487SOL    HW220361   1.301   5.022   4.602
 6488SOL     OW20362   5.122   5.262   4.449
 6488SOL    HW120363   5.053   5.210   4.500
 6488SOL    HW220364   5.176   5.199   4.393
 6489SOL     OW20365   3.987   3.028   6.678
 6489SOL    HW120366   3.945   3.101   6.624
 6489SOL    HW220367   3.941   2.942   6.660
 6490SOL     OW20368   1.516   1.444   6.510
 6490SOL    HW120369   1.425   1.458   6.548
 6490SOL    HW220370   1.567   1.529   6.512
 6491SOL     OW20371   1.790   0.537   1.139
 6491SOL    HW120372   1.848   0.578   1.209
 6491SOL    HW220373   1.830   0.451   1.109
 6492SOL     OW20374   3.099   4.065   4.440
 6492SOL    HW120375   3.193   4.096   4.443
 6492SOL    HW220376   3.049   4.100   4.519
 6493SOL     OW20377   1.821   4.462   5.942
 6493SOL    HW120378   1.843   4.369   5.913
 6493SOL    HW220379   1.839   4.525   5.867
 6494SOL     OW20380   6.095   6.578   1.853
 6494SOL    HW120381   6.117   6.483   1.832
 6494SOL    HW220382   6.006   6.583   1.897
 6495SOL     OW20383   6.735   6.998   4.094
 6495SOL    HW120384   6.651   0.006   4.052
 6495SOL    HW220385   6.778   0.047   4.145
 6496SOL     OW20386   4.795   6.568   2.359
 6496SOL    HW120387   4.791   6.617   2.446
 6496SOL    HW220388   4.745   6.482   2.367
 6497SOL     OW20389   0.578   1.555   1.076
 6497SOL    HW120390   0.565   1.459   1.053
 6497SOL    HW220391   0.498   1.607   1.045
 6498SOL     OW20392   0.535   4.553   4.520
 6498SOL    HW120393   0.517   4.528   4.425
 6498SOL    HW220394   0.613   4.499   4.554
 6499SOL     OW20395   5.619   3.973   3.977
 6499SOL    HW120396   5.540   3.932   3.931
 6499SOL    HW220397   5.595   3.997   4.071
 6500SOL     OW20398   1.025   3.884   2.358
 6500SOL    HW120399   1.097   3.946   2.390
 6500SOL    HW220400   1.055   3.789   2.370
 6501SOL     OW20401   6.759   2.021   0.835
 6501SOL    HW120402   6.769   2.042   0.932
 6501SOL    HW220403   6.826   2.075   0.783
 6502SOL     OW20404   6.188   4.180   1.369
 6502SOL    HW120405   6.143   4.176   1.458
 6502SOL    HW220406   6.212   4.087   1.340
 6503SOL     OW20407   6.344   2.866   5.909
 6503SOL    HW120408   6.417   2.817   5.956
 6503SOL    HW220409   6.372   2.885   5.815
 6504SOL     OW20410   4.854   6.619   6.809
 6504SOL    HW120411   4.805   6.563   6.876
 6504SOL    HW220412   4.825   6.714   6.817
 6505SOL     OW20413   5.543   6.403   0.296
 6505SOL    HW120414   5.621   6.369   0.348
 6505SOL    HW220415   5.571   6.478   0.237
 6506SOL     OW20416   0.095   3.128   3.607
 6506SOL    HW120417   0.029   3.198   3.635
 6506SOL    HW220418   0.072   3.095   3.516
 6507SOL     OW20419   3.393   5.704   6.725
 6507SOL    HW120420   3.323   5.716   6.654
 6507SOL    HW220421   3.371   5.763   6.803
 6508SOL     OW20422   1.400   6.824   1.665
 6508SOL    HW120423   1.440   6.916   1.654
 6508SOL    HW220424   1.472   6.755   1.655
 6509SOL     OW20425   3.587   1.440   5.711
 6509SOL    HW120426   3.631   1.433   5.800
 6509SOL    HW220427   3.490   1.461   5.722
 6510SOL     OW20428   4.361   6.037   5.699
 6510SOL    HW120429   4.382   6.001   5.790
 6510SOL    HW220430   4.426   6.001   5.633
 6511SOL     OW20431   4.396   1.200   6.253
 6511SOL    HW120432   4.306   1.171   6.287
 6511SOL    HW220433   4.399   1.299   6.246
 6512SOL     OW20434   2.919   0.587   2.016
 6512SOL    HW120435   2.968   0.500   2.020
 6512SOL    HW220436   2.963   0.647   1.949
 6513SOL     OW20437   2.708   5.471   5.014
 6513SOL    HW120438   2.656   5.486   4.929
 6513SOL    HW220439   2.685   5.381   5.052
 6514SOL     OW20440   6.005   0.296   5.049
 6514SOL    HW120441   5.954   0.352   4.984
 6514SOL    HW220442   6.091   0.341   5.072
 6515SOL     OW20443   2.372   5.027   2.158
 6515SOL    HW120444   2.398   5.043   2.063
 6515SOL    HW220445   2.284   5.071   2.176
 6516SOL     OW20446   0.119   3.212   1.770
 6516SOL    HW120447   0.038   3.161   1.741
 6516SOL    HW220448   0.092   3.279   1.840
 6517SOL     OW20449   6.750   2.256   6.897
 6517SOL    HW120450   6.665   2.275   6.947
 6517SOL    HW220451   6.817   2.327   6.917
 6518SOL     OW20452   0.326   0.547   2.135
 6518SOL    HW120453   0.403   0.488   2.161
 6518SOL    HW220454   0.253   0.490   2.098
 6519SOL     OW20455   0.727   1.157   3.323
 6519SOL    HW120456   0.730   1.074   3.380
 6519SOL    HW220457   0.686   1.231   3.375
 6520SOL     OW20458   6.917   5.774   6.991
 6520SOL    HW120459   6.925   5.714   6.912
 6520SOL    HW220460   6.908   5.869   6.961
 6521SOL     OW20461   1.629   3.392   3.759
 6521SOL    HW120462   1.721   3.428   3.769
 6521SOL    HW220463   1.584   3.388   3.849
 6522SOL     OW20464   2.959   4.199   5.721
 6522SOL    HW120465   2.987   4.249   5.803
 6522SOL    HW220466   2.870   4.157   5.736
 6523SOL     OW20467   5.962   0.605   0.565
 6523SOL    HW120468   6.019   0.666   0.509
 6523SOL    HW220469   5.875   0.589   0.517
 6524SOL     OW20470   3.000   2.127   1.755
 6524SOL    HW120471   3.017   2.128   1.854
 6524SOL    HW220472   2.967   2.217   1.726
 6525SOL     OW20473   1.758   5.097   4.057
 6525SOL    HW120474   1.721   5.029   3.994
 6525SOL    HW220475   1.683   5.154   4.092
 6526SOL     OW20476   0.080   0.132   0.925
 6526SOL    HW120477   0.004   0.140   0.989
 6526SOL    HW220478   0.090   0.036   0.897
 6527SOL     OW20479   0.270   2.733   0.421
 6527SOL    HW120480   0.283   2.660   0.488
 6527SOL    HW220481   0.175   2.764   0.424
 6528SOL     OW20482   6.194   1.093   5.749
 6528SOL    HW120483   6.266   1.140   5.799
 6528SOL    HW220484   6.234   1.023   5.690
 6529SOL     OW20485   0.473   1.451   2.345
 6529SOL    HW120486   0.539   1.487   2.411
 6529SOL    HW220487   0.447   1.358   2.371
 6530SOL     OW20488   1.009   2.666   2.321
 6530SOL    HW120489   1.072   2.704   2.253
 6530SOL    HW220490   0.980   2.739   2.384
 6531SOL     OW20491   4.031   3.171   5.905
 6531SOL    HW120492   4.008   3.268   5.906
 6531SOL    HW220493   4.078   3.148   5.819
 6532SOL     OW20494   1.607   0.776   1.149
 6532SOL    HW120495   1.694   0.729   1.156
 6532SOL    HW220496   1.615   0.868   1.187
 6533SOL     OW20497   4.491   4.870   0.066
 6533SOL    HW120498   4.515   4.955   0.021
 6533SOL    HW220499   4.440   4.812   0.003
 6534SOL     OW20500   5.812   4.761   1.819
 6534SOL    HW120501   5.809   4.846   1.871
 6534SOL    HW220502   5.814   4.781   1.721
 6535SOL     OW20503   5.514   4.190   4.775
 6535SOL    HW120504   5.612   4.200   4.762
 6535SOL    HW220505   5.496   4.124   4.848
 6536SOL     OW20506   0.380   2.347   5.658
 6536SOL    HW120507   0.403   2.427   5.602
 6536SOL    HW220508   0.368   2.267   5.599
 6537SOL     OW20509   5.924   4.460   5.147
 6537SOL    HW120510   5.955   4.387   5.086
 6537SOL    HW220511   5.896   4.539   5.092
 6538SOL     OW20512   2.339   3.723   5.301
 6538SOL    HW120513   2.242   3.721   5.276
 6538SOL    HW220514   2.379   3.811   5.274
 6539SOL     OW20515   5.781   0.900   6.817
 6539SOL    HW120516   5.712   0.873   6.750
 6539SOL    HW220517   5.744   0.975   6.874
 6540SOL     OW20518   3.208   2.565   5.519
 6540SOL    HW120519   3.227   2.662   5.533
 6540SOL    HW220520   3.132   2.554   5.455
 6541SOL     OW20521   5.804   2.453   5.508
 6541SOL    HW120522   5.825   2.542   5.548
 6541SOL    HW220523   5.802   2.460   5.409
 6542SOL     OW20524   1.523   3.698   4.843
 6542SOL    HW120525   1.611   3.720   4.886
 6542SOL    HW220526   1.521   3.734   4.750
 6543SOL     OW20527   3.520   2.050   5.080
 6543SOL    HW120528   3.579   2.029   5.157
 6543SOL    HW220529   3.425   2.055   5.111
 6544SOL     OW20530   0.424   0.047   2.026
 6544SOL    HW120531   0.465   6.985   1.998
 6544SOL    HW220532   0.472   0.123   1.982
 6545SOL     OW20533   4.578   6.685   1.268
 6545SOL    HW120534   4.652   6.665   1.333
 6545SOL    HW220535   4.500   6.723   1.317
 6546SOL     OW20536   4.808   4.457   6.662
 6546SOL    HW120537   4.844   4.544   6.628
 6546SOL    HW220538   4.755   4.413   6.589
 6547SOL     OW20539   5.267   6.727   6.483
 6547SOL    HW120540   5.216   6.788   6.544
 6547SOL    HW220541   5.351   6.696   6.528
 6548SOL     OW20542   0.882   2.316   6.391
 6548SOL    HW120543   0.805   2.379   6.399
 6548SOL    HW220544   0.950   2.338   6.461
 6549SOL     OW20545   4.816   0.146   1.759
 6549SOL    HW120546   4.914   0.129   1.761
 6549SOL    HW220547   4.774   0.103   1.840
 6550SOL     OW20548   6.398   0.293   3.170
 6550SOL    HW120549   6.426   0.234   3.246
 6550SOL    HW220550   6.454   0.376   3.171
 6551SOL     OW20551   2.810   3.372   1.756
 6551SOL    HW120552   2.828   3.371   1.658
 6551SOL    HW220553   2.887   3.330   1.804
 6552SOL     OW20554   1.669   6.653   0.492
 6552SOL    HW120555   1.626   6.576   0.446
 6552SOL    HW220556   1.766   6.656   0.470
 6553SOL     OW20557   0.580   1.423   3.057
 6553SOL    HW120558   0.504   1.392   3.114
 6553SOL    HW220559   0.561   1.401   2.961
 6554SOL     OW20560   2.857   1.085   4.781
 6554SOL    HW120561   2.839   1.045   4.690
 6554SOL    HW220562   2.939   1.044   4.819
 6555SOL     OW20563   6.825   1.837   4.309
 6555SOL    HW120564   6.905   1.872   4.357
 6555SOL    HW220565   6.767   1.914   4.281
 6556SOL     OW20566   5.931   3.517   2.748
 6556SOL    HW120567   6.026   3.535   2.722
 6556SOL    HW220568   5.899   3.432   2.705
 6557SOL     OW20569   1.561   6.992   2.611
 6557SOL    HW120570   1.626   0.043   2.606
 6557SOL    HW220571   1.495   6.999   2.536
 6558SOL     OW20572   5.869   5.160   6.987
 6558SOL    HW120573   5.905   5.188   6.898
 6558SOL    HW220574   5.793   5.097   6.975
 6559SOL     OW20575   0.099   3.758   7.002
 6559SOL    HW120576   0.092   3.714   6.913
 6559SOL    HW220577   0.121   3.690   0.047
 6560SOL     OW20578   3.736   4.612   0.459
 6560SOL    HW120579   3.820   4.575   0.418
 6560SOL    HW220580   3.680   4.653   0.387
 6561SOL     OW20581   4.068   4.685   0.549
 6561SOL    HW120582   4.115   4.771   0.568
 6561SOL    HW220583   4.043   4.681   0.452
 6562SOL     OW20584   5.715   2.771   0.666
 6562SOL    HW120585   5.632   2.826   0.681
 6562SOL    HW220586   5.693   2.694   0.607
 6563SOL     OW20587   5.340   0.543   6.210
 6563SOL    HW120588   5.296   0.459   6.177
 6563SOL    HW220589   5.371   0.597   6.133
 6564SOL     OW20590   6.452   4.252   2.323
 6564SOL    HW120591   6.389   4.175   2.311
 6564SOL    HW220592   6.463   4.301   2.237
 6565SOL     OW20593   5.854   6.655   2.775
 6565SOL    HW120594   5.921   6.610   2.716
 6565SOL    HW220595   5.778   6.592   2.793
 6566SOL     OW20596   3.498   5.334   2.161
 6566SOL    HW120597   3.558   5.283   2.099
 6566SOL    HW220598   3.467   5.274   2.235
 6567SOL     OW20599   4.215   0.806   1.732
 6567SOL    HW120600   4.305   0.841   1.706
 6567SOL    HW220601   4.204   0.813   1.831
 6568SOL     OW20602   4.080   1.336   2.025
 6568SOL    HW120603   4.148   1.263   2.029
 6568SOL    HW220604   3.989   1.296   2.017
 6569SOL     OW20605   0.400   2.978   6.375
 6569SOL    HW120606   0.380   3.076   6.384
 6569SOL    HW220607   0.499   2.965   6.369
 6570SOL     OW20608   4.042   0.788   2.488
 6570SOL    HW120609   4.048   0.688   2.496
 6570SOL    HW220610   4.134   0.826   2.480
 6571SOL     OW20611   2.244   5.225   3.446
 6571SOL    HW120612   2.327   5.242   3.500
 6571SOL    HW220613   2.173   5.289   3.473
 6572SOL     OW20614   0.350   4.218   4.062
 6572SOL    HW120615   0.399   4.216   4.149
 6572SOL    HW220616   0.414   4.204   3.987
 6573SOL     OW20617   1.825   0.739   3.191
 6573SOL    HW120618   1.786   0.742   3.282
 6573SOL    HW220619   1.925   0.731   3.197
 6574SOL     OW20620   2.492   6.430   3.528
 6574SOL    HW120621   2.575   6.486   3.515
 6574SOL    HW220622   2.425   6.454   3.458
 6575SOL     OW20623   0.060   6.972   2.920
 6575SOL    HW120624   0.013   6.995   3.006
 6575SOL    HW220625   0.014   7.016   2.844
 6576SOL     OW20626   3.230   4.659   0.287
 6576SOL    HW120627   3.292   4.664   0.208
 6576SOL    HW220628   3.255   4.580   0.343
 6577SOL     OW20629   1.980   2.756   3.278
 6577SOL    HW120630   1.886   2.771   3.307
 6577SOL    HW220631   2.040   2.761   3.358
 6578SOL     OW20632   1.276   5.809   1.511
 6578SOL    HW120633   1.181   5.788   1.486
 6578SOL    HW220634   1.335   5.731   1.488
 6579SOL     OW20635   0.526   1.906   4.340
 6579SOL    HW120636   0.452   1.954   4.292
 6579SOL    HW220637   0.487   1.848   4.411
 6580SOL     OW20638   1.021   0.188   0.490
 6580SOL    HW120639   1.089   0.254   0.460
 6580SOL    HW220640   0.932   0.211   0.452
 6581SOL     OW20641   1.463   0.869   0.677
 6581SOL    HW120642   1.499   0.947   0.728
 6581SOL    HW220643   1.530   0.796   0.676
 6582SOL     OW20644   0.085   0.335   2.920
 6582SOL    HW120645   0.084   0.417   2.977
 6582SOL    HW220646   0.081   0.254   2.979
 6583SOL     OW20647   4.707   6.606   5.508
 6583SOL    HW120648   4.711   6.532   5.440
 6583SOL    HW220649   4.682   6.691   5.463
 6584SOL     OW20650   3.844   2.402   0.880
 6584SOL    HW120651   3.827   2.325   0.941
 6584SOL    HW220652   3.860   2.368   0.787
 6585SOL     OW20653   6.687   6.939   0.701
 6585SOL    HW120654   6.682   6.926   0.800
 6585SOL    HW220655   6.778   6.970   0.676
 6586SOL     OW20656   6.812   1.949   5.996
 6586SOL    HW120657   6.825   2.040   5.957
 6586SOL    HW220658   6.896   1.896   5.984
 6587SOL     OW20659   1.931   4.201   5.839
 6587SOL    HW120660   1.873   4.196   5.757
 6587SOL    HW220661   1.943   4.109   5.876
 6588SOL     OW20662   0.487   3.258   0.450
 6588SOL    HW120663   0.565   3.195   0.451
 6588SOL    HW220664   0.404   3.209   0.475
 6589SOL     OW20665   5.672   0.926   1.880
 6589SOL    HW120666   5.586   0.879   1.858
 6589SOL    HW220667   5.742   0.902   1.813
 6590SOL     OW20668   0.861   0.422   4.373
 6590SOL    HW120669   0.823   0.349   4.430
 6590SOL    HW220670   0.879   0.387   4.281
 6591SOL     OW20671   4.957   5.529   4.111
 6591SOL    HW120672   5.026   5.566   4.174
 6591SOL    HW220673   4.992   5.447   4.067
 6592SOL     OW20674   5.062   0.267   3.168
 6592SOL    HW120675   5.018   0.188   3.125
 6592SOL    HW220676   4.991   0.329   3.203
 6593SOL     OW20677   2.910   2.253   2.322
 6593SOL    HW120678   2.863   2.321   2.378
 6593SOL    HW220679   2.908   2.280   2.226
 6594SOL     OW20680   3.496   1.922   6.069
 6594SOL    HW120681   3.486   1.937   5.970
 6594SOL    HW220682   3.434   1.983   6.118
 6595SOL     OW20683   1.556   2.345   4.531
 6595SOL    HW120684   1.543   2.246   4.539
 6595SOL    HW220685   1.559   2.371   4.435
 6596SOL     OW20686   4.299   6.064   3.384
 6596SOL    HW120687   4.274   5.979   3.337
 6596SOL    HW220688   4.217   6.105   3.424
 6597SOL     OW20689   1.493   5.075   1.851
 6597SOL    HW120690   1.507   4.989   1.802
 6597SOL    HW220691   1.456   5.056   1.942
 6598SOL     OW20692   1.795   4.281   3.562
 6598SOL    HW120693   1.894   4.279   3.547
 6598SOL    HW220694   1.760   4.187   3.563
 6599SOL     OW20695   5.701   5.591   6.895
 6599SOL    HW120696   5.769   5.549   6.956
 6599SOL    HW220697   5.617   5.610   6.946
 6600SOL     OW20698   4.397   0.004   4.759
 6600SOL    HW120699   4.391   0.072   4.686
 6600SOL    HW220700   4.306   7.013   4.797
 6601SOL     OW20701   0.605   3.002   2.907
 6601SOL    HW120702   0.696   3.043   2.902
 6601SOL    HW220703   0.559   3.033   2.990
 6602SOL     OW20704   2.706   0.186   1.001
 6602SOL    HW120705   2.793   0.194   0.952
 6602SOL    HW220706   2.723   0.173   1.098
 6603SOL     OW20707   0.609   3.167   3.619
 6603SOL    HW120708   0.609   3.134   3.525
 6603SOL    HW220709   0.518   3.200   3.644
 6604SOL     OW20710   2.533   0.241   1.764
 6604SOL    HW120711   2.609   0.217   1.823
 6604SOL    HW220712   2.532   0.340   1.749
 6605SOL     OW20713   6.193   5.493   1.893
 6605SOL    HW120714   6.235   5.433   1.824
 6605SOL    HW220715   6.164   5.439   1.971
 6606SOL     OW20716   0.847   3.948   2.951
 6606SOL    HW120717   0.814   3.895   3.029
 6606SOL    HW220718   0.827   4.044   2.965
 6607SOL     OW20719   6.227   4.856   3.798
 6607SOL    HW120720   6.323   4.838   3.778
 6607SOL    HW220721   6.186   4.775   3.839
 6608SOL     OW20722   6.899   0.435   0.174
 6608SOL    HW120723   6.890   0.336   0.166
 6608SOL    HW220724   6.975   0.466   0.117
 6609SOL     OW20725   4.701   1.182   6.304
 6609SOL    HW120726   4.604   1.165   6.287
 6609SOL    HW220727   4.722   1.278   6.285
 6610SOL     OW20728   1.983   6.118   0.102
 6610SOL    HW120729   2.055   6.152   0.042
 6610SOL    HW220730   2.022   6.099   0.193
 6611SOL     OW20731   5.590   2.340   4.105
 6611SOL    HW120732   5.532   2.282   4.162
 6611SOL    HW220733   5.634   2.283   4.035
 6612SOL     OW20734   6.645   1.808   6.221
 6612SOL    HW120735   6.666   1.876   6.151
 6612SOL    HW220736   6.608   1.854   6.302
 6613SOL     OW20737   5.643   0.332   6.246
 6613SOL    HW120738   5.719   0.377   6.293
 6613SOL    HW220739   5.564   0.327   6.307
 6614SOL     OW20740   4.670   6.336   1.478
 6614SOL    HW120741   4.625   6.412   1.525
 6614SOL    HW220742   4.734   6.373   1.410
 6615SOL     OW20743   2.318   5.536   0.683
 6615SOL    HW120744   2.387   5.603   0.657
 6615SOL    HW220745   2.315   5.528   0.783
 6616SOL     OW20746   3.900   6.725   6.466
 6616SOL    HW120747   3.830   6.792   6.492
 6616SOL    HW220748   3.975   6.772   6.420
 6617SOL     OW20749   4.261   0.063   3.334
 6617SOL    HW120750   4.282   0.016   3.420
 6617SOL    HW220751   4.330   0.133   3.318
 6618SOL     OW20752   0.832   1.356   3.116
 6618SOL    HW120753   0.833   1.309   3.204
 6618SOL    HW220754   0.738   1.385   3.094
 6619SOL     OW20755   4.476   6.526   4.043
 6619SOL    HW120756   4.435   6.553   4.130
 6619SOL    HW220757   4.545   6.592   4.017
 6620SOL     OW20758   1.642   3.807   3.474
 6620SOL    HW120759   1.681   3.714   3.474
 6620SOL    HW220760   1.572   3.813   3.545
 6621SOL     OW20761   3.791   3.286   5.132
 6621SOL    HW120762   3.806   3.385   5.129
 6621SOL    HW220763   3.848   3.242   5.063
 6622SOL     OW20764   6.032   5.490   1.141
 6622SOL    HW120765   6.076   5.526   1.059
 6622SOL    HW220766   6.092   5.423   1.185
 6623SOL     OW20767   3.515   3.979   5.017
 6623SOL    HW120768   3.551   3.945   4.931
 6623SOL    HW220769   3.547   4.073   5.032
 6624SOL     OW20770   0.782   3.210   4.812
 6624SOL    HW120771   0.853   3.208   4.742
 6624SOL    HW220772   0.755   3.305   4.830
 6625SOL     OW20773   6.148   2.706   5.508
 6625SOL    HW120774   6.145   2.610   5.480
 6625SOL    HW220775   6.149   2.765   5.428
 6626SOL     OW20776   3.479   0.002   5.033
 6626SOL    HW120777   3.461   0.086   5.084
 6626SOL    HW220778   3.416   7.020   4.956
 6627SOL     OW20779   1.858   6.036   4.206
 6627SOL    HW120780   1.856   6.064   4.111
 6627SOL    HW220781   1.800   5.955   4.219
 6628SOL     OW20782   5.701   5.577   4.374
 6628SOL    HW120783   5.612   5.595   4.331
 6628SOL    HW220784   5.760   5.657   4.361
 6629SOL     OW20785   4.841   5.506   6.690
 6629SOL    HW120786   4.926   5.555   6.672
 6629SOL    HW220787   4.764   5.557   6.651
 6630SOL     OW20788   3.888   1.934   1.320
 6630SOL    HW120789   3.843   1.856   1.364
 6630SOL    HW220790   3.859   2.019   1.364
 6631SOL     OW20791   1.963   5.605   5.271
 6631SOL    HW120792   1.977   5.643   5.363
 6631SOL    HW220793   1.920   5.515   5.278
 6632SOL     OW20794   0.957   0.801   1.395
 6632SOL    HW120795   1.041   0.776   1.346
 6632SOL    HW220796   0.913   0.878   1.347
 6633SOL     OW20797   3.311   5.059   6.236
 6633SOL    HW120798   3.398   5.023   6.203
 6633SOL    HW220799   3.240   4.988   6.226
 6634SOL     OW20800   4.926   2.116   5.355
 6634SOL    HW120801   4.892   2.022   5.345
 6634SOL    HW220802   4.873   2.163   5.424
 6635SOL     OW20803   4.762   4.207   2.429
 6635SOL    HW120804   4.735   4.148   2.505
 6635SOL    HW220805   4.800   4.151   2.355
 6636SOL     OW20806   3.072   0.831   2.336
 6636SOL    HW120807   3.018   0.836   2.252
 6636SOL    HW220808   3.025   0.881   2.408
 6637SOL     OW20809   2.102   0.279   0.389
 6637SOL    HW120810   2.186   0.226   0.379
 6637SOL    HW220811   2.052   0.248   0.469
 6638SOL     OW20812   3.129   3.409   3.410
 6638SOL    HW120813   3.129   3.314   3.376
 6638SOL    HW220814   3.069   3.415   3.490
 6639SOL     OW20815   3.735   3.282   6.872
 6639SOL    HW120816   3.760   3.353   6.937
 6639SOL    HW220817   3.798   3.205   6.881
 6640SOL     OW20818   0.063   2.211   5.635
 6640SOL    HW120819   0.046   2.186   5.540
 6640SOL    HW220820   0.064   2.311   5.643
 6641SOL     OW20821   3.556   1.928   1.060
 6641SOL    HW120822   3.500   1.917   0.978
 6641SOL    HW220823   3.602   1.841   1.081
 6642SOL     OW20824   1.814   5.389   7.015
 6642SOL    HW120825   1.812   5.393   6.915
 6642SOL    HW220826   1.900   5.346   0.020
 6643SOL     OW20827   6.061   6.562   0.501
 6643SOL    HW120828   6.017   6.641   0.459
 6643SOL    HW220829   6.064   6.573   0.600
 6644SOL     OW20830   1.604   6.233   2.836
 6644SOL    HW120831   1.511   6.254   2.804
 6644SOL    HW220832   1.667   6.303   2.804
 6645SOL     OW20833   5.829   2.752   1.335
 6645SOL    HW120834   5.841   2.729   1.432
 6645SOL    HW220835   5.767   2.685   1.293
 6646SOL     OW20836   4.013   0.909   6.361
 6646SOL    HW120837   4.096   0.862   6.331
 6646SOL    HW220838   3.935   0.877   6.308
 6647SOL     OW20839   4.335   5.741   1.438
 6647SOL    HW120840   4.371   5.663   1.388
 6647SOL    HW220841   4.356   5.825   1.388
 6648SOL     OW20842   3.746   5.688   4.691
 6648SOL    HW120843   3.681   5.663   4.763
 6648SOL    HW220844   3.806   5.760   4.724
 6649SOL     OW20845   5.773   3.014   6.376
 6649SOL    HW120846   5.821   3.073   6.312
 6649SOL    HW220847   5.704   2.961   6.327
 6650SOL     OW20848   3.846   0.911   4.807
 6650SOL    HW120849   3.805   0.849   4.739
 6650SOL    HW220850   3.905   0.977   4.761
 6651SOL     OW20851   1.458   1.906   6.665
 6651SOL    HW120852   1.441   1.910   6.764
 6651SOL    HW220853   1.405   1.832   6.625
 6652SOL     OW20854   0.893   4.453   0.067
 6652SOL    HW120855   0.938   4.533   0.026
 6652SOL    HW220856   0.868   4.474   0.161
 6653SOL     OW20857   5.103   2.703   0.607
 6653SOL    HW120858   5.084   2.770   0.679
 6653SOL    HW220859   5.073   2.613   0.637
 6654SOL     OW20860   0.203   4.906   2.625
 6654SOL    HW120861   0.137   4.888   2.698
 6654SOL    HW220862   0.278   4.841   2.631
 6655SOL     OW20863   0.104   6.248   2.106
 6655SOL    HW120864   0.037   6.175   2.115
 6655SOL    HW220865   0.159   6.233   2.024
 6656SOL     OW20866   4.648   1.880   2.944
 6656SOL    HW120867   4.599   1.928   3.017
 6656SOL    HW220868   4.716   1.941   2.903
 6657SOL     OW20869   5.524   2.142   5.176
 6657SOL    HW120870   5.452   2.200   5.213
 6657SOL    HW220871   5.519   2.051   5.218
 6658SOL     OW20872   6.792   0.469   5.458
 6658SOL    HW120873   6.823   0.564   5.445
 6658SOL    HW220874   6.716   0.451   5.396
 6659SOL     OW20875   1.236   4.562   1.528
 6659SOL    HW120876   1.220   4.630   1.457
 6659SOL    HW220877   1.192   4.476   1.502
 6660SOL     OW20878   1.808   5.034   2.261
 6660SOL    HW120879   1.783   5.066   2.170
 6660SOL    HW220880   1.908   5.026   2.267
 6661SOL     OW20881   2.540   0.275   4.462
 6661SOL    HW120882   2.472   0.280   4.535
 6661SOL    HW220883   2.632   0.267   4.501
 6662SOL     OW20884   2.272   0.421   1.382
 6662SOL    HW120885   2.349   0.460   1.330
 6662SOL    HW220886   2.192   0.416   1.323
 6663SOL     OW20887   1.102   6.106   5.534
 6663SOL    HW120888   1.087   6.016   5.493
 6663SOL    HW220889   1.185   6.104   5.590
 6664SOL     OW20890   2.627   0.682   1.834
 6664SOL    HW120891   2.547   0.655   1.888
 6664SOL    HW220892   2.692   0.730   1.893
 6665SOL     OW20893   2.096   6.361   5.761
 6665SOL    HW120894   2.049   6.286   5.714
 6665SOL    HW220895   2.189   6.332   5.785
 6666SOL     OW20896   0.044   5.734   5.143
 6666SOL    HW120897   0.115   5.664   5.135
 6666SOL    HW220898   6.995   5.714   5.079
 6667SOL     OW20899   6.719   6.511   6.044
 6667SOL    HW120900   6.653   6.461   5.989
 6667SOL    HW220901   6.671   6.572   6.107
 6668SOL     OW20902   6.802   6.218   1.062
 6668SOL    HW120903   6.882   6.273   1.088
 6668SOL    HW220904   6.809   6.193   0.966
 6669SOL     OW20905   3.752   2.191   1.491
 6669SOL    HW120906   3.695   2.156   1.416
 6669SOL    HW220907   3.692   2.223   1.565
 6670SOL     OW20908   3.074   1.413   6.762
 6670SOL    HW120909   3.063   1.331   6.705
 6670SOL    HW220910   3.116   1.486   6.708
 6671SOL     OW20911   4.836   6.866   0.831
 6671SOL    HW120912   4.801   6.810   0.907
 6671SOL    HW220913   4.848   6.808   0.750
 6672SOL     OW20914   1.567   2.083   0.301
 6672SOL    HW120915   1.567   2.171   0.252
 6672SOL    HW220916   1.473   2.050   0.308
 6673SOL     OW20917   5.020   3.838   4.107
 6673SOL    HW120918   4.976   3.781   4.177
 6673SOL    HW220919   5.042   3.927   4.146
 6674SOL     OW20920   0.369   2.946   6.670
 6674SOL    HW120921   0.298   3.014   6.648
 6674SOL    HW220922   0.326   2.862   6.703
 6675SOL     OW20923   4.572   2.214   6.901
 6675SOL    HW120924   4.539   2.177   6.814
 6675SOL    HW220925   4.672   2.216   6.900
 6676SOL     OW20926   1.451   3.852   2.958
 6676SOL    HW120927   1.401   3.920   3.011
 6676SOL    HW220928   1.523   3.898   2.906
 6677SOL     OW20929   0.914   0.535   6.616
 6677SOL    HW120930   0.992   0.586   6.652
 6677SOL    HW220931   0.836   0.597   6.603
 6678SOL     OW20932   1.592   3.987   0.797
 6678SOL    HW120933   1.650   3.923   0.747
 6678SOL    HW220934   1.497   3.957   0.793
 6679SOL     OW20935   3.428   0.793   4.209
 6679SOL    HW120936   3.406   0.830   4.119
 6679SOL    HW220937   3.522   0.815   4.234
 6680SOL     OW20938   4.577   6.315   0.135
 6680SOL    HW120939   4.558   6.247   0.065
 6680SOL    HW220940   4.497   6.325   0.195
 6681SOL     OW20941   4.976   5.667   2.046
 6681SOL    HW120942   4.940   5.676   2.139
 6681SOL    HW220943   4.928   5.730   1.986
 6682SOL     OW20944   2.401   4.884   6.563
 6682SOL    HW120945   2.379   4.792   6.596
 6682SOL    HW220946   2.334   4.912   6.494
 6683SOL     OW20947   6.072   3.396   5.653
 6683SOL    HW120948   6.159   3.381   5.700
 6683SOL    HW220949   6.023   3.471   5.697
 6684SOL     OW20950   3.597   6.816   2.241
 6684SOL    HW120951   3.585   6.740   2.178
 6684SOL    HW220952   3.607   6.781   2.334
 6685SOL     OW20953   4.613   3.056   6.194
 6685SOL    HW120954   4.601   3.056   6.095
 6685SOL    HW220955   4.698   3.104   6.217
 6686SOL     OW20956   6.183   5.930   3.458
 6686SOL    HW120957   6.099   5.904   3.506
 6686SOL    HW220958   6.176   6.026   3.430
 6687SOL     OW20959   0.481   2.322   1.232
 6687SOL    HW120960   0.537   2.250   1.273
 6687SOL    HW220961   0.529   2.409   1.238
 6688SOL     OW20962   3.950   4.025   0.704
 6688SOL    HW120963   3.991   4.112   0.679
 6688SOL    HW220964   3.928   4.025   0.802
 6689SOL     OW20965   4.381   3.781   5.844
 6689SOL    HW120966   4.336   3.727   5.915
 6689SOL    HW220967   4.412   3.869   5.882
 6690SOL     OW20968   1.311   6.811   6.811
 6690SOL    HW120969   1.347   6.718   6.814
 6690SOL    HW220970   1.259   6.825   6.727
 6691SOL     OW20971   1.510   0.311   2.698
 6691SOL    HW120972   1.587   0.354   2.651
 6691SOL    HW220973   1.492   0.360   2.784
 6692SOL     OW20974   4.021   4.007   1.803
 6692SOL    HW120975   4.036   4.105   1.791
 6692SOL    HW220976   3.924   3.990   1.821
 6693SOL     OW20977   4.566   1.558   4.713
 6693SOL    HW120978   4.573   1.458   4.716
 6693SOL    HW220979   4.504   1.585   4.639
 6694SOL     OW20980   4.178   5.535   1.207
 6694SOL    HW120981   4.277   5.547   1.210
 6694SOL    HW220982   4.133   5.620   1.233
 6695SOL     OW20983   2.583   1.947   0.056
 6695SOL    HW120984   2.566   1.886   0.133
 6695SOL    HW220985   2.525   1.920   7.004
 6696SOL     OW20986   3.726   4.019   4.015
 6696SOL    HW120987   3.775   4.005   3.930
 6696SOL    HW220988   3.775   3.973   4.090
 6697SOL     OW20989   4.976   2.656   2.610
 6697SOL    HW120990   5.039   2.733   2.602
 6697SOL    HW220991   4.886   2.689   2.637
 6698SOL     OW20992   2.879   3.440   1.496
 6698SOL    HW120993   2.826   3.520   1.525
 6698SOL    HW220994   2.977   3.460   1.503
 6699SOL     OW20995   2.043   5.949   5.865
 6699SOL    HW120996   2.084   5.858   5.872
 6699SOL    HW220997   2.040   5.977   5.769
 6700SOL     OW20998   5.772   0.692   0.790
 6700SOL    HW120999   5.810   0.654   0.874
 6700SOL    HW221000   5.838   0.682   0.715
 6701SOL     OW21001   5.735   6.896   1.882
 6701SOL    HW121002   5.816   6.900   1.823
 6701SOL    HW221003   5.666   6.960   1.848
 6702SOL     OW21004   2.178   2.205   2.028
 6702SOL    HW121005   2.123   2.282   2.061
 6702SOL    HW221006   2.274   2.220   2.052
 6703SOL     OW21007   1.042   1.013   6.711
 6703SOL    HW121008   1.092   1.085   6.662
 6703SOL    HW221009   0.994   1.053   6.789
 6704SOL     OW21010   4.051   1.320   4.487
 6704SOL    HW121011   3.989   1.372   4.428
 6704SOL    HW221012   4.062   1.366   4.575
 6705SOL     OW21013   5.889   2.961   0.691
 6705SOL    HW121014   5.822   2.887   0.693
 6705SOL    HW221015   5.979   2.923   0.666
 6706SOL     OW21016   1.075   5.965   0.481
 6706SOL    HW121017   1.097   6.030   0.553
 6706SOL    HW221018   1.145   5.970   0.409
 6707SOL     OW21019   5.284   0.052   2.458
 6707SOL    HW121020   5.353   0.107   2.412
 6707SOL    HW221021   5.284   6.984   2.422
 6708SOL     OW21022   6.184   5.039   1.708
 6708SOL    HW121023   6.094   5.026   1.750
 6708SOL    HW221024   6.173   5.047   1.609
 6709SOL     OW21025   0.611   4.530   2.623
 6709SOL    HW121026   0.694   4.477   2.607
 6709SOL    HW221027   0.611   4.563   2.717
 6710SOL     OW21028   4.511   1.212   1.730
 6710SOL    HW121029   4.601   1.172   1.714
 6710SOL    HW221030   4.509   1.305   1.694
 6711SOL     OW21031   4.568   6.547   5.777
 6711SOL    HW121032   4.557   6.450   5.758
 6711SOL    HW221033   4.607   6.593   5.697
 6712SOL     OW21034   6.145   3.498   1.086
 6712SOL    HW121035   6.186   3.503   0.994
 6712SOL    HW221036   6.215   3.469   1.151
 6713SOL     OW21037   1.183   1.625   3.504
 6713SOL    HW121038   1.129   1.623   3.420
 6713SOL    HW221039   1.277   1.651   3.482
 6714SOL     OW21040   5.571   1.139   0.909
 6714SOL    HW121041   5.650   1.079   0.895
 6714SOL    HW221042   5.551   1.188   0.825
 6715SOL     OW21043   1.596   1.320   1.469
 6715SOL    HW121044   1.594   1.393   1.537
 6715SOL    HW221045   1.679   1.265   1.481
 6716SOL     OW21046   6.538   5.944   2.566
 6716SOL    HW121047   6.580   6.034   2.549
 6716SOL    HW221048   6.485   5.947   2.650
 6717SOL     OW21049   2.686   2.258   6.267
 6717SOL    HW121050   2.732   2.172   6.289
 6717SOL    HW221051   2.741   2.310   6.202
 6718SOL     OW21052   4.136   1.351   1.048
 6718SOL    HW121053   4.231   1.376   1.069
 6718SOL    HW221054   4.092   1.426   0.999
 6719SOL     OW21055   1.932   6.673   0.500
 6719SOL    HW121056   1.999   6.730   0.452
 6719SOL    HW221057   1.965   6.578   0.502
 6720SOL     OW21058   2.875   1.228   5.163
 6720SOL    HW121059   2.963   1.229   5.115
 6720SOL    HW221060   2.801   1.240   5.098
 6721SOL     OW21061   6.944   0.037   0.684
 6721SOL    HW121062   6.997   7.008   0.619
 6721SOL    HW221063   7.003   0.069   0.758
 6722SOL     OW21064   0.407   2.493   0.504
 6722SOL    HW121065   0.363   2.410   0.539
 6722SOL    HW221066   0.469   2.469   0.429
 6723SOL     OW21067   1.952   0.219   6.737
 6723SOL    HW121068   1.884   0.146   6.749
 6723SOL    HW221069   2.011   0.222   6.817
 6724SOL     OW21070   2.549   2.593   6.229
 6724SOL    HW121071   2.479   2.547   6.284
 6724SOL    HW221072   2.506   2.641   6.153
 6725SOL     OW21073   6.212   2.994   2.433
 6725SOL    HW121074   6.181   2.926   2.499
 6725SOL    HW221075   6.291   2.960   2.383
 6726SOL     OW21076   0.455   1.993   4.834
 6726SOL    HW121077   0.426   2.088   4.821
 6726SOL    HW221078   0.382   1.931   4.804
 6727SOL     OW21079   0.971   3.990   5.656
 6727SOL    HW121080   0.979   3.994   5.756
 6727SOL    HW221081   0.878   3.964   5.631
 6728SOL     OW21082   3.448   1.396   3.586
 6728SOL    HW121083   3.383   1.455   3.635
 6728SOL    HW221084   3.484   1.445   3.507
 6729SOL     OW21085   6.685   1.971   6.983
 6729SOL    HW121086   6.722   2.044   6.926
 6729SOL    HW221087   6.628   2.011   0.030
 6730SOL     OW21088   1.912   0.666   1.340
 6730SOL    HW121089   1.934   0.761   1.363
 6730SOL    HW221090   1.882   0.618   1.423
 6731SOL     OW21091   1.467   6.424   1.155
 6731SOL    HW121092   1.561   6.397   1.176
 6731SOL    HW221093   1.466   6.484   1.075
 6732SOL     OW21094   5.198   4.378   4.322
 6732SOL    HW121095   5.246   4.371   4.410
 6732SOL    HW221096   5.264   4.369   4.248
 6733SOL     OW21097   4.080   5.418   6.520
 6733SOL    HW121098   4.110   5.385   6.610
 6733SOL    HW221099   4.159   5.433   6.462
 6734SOL     OW21100   5.482   2.358   5.758
 6734SOL    HW121101   5.434   2.378   5.843
 6734SOL    HW221102   5.428   2.294   5.704
 6735SOL     OW21103   5.856   3.863   3.937
 6735SOL    HW121104   5.903   3.875   3.850
 6735SOL    HW221105   5.772   3.918   3.937
 6736SOL     OW21106   3.299   4.068   6.580
 6736SOL    HW121107   3.258   4.156   6.555
 6736SOL    HW221108   3.226   4.005   6.608
 6737SOL     OW21109   1.011   2.931   1.370
 6737SOL    HW121110   0.990   3.021   1.333
 6737SOL    HW221111   1.110   2.919   1.375
 6738SOL     OW21112   1.620   5.866   3.883
 6738SOL    HW121113   1.690   5.932   3.857
 6738SOL    HW221114   1.554   5.910   3.944
 6739SOL     OW21115   6.606   6.070   3.848
 6739SOL    HW121116   6.585   5.981   3.889
 6739SOL    HW221117   6.545   6.086   3.771
 6740SOL     OW21118   6.376   7.002   4.751
 6740SOL    HW121119   6.389   0.057   4.811
 6740SOL    HW221120   6.459   6.947   4.752
 6741SOL     OW21121   4.099   1.966   6.238
 6741SOL    HW121122   4.055   1.877   6.242
 6741SOL    HW221123   4.070   2.014   6.155
 6742SOL     OW21124   5.931   5.491   4.096
 6742SOL    HW121125   6.002   5.554   4.128
 6742SOL    HW221126   5.905   5.429   4.170
 6743SOL     OW21127   4.007   3.965   6.559
 6743SOL    HW121128   4.001   3.866   6.548
 6743SOL    HW221129   4.009   3.988   6.656
 6744SOL     OW21130   6.968   6.623   6.022
 6744SOL    HW121131   6.882   6.572   6.029
 6744SOL    HW221132   6.958   6.696   5.954
 6745SOL     OW21133   0.103   6.137   3.443
 6745SOL    HW121134   0.083   6.090   3.357
 6745SOL    HW221135   0.172   6.086   3.493
 6746SOL     OW21136   1.660   0.884   2.813
 6746SOL    HW121137   1.584   0.861   2.873
 6746SOL    HW221138   1.747   0.877   2.863
 6747SOL     OW21139   6.142   0.095   6.728
 6747SOL    HW121140   6.186   0.174   6.773
 6747SOL    HW221141   6.053   0.078   6.770
 6748SOL     OW21142   2.844   2.128   3.547
 6748SOL    HW121143   2.864   2.036   3.515
 6748SOL    HW221144   2.908   2.152   3.621
 6749SOL     OW21145   3.682   4.331   0.843
 6749SOL    HW121146   3.773   4.335   0.885
 6749SOL    HW221147   3.632   4.415   0.865
 6750SOL     OW21148   3.159   1.876   3.980
 6750SOL    HW121149   3.142   1.836   3.891
 6750SOL    HW221150   3.186   1.972   3.969
 6751SOL     OW21151   4.828   0.436   3.082
 6751SOL    HW121152   4.759   0.446   3.153
 6751SOL    HW221153   4.783   0.413   2.995
 6752SOL     OW21154   1.825   0.308   3.709
 6752SOL    HW121155   1.756   0.288   3.640
 6752SOL    HW221156   1.905   0.249   3.695
 6753SOL     OW21157   3.451   1.927   5.780
 6753SOL    HW121158   3.365   1.877   5.766
 6753SOL    HW221159   3.444   2.018   5.740
 6754SOL     OW21160   6.325   1.323   1.309
 6754SOL    HW121161   6.366   1.386   1.375
 6754SOL    HW221162   6.392   1.252   1.286
 6755SOL     OW21163   3.647   4.159   1.110
 6755SOL    HW121164   3.653   4.217   1.191
 6755SOL    HW221165   3.714   4.190   1.042
 6756SOL     OW21166   3.636   0.465   5.425
 6756SOL    HW121167   3.607   0.445   5.518
 6756SOL    HW221168   3.675   0.558   5.422
 6757SOL     OW21169   4.054   1.937   1.091
 6757SOL    HW121170   4.092   2.030   1.092
 6757SOL    HW221171   4.004   1.920   1.176
 6758SOL     OW21172   6.059   3.196   1.574
 6758SOL    HW121173   6.155   3.186   1.599
 6758SOL    HW221174   6.035   3.127   1.506
 6759SOL     OW21175   6.966   3.260   2.832
 6759SOL    HW121176   0.015   3.196   2.814
 6759SOL    HW221177   6.953   3.319   2.753
 6760SOL     OW21178   6.187   4.092   2.170
 6760SOL    HW121179   6.145   4.031   2.103
 6760SOL    HW221180   6.238   4.038   2.237
 6761SOL     OW21181   5.557   3.029   4.802
 6761SOL    HW121182   5.625   3.099   4.823
 6761SOL    HW221183   5.487   3.067   4.742
 6762SOL     OW21184   0.120   4.787   4.409
 6762SOL    HW121185   0.064   4.759   4.330
 6762SOL    HW221186   0.071   4.858   4.460
 6763SOL     OW21187   5.094   4.962   4.643
 6763SOL    HW121188   5.103   4.889   4.575
 6763SOL    HW221189   4.997   4.975   4.664
 6764SOL     OW21190   1.653   5.418   2.246
 6764SOL    HW121191   1.680   5.487   2.313
 6764SOL    HW221192   1.605   5.344   2.291
 6765SOL     OW21193   6.094   4.668   2.779
 6765SOL    HW121194   6.138   4.610   2.847
 6765SOL    HW221195   6.010   4.708   2.817
 6766SOL     OW21196   4.904   6.564   5.688
 6766SOL    HW121197   4.944   6.474   5.671
 6766SOL    HW221198   4.832   6.581   5.621
 6767SOL     OW21199   3.320   0.299   1.410
 6767SOL    HW121200   3.316   0.254   1.321
 6767SOL    HW221201   3.349   0.394   1.398
 6768SOL     OW21202   2.166   0.267   5.410
 6768SOL    HW121203   2.067   0.271   5.395
 6768SOL    HW221204   2.193   0.334   5.479
 6769SOL     OW21205   3.241   1.744   1.048
 6769SOL    HW121206   3.325   1.783   1.011
 6769SOL    HW221207   3.217   1.792   1.133
 6770SOL     OW21208   0.004   0.884   2.137
 6770SOL    HW121209   6.959   0.927   2.195
 6770SOL    HW221210   0.017   0.939   2.055
 6771SOL     OW21211   4.828   2.683   3.625
 6771SOL    HW121212   4.805   2.742   3.702
 6771SOL    HW221213   4.867   2.598   3.658
 6772SOL     OW21214   3.309   0.914   3.551
 6772SOL    HW121215   3.250   0.887   3.475
 6772SOL    HW221216   3.404   0.899   3.527
 6773SOL     OW21217   6.947   5.378   1.672
 6773SOL    HW121218   6.874   5.326   1.716
 6773SOL    HW221219   0.008   5.327   1.678
 6774SOL     OW21220   0.324   2.259   5.920
 6774SOL    HW121221   0.409   2.269   5.972
 6774SOL    HW221222   0.341   2.282   5.824
 6775SOL     OW21223   2.660   3.066   1.737
 6775SOL    HW121224   2.747   3.044   1.781
 6775SOL    HW221225   2.628   3.155   1.769
 6776SOL     OW21226   4.169   4.656   6.737
 6776SOL    HW121227   4.223   4.684   6.816
 6776SOL    HW221228   4.192   4.562   6.712
 6777SOL     OW21229   4.279   4.237   6.823
 6777SOL    HW121230   4.209   4.250   6.752
 6777SOL    HW221231   4.365   4.278   6.793
 6778SOL     OW21232   6.170   4.569   2.326
 6778SOL    HW121233   6.116   4.577   2.410
 6778SOL    HW221234   6.266   4.588   2.347
 6779SOL     OW21235   6.526   4.993   6.179
 6779SOL    HW121236   6.493   4.915   6.231
 6779SOL    HW221237   6.616   4.972   6.140
 6780SOL     OW21238   1.220   2.454   2.309
 6780SOL    HW121239   1.215   2.552   2.286
 6780SOL    HW221240   1.310   2.434   2.347
 6781SOL     OW21241   5.944   0.172   4.716
 6781SOL    HW121242   5.936   0.238   4.791
 6781SOL    HW221243   5.855   0.128   4.701
 6782SOL     OW21244   0.121   6.924   3.588
 6782SOL    HW121245   0.217   6.925   3.561
 6782SOL    HW221246   0.102   7.003   3.646
 6783SOL     OW21247   6.463   0.610   6.436
 6783SOL    HW121248   6.437   0.553   6.357
 6783SOL    HW221249   6.542   0.666   6.411
 6784SOL     OW21250   2.914   3.258   0.625
 6784SOL    HW121251   2.979   3.326   0.661
 6784SOL    HW221252   2.939   3.167   0.660
 6785SOL     OW21253   5.426   4.651   2.765
 6785SOL    HW121254   5.456   4.683   2.855
 6785SOL    HW221255   5.326   4.650   2.761
 6786SOL     OW21256   1.301   1.977   0.278
 6786SOL    HW121257   1.285   1.980   0.179
 6786SOL    HW221258   1.290   1.884   0.311
 6787SOL     OW21259   1.285   3.119   1.160
 6787SOL    HW121260   1.285   3.209   1.203
 6787SOL    HW221261   1.208   3.112   1.097
 6788SOL     OW21262   2.486   3.286   1.493
 6788SOL    HW121263   2.515   3.201   1.449
 6788SOL    HW221264   2.530   3.294   1.582
 6789SOL     OW21265   6.554   6.167   3.014
 6789SOL    HW121266   6.625   6.131   3.074
 6789SOL    HW221267   6.507   6.242   3.061
 6790SOL     OW21268   1.195   3.832   1.100
 6790SOL    HW121269   1.099   3.862   1.096
 6790SOL    HW221270   1.254   3.911   1.113
 6791SOL     OW21271   4.291   2.794   1.465
 6791SOL    HW121272   4.310   2.696   1.475
 6791SOL    HW221273   4.332   2.844   1.542
 6792SOL     OW21274   6.585   6.033   6.013
 6792SOL    HW121275   6.666   6.047   6.069
 6792SOL    HW221276   6.511   5.996   6.070
 6793SOL     OW21277   0.961   1.796   0.318
 6793SOL    HW121278   0.873   1.773   0.278
 6793SOL    HW221279   0.971   1.895   0.323
 6794SOL     OW21280   5.296   1.759   6.047
 6794SOL    HW121281   5.394   1.743   6.034
 6794SOL    HW221282   5.275   1.759   6.145
 6795SOL     OW21283   2.661   6.305   0.929
 6795SOL    HW121284   2.620   6.262   0.849
 6795SOL    HW221285   2.754   6.335   0.907
 6796SOL     OW21286   6.436   0.742   2.305
 6796SOL    HW121287   6.454   0.790   2.391
 6796SOL    HW221288   6.396   0.806   2.239
 6797SOL     OW21289   5.733   3.840   1.492
 6797SOL    HW121290   5.700   3.746   1.484
 6797SOL    HW221291   5.728   3.868   1.588
 6798SOL     OW21292   5.386   6.506   2.469
 6798SOL    HW121293   5.398   6.433   2.537
 6798SOL    HW221294   5.425   6.477   2.382
 6799SOL     OW21295   6.449   6.305   0.392
 6799SOL    HW121296   6.414   6.398   0.385
 6799SOL    HW221297   6.508   6.285   0.313
 6800SOL     OW21298   2.377   4.023   1.076
 6800SOL    HW121299   2.348   4.021   0.981
 6800SOL    HW221300   2.449   3.955   1.091
 6801SOL     OW21301   0.948   0.654   2.996
 6801SOL    HW121302   0.946   0.752   3.020
 6801SOL    HW221303   0.870   0.633   2.937
 6802SOL     OW21304   3.214   5.668   0.168
 6802SOL    HW121305   3.251   5.753   0.206
 6802SOL    HW221306   3.137   5.690   0.109
 6803SOL     OW21307   5.072   2.664   6.384
 6803SOL    HW121308   5.105   2.570   6.389
 6803SOL    HW221309   5.149   2.727   6.391
 6804SOL     OW21310   2.976   5.326   3.231
 6804SOL    HW121311   2.930   5.363   3.312
 6804SOL    HW221312   2.942   5.371   3.149
 6805SOL     OW21313   5.900   5.687   5.750
 6805SOL    HW121314   5.918   5.783   5.731
 6805SOL    HW221315   5.887   5.674   5.849
 6806SOL     OW21316   5.930   0.926   3.250
 6806SOL    HW121317   6.008   0.901   3.308
 6806SOL    HW221318   5.915   1.025   3.255
 6807SOL     OW21319   3.207   2.484   0.682
 6807SOL    HW121320   3.170   2.428   0.608
 6807SOL    HW221321   3.154   2.468   0.765
 6808SOL     OW21322   0.153   1.910   5.380
 6808SOL    HW121323   0.172   1.873   5.471
 6808SOL    HW221324   0.067   1.871   5.345
 6809SOL     OW21325   1.329   3.076   1.719
 6809SOL    HW121326   1.274   3.094   1.801
 6809SOL    HW221327   1.352   2.979   1.715
 6810SOL     OW21328   2.020   0.348   1.794
 6810SOL    HW121329   1.979   0.384   1.878
 6810SOL    HW221330   1.994   0.253   1.782
 6811SOL     OW21331   5.025   4.357   0.483
 6811SOL    HW121332   4.946   4.386   0.429
 6811SOL    HW221333   5.008   4.376   0.580
 6812SOL     OW21334   3.572   3.163   3.311
 6812SOL    HW121335   3.588   3.112   3.395
 6812SOL    HW221336   3.501   3.231   3.326
 6813SOL     OW21337   4.788   2.136   2.215
 6813SOL    HW121338   4.827   2.058   2.263
 6813SOL    HW221339   4.737   2.104   2.135
 6814SOL     OW21340   3.342   1.889   0.292
 6814SOL    HW121341   3.365   1.791   0.288
 6814SOL    HW221342   3.316   1.913   0.386
 6815SOL     OW21343   2.883   0.126   1.207
 6815SOL    HW121344   2.969   0.166   1.176
 6815SOL    HW221345   2.895   0.086   1.298
 6816SOL     OW21346   0.388   6.899   6.780
 6816SOL    HW121347   0.342   6.824   6.826
 6816SOL    HW221348   0.321   6.970   6.758
 6817SOL     OW21349   1.126   1.970   4.632
 6817SOL    HW121350   1.100   2.001   4.724
 6817SOL    HW221351   1.104   2.042   4.566
 6818SOL     OW21352   2.964   5.079   1.775
 6818SOL    HW121353   3.003   4.988   1.761
 6818SOL    HW221354   2.881   5.088   1.720
 6819SOL     OW21355   5.112   0.901   4.518
 6819SOL    HW121356   5.023   0.930   4.553
 6819SOL    HW221357   5.105   0.809   4.480
 6820SOL     OW21358   0.872   5.537   2.744
 6820SOL    HW121359   0.861   5.588   2.829
 6820SOL    HW221360   0.959   5.562   2.701
 6821SOL     OW21361   2.955   0.904   5.260
 6821SOL    HW121362   2.996   0.916   5.169
 6821SOL    HW221363   2.996   0.969   5.323
 6822SOL     OW21364   6.139   2.280   6.101
 6822SOL    HW121365   6.059   2.333   6.132
 6822SOL    HW221366   6.122   2.183   6.116
 6823SOL     OW21367   3.676   3.136   4.281
 6823SOL    HW121368   3.658   3.038   4.285
 6823SOL    HW221369   3.737   3.163   4.356
 6824SOL     OW21370   0.895   2.766   6.164
 6824SOL    HW121371   0.975   2.826   6.156
 6824SOL    HW221372   0.924   2.676   6.196
 6825SOL     OW21373   5.039   6.540   2.226
 6825SOL    HW121374   5.005   6.634   2.223
 6825SOL    HW221375   5.018   6.500   2.316
 6826SOL     OW21376   2.105   4.169   2.567
 6826SOL    HW121377   2.063   4.178   2.657
 6826SOL    HW221378   2.034   4.150   2.499
 6827SOL     OW21379   4.475   5.393   6.995
 6827SOL    HW121380   4.432   5.377   6.906
 6827SOL    HW221381   4.574   5.387   6.985
 6828SOL     OW21382   2.788   1.732   1.802
 6828SOL    HW121383   2.851   1.750   1.725
 6828SOL    HW221384   2.841   1.709   1.883
 6829SOL     OW21385   4.726   6.863   4.273
 6829SOL    HW121386   4.703   6.796   4.203
 6829SOL    HW221387   4.810   6.911   4.248
 6830SOL     OW21388   5.344   1.329   4.048
 6830SOL    HW121389   5.412   1.400   4.033
 6830SOL    HW221390   5.291   1.314   3.965
 6831SOL     OW21391   1.233   0.294   6.646
 6831SOL    HW121392   1.191   0.348   6.719
 6831SOL    HW221393   1.329   0.322   6.634
 6832SOL     OW21394   2.586   3.735   0.893
 6832SOL    HW121395   2.570   3.701   0.985
 6832SOL    HW221396   2.522   3.690   0.829
 6833SOL     OW21397   4.685   4.601   6.265
 6833SOL    HW121398   4.629   4.603   6.182
 6833SOL    HW221399   4.634   4.640   6.341
 6834SOL     OW21400   5.369   6.771   1.157
 6834SOL    HW121401   5.370   6.861   1.115
 6834SOL    HW221402   5.291   6.764   1.220
 6835SOL     OW21403   3.835   0.280   4.845
 6835SOL    HW121404   3.890   0.271   4.928
 6835SOL    HW221405   3.819   0.377   4.827
 6836SOL     OW21406   2.838   5.590   0.379
 6836SOL    HW121407   2.795   5.637   0.303
 6836SOL    HW221408   2.843   5.492   0.359
 6837SOL     OW21409   1.620   1.886   1.949
 6837SOL    HW121410   1.604   1.893   2.047
 6837SOL    HW221411   1.715   1.861   1.931
 6838SOL     OW21412   2.766   5.879   0.822
 6838SOL    HW121413   2.773   5.808   0.752
 6838SOL    HW221414   2.757   5.968   0.778
 6839SOL     OW21415   5.134   0.741   6.828
 6839SOL    HW121416   5.188   0.695   6.758
 6839SOL    HW221417   5.081   0.815   6.786
 6840SOL     OW21418   3.223   1.922   4.958
 6840SOL    HW121419   3.213   1.984   4.880
 6840SOL    HW221420   3.198   1.971   5.042
 6841SOL     OW21421   5.539   4.167   6.033
 6841SOL    HW121422   5.518   4.221   5.951
 6841SOL    HW221423   5.555   4.229   6.110
 6842SOL     OW21424   2.852   4.243   1.251
 6842SOL    HW121425   2.902   4.239   1.338
 6842SOL    HW221426   2.863   4.157   1.202
 6843SOL     OW21427   5.278   6.282   0.506
 6843SOL    HW121428   5.291   6.188   0.537
 6843SOL    HW221429   5.352   6.307   0.443
 6844SOL     OW21430   5.538   0.835   4.441
 6844SOL    HW121431   5.518   0.931   4.424
 6844SOL    HW221432   5.458   0.791   4.482
 6845SOL     OW21433   6.297   3.510   3.268
 6845SOL    HW121434   6.252   3.567   3.337
 6845SOL    HW221435   6.329   3.568   3.192
 6846SOL     OW21436   3.756   3.992   0.284
 6846SOL    HW121437   3.741   4.068   0.348
 6846SOL    HW221438   3.835   3.939   0.314
 6847SOL     OW21439   0.213   3.754   5.587
 6847SOL    HW121440   0.146   3.724   5.654
 6847SOL    HW221441   0.187   3.720   5.496
 6848SOL     OW21442   5.135   4.509   3.376
 6848SOL    HW121443   5.112   4.579   3.443
 6848SOL    HW221444   5.209   4.542   3.317
 6849SOL     OW21445   4.298   3.844   5.568
 6849SOL    HW121446   4.388   3.831   5.526
 6849SOL    HW221447   4.301   3.813   5.663
 6850SOL     OW21448   5.226   2.861   2.897
 6850SOL    HW121449   5.199   2.949   2.938
 6850SOL    HW221450   5.239   2.874   2.799
 6851SOL     OW21451   0.846   2.320   2.921
 6851SOL    HW121452   0.936   2.340   2.958
 6851SOL    HW221453   0.803   2.404   2.888
 6852SOL     OW21454   2.928   4.459   1.003
 6852SOL    HW121455   2.860   4.500   0.943
 6852SOL    HW221456   2.933   4.511   1.088
 6853SOL     OW21457   5.484   4.174   6.479
 6853SOL    HW121458   5.547   4.097   6.484
 6853SOL    HW221459   5.534   4.260   6.488
 6854SOL     OW21460   5.380   0.143   5.870
 6854SOL    HW121461   5.388   0.044   5.864
 6854SOL    HW221462   5.394   0.172   5.965
 6855SOL     OW21463   3.974   5.313   3.777
 6855SOL    HW121464   3.953   5.305   3.679
 6855SOL    HW221465   3.919   5.386   3.817
 6856SOL     OW21466   0.549   2.268   5.126
 6856SOL    HW121467   0.635   2.270   5.076
 6856SOL    HW221468   0.526   2.174   5.150
 6857SOL     OW21469   1.079   3.049   6.424
 6857SOL    HW121470   1.009   2.993   6.468
 6857SOL    HW221471   1.165   3.040   6.474
 6858SOL     OW21472   3.734   4.115   1.803
 6858SOL    HW121473   3.743   4.203   1.757
 6858SOL    HW221474   3.672   4.125   1.881
 6859SOL     OW21475   0.565   0.782   1.320
 6859SOL    HW121476   0.539   0.784   1.224
 6859SOL    HW221477   0.632   0.710   1.335
 6860SOL     OW21478   6.894   4.563   1.321
 6860SOL    HW121479   6.825   4.551   1.250
 6860SOL    HW221480   6.983   4.581   1.278
 6861SOL     OW21481   5.393   3.960   6.160
 6861SOL    HW121482   5.446   4.033   6.118
 6861SOL    HW221483   5.437   3.872   6.140
 6862SOL     OW21484   6.866   5.224   5.797
 6862SOL    HW121485   6.890   5.280   5.877
 6862SOL    HW221486   6.924   5.250   5.719
 6863SOL     OW21487   6.531   6.286   5.947
 6863SOL    HW121488   6.547   6.192   5.976
 6863SOL    HW221489   6.433   6.303   5.940
 6864SOL     OW21490   1.938   4.774   5.275
 6864SOL    HW121491   1.961   4.815   5.186
 6864SOL    HW221492   1.924   4.847   5.342
 6865SOL     OW21493   1.189   0.130   5.264
 6865SOL    HW121494   1.269   0.073   5.277
 6865SOL    HW221495   1.106   0.076   5.280
 6866SOL     OW21496   5.705   4.554   2.670
 6866SOL    HW121497   5.637   4.484   2.648
 6866SOL    HW221498   5.661   4.644   2.674
 6867SOL     OW21499   2.006   3.508   1.631
 6867SOL    HW121500   2.004   3.487   1.729
 6867SOL    HW221501   2.089   3.470   1.590
 6868SOL     OW21502   2.266   6.729   4.978
 6868SOL    HW121503   2.211   6.759   5.056
 6868SOL    HW221504   2.355   6.696   5.011
 6869SOL     OW21505   5.086   1.063   6.009
 6869SOL    HW121506   5.121   1.155   5.992
 6869SOL    HW221507   5.017   1.068   6.081
 6870SOL     OW21508   0.209   4.256   1.167
 6870SOL    HW121509   0.257   4.306   1.094
 6870SOL    HW221510   0.238   4.291   1.256
 6871SOL     OW21511   6.355   4.008   2.403
 6871SOL    HW121512   6.332   3.970   2.493
 6871SOL    HW221513   6.433   3.958   2.365
 6872SOL     OW21514   0.530   2.913   1.838
 6872SOL    HW121515   0.518   3.005   1.802
 6872SOL    HW221516   0.621   2.878   1.812
 6873SOL     OW21517   1.088   3.940   4.150
 6873SOL    HW121518   1.159   3.889   4.102
 6873SOL    HW221519   0.999   3.921   4.109
 6874SOL     OW21520   6.537   5.494   3.667
 6874SOL    HW121521   6.496   5.492   3.758
 6874SOL    HW221522   6.553   5.588   3.639
 6875SOL     OW21523   2.516   1.577   2.170
 6875SOL    HW121524   2.533   1.499   2.110
 6875SOL    HW221525   2.419   1.602   2.164
 6876SOL     OW21526   3.382   7.017   3.694
 6876SOL    HW121527   3.413   0.059   3.626
 6876SOL    HW221528   3.314   0.035   3.753
 6877SOL     OW21529   3.481   4.084   1.603
 6877SOL    HW121530   3.411   4.153   1.619
 6877SOL    HW221531   3.541   4.077   1.682
 6878SOL     OW21532   2.393   1.896   3.520
 6878SOL    HW121533   2.442   1.817   3.482
 6878SOL    HW221534   2.458   1.957   3.566
 6879SOL     OW21535   2.370   2.626   0.347
 6879SOL    HW121536   2.379   2.719   0.309
 6879SOL    HW221537   2.354   2.561   0.273
 6880SOL     OW21538   0.983   6.101   5.814
 6880SOL    HW121539   1.080   6.097   5.837
 6880SOL    HW221540   0.973   6.099   5.714
 6881SOL     OW21541   1.579   2.997   1.362
 6881SOL    HW121542   1.549   2.914   1.408
 6881SOL    HW221543   1.676   3.012   1.381
 6882SOL     OW21544   2.691   0.911   0.544
 6882SOL    HW121545   2.764   0.977   0.523
 6882SOL    HW221546   2.711   0.867   0.631
 6883SOL     OW21547   5.200   1.723   6.299
 6883SOL    HW121548   5.231   1.660   6.371
 6883SOL    HW221549   5.105   1.702   6.275
 6884SOL     OW21550   1.222   4.269   3.348
 6884SOL    HW121551   1.253   4.313   3.432
 6884SOL    HW221552   1.175   4.336   3.290
 6885SOL     OW21553   4.654   4.936   4.037
 6885SOL    HW121554   4.741   4.899   4.069
 6885SOL    HW221555   4.641   4.914   3.940
 6886SOL     OW21556   0.100   1.552   4.876
 6886SOL    HW121557   0.096   1.517   4.782
 6886SOL    HW221558   0.011   1.540   4.919
 6887SOL     OW21559   4.315   5.639   0.035
 6887SOL    HW121560   4.328   5.645   0.134
 6887SOL    HW221561   4.373   5.567   7.022
 6888SOL     OW21562   5.373   4.637   6.362
 6888SOL    HW121563   5.295   4.692   6.333
 6888SOL    HW221564   5.453   4.660   6.307
 6889SOL     OW21565   1.811   2.799   5.936
 6889SOL    HW121566   1.884   2.746   5.979
 6889SOL    HW221567   1.726   2.786   5.988
 6890SOL     OW21568   3.784   5.681   2.822
 6890SOL    HW121569   3.768   5.764   2.768
 6890SOL    HW221570   3.786   5.602   2.762
 6891SOL     OW21571   1.984   3.134   1.272
 6891SOL    HW121572   1.899   3.178   1.245
 6891SOL    HW221573   1.969   3.078   1.354
 6892SOL     OW21574   3.093   1.355   3.402
 6892SOL    HW121575   3.111   1.435   3.459
 6892SOL    HW221576   3.139   1.275   3.440
 6893SOL     OW21577   5.568   3.477   0.502
 6893SOL    HW121578   5.555   3.439   0.593
 6893SOL    HW221579   5.651   3.438   0.461
 6894SOL     OW21580   6.264   4.873   1.236
 6894SOL    HW121581   6.322   4.806   1.282
 6894SOL    HW221582   6.320   4.933   1.180
 6895SOL     OW21583   1.857   5.303   1.110
 6895SOL    HW121584   1.941   5.262   1.076
 6895SOL    HW221585   1.859   5.306   1.210
 6896SOL     OW21586   2.589   2.046   3.641
 6896SOL    HW121587   2.682   2.073   3.617
 6896SOL    HW221588   2.584   2.029   3.740
 6897SOL     OW21589   5.107   3.719   5.119
 6897SOL    HW121590   5.014   3.688   5.097
 6897SOL    HW221591   5.121   3.810   5.080
 6898SOL     OW21592   3.696   1.521   1.639
 6898SOL    HW121593   3.734   1.434   1.670
 6898SOL    HW221594   3.607   1.505   1.596
 6899SOL     OW21595   4.579   6.438   2.567
 6899SOL    HW121596   4.625   6.356   2.600
 6899SOL    HW221597   4.574   6.505   2.640
 6900SOL     OW21598   0.164   4.185   5.472
 6900SOL    HW121599   0.177   4.261   5.408
 6900SOL    HW221600   0.251   4.136   5.483
 6901SOL     OW21601   5.433   5.914   6.349
 6901SOL    HW121602   5.372   5.992   6.363
 6901SOL    HW221603   5.516   5.944   6.304
 6902SOL     OW21604   6.555   5.686   5.454
 6902SOL    HW121605   6.538   5.784   5.453
 6902SOL    HW221606   6.638   5.667   5.507
 6903SOL     OW21607   3.195   4.959   4.905
 6903SOL    HW121608   3.251   4.931   4.983
 6903SOL    HW221609   3.110   5.001   4.937
 6904SOL     OW21610   6.255   6.965   6.251
 6904SOL    HW121611   6.298   6.916   6.176
 6904SOL    HW221612   6.230   0.032   6.221
 6905SOL     OW21613   5.041   4.999   6.735
 6905SOL    HW121614   5.141   5.005   6.731
 6905SOL    HW221615   5.002   5.091   6.737
 6906SOL     OW21616   3.248   1.187   3.534
 6906SOL    HW121617   3.336   1.234   3.543
 6906SOL    HW221618   3.260   1.090   3.556
 6907SOL     OW21619   6.513   2.619   1.908
 6907SOL    HW121620   6.536   2.707   1.950
 6907SOL    HW221621   6.597   2.577   1.871
 6908SOL     OW21622   2.105   4.518   6.669
 6908SOL    HW121623   2.186   4.569   6.640
 6908SOL    HW221624   2.098   4.433   6.617
 6909SOL     OW21625   5.264   4.612   1.575
 6909SOL    HW121626   5.338   4.585   1.513
 6909SOL    HW221627   5.186   4.550   1.563
 6910SOL     OW21628   1.423   2.694   2.760
 6910SOL    HW121629   1.394   2.771   2.818
 6910SOL    HW221630   1.345   2.660   2.708
 6911SOL     OW21631   4.470   6.802   4.188
 6911SOL    HW121632   4.450   6.811   4.285
 6911SOL    HW221633   4.390   6.829   4.135
 6912SOL     OW21634   2.640   3.263   6.792
 6912SOL    HW121635   2.601   3.351   6.820
 6912SOL    HW221636   2.568   3.193   6.794
 6913SOL     OW21637   4.929   6.498   5.129
 6913SOL    HW121638   4.869   6.482   5.208
 6913SOL    HW221639   5.010   6.548   5.158
 6914SOL     OW21640   5.672   3.999   3.653
 6914SOL    HW121641   5.635   3.987   3.561
 6914SOL    HW221642   5.603   3.972   3.721
 6915SOL     OW21643   0.682   2.217   2.700
 6915SOL    HW121644   0.772   2.209   2.743
 6915SOL    HW221645   0.613   2.232   2.771
 6916SOL     OW21646   5.542   0.812   6.306
 6916SOL    HW121647   5.587   0.750   6.242
 6916SOL    HW221648   5.460   0.768   6.344
 6917SOL     OW21649   3.812   6.049   2.035
 6917SOL    HW121650   3.895   6.052   1.979
 6917SOL    HW221651   3.802   5.958   2.075
 6918SOL     OW21652   6.867   2.693   4.092
 6918SOL    HW121653   6.791   2.641   4.053
 6918SOL    HW221654   6.931   2.717   4.018
 6919SOL     OW21655   6.301   5.951   3.718
 6919SOL    HW121656   6.305   5.880   3.788
 6919SOL    HW221657   6.239   5.922   3.645
 6920SOL     OW21658   4.679   0.274   5.370
 6920SOL    HW121659   4.642   0.366   5.352
 6920SOL    HW221660   4.701   0.230   5.284
 6921SOL     OW21661   4.445   6.770   3.841
 6921SOL    HW121662   4.451   6.865   3.811
 6921SOL    HW221663   4.357   6.732   3.814
 6922SOL     OW21664   1.627   6.274   5.077
 6922SOL    HW121665   1.595   6.246   4.987
 6922SOL    HW221666   1.621   6.373   5.086
 6923SOL     OW21667   5.926   6.335   2.791
 6923SOL    HW121668   5.898   6.277   2.715
 6923SOL    HW221669   5.849   6.347   2.854
 6924SOL     OW21670   2.930   4.789   6.828
 6924SOL    HW121671   2.859   4.726   6.861
 6924SOL    HW221672   2.998   4.802   6.900
 6925SOL     OW21673   4.595   5.661   5.076
 6925SOL    HW121674   4.539   5.587   5.112
 6925SOL    HW221675   4.617   5.643   4.980
 6926SOL     OW21676   2.007   1.659   0.699
 6926SOL    HW121677   2.059   1.615   0.772
 6926SOL    HW221678   1.943   1.725   0.739
 6927SOL     OW21679   3.825   1.579   6.582
 6927SOL    HW121680   3.731   1.566   6.615
 6927SOL    HW221681   3.843   1.677   6.572
 6928SOL     OW21682   4.895   5.932   0.933
 6928SOL    HW121683   4.963   5.860   0.925
 6928SOL    HW221684   4.909   5.999   0.859
 6929SOL     OW21685   5.182   5.885   1.923
 6929SOL    HW121686   5.187   5.793   1.960
 6929SOL    HW221687   5.195   5.952   1.996
 6930SOL     OW21688   0.761   0.596   1.442
 6930SOL    HW121689   0.770   0.501   1.413
 6930SOL    HW221690   0.839   0.649   1.409
 6931SOL     OW21691   1.755   1.950   1.614
 6931SOL    HW121692   1.655   1.940   1.618
 6931SOL    HW221693   1.781   2.040   1.650
 6932SOL     OW21694   4.335   6.198   1.150
 6932SOL    HW121695   4.335   6.137   1.230
 6932SOL    HW221696   4.397   6.274   1.166
 6933SOL     OW21697   3.401   6.914   5.510
 6933SOL    HW121698   3.453   6.848   5.456
 6933SOL    HW221699   3.419   6.899   5.608
 6934SOL     OW21700   4.586   3.448   5.951
 6934SOL    HW121701   4.583   3.351   5.927
 6934SOL    HW221702   4.534   3.463   6.036
 6935SOL     OW21703   4.016   5.688   2.965
 6935SOL    HW121704   3.938   5.702   2.903
 6935SOL    HW221705   4.046   5.776   3.001
 6936SOL     OW21706   0.023   2.340   4.427
 6936SOL    HW121707   0.024   2.415   4.361
 6936SOL    HW221708   7.008   2.372   4.513
 6937SOL     OW21709   5.862   6.325   0.727
 6937SOL    HW121710   5.816   6.412   0.709
 6937SOL    HW221711   5.805   6.249   0.695
 6938SOL     OW21712   0.562   2.235   4.522
 6938SOL    HW121713   0.462   2.235   4.525
 6938SOL    HW221714   0.598   2.215   4.612
 6939SOL     OW21715   0.021   5.239   2.398
 6939SOL    HW121716   0.085   5.173   2.438
 6939SOL    HW221717   6.952   5.210   2.416
 6940SOL     OW21718   4.186   6.780   0.285
 6940SOL    HW121719   4.134   6.858   0.320
 6940SOL    HW221720   4.192   6.786   0.185
 6941SOL     OW21721   2.959   3.811   2.157
 6941SOL    HW121722   2.928   3.717   2.165
 6941SOL    HW221723   3.059   3.814   2.155
 6942SOL     OW21724   5.745   6.979   2.165
 6942SOL    HW121725   5.727   6.893   2.213
 6942SOL    HW221726   5.820   6.967   2.101
 6943SOL     OW21727   3.747   5.112   0.631
 6943SOL    HW121728   3.823   5.146   0.685
 6943SOL    HW221729   3.664   5.110   0.686
 6944SOL     OW21730   1.243   5.139   6.299
 6944SOL    HW121731   1.318   5.205   6.300
 6944SOL    HW221732   1.170   5.170   6.360
 6945SOL     OW21733   7.020   2.510   1.351
 6945SOL    HW121734   0.091   2.505   1.381
 6945SOL    HW221735   6.968   2.438   1.397
 6946SOL     OW21736   3.966   6.355   1.520
 6946SOL    HW121737   4.023   6.297   1.579
 6946SOL    HW221738   3.961   6.447   1.558
 6947SOL     OW21739   4.648   4.951   6.320
 6947SOL    HW121740   4.600   4.896   6.388
 6947SOL    HW221741   4.690   5.030   6.364
 6948SOL     OW21742   0.321   5.564   1.100
 6948SOL    HW121743   0.289   5.491   1.161
 6948SOL    HW221744   0.244   5.599   1.047
 6949SOL     OW21745   2.230   2.034   3.356
 6949SOL    HW121746   2.296   1.989   3.416
 6949SOL    HW221747   2.236   1.997   3.264
 6950SOL     OW21748   1.480   0.521   4.488
 6950SOL    HW121749   1.386   0.491   4.506
 6950SOL    HW221750   1.515   0.472   4.408
 6951SOL     OW21751   6.945   5.982   6.719
 6951SOL    HW121752   6.943   6.034   6.805
 6951SOL    HW221753   7.019   5.915   6.723
 6952SOL     OW21754   1.879   5.326   2.983
 6952SOL    HW121755   1.863   5.259   3.056
 6952SOL    HW221756   1.875   5.418   3.022
 6953SOL     OW21757   5.539   0.418   0.113
 6953SOL    HW121758   5.509   0.325   0.089
 6953SOL    HW221759   5.468   0.484   0.086
 6954SOL     OW21760   0.394   4.114   1.602
 6954SOL    HW121761   0.464   4.179   1.632
 6954SOL    HW221762   0.308   4.164   1.587
 6955SOL     OW21763   4.704   0.979   2.761
 6955SOL    HW121764   4.785   0.962   2.705
 6955SOL    HW221765   4.703   0.915   2.838
 6956SOL     OW21766   5.312   5.681   3.269
 6956SOL    HW121767   5.272   5.639   3.350
 6956SOL    HW221768   5.253   5.663   3.190
 6957SOL     OW21769   5.953   5.971   0.165
 6957SOL    HW121770   6.039   6.003   0.126
 6957SOL    HW221771   5.889   6.048   0.173
 6958SOL     OW21772   3.925   3.162   4.947
 6958SOL    HW121773   3.969   3.214   4.874
 6958SOL    HW221774   3.862   3.095   4.907
 6959SOL     OW21775   1.526   4.153   3.607
 6959SOL    HW121776   1.471   4.237   3.610
 6959SOL    HW221777   1.502   4.100   3.526
 6960SOL     OW21778   2.390   3.970   0.824
 6960SOL    HW121779   2.468   3.908   0.814
 6960SOL    HW221780   2.383   4.028   0.742
 6961SOL     OW21781   5.604   1.174   4.599
 6961SOL    HW121782   5.670   1.098   4.597
 6961SOL    HW221783   5.553   1.171   4.685
 6962SOL     OW21784   4.288   5.684   0.937
 6962SOL    HW121785   4.232   5.643   1.009
 6962SOL    HW221786   4.352   5.615   0.902
 6963SOL     OW21787   5.226   4.953   0.651
 6963SOL    HW121788   5.201   5.048   0.669
 6963SOL    HW221789   5.206   4.898   0.732
 6964SOL     OW21790   3.528   0.228   5.763
 6964SOL    HW121791   3.520   0.219   5.663
 6964SOL    HW221792   3.453   0.178   5.806
 6965SOL     OW21793   1.692   1.518   6.738
 6965SOL    HW121794   1.644   1.440   6.698
 6965SOL    HW221795   1.635   1.559   6.809
 6966SOL     OW21796   0.763   0.620   2.800
 6966SOL    HW121797   0.725   0.566   2.725
 6966SOL    HW221798   0.761   0.717   2.776
 6967SOL     OW21799   3.576   1.381   6.092
 6967SOL    HW121800   3.568   1.302   6.031
 6967SOL    HW221801   3.642   1.361   6.165
 6968SOL     OW21802   2.013   1.305   3.333
 6968SOL    HW121803   2.016   1.224   3.391
 6968SOL    HW221804   2.011   1.277   3.237
 6969SOL     OW21805   3.174   2.105   1.166
 6969SOL    HW121806   3.229   2.031   1.204
 6969SOL    HW221807   3.154   2.171   1.238
 6970SOL     OW21808   4.199   3.661   5.317
 6970SOL    HW121809   4.121   3.606   5.287
 6970SOL    HW221810   4.184   3.693   5.410
 6971SOL     OW21811   5.760   5.190   0.964
 6971SOL    HW121812   5.740   5.103   1.010
 6971SOL    HW221813   5.692   5.258   0.991
 6972SOL     OW21814   5.458   4.113   1.893
 6972SOL    HW121815   5.510   4.109   1.807
 6972SOL    HW221816   5.520   4.136   1.968
 6973SOL     OW21817   0.713   2.710   3.537
 6973SOL    HW121818   0.707   2.688   3.634
 6973SOL    HW221819   0.776   2.787   3.525
 6974SOL     OW21820   2.890   3.725   2.805
 6974SOL    HW121821   2.883   3.718   2.904
 6974SOL    HW221822   2.803   3.700   2.763
 6975SOL     OW21823   1.932   6.759   4.686
 6975SOL    HW121824   1.984   6.747   4.601
 6975SOL    HW221825   1.924   6.671   4.733
 6976SOL     OW21826   6.535   4.152   5.942
 6976SOL    HW121827   6.528   4.162   5.842
 6976SOL    HW221828   6.477   4.076   5.971
 6977SOL     OW21829   3.636   3.362   1.174
 6977SOL    HW121830   3.647   3.283   1.234
 6977SOL    HW221831   3.604   3.331   1.084
 6978SOL     OW21832   5.620   2.532   1.450
 6978SOL    HW121833   5.685   2.574   1.512
 6978SOL    HW221834   5.607   2.592   1.370
 6979SOL     OW21835   0.878   3.339   1.044
 6979SOL    HW121836   0.828   3.275   0.986
 6979SOL    HW221837   0.848   3.327   1.139
 6980SOL     OW21838   1.815   1.475   3.599
 6980SOL    HW121839   1.883   1.434   3.661
 6980SOL    HW221840   1.861   1.510   3.518
 6981SOL     OW21841   3.779   2.990   5.851
 6981SOL    HW121842   3.791   2.953   5.759
 6981SOL    HW221843   3.857   3.048   5.874
 6982SOL     OW21844   0.959   0.865   3.882
 6982SOL    HW121845   0.921   0.778   3.911
 6982SOL    HW221846   0.962   0.869   3.782
 6983SOL     OW21847   5.167   1.133   4.785
 6983SOL    HW121848   5.132   1.079   4.862
 6983SOL    HW221849   5.245   1.085   4.744
 6984SOL     OW21850   1.567   1.435   2.600
 6984SOL    HW121851   1.560   1.412   2.697
 6984SOL    HW221852   1.499   1.383   2.548
 6985SOL     OW21853   0.007   5.393   0.462
 6985SOL    HW121854   0.059   5.385   0.377
 6985SOL    HW221855   7.001   5.303   0.492
 6986SOL     OW21856   3.553   6.582   6.463
 6986SOL    HW121857   3.619   6.572   6.389
 6986SOL    HW221858   3.553   6.677   6.496
 6987SOL     OW21859   6.822   1.390   6.277
 6987SOL    HW121860   6.762   1.330   6.223
 6987SOL    HW221861   6.790   1.484   6.269
 6988SOL     OW21862   1.964   6.651   6.255
 6988SOL    HW121863   1.912   6.566   6.251
 6988SOL    HW221864   2.021   6.658   6.173
 6989SOL     OW21865   6.843   4.675   3.357
 6989SOL    HW121866   6.829   4.605   3.286
 6989SOL    HW221867   6.936   4.669   3.392
 6990SOL     OW21868   4.137   2.590   1.176
 6990SOL    HW121869   4.059   2.590   1.239
 6990SOL    HW221870   4.207   2.527   1.210
 6991SOL     OW21871   5.446   4.533   3.238
 6991SOL    HW121872   5.505   4.547   3.159
 6991SOL    HW221873   5.491   4.471   3.303
 6992SOL     OW21874   6.236   6.233   0.234
 6992SOL    HW121875   6.219   6.151   0.179
 6992SOL    HW221876   6.324   6.223   0.282
 6993SOL     OW21877   6.514   0.368   1.330
 6993SOL    HW121878   6.550   0.461   1.321
 6993SOL    HW221879   6.450   0.365   1.407
 6994SOL     OW21880   1.425   1.134   4.322
 6994SOL    HW121881   1.332   1.163   4.299
 6994SOL    HW221882   1.490   1.205   4.294
 6995SOL     OW21883   0.038   3.799   0.276
 6995SOL    HW121884   0.066   3.746   0.355
 6995SOL    HW221885   0.114   3.855   0.243
 6996SOL     OW21886   1.386   0.256   0.312
 6996SOL    HW121887   1.445   0.209   0.378
 6996SOL    HW221888   1.319   0.312   0.362
 6997SOL     OW21889   6.990   4.772   4.958
 6997SOL    HW121890   6.936   4.834   4.901
 6997SOL    HW221891   0.023   4.714   4.900
 6998SOL     OW21892   0.927   1.627   1.639
 6998SOL    HW121893   0.918   1.707   1.579
 6998SOL    HW221894   0.958   1.657   1.729
 6999SOL     OW21895   1.803   2.173   6.667
 6999SOL    HW121896   1.811   2.079   6.702
 6999SOL    HW221897   1.742   2.225   6.726
 7000SOL     OW21898   5.962   0.657   2.073
 7000SOL    HW121899   5.994   0.571   2.114
 7000SOL    HW221900   5.875   0.683   2.115
 7001SOL     OW21901   0.790   2.293   4.967
 7001SOL    HW121902   0.787   2.220   4.899
 7001SOL    HW221903   0.825   2.256   5.053
 7002SOL     OW21904   1.887   4.887   4.258
 7002SOL    HW121905   1.832   4.958   4.214
 7002SOL    HW221906   1.850   4.868   4.349
 7003SOL     OW21907   4.710   5.545   1.952
 7003SOL    HW121908   4.755   5.620   1.904
 7003SOL    HW221909   4.611   5.556   1.944
 7004SOL     OW21910   0.848   6.074   0.302
 7004SOL    HW121911   0.837   5.995   0.362
 7004SOL    HW221912   0.943   6.077   0.269
 7005SOL     OW21913   1.041   0.183   0.785
 7005SOL    HW121914   0.972   0.110   0.791
 7005SOL    HW221915   1.090   0.175   0.697
 7006SOL     OW21916   5.805   6.522   3.380
 7006SOL    HW121917   5.800   6.556   3.286
 7006SOL    HW221918   5.895   6.545   3.419
 7007SOL     OW21919   4.153   0.371   4.714
 7007SOL    HW121920   4.238   0.344   4.758
 7007SOL    HW221921   4.110   0.291   4.673
 7008SOL     OW21922   0.158   4.704   3.956
 7008SOL    HW121923   0.225   4.739   4.022
 7008SOL    HW221924   0.207   4.661   3.879
 7009SOL     OW21925   4.549   6.832   2.095
 7009SOL    HW121926   4.559   6.734   2.079
 7009SOL    HW221927   4.478   6.847   2.164
 7010SOL     OW21928   5.906   4.590   3.546
 7010SOL    HW121929   5.940   4.527   3.476
 7010SOL    HW221930   5.902   4.542   3.634
 7011SOL     OW21931   4.016   6.782   0.820
 7011SOL    HW121932   4.048   6.859   0.766
 7011SOL    HW221933   4.017   6.699   0.764
 7012SOL     OW21934   0.882   2.297   1.346
 7012SOL    HW121935   0.923   2.211   1.377
 7012SOL    HW221936   0.946   2.343   1.285
 7013SOL     OW21937   1.772   7.024   6.783
 7013SOL    HW121938   1.794   6.992   6.691
 7013SOL    HW221939   1.680   0.040   6.784
 7014SOL     OW21940   5.421   3.630   0.715
 7014SOL    HW121941   5.360   3.595   0.786
 7014SOL    HW221942   5.388   3.601   0.625
 7015SOL     OW21943   5.953   4.692   2.200
 7015SOL    HW121944   6.021   4.625   2.232
 7015SOL    HW221945   5.872   4.643   2.168
 7016SOL     OW21946   3.970   5.091   1.452
 7016SOL    HW121947   3.967   5.191   1.453
 7016SOL    HW221948   4.013   5.060   1.367
 7017SOL     OW21949   2.389   5.150   2.986
 7017SOL    HW121950   2.400   5.054   2.961
 7017SOL    HW221951   2.292   5.175   2.978
 7018SOL     OW21952   5.105   4.094   4.226
 7018SOL    HW121953   5.094   4.193   4.220
 7018SOL    HW221954   5.193   4.073   4.269
 7019SOL     OW21955   4.141   5.190   2.188
 7019SOL    HW121956   4.137   5.213   2.091
 7019SOL    HW221957   4.169   5.271   2.240
 7020SOL     OW21958   0.736   3.904   6.677
 7020SOL    HW121959   0.829   3.929   6.704
 7020SOL    HW221960   0.726   3.915   6.578
 7021SOL     OW21961   2.140   3.248   4.168
 7021SOL    HW121962   2.053   3.201   4.182
 7021SOL    HW221963   2.201   3.190   4.113
 7022SOL     OW21964   4.662   0.477   0.188
 7022SOL    HW121965   4.744   0.519   0.226
 7022SOL    HW221966   4.682   0.384   0.158
 7023SOL     OW21967   0.780   2.493   1.537
 7023SOL    HW121968   0.793   2.409   1.484
 7023SOL    HW221969   0.839   2.491   1.618
 7024SOL     OW21970   3.609   3.608   3.980
 7024SOL    HW121971   3.694   3.658   3.964
 7024SOL    HW221972   3.532   3.671   3.973
 7025SOL     OW21973   3.216   0.313   0.295
 7025SOL    HW121974   3.256   0.338   0.207
 7025SOL    HW221975   3.270   0.353   0.369
 7026SOL     OW21976   3.840   2.168   2.247
 7026SOL    HW121977   3.770   2.169   2.319
 7026SOL    HW221978   3.797   2.172   2.158
 7027SOL     OW21979   2.565   6.194   3.806
 7027SOL    HW121980   2.554   6.114   3.866
 7027SOL    HW221981   2.479   6.244   3.802
 7028SOL     OW21982   2.820   0.189   4.158
 7028SOL    HW121983   2.882   0.213   4.083
 7028SOL    HW221984   2.863   0.118   4.215
 7029SOL     OW21985   3.869   4.097   5.637
 7029SOL    HW121986   3.933   4.054   5.702
 7029SOL    HW221987   3.777   4.098   5.676
 7030SOL     OW21988   0.584   1.528   4.691
 7030SOL    HW121989   0.541   1.615   4.666
 7030SOL    HW221990   0.595   1.524   4.790
 7031SOL     OW21991   3.588   6.216   0.120
 7031SOL    HW121992   3.503   6.163   0.126
 7031SOL    HW221993   3.656   6.164   0.068
 7032SOL     OW21994   4.220   1.135   3.241
 7032SOL    HW121995   4.208   1.232   3.261
 7032SOL    HW221996   4.211   1.119   3.143
 7033SOL     OW21997   1.585   2.846   3.686
 7033SOL    HW121998   1.596   2.813   3.780
 7033SOL    HW221999   1.585   2.946   3.687
 7034SOL     OW22000   6.194   2.802   3.115
 7034SOL    HW122001   6.171   2.797   3.212
 7034SOL    HW222002   6.273   2.744   3.097
 7035SOL     OW22003   2.306   0.108   1.212
 7035SOL    HW122004   2.217   0.096   1.254
 7035SOL    HW222005   2.370   0.147   1.278
 7036SOL     OW22006   0.056   2.571   2.544
 7036SOL    HW122007   0.150   2.555   2.513
 7036SOL    HW222008   0.053   2.651   2.603
 7037SOL     OW22009   0.559   1.159   5.821
 7037SOL    HW122010   0.652   1.151   5.858
 7037SOL    HW222011   0.505   1.080   5.849
 7038SOL     OW22012   2.165   4.461   4.996
 7038SOL    HW122013   2.172   4.517   5.079
 7038SOL    HW222014   2.130   4.371   5.020
 7039SOL     OW22015   0.414   6.100   4.021
 7039SOL    HW122016   0.494   6.128   4.074
 7039SOL    HW222017   0.428   6.122   3.925
 7040SOL     OW22018   5.508   2.318   5.453
 7040SOL    HW122019   5.439   2.284   5.517
 7040SOL    HW222020   5.577   2.248   5.438
 7041SOL     OW22021   0.392   1.990   3.690
 7041SOL    HW122022   0.458   2.022   3.621
 7041SOL    HW222023   0.437   1.987   3.779
 7042SOL     OW22024   4.629   5.675   4.794
 7042SOL    HW122025   4.554   5.620   4.757
 7042SOL    HW222026   4.696   5.692   4.722
 7043SOL     OW22027   2.825   4.784   3.365
 7043SOL    HW122028   2.737   4.751   3.399
 7043SOL    HW222029   2.810   4.864   3.306
 7044SOL     OW22030   4.838   7.009   4.772
 7044SOL    HW122031   4.757   7.008   4.831
 7044SOL    HW222032   4.828   0.055   4.702
 7045SOL     OW22033   5.894   5.660   1.890
 7045SOL    HW122034   5.864   5.571   1.857
 7045SOL    HW222035   5.976   5.649   1.946
 7046SOL     OW22036   2.886   2.017   3.985
 7046SOL    HW122037   2.959   1.950   4.001
 7046SOL    HW222038   2.898   2.095   4.046
 7047SOL     OW22039   0.158   1.150   1.342
 7047SOL    HW122040   0.157   1.170   1.244
 7047SOL    HW222041   0.066   1.123   1.371
 7048SOL     OW22042   6.028   6.251   5.024
 7048SOL    HW122043   6.085   6.169   5.016
 7048SOL    HW222044   5.941   6.227   5.068
 7049SOL     OW22045   3.416   1.449   2.161
 7049SOL    HW122046   3.476   1.478   2.086
 7049SOL    HW222047   3.417   1.350   2.168
 7050SOL     OW22048   4.085   4.261   0.816
 7050SOL    HW122049   4.094   4.336   0.750
 7050SOL    HW222050   4.155   4.270   0.886
 7051SOL     OW22051   6.376   6.316   1.074
 7051SOL    HW122052   6.410   6.347   0.986
 7051SOL    HW222053   6.436   6.350   1.147
 7052SOL     OW22054   5.707   0.447   3.416
 7052SOL    HW122055   5.710   0.547   3.420
 7052SOL    HW222056   5.642   0.418   3.346
 7053SOL     OW22057   2.226   4.065   4.130
 7053SOL    HW122058   2.143   4.066   4.185
 7053SOL    HW222059   2.262   3.972   4.126
 7054SOL     OW22060   6.872   6.966   1.473
 7054SOL    HW122061   6.814   6.944   1.551
 7054SOL    HW222062   6.916   0.031   1.488
 7055SOL     OW22063   2.920   0.571   0.382
 7055SOL    HW122064   2.982   0.646   0.407
 7055SOL    HW222065   2.965   0.513   0.314
 7056SOL     OW22066   6.884   5.946   1.187
 7056SOL    HW122067   6.861   6.011   1.115
 7056SOL    HW222068   6.944   5.875   1.150
 7057SOL     OW22069   3.237   5.992   4.532
 7057SOL    HW122070   3.266   5.989   4.628
 7057SOL    HW222071   3.260   6.081   4.493
 7058SOL     OW22072   5.556   1.726   6.042
 7058SOL    HW122073   5.632   1.775   5.998
 7058SOL    HW222074   5.562   1.629   6.020
 7059SOL     OW22075   1.328   0.965   4.746
 7059SOL    HW122076   1.269   1.010   4.679
 7059SOL    HW222077   1.401   0.916   4.699
 7060SOL     OW22078   3.742   6.202   1.541
 7060SOL    HW122079   3.810   6.274   1.551
 7060SOL    HW222080   3.658   6.240   1.501
 7061SOL     OW22081   0.336   2.604   2.925
 7061SOL    HW122082   0.411   2.655   2.967
 7061SOL    HW222083   0.263   2.591   2.991
 7062SOL     OW22084   4.119   2.100   4.626
 7062SOL    HW122085   4.079   2.067   4.541
 7062SOL    HW222086   4.158   2.191   4.612
 7063SOL     OW22087   0.362   6.536   1.715
 7063SOL    HW122088   0.268   6.567   1.731
 7063SOL    HW222089   0.361   6.444   1.676
 7064SOL     OW22090   4.639   1.978   6.248
 7064SOL    HW122091   4.556   2.018   6.286
 7064SOL    HW222092   4.687   2.048   6.194
 7065SOL     OW22093   3.422   4.281   5.275
 7065SOL    HW122094   3.378   4.192   5.287
 7065SOL    HW222095   3.354   4.353   5.283
 7066SOL     OW22096   4.586   0.929   6.178
 7066SOL    HW122097   4.558   0.835   6.200
 7066SOL    HW222098   4.514   0.973   6.125
 7067SOL     OW22099   1.390   3.535   6.595
 7067SOL    HW122100   1.463   3.475   6.562
 7067SOL    HW222101   1.390   3.621   6.543
 7068SOL     OW22102   6.356   3.909   4.503
 7068SOL    HW122103   6.275   3.938   4.453
 7068SOL    HW222104   6.438   3.935   4.452
 7069SOL     OW22105   6.031   2.119   5.391
 7069SOL    HW122106   5.997   2.147   5.480
 7069SOL    HW222107   6.074   2.197   5.345
 7070SOL     OW22108   1.307   6.411   4.487
 7070SOL    HW122109   1.261   6.458   4.412
 7070SOL    HW222110   1.378   6.471   4.524
 7071SOL     OW22111   4.730   6.535   0.022
 7071SOL    HW122112   4.809   6.564   0.077
 7071SOL    HW222113   4.682   6.462   0.070
 7072SOL     OW22114   1.922   4.471   0.166
 7072SOL    HW122115   1.989   4.467   0.240
 7072SOL    HW222116   1.884   4.564   0.160
 7073SOL     OW22117   3.728   0.008   3.137
 7073SOL    HW122118   3.731   0.035   3.233
 7073SOL    HW222119   3.821   0.008   3.099
 7074SOL     OW22120   6.407   3.504   3.578
 7074SOL    HW122121   6.350   3.582   3.551
 7074SOL    HW222122   6.502   3.521   3.552
 7075SOL     OW22123   2.943   4.820   4.881
 7075SOL    HW122124   3.043   4.827   4.881
 7075SOL    HW222125   2.916   4.743   4.939
 7076SOL     OW22126   5.896   3.022   1.394
 7076SOL    HW122127   5.877   2.935   1.349
 7076SOL    HW222128   5.925   3.090   1.327
 7077SOL     OW22129   2.326   4.653   2.601
 7077SOL    HW122130   2.389   4.582   2.570
 7077SOL    HW222131   2.376   4.737   2.620
 7078SOL     OW22132   5.546   6.067   0.432
 7078SOL    HW122133   5.492   5.997   0.387
 7078SOL    HW222134   5.620   6.097   0.371
 7079SOL     OW22135   1.134   0.117   4.111
 7079SOL    HW122136   1.130   0.193   4.176
 7079SOL    HW222137   1.176   0.038   4.155
 7080SOL     OW22138   3.879   2.080   3.887
 7080SOL    HW122139   3.970   2.039   3.899
 7080SOL    HW222140   3.854   2.131   3.969
 7081SOL     OW22141   1.732   6.367   6.962
 7081SOL    HW122142   1.640   6.405   6.952
 7081SOL    HW222143   1.755   6.361   0.035
 7082SOL     OW22144   6.861   3.650   1.577
 7082SOL    HW122145   6.800   3.585   1.623
 7082SOL    HW222146   6.946   3.659   1.629
 7083SOL     OW22147   6.856   1.492   2.501
 7083SOL    HW122148   6.922   1.545   2.447
 7083SOL    HW222149   6.767   1.537   2.497
 7084SOL     OW22150   0.354   5.985   5.681
 7084SOL    HW122151   0.441   5.981   5.632
 7084SOL    HW222152   0.305   6.068   5.653
 7085SOL     OW22153   6.500   2.477   2.861
 7085SOL    HW122154   6.598   2.475   2.841
 7085SOL    HW222155   6.460   2.560   2.823
 7086SOL     OW22156   5.895   0.380   0.009
 7086SOL    HW122157   5.899   0.328   0.094
 7086SOL    HW222158   5.846   0.328   6.965
 7087SOL     OW22159   5.192   3.473   2.184
 7087SOL    HW122160   5.101   3.459   2.143
 7087SOL    HW222161   5.249   3.525   2.121
 7088SOL     OW22162   5.319   2.194   5.592
 7088SOL    HW122163   5.280   2.113   5.550
 7088SOL    HW222164   5.254   2.270   5.584
 7089SOL     OW22165   2.671   4.792   2.353
 7089SOL    HW122166   2.729   4.751   2.282
 7089SOL    HW222167   2.699   4.886   2.369
 7090SOL     OW22168   2.348   1.367   0.734
 7090SOL    HW122169   2.427   1.395   0.679
 7090SOL    HW222170   2.300   1.293   0.688
 7091SOL     OW22171   0.786   1.143   1.630
 7091SOL    HW122172   0.844   1.217   1.597
 7091SOL    HW222173   0.735   1.103   1.553
 7092SOL     OW22174   3.593   2.823   6.249
 7092SOL    HW122175   3.519   2.882   6.220
 7092SOL    HW222176   3.667   2.825   6.181
 7093SOL     OW22177   3.299   3.503   1.226
 7093SOL    HW122178   3.238   3.424   1.222
 7093SOL    HW222179   3.339   3.519   1.136
 7094SOL     OW22180   1.455   6.914   5.822
 7094SOL    HW122181   1.456   6.897   5.921
 7094SOL    HW222182   1.443   6.827   5.774
 7095SOL     OW22183   3.709   4.991   5.851
 7095SOL    HW122184   3.732   4.898   5.822
 7095SOL    HW222185   3.626   5.022   5.803
 7096SOL     OW22186   6.750   0.690   2.137
 7096SOL    HW122187   6.748   0.624   2.062
 7096SOL    HW222188   6.843   0.697   2.173
 7097SOL     OW22189   4.930   0.842   2.215
 7097SOL    HW122190   4.942   0.908   2.289
 7097SOL    HW222191   4.846   0.863   2.164
 7098SOL     OW22192   1.680   6.059   5.569
 7098SOL    HW122193   1.682   5.977   5.512
 7098SOL    HW222194   1.619   6.127   5.528
 7099SOL     OW22195   3.840   2.141   4.152
 7099SOL    HW122196   3.931   2.150   4.192
 7099SOL    HW222197   3.774   2.115   4.222
 7100SOL     OW22198   0.026   3.672   0.511
 7100SOL    HW122199   7.010   3.747   0.563
 7100SOL    HW222200   0.115   3.649   0.551
 7101SOL     OW22201   2.312   7.005   5.286
 7101SOL    HW122202   2.281   0.058   5.232
 7101SOL    HW222203   2.261   7.001   5.372
 7102SOL     OW22204   5.452   0.559   1.201
 7102SOL    HW122205   5.453   0.658   1.210
 7102SOL    HW222206   5.525   0.531   1.138
 7103SOL     OW22207   5.331   5.321   1.941
 7103SOL    HW122208   5.315   5.224   1.924
 7103SOL    HW222209   5.429   5.335   1.959
 7104SOL     OW22210   5.311   3.426   2.526
 7104SOL    HW122211   5.392   3.437   2.468
 7104SOL    HW222212   5.262   3.343   2.500
 7105SOL     OW22213   3.817   4.070   4.440
 7105SOL    HW122214   3.734   4.079   4.496
 7105SOL    HW222215   3.853   4.160   4.418
 7106SOL     OW22216   2.880   2.803   1.180
 7106SOL    HW122217   2.838   2.719   1.147
 7106SOL    HW222218   2.883   2.870   1.106
 7107SOL     OW22219   3.832   0.292   0.041
 7107SOL    HW122220   3.912   0.241   0.074
 7107SOL    HW222221   3.862   0.375   7.018
 7108SOL     OW22222   2.849   6.450   2.310
 7108SOL    HW122223   2.917   6.468   2.381
 7108SOL    HW222224   2.767   6.408   2.351
 7109SOL     OW22225   1.381   0.926   6.955
 7109SOL    HW122226   1.365   0.856   6.885
 7109SOL    HW222227   1.458   0.898   7.012
 7110SOL     OW22228   3.254   6.463   4.275
 7110SOL    HW122229   3.311   6.475   4.194
 7110SOL    HW222230   3.164   6.430   4.247
 7111SOL     OW22231   1.476   1.711   3.623
 7111SOL    HW122232   1.553   1.742   3.680
 7111SOL    HW222233   1.394   1.701   3.681
 7112SOL     OW22234   2.248   4.205   4.825
 7112SOL    HW122235   2.296   4.287   4.856
 7112SOL    HW222236   2.283   4.125   4.874
 7113SOL     OW22237   3.312   5.165   5.178
 7113SOL    HW122238   3.285   5.200   5.089
 7113SOL    HW222239   3.411   5.171   5.189
 7114SOL     OW22240   4.350   5.449   1.553
 7114SOL    HW122241   4.281   5.517   1.528
 7114SOL    HW222242   4.306   5.369   1.594
 7115SOL     OW22243   5.722   4.219   6.870
 7115SOL    HW122244   5.688   4.145   6.812
 7115SOL    HW222245   5.679   4.213   6.960
 7116SOL     OW22246   5.714   4.284   3.116
 7116SOL    HW122247   5.802   4.237   3.124
 7116SOL    HW222248   5.640   4.220   3.139
 7117SOL     OW22249   6.402   7.021   3.826
 7117SOL    HW122250   6.401   0.012   3.728
 7117SOL    HW222251   6.340   0.062   3.871
 7118SOL     OW22252   3.796   4.466   5.242
 7118SOL    HW122253   3.799   4.396   5.170
 7118SOL    HW222254   3.764   4.425   5.327
 7119SOL     OW22255   5.349   0.943   4.659
 7119SOL    HW122256   5.406   0.902   4.730
 7119SOL    HW222257   5.282   0.875   4.628
 7120SOL     OW22258   5.775   1.590   1.103
 7120SOL    HW122259   5.816   1.511   1.148
 7120SOL    HW222260   5.745   1.655   1.172
 7121SOL     OW22261   0.638   6.189   3.151
 7121SOL    HW122262   0.684   6.123   3.210
 7121SOL    HW222263   0.701   6.264   3.128
 7122SOL     OW22264   2.118   6.993   5.793
 7122SOL    HW122265   2.020   7.007   5.800
 7122SOL    HW222266   2.165   0.026   5.860
 7123SOL     OW22267   6.358   4.786   4.072
 7123SOL    HW122268   6.329   4.850   4.143
 7123SOL    HW222269   6.432   4.827   4.019
 7124SOL     OW22270   1.076   2.165   1.494
 7124SOL    HW122271   1.154   2.196   1.438
 7124SOL    HW222272   1.036   2.243   1.542
 7125SOL     OW22273   1.426   0.475   1.826
 7125SOL    HW122274   1.337   0.440   1.800
 7125SOL    HW222275   1.449   0.554   1.768
 7126SOL     OW22276   3.695   6.075   0.836
 7126SOL    HW122277   3.790   6.097   0.811
 7126SOL    HW222278   3.654   6.153   0.882
 7127SOL     OW22279   2.957   6.102   5.584
 7127SOL    HW122280   2.947   6.202   5.584
 7127SOL    HW222281   3.024   6.076   5.653
 7128SOL     OW22282   4.063   4.391   0.142
 7128SOL    HW122283   4.015   4.448   0.075
 7128SOL    HW222284   4.145   4.352   0.100
 7129SOL     OW22285   0.347   1.653   0.974
 7129SOL    HW122286   0.258   1.681   1.010
 7129SOL    HW222287   0.335   1.570   0.919
 7130SOL     OW22288   3.969   0.051   4.592
 7130SOL    HW122289   3.876   0.074   4.563
 7130SOL    HW222290   4.023   0.023   4.512
 7131SOL     OW22291   3.358   0.904   2.316
 7131SOL    HW122292   3.398   0.864   2.233
 7131SOL    HW222293   3.260   0.883   2.318
 7132SOL     OW22294   5.041   3.956   0.121
 7132SOL    HW122295   5.015   3.974   0.027
 7132SOL    HW222296   4.985   4.011   0.183
 7133SOL     OW22297   4.276   5.027   3.760
 7133SOL    HW122298   4.330   4.965   3.703
 7133SOL    HW222299   4.335   5.098   3.797
 7134SOL     OW22300   5.384   5.917   1.687
 7134SOL    HW122301   5.347   5.871   1.768
 7134SOL    HW222302   5.484   5.905   1.686
 7135SOL     OW22303   2.182   2.957   1.942
 7135SOL    HW122304   2.191   3.032   1.878
 7135SOL    HW222305   2.105   2.899   1.916
 7136SOL     OW22306   2.391   1.596   1.220
 7136SOL    HW122307   2.443   1.678   1.244
 7136SOL    HW222308   2.422   1.519   1.276
 7137SOL     OW22309   2.947   1.367   0.627
 7137SOL    HW122310   2.949   1.440   0.695
 7137SOL    HW222311   2.883   1.296   0.656
 7138SOL     OW22312   2.564   1.031   1.473
 7138SOL    HW122313   2.552   1.043   1.375
 7138SOL    HW222314   2.475   1.033   1.519
 7139SOL     OW22315   5.011   5.242   2.023
 7139SOL    HW122316   4.999   5.156   2.073
 7139SOL    HW222317   5.107   5.255   2.001
 7140SOL     OW22318   6.221   4.295   1.034
 7140SOL    HW122319   6.146   4.306   1.099
 7140SOL    HW222320   6.236   4.381   0.986
 7141SOL     OW22321   4.044   6.605   1.282
 7141SOL    HW122322   4.000   6.621   1.370
 7141SOL    HW222323   4.023   6.512   1.251
 7142SOL     OW22324   3.174   0.292   4.273
 7142SOL    HW122325   3.198   0.368   4.212
 7142SOL    HW222326   3.082   0.308   4.310
 7143SOL     OW22327   1.991   4.220   6.801
 7143SOL    HW122328   1.894   4.198   6.804
 7143SOL    HW222329   2.023   4.220   6.706
 7144SOL     OW22330   0.336   1.180   4.255
 7144SOL    HW122331   0.303   1.086   4.246
 7144SOL    HW222332   0.364   1.214   4.166
 7145SOL     OW22333   4.231   1.422   6.999
 7145SOL    HW122334   4.200   1.328   6.982
 7145SOL    HW222335   4.261   1.431   0.069
 7146SOL     OW22336   2.158   1.298   5.000
 7146SOL    HW122337   2.107   1.254   4.926
 7146SOL    HW222338   2.120   1.270   5.088
 7147SOL     OW22339   5.957   5.625   3.337
 7147SOL    HW122340   5.908   5.713   3.336
 7147SOL    HW222341   5.960   5.587   3.245
 7148SOL     OW22342   6.321   5.918   0.872
 7148SOL    HW122343   6.231   5.928   0.830
 7148SOL    HW222344   6.331   5.985   0.946
 7149SOL     OW22345   6.690   4.920   3.334
 7149SOL    HW122346   6.765   4.855   3.317
 7149SOL    HW222347   6.726   5.002   3.379
 7150SOL     OW22348   4.718   3.096   0.008
 7150SOL    HW122349   4.651   3.052   6.971
 7150SOL    HW222350   4.689   3.190   0.027
 7151SOL     OW22351   3.340   6.770   0.906
 7151SOL    HW122352   3.417   6.738   0.852
 7151SOL    HW222353   3.359   6.863   0.939
 7152SOL     OW22354   6.449   0.905   6.673
 7152SOL    HW122355   6.382   0.837   6.644
 7152SOL    HW222356   6.415   0.953   6.754
 7153SOL     OW22357   3.881   5.335   1.644
 7153SOL    HW122358   3.785   5.322   1.620
 7153SOL    HW222359   3.920   5.409   1.588
 7154SOL     OW22360   4.027   1.230   3.005
 7154SOL    HW122361   4.081   1.305   3.044
 7154SOL    HW222362   4.088   1.152   2.987
 7155SOL     OW22363   2.882   2.185   1.053
 7155SOL    HW122364   2.954   2.128   1.093
 7155SOL    HW222365   2.806   2.126   1.023
 7156SOL     OW22366   5.309   3.625   1.974
 7156SOL    HW122367   5.339   3.700   2.033
 7156SOL    HW222368   5.243   3.659   1.907
 7157SOL     OW22369   6.152   4.224   0.751
 7157SOL    HW122370   6.122   4.189   0.839
 7157SOL    HW222371   6.252   4.216   0.744
 7158SOL     OW22372   6.177   0.781   3.740
 7158SOL    HW122373   6.162   0.780   3.838
 7158SOL    HW222374   6.182   0.687   3.706
 7159SOL     OW22375   0.314   4.722   4.193
 7159SOL    HW122376   0.252   4.748   4.267
 7159SOL    HW222377   0.348   4.629   4.210
 7160SOL     OW22378   6.147   6.483   2.842
 7160SOL    HW122379   6.126   6.578   2.819
 7160SOL    HW222380   6.066   6.426   2.825
 7161SOL     OW22381   3.614   3.829   3.196
 7161SOL    HW122382   3.528   3.834   3.246
 7161SOL    HW222383   3.675   3.764   3.240
 7162SOL     OW22384   0.223   4.750   0.840
 7162SOL    HW122385   0.179   4.694   0.769
 7162SOL    HW222386   0.170   4.833   0.854
 7163SOL     OW22387   1.730   1.401   3.044
 7163SOL    HW122388   1.748   1.312   3.086
 7163SOL    HW222389   1.774   1.473   3.097
 7164SOL     OW22390   1.890   1.003   5.656
 7164SOL    HW122391   1.824   1.031   5.586
 7164SOL    HW222392   1.982   1.006   5.617
 7165SOL     OW22393   5.681   6.690   0.892
 7165SOL    HW122394   5.625   6.744   0.830
 7165SOL    HW222395   5.654   6.594   0.886
 7166SOL     OW22396   5.256   0.818   6.069
 7166SOL    HW122397   5.248   0.915   6.092
 7166SOL    HW222398   5.182   0.767   6.113
 7167SOL     OW22399   6.042   2.223   5.653
 7167SOL    HW122400   6.003   2.304   5.695
 7167SOL    HW222401   6.127   2.198   5.699
 7168SOL     OW22402   3.193   0.751   3.027
 7168SOL    HW122403   3.135   0.722   2.951
 7168SOL    HW222404   3.280   0.786   2.993
 7169SOL     OW22405   1.611   3.932   5.436
 7169SOL    HW122406   1.553   3.872   5.381
 7169SOL    HW222407   1.707   3.919   5.411
 7170SOL     OW22408   4.546   0.250   2.432
 7170SOL    HW122409   4.567   0.190   2.508
 7170SOL    HW222410   4.630   0.279   2.387
 7171SOL     OW22411   6.114   4.777   0.754
 7171SOL    HW122412   6.208   4.812   0.755
 7171SOL    HW222413   6.055   4.842   0.707
 7172SOL     OW22414   1.710   1.403   4.820
 7172SOL    HW122415   1.784   1.451   4.868
 7172SOL    HW222416   1.633   1.389   4.882
 7173SOL     OW22417   5.885   5.652   6.650
 7173SOL    HW122418   5.969   5.597   6.657
 7173SOL    HW222419   5.849   5.669   6.741
 7174SOL     OW22420   6.691   4.515   1.144
 7174SOL    HW122421   6.645   4.426   1.138
 7174SOL    HW222422   6.623   4.588   1.152
 7175SOL     OW22423   6.726   4.221   5.310
 7175SOL    HW122424   6.656   4.157   5.340
 7175SOL    HW222425   6.809   4.170   5.286
 7176SOL     OW22426   0.610   1.266   3.937
 7176SOL    HW122427   0.634   1.227   3.848
 7176SOL    HW222428   0.683   1.247   4.003
 7177SOL     OW22429   1.748   5.334   5.579
 7177SOL    HW122430   1.756   5.418   5.631
 7177SOL    HW222431   1.676   5.344   5.510
 7178SOL     OW22432   0.291   0.283   5.680
 7178SOL    HW122433   0.348   0.202   5.667
 7178SOL    HW222434   0.332   0.361   5.632
 7179SOL     OW22435   2.180   4.628   5.216
 7179SOL    HW122436   2.257   4.691   5.216
 7179SOL    HW222437   2.101   4.672   5.261
 7180SOL     OW22438   2.486   4.463   0.578
 7180SOL    HW122439   2.575   4.418   0.584
 7180SOL    HW222440   2.429   4.414   0.512
 7181SOL     OW22441   2.227   0.931   6.278
 7181SOL    HW122442   2.157   0.955   6.211
 7181SOL    HW222443   2.183   0.890   6.359
 7182SOL     OW22444   0.758   3.616   4.103
 7182SOL    HW122445   0.694   3.569   4.164
 7182SOL    HW222446   0.813   3.549   4.054
 7183SOL     OW22447   1.800   6.101   1.544
 7183SOL    HW122448   1.892   6.134   1.564
 7183SOL    HW222449   1.800   6.049   1.459
 7184SOL     OW22450   5.641   1.388   3.068
 7184SOL    HW122451   5.722   1.342   3.032
 7184SOL    HW222452   5.625   1.472   3.017
 7185SOL     OW22453   5.427   1.091   5.359
 7185SOL    HW122454   5.525   1.112   5.358
 7185SOL    HW222455   5.413   0.997   5.328
 7186SOL     OW22456   0.309   0.663   0.795
 7186SOL    HW122457   0.327   0.663   0.697
 7186SOL    HW222458   0.302   0.757   0.828
 7187SOL     OW22459   2.946   3.587   4.772
 7187SOL    HW122460   2.941   3.661   4.839
 7187SOL    HW222461   2.855   3.551   4.756
 7188SOL     OW22462   4.986   4.016   6.879
 7188SOL    HW122463   4.940   4.097   6.843
 7188SOL    HW222464   5.001   3.951   6.805
 7189SOL     OW22465   6.158   3.357   5.278
 7189SOL    HW122466   6.187   3.265   5.303
 7189SOL    HW222467   6.175   3.419   5.355
 7190SOL     OW22468   5.821   5.544   0.851
 7190SOL    HW122469   5.731   5.510   0.880
 7190SOL    HW222470   5.863   5.594   0.926
 7191SOL     OW22471   0.747   3.930   3.223
 7191SOL    HW122472   0.713   3.868   3.293
 7191SOL    HW222473   0.804   4.000   3.265
 7192SOL     OW22474   2.223   3.727   6.071
 7192SOL    HW122475   2.307   3.757   6.116
 7192SOL    HW222476   2.155   3.800   6.076
 7193SOL     OW22477   2.586   2.051   2.832
 7193SOL    HW122478   2.629   2.038   2.922
 7193SOL    HW222479   2.655   2.044   2.761
 7194SOL     OW22480   2.025   1.911   0.082
 7194SOL    HW122481   1.993   1.829   0.035
 7194SOL    HW222482   2.086   1.885   0.157
 7195SOL     OW22483   6.687   4.097   6.736
 7195SOL    HW122484   6.744   4.070   6.658
 7195SOL    HW222485   6.733   4.072   6.821
 7196SOL     OW22486   3.273   3.762   2.428
 7196SOL    HW122487   3.288   3.796   2.335
 7196SOL    HW222488   3.183   3.790   2.460
 7197SOL     OW22489   1.075   3.796   5.328
 7197SOL    HW122490   1.076   3.706   5.371
 7197SOL    HW222491   1.162   3.842   5.346
 7198SOL     OW22492   0.332   0.931   0.542
 7198SOL    HW122493   0.298   1.012   0.495
 7198SOL    HW222494   0.425   0.910   0.510
 7199SOL     OW22495   0.930   0.120   2.509
 7199SOL    HW122496   0.993   0.108   2.585
 7199SOL    HW222497   0.909   0.218   2.497
 7200SOL     OW22498   2.139   2.929   1.092
 7200SOL    HW122499   2.050   2.958   1.128
 7200SOL    HW222500   2.164   2.841   1.132
 7201SOL     OW22501   0.276   5.511   4.313
 7201SOL    HW122502   0.275   5.606   4.345
 7201SOL    HW222503   0.224   5.455   4.376
 7202SOL     OW22504   4.889   0.137   5.992
 7202SOL    HW122505   4.944   0.055   5.980
 7202SOL    HW222506   4.840   0.157   5.907
 7203SOL     OW22507   0.540   0.744   1.893
 7203SOL    HW122508   0.561   0.764   1.989
 7203SOL    HW222509   0.602   0.796   1.834
 7204SOL     OW22510   6.354   1.553   0.525
 7204SOL    HW122511   6.342   1.599   0.613
 7204SOL    HW222512   6.378   1.621   0.456
 7205SOL     OW22513   0.966   3.196   4.629
 7205SOL    HW122514   1.057   3.206   4.668
 7205SOL    HW222515   0.974   3.161   4.535
 7206SOL     OW22516   1.466   1.575   1.227
 7206SOL    HW122517   1.435   1.483   1.251
 7206SOL    HW222518   1.512   1.617   1.305
 7207SOL     OW22519   2.638   1.696   3.858
 7207SOL    HW122520   2.578   1.672   3.781
 7207SOL    HW222521   2.614   1.639   3.937
 7208SOL     OW22522   4.445   0.455   3.915
 7208SOL    HW122523   4.531   0.478   3.960
 7208SOL    HW222524   4.387   0.537   3.910
 7209SOL     OW22525   2.192   2.369   2.304
 7209SOL    HW122526   2.201   2.280   2.349
 7209SOL    HW222527   2.112   2.368   2.244
 7210SOL     OW22528   3.370   1.762   3.117
 7210SOL    HW122529   3.288   1.819   3.122
 7210SOL    HW222530   3.440   1.810   3.064
 7211SOL     OW22531   2.987   6.259   5.318
 7211SOL    HW122532   2.938   6.254   5.405
 7211SOL    HW222533   3.055   6.185   5.313
 7212SOL     OW22534   5.946   6.652   6.572
 7212SOL    HW122535   5.907   6.568   6.611
 7212SOL    HW222536   5.966   6.717   6.645
 7213SOL     OW22537   3.684   6.411   6.833
 7213SOL    HW122538   3.693   6.390   6.735
 7213SOL    HW222539   3.733   6.343   6.886
 7214SOL     OW22540   7.023   0.632   5.947
 7214SOL    HW122541   6.987   0.627   6.040
 7214SOL    HW222542   0.052   0.550   5.927
 7215SOL     OW22543   6.549   2.770   3.779
 7215SOL    HW122544   6.494   2.691   3.751
 7215SOL    HW222545   6.646   2.747   3.774
 7216SOL     OW22546   3.147   6.440   1.929
 7216SOL    HW122547   3.129   6.477   1.838
 7216SOL    HW222548   3.071   6.464   1.990
 7217SOL     OW22549   1.898   4.244   3.893
 7217SOL    HW122550   1.994   4.218   3.886
 7217SOL    HW222551   1.879   4.277   3.986
 7218SOL     OW22552   6.897   3.467   3.435
 7218SOL    HW122553   6.975   3.529   3.447
 7218SOL    HW222554   6.929   3.373   3.435
 7219SOL     OW22555   2.915   6.869   1.139
 7219SOL    HW122556   2.886   6.943   1.078
 7219SOL    HW222557   2.879   6.886   1.231
 7220SOL     OW22558   6.704   4.395   4.346
 7220SOL    HW122559   6.767   4.374   4.421
 7220SOL    HW222560   6.722   4.334   4.269
 7221SOL     OW22561   3.410   6.071   4.743
 7221SOL    HW122562   3.372   6.080   4.835
 7221SOL    HW222563   3.407   6.160   4.697
 7222SOL     OW22564   5.405   0.145   3.091
 7222SOL    HW122565   5.389   0.052   3.060
 7222SOL    HW222566   5.349   0.208   3.037
 7223SOL     OW22567   2.723   1.173   0.353
 7223SOL    HW122568   2.704   1.129   0.266
 7223SOL    HW222569   2.661   1.250   0.366
 7224SOL     OW22570   4.605   2.648   4.607
 7224SOL    HW122571   4.648   2.574   4.658
 7224SOL    HW222572   4.676   2.704   4.565
 7225SOL     OW22573   1.679   6.209   1.094
 7225SOL    HW122574   1.602   6.175   1.148
 7225SOL    HW222575   1.676   6.169   1.002
 7226SOL     OW22576   6.283   0.806   1.153
 7226SOL    HW122577   6.282   0.780   1.056
 7226SOL    HW222578   6.302   0.726   1.209
 7227SOL     OW22579   3.052   1.169   1.827
 7227SOL    HW122580   2.969   1.131   1.787
 7227SOL    HW222581   3.042   1.267   1.840
 7228SOL     OW22582   0.992   1.623   3.286
 7228SOL    HW122583   1.037   1.584   3.206
 7228SOL    HW222584   0.893   1.621   3.274
 7229SOL     OW22585   0.102   6.693   4.604
 7229SOL    HW122586   0.176   6.759   4.619
 7229SOL    HW222587   0.091   6.678   4.506
 7230SOL     OW22588   2.444   5.293   3.616
 7230SOL    HW122589   2.517   5.253   3.671
 7230SOL    HW222590   2.473   5.382   3.581
 7231SOL     OW22591   4.053   0.306   0.992
 7231SOL    HW122592   3.978   0.247   0.963
 7231SOL    HW222593   4.048   0.393   0.944
 7232SOL     OW22594   4.954   6.786   2.314
 7232SOL    HW122595   4.920   6.880   2.314
 7232SOL    HW222596   4.879   6.723   2.338
 7233SOL     OW22597   0.579   1.327   5.509
 7233SOL    HW122598   0.669   1.293   5.481
 7233SOL    HW222599   0.531   1.255   5.560
 7234SOL     OW22600   5.304   3.155   2.763
 7234SOL    HW122601   5.345   3.073   2.722
 7234SOL    HW222602   5.347   3.237   2.724
 7235SOL     OW22603   6.484   5.072   1.543
 7235SOL    HW122604   6.546   5.118   1.479
 7235SOL    HW222605   6.399   5.048   1.496
 7236SOL     OW22606   1.654   2.357   2.585
 7236SOL    HW122607   1.681   2.453   2.595
 7236SOL    HW222608   1.622   2.322   2.674
 7237SOL     OW22609   4.705   6.789   6.567
 7237SOL    HW122610   4.778   6.727   6.539
 7237SOL    HW222611   4.704   6.868   6.506
 7238SOL     OW22612   4.408   2.651   6.421
 7238SOL    HW122613   4.361   2.673   6.336
 7238SOL    HW222614   4.392   2.724   6.488
 7239SOL     OW22615   0.956   2.855   2.540
 7239SOL    HW122616   0.977   2.816   2.630
 7239SOL    HW222617   1.020   2.929   2.520
 7240SOL     OW22618   6.682   1.549   0.361
 7240SOL    HW122619   6.659   1.592   0.274
 7240SOL    HW222620   6.708   1.454   0.345
 7241SOL     OW22621   2.095   6.821   0.347
 7241SOL    HW122622   2.098   6.915   0.381
 7241SOL    HW222623   2.188   6.783   0.347
 7242SOL     OW22624   0.198   5.860   5.345
 7242SOL    HW122625   0.136   5.850   5.267
 7242SOL    HW222626   0.179   5.948   5.391
 7243SOL     OW22627   6.893   4.316   6.493
 7243SOL    HW122628   6.930   4.269   6.573
 7243SOL    HW222629   6.803   4.280   6.471
 7244SOL     OW22630   0.492   0.410   0.892
 7244SOL    HW122631   0.423   0.353   0.938
 7244SOL    HW222632   0.448   0.489   0.851
 7245SOL     OW22633   1.483   2.366   5.824
 7245SOL    HW122634   1.554   2.304   5.790
 7245SOL    HW222635   1.448   2.334   5.912
 7246SOL     OW22636   1.793   0.962   3.885
 7246SOL    HW122637   1.696   0.958   3.858
 7246SOL    HW222638   1.817   0.878   3.934
 7247SOL     OW22639   3.114   2.164   5.505
 7247SOL    HW122640   3.048   2.238   5.499
 7247SOL    HW222641   3.095   2.097   5.433
 7248SOL     OW22642   3.486   0.222   3.568
 7248SOL    HW122643   3.576   0.255   3.596
 7248SOL    HW222644   3.418   0.293   3.586
 7249SOL     OW22645   4.516   4.997   1.849
 7249SOL    HW122646   4.597   4.942   1.825
 7249SOL    HW222647   4.434   4.944   1.830
 7250SOL     OW22648   5.219   5.103   5.620
 7250SOL    HW122649   5.219   5.147   5.530
 7250SOL    HW222650   5.212   5.173   5.691
 7251SOL     OW22651   0.669   0.406   5.381
 7251SOL    HW122652   0.696   0.502   5.376
 7251SOL    HW222653   0.642   0.374   5.291
 7252SOL     OW22654   2.969   3.676   1.688
 7252SOL    HW122655   2.893   3.630   1.734
 7252SOL    HW222656   3.035   3.608   1.656
 7253SOL     OW22657   1.734   6.251   6.505
 7253SOL    HW122658   1.746   6.155   6.478
 7253SOL    HW222659   1.637   6.274   6.504
 7254SOL     OW22660   5.927   5.169   4.605
 7254SOL    HW122661   5.999   5.235   4.588
 7254SOL    HW222662   5.878   5.192   4.689
 7255SOL     OW22663   4.695   3.924   6.832
 7255SOL    HW122664   4.655   3.910   6.922
 7255SOL    HW222665   4.793   3.944   6.841
 7256SOL     OW22666   4.075   6.591   5.546
 7256SOL    HW122667   3.981   6.620   5.563
 7256SOL    HW222668   4.086   6.496   5.576
 7257SOL     OW22669   0.646   2.172   4.209
 7257SOL    HW122670   0.553   2.137   4.219
 7257SOL    HW222671   0.711   2.107   4.249
 7258SOL     OW22672   5.729   1.905   2.766
 7258SOL    HW122673   5.771   1.851   2.694
 7258SOL    HW222674   5.776   1.993   2.774
 7259SOL     OW22675   1.121   3.169   2.277
 7259SOL    HW122676   1.060   3.190   2.354
 7259SOL    HW222677   1.066   3.137   2.199
 7260SOL     OW22678   5.360   1.840   1.474
 7260SOL    HW122679   5.455   1.867   1.461
 7260SOL    HW222680   5.306   1.870   1.396
 7261SOL     OW22681   0.752   4.415   1.005
 7261SOL    HW122682   0.772   4.512   1.009
 7261SOL    HW222683   0.689   4.397   0.930
 7262SOL     OW22684   5.484   1.475   6.927
 7262SOL    HW122685   5.562   1.441   6.875
 7262SOL    HW222686   5.445   1.555   6.881
 7263SOL     OW22687   0.463   6.091   6.821
 7263SOL    HW122688   0.379   6.040   6.801
 7263SOL    HW222689   0.472   6.166   6.755
 7264SOL     OW22690   5.359   0.824   1.020
 7264SOL    HW122691   5.386   0.752   0.955
 7264SOL    HW222692   5.387   0.913   0.984
 7265SOL     OW22693   5.645   4.966   5.353
 7265SOL    HW122694   5.659   4.928   5.262
 7265SOL    HW222695   5.636   5.065   5.347
 7266SOL     OW22696   6.653   1.048   3.352
 7266SOL    HW122697   6.738   1.090   3.319
 7266SOL    HW222698   6.585   1.047   3.279
 7267SOL     OW22699   6.376   6.696   4.449
 7267SOL    HW122700   6.362   6.794   4.439
 7267SOL    HW222701   6.323   6.662   4.527
 7268SOL     OW22702   6.997   6.203   4.148
 7268SOL    HW122703   0.063   6.162   4.160
 7268SOL    HW222704   6.927   6.133   4.165
 7269SOL     OW22705   1.805   6.039   5.944
 7269SOL    HW122706   1.815   6.134   5.973
 7269SOL    HW222707   1.895   6.001   5.921
 7270SOL     OW22708   0.191   2.574   4.624
 7270SOL    HW122709   0.231   2.607   4.709
 7270SOL    HW222710   0.158   2.651   4.570
 7271SOL     OW22711   0.814   4.750   4.250
 7271SOL    HW122712   0.804   4.796   4.161
 7271SOL    HW222713   0.862   4.810   4.313
 7272SOL     OW22714   6.159   5.862   2.111
 7272SOL    HW122715   6.111   5.948   2.096
 7272SOL    HW222716   6.205   5.835   2.027
 7273SOL     OW22717   5.721   3.695   0.585
 7273SOL    HW122718   5.649   3.628   0.563
 7273SOL    HW222719   5.690   3.752   0.661
 7274SOL     OW22720   0.184   4.828   6.875
 7274SOL    HW122721   0.177   4.784   6.786
 7274SOL    HW222722   0.279   4.823   6.906
 7275SOL     OW22723   0.219   6.173   2.326
 7275SOL    HW122724   0.186   6.169   2.232
 7275SOL    HW222725   0.143   6.192   2.388
 7276SOL     OW22726   5.427   0.804   3.413
 7276SOL    HW122727   5.363   0.730   3.393
 7276SOL    HW222728   5.463   0.792   3.506
 7277SOL     OW22729   5.004   0.432   4.270
 7277SOL    HW122730   5.095   0.470   4.287
 7277SOL    HW222731   5.006   0.377   4.187
 7278SOL     OW22732   3.732   3.153   1.309
 7278SOL    HW122733   3.829   3.133   1.300
 7278SOL    HW222734   3.678   3.071   1.288
 7279SOL     OW22735   4.544   5.249   6.245
 7279SOL    HW122736   4.530   5.341   6.206
 7279SOL    HW222737   4.618   5.253   6.312
 7280SOL     OW22738   0.332   0.727   3.605
 7280SOL    HW122739   0.366   0.723   3.511
 7280SOL    HW222740   0.359   0.814   3.647
 7281SOL     OW22741   3.011   1.719   0.128
 7281SOL    HW122742   2.924   1.704   0.175
 7281SOL    HW222743   3.014   1.812   0.091
 7282SOL     OW22744   5.929   5.109   2.744
 7282SOL    HW122745   5.853   5.104   2.809
 7282SOL    HW222746   5.922   5.033   2.679
 7283SOL     OW22747   3.370   1.377   3.241
 7283SOL    HW122748   3.349   1.421   3.154
 7283SOL    HW222749   3.285   1.362   3.291
 7284SOL     OW22750   0.870   3.169   6.323
 7284SOL    HW122751   0.881   3.257   6.276
 7284SOL    HW222752   0.956   3.145   6.369
 7285SOL     OW22753   5.082   3.718   2.371
 7285SOL    HW122754   5.102   3.712   2.469
 7285SOL    HW222755   5.141   3.654   2.322
 7286SOL     OW22756   2.469   1.013   0.399
 7286SOL    HW122757   2.468   1.010   0.299
 7286SOL    HW222758   2.561   0.989   0.432
 7287SOL     OW22759   6.702   2.182   6.377
 7287SOL    HW122760   6.617   2.191   6.428
 7287SOL    HW222761   6.690   2.221   6.285
 7288SOL     OW22762   2.699   0.758   0.298
 7288SOL    HW122763   2.715   0.760   0.396
 7288SOL    HW222764   2.698   0.663   0.267
 7289SOL     OW22765   5.406   1.579   4.309
 7289SOL    HW122766   5.501   1.558   4.329
 7289SOL    HW222767   5.362   1.498   4.270
 7290SOL     OW22768   3.477   0.144   5.503
 7290SOL    HW122769   3.435   0.054   5.514
 7290SOL    HW222770   3.563   0.134   5.453
 7291SOL     OW22771   1.342   6.710   0.924
 7291SOL    HW122772   1.365   6.656   0.843
 7291SOL    HW222773   1.402   6.790   0.929
 7292SOL     OW22774   2.891   1.618   3.499
 7292SOL    HW122775   2.930   1.619   3.592
 7292SOL    HW222776   2.834   1.536   3.488
 7293SOL     OW22777   1.561   1.972   5.521
 7293SOL    HW122778   1.535   1.877   5.535
 7293SOL    HW222779   1.651   1.975   5.478
 7294SOL     OW22780   2.174   5.121   6.854
 7294SOL    HW122781   2.236   5.193   6.822
 7294SOL    HW222782   2.146   5.140   6.948
 7295SOL     OW22783   0.939   2.132   0.642
 7295SOL    HW122784   0.889   2.059   0.595
 7295SOL    HW222785   0.906   2.140   0.736
 7296SOL     OW22786   2.625   4.956   1.032
 7296SOL    HW122787   2.649   5.012   1.111
 7296SOL    HW222788   2.652   4.861   1.050
 7297SOL     OW22789   3.450   6.029   0.742
 7297SOL    HW122790   3.536   6.053   0.787
 7297SOL    HW222791   3.384   5.998   0.810
 7298SOL     OW22792   4.656   3.964   5.636
 7298SOL    HW122793   4.688   4.024   5.563
 7298SOL    HW222794   4.613   3.883   5.596
 7299SOL     OW22795   0.705   1.788   0.269
 7299SOL    HW122796   0.625   1.842   0.243
 7299SOL    HW222797   0.676   1.696   0.294
 7300SOL     OW22798   6.347   6.097   2.278
 7300SOL    HW122799   6.256   6.105   2.318
 7300SOL    HW222800   6.383   6.005   2.296
 7301SOL     OW22801   6.330   1.142   4.815
 7301SOL    HW122802   6.370   1.136   4.906
 7301SOL    HW222803   6.322   1.238   4.788
 7302SOL     OW22804   0.570   2.265   6.073
 7302SOL    HW122805   0.558   2.336   6.142
 7302SOL    HW222806   0.664   2.230   6.076
 7303SOL     OW22807   4.839   0.299   6.868
 7303SOL    HW122808   4.933   0.311   6.837
 7303SOL    HW222809   4.790   0.386   6.861
 7304SOL     OW22810   4.061   5.047   6.838
 7304SOL    HW122811   4.160   5.038   6.851
 7304SOL    HW222812   4.034   5.141   6.855
 7305SOL     OW22813   4.540   1.203   6.961
 7305SOL    HW122814   4.638   1.207   6.978
 7305SOL    HW222815   4.491   1.252   0.008
 7306SOL     OW22816   5.122   2.498   1.477
 7306SOL    HW122817   5.052   2.514   1.547
 7306SOL    HW222818   5.155   2.585   1.443
 7307SOL     OW22819   2.031   6.923   2.595
 7307SOL    HW122820   2.068   6.941   2.687
 7307SOL    HW222821   2.092   6.860   2.547
 7308SOL     OW22822   6.493   4.169   5.640
 7308SOL    HW122823   6.575   4.223   5.622
 7308SOL    HW222824   6.412   4.220   5.610
 7309SOL     OW22825   4.731   5.515   0.983
 7309SOL    HW122826   4.803   5.446   0.972
 7309SOL    HW222827   4.761   5.583   1.050
 7310SOL     OW22828   2.283   3.712   1.335
 7310SOL    HW122829   2.368   3.753   1.303
 7310SOL    HW222830   2.246   3.766   1.411
 7311SOL     OW22831   3.745   1.954   1.860
 7311SOL    HW122832   3.722   2.046   1.892
 7311SOL    HW222833   3.833   1.926   1.899
 7312SOL     OW22834   0.381   3.763   6.051
 7312SOL    HW122835   0.428   3.781   5.965
 7312SOL    HW222836   0.445   3.722   6.116
 7313SOL     OW22837   3.124   1.935   6.507
 7313SOL    HW122838   3.214   1.897   6.527
 7313SOL    HW222839   3.075   1.873   6.446
 7314SOL     OW22840   6.924   4.519   5.579
 7314SOL    HW122841   6.932   4.619   5.587
 7314SOL    HW222842   7.010   4.477   5.608
 7315SOL     OW22843   6.658   0.461   3.132
 7315SOL    HW122844   6.586   0.524   3.105
 7315SOL    HW222845   6.642   0.429   3.225
 7316SOL     OW22846   3.335   4.316   6.162
 7316SOL    HW122847   3.422   4.281   6.129
 7316SOL    HW222848   3.316   4.405   6.120
 7317SOL     OW22849   4.395   1.093   2.396
 7317SOL    HW122850   4.329   1.155   2.439
 7317SOL    HW222851   4.488   1.119   2.423
 7318SOL     OW22852   1.241   0.861   0.926
 7318SOL    HW122853   1.285   0.772   0.916
 7318SOL    HW222854   1.306   0.933   0.904
 7319SOL     OW22855   6.638   4.251   6.450
 7319SOL    HW122856   6.583   4.244   6.367
 7319SOL    HW222857   6.606   4.185   6.517
 7320SOL     OW22858   6.642   3.859   1.846
 7320SOL    HW122859   6.699   3.919   1.902
 7320SOL    HW222860   6.636   3.896   1.753
 7321SOL     OW22861   2.373   6.739   5.283
 7321SOL    HW122862   2.430   6.723   5.203
 7321SOL    HW222863   2.335   6.832   5.278
 7322SOL     OW22864   6.067   2.218   3.582
 7322SOL    HW122865   6.043   2.315   3.589
 7322SOL    HW222866   6.146   2.207   3.521
 7323SOL     OW22867   2.184   1.733   1.900
 7323SOL    HW122868   2.184   1.641   1.939
 7323SOL    HW222869   2.172   1.801   1.972
 7324SOL     OW22870   5.187   6.063   2.114
 7324SOL    HW122871   5.248   6.046   2.192
 7324SOL    HW222872   5.212   6.150   2.071
 7325SOL     OW22873   3.395   6.399   0.716
 7325SOL    HW122874   3.310   6.351   0.739
 7325SOL    HW222875   3.433   6.361   0.631
 7326SOL     OW22876   3.149   6.491   5.581
 7326SOL    HW122877   3.194   6.475   5.669
 7326SOL    HW222878   3.217   6.485   5.508
 7327SOL     OW22879   6.178   2.689   6.262
 7327SOL    HW122880   6.163   2.782   6.229
 7327SOL    HW222881   6.096   2.634   6.245
 7328SOL     OW22882   3.528   0.291   6.038
 7328SOL    HW122883   3.539   0.301   5.939
 7328SOL    HW222884   3.541   0.380   6.082
 7329SOL     OW22885   5.490   4.605   1.299
 7329SOL    HW122886   5.560   4.643   1.359
 7329SOL    HW222887   5.514   4.511   1.275
 7330SOL     OW22888   2.453   2.200   0.006
 7330SOL    HW122889   2.503   2.114   0.013
 7330SOL    HW222890   2.462   2.236   6.937
 7331SOL     OW22891   6.040   6.986   2.017
 7331SOL    HW122892   6.034   0.041   2.078
 7331SOL    HW222893   6.073   7.015   1.928
 7332SOL     OW22894   2.064   5.918   0.684
 7332SOL    HW122895   2.078   5.843   0.748
 7332SOL    HW222896   2.039   5.882   0.595
 7333SOL     OW22897   0.378   3.273   2.709
 7333SOL    HW122898   0.293   3.324   2.720
 7333SOL    HW222899   0.421   3.259   2.798
 7334SOL     OW22900   3.023   6.210   6.830
 7334SOL    HW122901   3.113   6.177   6.801
 7334SOL    HW222902   2.952   6.153   6.788
 7335SOL     OW22903   1.653   2.627   2.642
 7335SOL    HW122904   1.723   2.690   2.675
 7335SOL    HW222905   1.562   2.661   2.667
 7336SOL     OW22906   1.407   6.520   3.493
 7336SOL    HW122907   1.409   6.547   3.397
 7336SOL    HW222908   1.313   6.519   3.525
 7337SOL     OW22909   0.246   3.503   1.702
 7337SOL    HW122910   0.228   3.409   1.672
 7337SOL    HW222911   0.160   3.552   1.711
 7338SOL     OW22912   6.541   2.564   1.159
 7338SOL    HW122913   6.490   2.478   1.156
 7338SOL    HW222914   6.639   2.545   1.158
 7339SOL     OW22915   5.026   6.066   3.660
 7339SOL    HW122916   5.055   6.159   3.635
 7339SOL    HW222917   5.105   6.004   3.655
 7340SOL     OW22918   2.215   0.900   1.328
 7340SOL    HW122919   2.118   0.922   1.324
 7340SOL    HW222920   2.236   0.857   1.416
 7341SOL     OW22921   6.354   3.091   6.930
 7341SOL    HW122922   6.359   3.109   0.004
 7341SOL    HW222923   6.259   3.097   6.900
 7342SOL     OW22924   0.037   1.017   1.909
 7342SOL    HW122925   0.054   0.925   1.873
 7342SOL    HW222926   0.100   1.082   1.865
 7343SOL     OW22927   5.245   3.303   0.098
 7343SOL    HW122928   5.192   3.219   0.094
 7343SOL    HW222929   5.280   3.325   0.007
 7344SOL     OW22930   0.495   0.837   6.540
 7344SOL    HW122931   0.582   0.789   6.527
 7344SOL    HW222932   0.421   0.770   6.543
 7345SOL     OW22933   4.415   3.422   5.586
 7345SOL    HW122934   4.430   3.324   5.572
 7345SOL    HW222935   4.434   3.471   5.501
 7346SOL     OW22936   3.860   6.077   2.463
 7346SOL    HW122937   3.943   6.132   2.459
 7346SOL    HW222938   3.794   6.113   2.397
 7347SOL     OW22939   0.961   1.932   1.197
 7347SOL    HW122940   1.027   1.864   1.163
 7347SOL    HW222941   0.998   2.024   1.185
 7348SOL     OW22942   1.321   4.347   3.603
 7348SOL    HW122943   1.284   4.359   3.695
 7348SOL    HW222944   1.404   4.403   3.592
 7349SOL     OW22945   4.308   0.261   2.009
 7349SOL    HW122946   4.337   0.192   2.076
 7349SOL    HW222947   4.269   0.215   1.929
 7350SOL     OW22948   2.900   2.312   5.484
 7350SOL    HW122949   2.848   2.243   5.435
 7350SOL    HW222950   2.862   2.325   5.575
 7351SOL     OW22951   5.888   5.632   3.808
 7351SOL    HW122952   5.813   5.622   3.874
 7351SOL    HW222953   5.948   5.553   3.814
 7352SOL     OW22954   1.017   1.800   2.314
 7352SOL    HW122955   1.019   1.706   2.279
 7352SOL    HW222956   0.923   1.834   2.315
 7353SOL     OW22957   6.834   0.288   6.698
 7353SOL    HW122958   6.786   0.333   6.772
 7353SOL    HW222959   6.792   0.199   6.680
 7354SOL     OW22960   1.208   1.940   5.487
 7354SOL    HW122961   1.264   2.023   5.476
 7354SOL    HW222962   1.269   1.862   5.502
 7355SOL     OW22963   1.094   1.008   0.131
 7355SOL    HW122964   1.175   1.060   0.104
 7355SOL    HW222965   1.122   0.933   0.191
 7356SOL     OW22966   3.538   3.420   6.376
 7356SOL    HW122967   3.452   3.471   6.377
 7356SOL    HW222968   3.561   3.392   6.469
 7357SOL     OW22969   3.031   5.685   1.938
 7357SOL    HW122970   2.946   5.733   1.961
 7357SOL    HW222971   3.015   5.586   1.939
 7358SOL     OW22972   6.090   3.499   2.035
 7358SOL    HW122973   6.088   3.527   1.939
 7358SOL    HW222974   6.099   3.580   2.093
 7359SOL     OW22975   4.352   2.240   5.395
 7359SOL    HW122976   4.436   2.187   5.404
 7359SOL    HW222977   4.301   2.237   5.481
 7360SOL     OW22978   2.429   3.176   5.617
 7360SOL    HW122979   2.472   3.265   5.603
 7360SOL    HW222980   2.390   3.143   5.531
 7361SOL     OW22981   5.861   0.646   2.486
 7361SOL    HW122982   5.847   0.548   2.496
 7361SOL    HW222983   5.959   0.667   2.486
 7362SOL     OW22984   2.042   5.961   6.132
 7362SOL    HW122985   2.046   5.866   6.160
 7362SOL    HW222986   2.046   5.967   6.032
 7363SOL     OW22987   4.888   1.424   1.597
 7363SOL    HW122988   4.793   1.405   1.622
 7363SOL    HW222989   4.925   1.347   1.545
 7364SOL     OW22990   3.950   0.642   2.226
 7364SOL    HW122991   4.002   0.566   2.266
 7364SOL    HW222992   4.000   0.727   2.240
 7365SOL     OW22993   0.622   5.949   1.959
 7365SOL    HW122994   0.570   5.937   2.044
 7365SOL    HW222995   0.705   6.002   1.979
 7366SOL     OW22996   2.251   6.571   5.454
 7366SOL    HW122997   2.297   6.641   5.399
 7366SOL    HW222998   2.252   6.484   5.406
 7367SOL     OW22999   4.171   2.508   0.282
 7367SOL    HW123000   4.243   2.575   0.302
 7367SOL    HW223001   4.086   2.537   0.326
 7368SOL     OW23002   3.622   2.938   2.200
 7368SOL    HW123003   3.616   2.843   2.232
 7368SOL    HW223004   3.672   2.992   2.267
 7369SOL     OW23005   3.221   2.533   1.010
 7369SOL    HW123006   3.280   2.462   1.049
 7369SOL    HW223007   3.135   2.493   0.979
 7370SOL     OW23008   2.693   1.836   6.243
 7370SOL    HW123009   2.686   1.736   6.241
 7370SOL    HW223010   2.775   1.863   6.294
 7371SOL     OW23011   3.240   6.380   3.759
 7371SOL    HW123012   3.224   6.326   3.842
 7371SOL    HW223013   3.324   6.350   3.715
 7372SOL     OW23014   4.525   6.796   4.780
 7372SOL    HW123015   4.540   6.788   4.681
 7372SOL    HW223016   4.475   6.881   4.799
 7373SOL     OW23017   6.153   2.193   5.138
 7373SOL    HW123018   6.120   2.137   5.062
 7373SOL    HW223019   6.220   2.259   5.104
 7374SOL     OW23020   2.343   2.056   4.625
 7374SOL    HW123021   2.294   1.981   4.669
 7374SOL    HW223022   2.427   2.076   4.675
 7375SOL     OW23023   2.426   2.304   2.052
 7375SOL    HW123024   2.505   2.279   1.997
 7375SOL    HW223025   2.456   2.325   2.145
 7376SOL     OW23026   1.297   2.393   1.690
 7376SOL    HW123027   1.263   2.401   1.784
 7376SOL    HW223028   1.230   2.432   1.627
 7377SOL     OW23029   4.735   4.925   0.384
 7377SOL    HW123030   4.786   4.894   0.304
 7377SOL    HW223031   4.796   4.976   0.445
 7378SOL     OW23032   1.665   0.549   4.688
 7378SOL    HW123033   1.631   0.573   4.778
 7378SOL    HW223034   1.594   0.566   4.619
 7379SOL     OW23035   2.953   0.886   2.100
 7379SOL    HW123036   3.028   0.885   2.034
 7379SOL    HW223037   2.867   0.863   2.053
 7380SOL     OW23038   6.873   4.333   3.859
 7380SOL    HW123039   6.819   4.319   3.941
 7380SOL    HW223040   6.970   4.345   3.884
 7381SOL     OW23041   4.260   3.271   0.652
 7381SOL    HW123042   4.251   3.260   0.751
 7381SOL    HW223043   4.189   3.219   0.606
 7382SOL     OW23044   6.531   1.398   5.751
 7382SOL    HW123045   6.482   1.408   5.664
 7382SOL    HW223046   6.548   1.301   5.769
 7383SOL     OW23047   2.688   5.664   1.319
 7383SOL    HW123048   2.688   5.708   1.229
 7383SOL    HW223049   2.593   5.652   1.350
 7384SOL     OW23050   6.569   6.950   2.031
 7384SOL    HW123051   6.508   6.963   2.109
 7384SOL    HW223052   6.653   7.001   2.046
 7385SOL     OW23053   2.593   5.650   2.201
 7385SOL    HW123054   2.586   5.668   2.299
 7385SOL    HW223055   2.513   5.598   2.172
 7386SOL     OW23056   6.751   2.989   6.679
 7386SOL    HW123057   6.691   2.913   6.656
 7386SOL    HW223058   6.712   3.074   6.644
 7387SOL     OW23059   6.767   5.202   4.914
 7387SOL    HW123060   6.731   5.199   5.008
 7387SOL    HW223061   6.694   5.231   4.852
 7388SOL     OW23062   1.205   4.991   2.167
 7388SOL    HW123063   1.298   4.970   2.139
 7388SOL    HW223064   1.142   4.974   2.091
 7389SOL     OW23065   6.895   3.482   6.964
 7389SOL    HW123066   6.966   3.471   0.009
 7389SOL    HW223067   6.861   3.576   6.966
 7390SOL     OW23068   2.642   2.098   2.397
 7390SOL    HW123069   2.713   2.069   2.332
 7390SOL    HW223070   2.668   2.066   2.489
 7391SOL     OW23071   3.713   2.938   2.880
 7391SOL    HW123072   3.618   2.955   2.907
 7391SOL    HW223073   3.715   2.874   2.804
 7392SOL     OW23074   3.494   5.526   6.489
 7392SOL    HW123075   3.458   5.606   6.538
 7392SOL    HW223076   3.418   5.470   6.458
 7393SOL     OW23077   6.521   4.725   3.393
 7393SOL    HW123078   6.597   4.790   3.390
 7393SOL    HW223079   6.473   4.727   3.306
 7394SOL     OW23080   1.615   3.050   5.963
 7394SOL    HW123081   1.586   2.956   5.942
 7394SOL    HW223082   1.541   3.098   6.010
 7395SOL     OW23083   2.262   3.166   1.065
 7395SOL    HW123084   2.215   3.079   1.052
 7395SOL    HW223085   2.234   3.207   1.152
 7396SOL     OW23086   1.830   6.712   1.074
 7396SOL    HW123087   1.912   6.720   1.131
 7396SOL    HW223088   1.856   6.719   0.978
 7397SOL     OW23089   5.793   4.640   4.384
 7397SOL    HW123090   5.826   4.597   4.468
 7397SOL    HW223091   5.870   4.681   4.335
 7398SOL     OW23092   0.774   5.903   2.683
 7398SOL    HW123093   0.704   5.972   2.701
 7398SOL    HW223094   0.731   5.821   2.645
 7399SOL     OW23095   6.883   2.982   4.783
 7399SOL    HW123096   6.943   2.990   4.863
 7399SOL    HW223097   6.805   3.043   4.793
 7400SOL     OW23098   4.328   2.535   5.731
 7400SOL    HW123099   4.403   2.511   5.793
 7400SOL    HW223100   4.361   2.602   5.664
 7401SOL     OW23101   1.363   2.810   3.071
 7401SOL    HW123102   1.276   2.836   3.029
 7401SOL    HW223103   1.346   2.777   3.164
 7402SOL     OW23104   3.265   4.518   5.996
 7402SOL    HW123105   3.299   4.603   5.955
 7402SOL    HW223106   3.170   4.531   6.025
 7403SOL     OW23107   1.313   3.074   2.787
 7403SOL    HW123108   1.299   3.167   2.821
 7403SOL    HW223109   1.241   3.014   2.822
 7404SOL     OW23110   2.727   4.448   1.651
 7404SOL    HW123111   2.806   4.457   1.712
 7404SOL    HW223112   2.720   4.353   1.620
 7405SOL     OW23113   2.957   5.323   4.338
 7405SOL    HW123114   2.949   5.306   4.239
 7405SOL    HW223115   2.925   5.242   4.388
 7406SOL     OW23116   0.992   1.209   4.840
 7406SOL    HW123117   1.052   1.191   4.918
 7406SOL    HW223118   0.972   1.307   4.836
 7407SOL     OW23119   1.080   5.855   5.363
 7407SOL    HW123120   1.157   5.817   5.311
 7407SOL    HW223121   1.040   5.783   5.421
 7408SOL     OW23122   3.749   4.041   5.373
 7408SOL    HW123123   3.794   4.074   5.456
 7408SOL    HW223124   3.808   4.058   5.294
 7409SOL     OW23125   5.079   4.420   0.797
 7409SOL    HW123126   5.166   4.464   0.775
 7409SOL    HW223127   5.096   4.324   0.822
 7410SOL     OW23128   0.683   0.736   0.643
 7410SOL    HW123129   0.674   0.835   0.649
 7410SOL    HW223130   0.688   0.697   0.735
 7411SOL     OW23131   1.649   0.338   6.797
 7411SOL    HW123132   1.746   0.336   6.773
 7411SOL    HW223133   1.639   0.344   6.897
 7412SOL     OW23134   3.749   6.509   1.133
 7412SOL    HW123135   3.663   6.467   1.105
 7412SOL    HW223136   3.730   6.585   1.195
 7413SOL     OW23137   4.893   4.803   4.206
 7413SOL    HW123138   4.814   4.765   4.253
 7413SOL    HW223139   4.934   4.732   4.148
 7414SOL     OW23140   2.113   1.516   3.044
 7414SOL    HW123141   2.105   1.417   3.048
 7414SOL    HW223142   2.160   1.550   3.126
 7415SOL     OW23143   2.179   4.928   5.293
 7415SOL    HW123144   2.134   4.932   5.204
 7415SOL    HW223145   2.116   4.960   5.363
 7416SOL     OW23146   2.110   0.709   2.612
 7416SOL    HW123147   2.064   0.661   2.538
 7416SOL    HW223148   2.209   0.702   2.600
 7417SOL     OW23149   1.895   1.833   1.901
 7417SOL    HW123150   1.934   1.789   1.981
 7417SOL    HW223151   1.947   1.914   1.878
 7418SOL     OW23152   1.920   4.981   6.447
 7418SOL    HW123153   1.961   4.980   6.356
 7418SOL    HW223154   1.983   4.939   6.513
 7419SOL     OW23155   6.520   3.857   3.750
 7419SOL    HW123156   6.487   3.880   3.658
 7419SOL    HW223157   6.442   3.841   3.811
 7420SOL     OW23158   0.180   6.634   1.316
 7420SOL    HW123159   0.116   6.652   1.390
 7420SOL    HW223160   0.272   6.625   1.354
 7421SOL     OW23161   4.029   3.504   1.399
 7421SOL    HW123162   3.967   3.557   1.457
 7421SOL    HW223163   3.990   3.497   1.307
 7422SOL     OW23164   6.544   3.874   2.250
 7422SOL    HW123165   6.588   3.816   2.318
 7422SOL    HW223166   6.609   3.940   2.215
 7423SOL     OW23167   6.086   3.114   5.660
 7423SOL    HW123168   6.050   3.068   5.741
 7423SOL    HW223169   6.069   3.213   5.668
 7424SOL     OW23170   0.015   1.518   5.404
 7424SOL    HW123171   0.087   1.476   5.348
 7424SOL    HW223172   7.003   1.597   5.356
 7425SOL     OW23173   5.279   0.056   0.390
 7425SOL    HW123174   5.352   0.124   0.381
 7425SOL    HW223175   5.228   0.073   0.474
 7426SOL     OW23176   3.419   1.968   5.362
 7426SOL    HW123177   3.358   2.034   5.317
 7426SOL    HW223178   3.430   1.993   5.458
 7427SOL     OW23179   4.463   1.042   4.169
 7427SOL    HW123180   4.513   1.110   4.115
 7427SOL    HW223181   4.377   1.081   4.202
 7428SOL     OW23182   4.010   0.407   5.326
 7428SOL    HW123183   4.098   0.385   5.367
 7428SOL    HW223184   4.016   0.395   5.227
 7429SOL     OW23185   0.806   6.191   3.524
 7429SOL    HW123186   0.894   6.189   3.571
 7429SOL    HW223187   0.818   6.166   3.428
 7430SOL     OW23188   6.733   3.682   1.189
 7430SOL    HW123189   6.653   3.667   1.131
 7430SOL    HW223190   6.769   3.594   1.221
 7431SOL     OW23191   1.307   2.239   3.598
 7431SOL    HW123192   1.319   2.226   3.500
 7431SOL    HW223193   1.314   2.151   3.645
 7432SOL     OW23194   2.074   0.796   3.300
 7432SOL    HW123195   2.094   0.743   3.382
 7432SOL    HW223196   2.157   0.842   3.268
 7433SOL     OW23197   4.181   6.154   6.936
 7433SOL    HW123198   4.123   6.233   6.920
 7433SOL    HW223199   4.172   6.089   6.860
 7434SOL     OW23200   5.428   5.689   5.581
 7434SOL    HW123201   5.369   5.770   5.573
 7434SOL    HW223202   5.501   5.695   5.513
 7435SOL     OW23203   4.403   6.211   1.652
 7435SOL    HW123204   4.394   6.305   1.617
 7435SOL    HW223205   4.481   6.206   1.714
 7436SOL     OW23206   4.957   4.585   6.260
 7436SOL    HW123207   4.863   4.552   6.249
 7436SOL    HW223208   4.956   4.685   6.269
 7437SOL     OW23209   3.078   5.477   0.839
 7437SOL    HW123210   3.069   5.544   0.913
 7437SOL    HW223211   3.154   5.415   0.859
 7438SOL     OW23212   1.714   6.982   0.070
 7438SOL    HW123213   1.799   6.930   0.077
 7438SOL    HW223214   1.718   0.035   0.133
 7439SOL     OW23215   1.546   6.149   5.333
 7439SOL    HW123216   1.500   6.226   5.377
 7439SOL    HW223217   1.567   6.173   5.238
 7440SOL     OW23218   6.184   3.199   3.995
 7440SOL    HW123219   6.200   3.133   4.068
 7440SOL    HW223220   6.215   3.161   3.908
 7441SOL     OW23221   5.814   0.057   3.575
 7441SOL    HW123222   5.822   7.004   3.638
 7441SOL    HW223223   5.798   0.141   3.628
 7442SOL     OW23224   5.667   1.159   6.900
 7442SOL    HW123225   5.662   1.193   6.993
 7442SOL    HW223226   5.688   1.234   6.837
 7443SOL     OW23227   6.747   5.600   1.969
 7443SOL    HW123228   6.664   5.593   2.024
 7443SOL    HW223229   6.823   5.555   2.016
 7444SOL     OW23230   6.013   1.133   6.270
 7444SOL    HW123231   6.109   1.103   6.266
 7444SOL    HW223232   5.965   1.097   6.190
 7445SOL     OW23233   3.485   0.520   1.337
 7445SOL    HW123234   3.444   0.531   1.247
 7445SOL    HW223235   3.485   0.607   1.385
 7446SOL     OW23236   4.817   2.024   0.416
 7446SOL    HW123237   4.817   2.010   0.515
 7446SOL    HW223238   4.894   2.083   0.391
 7447SOL     OW23239   6.593   4.619   6.000
 7447SOL    HW123240   6.635   4.541   5.954
 7447SOL    HW223241   6.527   4.586   6.068
 7448SOL     OW23242   5.467   6.819   4.918
 7448SOL    HW123243   5.482   6.815   4.819
 7448SOL    HW223244   5.554   6.802   4.966
 7449SOL     OW23245   0.768   5.828   0.420
 7449SOL    HW123246   0.812   5.768   0.486
 7449SOL    HW223247   0.743   5.775   0.339
 7450SOL     OW23248   5.012   2.542   5.398
 7450SOL    HW123249   5.102   2.585   5.403
 7450SOL    HW223250   4.981   2.541   5.303
 7451SOL     OW23251   5.732   5.588   2.334
 7451SOL    HW123252   5.793   5.624   2.264
 7451SOL    HW223253   5.647   5.642   2.335
 7452SOL     OW23254   6.555   5.814   4.414
 7452SOL    HW123255   6.478   5.765   4.454
 7452SOL    HW223256   6.575   5.776   4.323
 7453SOL     OW23257   4.375   5.418   5.488
 7453SOL    HW123258   4.435   5.347   5.452
 7453SOL    HW223259   4.356   5.486   5.416
 7454SOL     OW23260   2.697   1.258   0.754
 7454SOL    HW123261   2.643   1.175   0.769
 7454SOL    HW223262   2.688   1.319   0.832
 7455SOL     OW23263   6.702   3.421   2.108
 7455SOL    HW123264   6.744   3.401   2.197
 7455SOL    HW223265   6.603   3.430   2.121
 7456SOL     OW23266   2.642   1.201   4.976
 7456SOL    HW123267   2.565   1.210   4.913
 7456SOL    HW223268   2.720   1.160   4.929
 7457SOL     OW23269   3.296   0.080   4.147
 7457SOL    HW123270   3.238   0.155   4.176
 7457SOL    HW223271   3.292   0.070   4.048
 7458SOL     OW23272   1.477   0.276   6.012
 7458SOL    HW123273   1.494   0.368   6.046
 7458SOL    HW223274   1.459   0.279   5.914
 7459SOL     OW23275   6.386   1.239   2.266
 7459SOL    HW123276   6.325   1.210   2.340
 7459SOL    HW223277   6.430   1.159   2.225
 7460SOL     OW23278   1.476   5.870   6.522
 7460SOL    HW123279   1.470   5.959   6.567
 7460SOL    HW223280   1.518   5.804   6.584
 7461SOL     OW23281   6.027   6.006   5.719
 7461SOL    HW123282   6.011   6.056   5.634
 7461SOL    HW223283   6.125   5.994   5.733
 7462SOL     OW23284   2.281   4.837   1.844
 7462SOL    HW123285   2.279   4.810   1.748
 7462SOL    HW223286   2.305   4.934   1.852
 7463SOL     OW23287   3.628   3.705   0.287
 7463SOL    HW123288   3.701   3.765   0.256
 7463SOL    HW223289   3.647   3.611   0.257
 7464SOL     OW23290   6.447   6.561   5.446
 7464SOL    HW123291   6.535   6.540   5.490
 7464SOL    HW223292   6.372   6.531   5.506
 7465SOL     OW23293   2.570   5.433   7.014
 7465SOL    HW123294   2.495   5.399   6.957
 7465SOL    HW223295   2.572   5.383   0.076
 7466SOL     OW23296   0.450   0.600   6.297
 7466SOL    HW123297   0.472   0.579   6.201
 7466SOL    HW223298   0.531   0.641   6.341
 7467SOL     OW23299   0.514   2.688   6.220
 7467SOL    HW123300   0.548   2.748   6.148
 7467SOL    HW223301   0.417   2.708   6.237
 7468SOL     OW23302   4.838   3.017   4.509
 7468SOL    HW123303   4.829   2.941   4.445
 7468SOL    HW223304   4.816   2.986   4.601
 7469SOL     OW23305   6.651   1.754   0.563
 7469SOL    HW123306   6.661   1.848   0.531
 7469SOL    HW223307   6.674   1.690   0.490
 7470SOL     OW23308   5.295   4.274   3.535
 7470SOL    HW123309   5.395   4.276   3.536
 7470SOL    HW223310   5.260   4.350   3.590
 7471SOL     OW23311   5.232   6.168   6.063
 7471SOL    HW123312   5.186   6.242   6.012
 7471SOL    HW223313   5.163   6.114   6.112
 7472SOL     OW23314   6.236   0.633   5.390
 7472SOL    HW123315   6.149   0.585   5.406
 7472SOL    HW223316   6.219   0.716   5.338
 7473SOL     OW23317   5.614   6.257   3.658
 7473SOL    HW123318   5.683   6.261   3.730
 7473SOL    HW223319   5.537   6.200   3.689
 7474SOL     OW23320   6.273   2.807   6.685
 7474SOL    HW123321   6.215   2.872   6.635
 7474SOL    HW223322   6.226   2.777   6.768
 7475SOL     OW23323   4.516   2.321   2.118
 7475SOL    HW123324   4.428   2.305   2.163
 7475SOL    HW223325   4.582   2.253   2.150
 7476SOL     OW23326   2.182   2.010   2.868
 7476SOL    HW123327   2.259   1.958   2.831
 7476SOL    HW223328   2.118   2.031   2.794
 7477SOL     OW23329   0.200   2.712   5.319
 7477SOL    HW123330   0.170   2.744   5.229
 7477SOL    HW223331   0.141   2.638   5.350
 7478SOL     OW23332   6.002   3.625   5.332
 7478SOL    HW123333   6.071   3.633   5.404
 7478SOL    HW223334   5.955   3.537   5.341
 7479SOL     OW23335   5.467   2.550   0.723
 7479SOL    HW123336   5.384   2.500   0.748
 7479SOL    HW223337   5.495   2.525   0.631
 7480SOL     OW23338   2.092   4.943   2.233
 7480SOL    HW123339   2.096   4.878   2.156
 7480SOL    HW223340   2.085   4.892   2.319
 7481SOL     OW23341   6.457   4.840   6.972
 7481SOL    HW123342   6.524   4.897   7.021
 7481SOL    HW223343   6.373   4.834   0.002
 7482SOL     OW23344   4.368   2.278   2.500
 7482SOL    HW123345   4.438   2.227   2.550
 7482SOL    HW223346   4.384   2.376   2.511
 7483SOL     OW23347   5.164   2.608   4.859
 7483SOL    HW123348   5.114   2.582   4.777
 7483SOL    HW223349   5.231   2.679   4.838
 7484SOL     OW23350   1.869   5.284   4.685
 7484SOL    HW123351   1.927   5.257   4.608
 7484SOL    HW223352   1.859   5.206   4.748
 7485SOL     OW23353   2.615   0.322   3.866
 7485SOL    HW123354   2.685   0.382   3.826
 7485SOL    HW223355   2.655   0.233   3.887
 7486SOL     OW23356   0.534   6.203   0.321
 7486SOL    HW123357   0.614   6.213   0.380
 7486SOL    HW223358   0.555   6.141   0.245
 7487SOL     OW23359   3.689   0.332   3.766
 7487SOL    HW123360   3.630   0.366   3.840
 7487SOL    HW223361   3.746   0.406   3.732
 7488SOL     OW23362   2.257   6.054   4.741
 7488SOL    HW123363   2.264   5.965   4.786
 7488SOL    HW223364   2.247   6.041   4.643
 7489SOL     OW23365   6.361   3.091   0.183
 7489SOL    HW123366   6.314   3.170   0.223
 7489SOL    HW223367   6.301   3.011   0.188
 7490SOL     OW23368   1.788   1.203   2.468
 7490SOL    HW123369   1.859   1.140   2.437
 7490SOL    HW223370   1.781   1.280   2.404
 7491SOL     OW23371   4.772   2.754   0.099
 7491SOL    HW123372   4.772   2.842   0.145
 7491SOL    HW223373   4.865   2.715   0.102
 7492SOL     OW23374   2.162   1.233   4.303
 7492SOL    HW123375   2.174   1.329   4.278
 7492SOL    HW223376   2.073   1.201   4.271
 7493SOL     OW23377   6.759   3.052   5.920
 7493SOL    HW123378   6.786   2.956   5.915
 7493SOL    HW223379   6.770   3.085   6.014
 7494SOL     OW23380   6.280   1.335   4.153
 7494SOL    HW123381   6.262   1.273   4.229
 7494SOL    HW223382   6.368   1.313   4.112
 7495SOL     OW23383   1.288   2.792   4.955
 7495SOL    HW123384   1.262   2.815   4.862
 7495SOL    HW223385   1.282   2.693   4.969
 7496SOL     OW23386   5.457   3.677   4.375
 7496SOL    HW123387   5.365   3.675   4.415
 7496SOL    HW223388   5.476   3.589   4.331
 7497SOL     OW23389   1.631   5.676   1.528
 7497SOL    HW123390   1.640   5.668   1.627
 7497SOL    HW223391   1.719   5.655   1.485
 7498SOL     OW23392   2.450   0.989   4.128
 7498SOL    HW123393   2.449   0.969   4.226
 7498SOL    HW223394   2.512   0.925   4.082
 7499SOL     OW23395   4.599   2.054   3.529
 7499SOL    HW123396   4.576   2.151   3.540
 7499SOL    HW223397   4.680   2.045   3.472
 7500SOL     OW23398   3.302   5.560   2.966
 7500SOL    HW123399   3.346   5.471   2.970
 7500SOL    HW223400   3.354   5.625   3.021
 7501SOL     OW23401   5.427   3.890   3.816
 7501SOL    HW123402   5.429   3.826   3.739
 7501SOL    HW223403   5.353   3.956   3.803
 7502SOL     OW23404   3.417   6.881   4.299
 7502SOL    HW123405   3.497   6.825   4.320
 7502SOL    HW223406   3.447   6.970   4.264
 7503SOL     OW23407   2.205   6.139   0.811
 7503SOL    HW123408   2.174   6.057   0.762
 7503SOL    HW223409   2.130   6.178   0.863
 7504SOL     OW23410   0.565   6.544   2.381
 7504SOL    HW123411   0.554   6.635   2.340
 7504SOL    HW223412   0.498   6.482   2.340
 7505SOL     OW23413   1.348   1.713   6.498
 7505SOL    HW123414   1.308   1.663   6.421
 7505SOL    HW223415   1.445   1.728   6.481
 7506SOL     OW23416   4.568   2.329   3.574
 7506SOL    HW123417   4.560   2.410   3.516
 7506SOL    HW223418   4.534   2.350   3.666
 7507SOL     OW23419   6.219   3.124   3.729
 7507SOL    HW123420   6.295   3.111   3.664
 7507SOL    HW223421   6.140   3.071   3.699
 7508SOL     OW23422   2.182   5.209   0.583
 7508SOL    HW123423   2.240   5.223   0.502
 7508SOL    HW223424   2.143   5.117   0.580
 7509SOL     OW23425   5.839   3.362   0.451
 7509SOL    HW123426   5.887   3.330   0.533
 7509SOL    HW223427   5.893   3.434   0.408
 7510SOL     OW23428   3.990   3.593   4.562
 7510SOL    HW123429   4.079   3.552   4.542
 7510SOL    HW223430   3.937   3.599   4.477
 7511SOL     OW23431   2.869   6.139   3.383
 7511SOL    HW123432   2.880   6.232   3.348
 7511SOL    HW223433   2.958   6.103   3.409
 7512SOL     OW23434   2.751   0.920   6.947
 7512SOL    HW123435   2.675   0.968   6.904
 7512SOL    HW223436   2.774   0.838   6.893
 7513SOL     OW23437   2.334   2.499   2.921
 7513SOL    HW123438   2.243   2.532   2.949
 7513SOL    HW223439   2.326   2.406   2.886
 7514SOL     OW23440   2.029   5.352   3.551
 7514SOL    HW123441   1.932   5.326   3.549
 7514SOL    HW223442   2.038   5.444   3.588
 7515SOL     OW23443   6.987   4.507   5.066
 7515SOL    HW123444   6.982   4.596   5.021
 7515SOL    HW223445   6.960   4.516   5.162
 7516SOL     OW23446   0.637   5.154   5.873
 7516SOL    HW123447   0.595   5.063   5.883
 7516SOL    HW223448   0.576   5.213   5.820
 7517SOL     OW23449   1.608   2.507   7.001
 7517SOL    HW123450   1.651   2.581   6.950
 7517SOL    HW223451   1.601   2.426   6.943
 7518SOL     OW23452   5.284   3.525   3.198
 7518SOL    HW123453   5.223   3.552   3.273
 7518SOL    HW223454   5.229   3.495   3.120
 7519SOL     OW23455   5.473   6.937   4.379
 7519SOL    HW123456   5.442   6.865   4.441
 7519SOL    HW223457   5.442   6.915   4.286
 7520SOL     OW23458   1.305   0.870   2.555
 7520SOL    HW123459   1.319   0.778   2.591
 7520SOL    HW223460   1.391   0.921   2.560
 7521SOL     OW23461   5.304   2.224   4.713
 7521SOL    HW123462   5.246   2.273   4.777
 7521SOL    HW223463   5.364   2.162   4.763
 7522SOL     OW23464   1.578   0.181   5.264
 7522SOL    HW123465   1.488   0.179   5.222
 7522SOL    HW223466   1.601   0.276   5.288
 7523SOL     OW23467   5.058   0.684   6.265
 7523SOL    HW123468   5.067   0.604   6.324
 7523SOL    HW223469   4.961   0.707   6.256
 7524SOL     OW23470   0.218   3.086   4.959
 7524SOL    HW123471   0.316   3.072   4.942
 7524SOL    HW223472   0.198   3.183   4.958
 7525SOL     OW23473   4.068   6.395   6.889
 7525SOL    HW123474   4.039   6.463   6.823
 7525SOL    HW223475   4.152   6.425   6.933
 7526SOL     OW23476   2.648   2.536   1.395
 7526SOL    HW123477   2.634   2.548   1.494
 7526SOL    HW223478   2.720   2.468   1.379
 7527SOL     OW23479   3.315   5.685   3.624
 7527SOL    HW123480   3.353   5.605   3.670
 7527SOL    HW223481   3.376   5.714   3.550
 7528SOL     OW23482   5.536   2.215   6.822
 7528SOL    HW123483   5.590   2.272   6.884
 7528SOL    HW223484   5.491   2.273   6.754
 7529SOL     OW23485   5.050   2.085   4.256
 7529SOL    HW123486   5.130   2.038   4.293
 7529SOL    HW223487   5.003   2.135   4.329
 7530SOL     OW23488   6.094   1.867   2.090
 7530SOL    HW123489   6.049   1.951   2.119
 7530SOL    HW223490   6.189   1.867   2.122
 7531SOL     OW23491   4.866   3.090   3.095
 7531SOL    HW123492   4.818   3.020   3.043
 7531SOL    HW223493   4.826   3.180   3.076
 7532SOL     OW23494   5.259   6.410   6.794
 7532SOL    HW123495   5.290   6.380   6.704
 7532SOL    HW223496   5.207   6.495   6.785
 7533SOL     OW23497   4.216   1.976   1.669
 7533SOL    HW123498   4.224   2.019   1.759
 7533SOL    HW223499   4.123   1.944   1.655
 7534SOL     OW23500   4.505   5.595   4.180
 7534SOL    HW123501   4.542   5.504   4.197
 7534SOL    HW223502   4.452   5.624   4.260
 7535SOL     OW23503   1.709   6.268   4.637
 7535SOL    HW123504   1.722   6.343   4.573
 7535SOL    HW223505   1.764   6.283   4.719
 7536SOL     OW23506   5.413   6.146   4.250
 7536SOL    HW123507   5.426   6.130   4.347
 7536SOL    HW223508   5.501   6.134   4.202
 7537SOL     OW23509   2.045   4.819   1.992
 7537SOL    HW123510   2.121   4.786   1.935
 7537SOL    HW223511   1.982   4.744   2.009
 7538SOL     OW23512   1.538   2.893   1.997
 7538SOL    HW123513   1.529   2.960   2.070
 7538SOL    HW223514   1.632   2.894   1.962
 7539SOL     OW23515   1.045   4.816   3.438
 7539SOL    HW123516   0.957   4.811   3.391
 7539SOL    HW223517   1.036   4.775   3.529
 7540SOL     OW23518   4.458   6.271   4.594
 7540SOL    HW123519   4.499   6.360   4.613
 7540SOL    HW223520   4.372   6.283   4.545
 7541SOL     OW23521   0.863   4.202   6.129
 7541SOL    HW123522   0.839   4.294   6.097
 7541SOL    HW223523   0.791   4.138   6.100
 7542SOL     OW23524   6.674   5.784   6.199
 7542SOL    HW123525   6.684   5.882   6.180
 7542SOL    HW223526   6.626   5.740   6.123
 7543SOL     OW23527   2.735   0.681   4.829
 7543SOL    HW123528   2.641   0.649   4.843
 7543SOL    HW223529   2.797   0.628   4.886
 7544SOL     OW23530   0.280   2.742   4.274
 7544SOL    HW123531   0.283   2.825   4.217
 7544SOL    HW223532   0.328   2.760   4.360
 7545SOL     OW23533   0.175   6.493   6.169
 7545SOL    HW123534   0.094   6.510   6.113
 7545SOL    HW223535   0.187   6.394   6.181
 7546SOL     OW23536   4.819   2.271   1.337
 7546SOL    HW123537   4.893   2.223   1.384
 7546SOL    HW223538   4.817   2.366   1.368
 7547SOL     OW23539   4.682   0.927   1.083
 7547SOL    HW123540   4.727   0.838   1.082
 7547SOL    HW223541   4.668   0.956   1.177
 7548SOL     OW23542   4.487   2.496   6.920
 7548SOL    HW123543   4.525   2.404   6.930
 7548SOL    HW223544   4.437   2.502   6.834
 7549SOL     OW23545   3.877   2.808   6.958
 7549SOL    HW123546   3.879   2.708   6.952
 7549SOL    HW223547   3.947   2.839   7.022
 7550SOL     OW23548   1.832   4.648   3.603
 7550SOL    HW123549   1.881   4.727   3.640
 7550SOL    HW223550   1.811   4.585   3.677
 7551SOL     OW23551   5.227   3.103   5.128
 7551SOL    HW123552   5.270   3.192   5.115
 7551SOL    HW223553   5.295   3.030   5.114
 7552SOL     OW23554   1.444   5.844   4.327
 7552SOL    HW123555   1.511   5.793   4.380
 7552SOL    HW223556   1.401   5.913   4.385
 7553SOL     OW23557   5.414   6.539   5.977
 7553SOL    HW123558   5.373   6.610   6.034
 7553SOL    HW223559   5.423   6.454   6.029
 7554SOL     OW23560   4.889   0.613   0.249
 7554SOL    HW123561   4.843   0.698   0.274
 7554SOL    HW223562   4.925   0.621   0.156
 7555SOL     OW23563   3.709   5.657   6.398
 7555SOL    HW123564   3.784   5.681   6.459
 7555SOL    HW223565   3.633   5.620   6.451
 7556SOL     OW23566   1.798   1.299   0.272
 7556SOL    HW123567   1.871   1.344   0.220
 7556SOL    HW223568   1.816   1.310   0.370
 7557SOL     OW23569   4.873   0.248   0.110
 7557SOL    HW123570   4.844   0.271   0.017
 7557SOL    HW223571   4.969   0.272   0.122
 7558SOL     OW23572   1.888   3.049   3.621
 7558SOL    HW123573   1.897   2.980   3.550
 7558SOL    HW223574   1.928   3.135   3.589
 7559SOL     OW23575   3.966   2.190   5.362
 7559SOL    HW123576   3.978   2.147   5.451
 7559SOL    HW223577   4.013   2.278   5.360
 7560SOL     OW23578   6.714   0.439   6.883
 7560SOL    HW123579   6.780   0.398   6.946
 7560SOL    HW223580   6.746   0.529   6.855
 7561SOL     OW23581   5.661   3.344   5.552
 7561SOL    HW123582   5.692   3.306   5.640
 7561SOL    HW223583   5.636   3.440   5.565
 7562SOL     OW23584   0.443   4.635   4.912
 7562SOL    HW123585   0.519   4.670   4.967
 7562SOL    HW223586   0.449   4.673   4.820
 7563SOL     OW23587   2.648   6.342   2.484
 7563SOL    HW123588   2.579   6.385   2.542
 7563SOL    HW223589   2.691   6.266   2.533
 7564SOL     OW23590   4.093   0.396   5.055
 7564SOL    HW123591   4.165   0.413   4.988
 7564SOL    HW223592   4.044   0.482   5.074
 7565SOL     OW23593   5.632   4.392   5.538
 7565SOL    HW123594   5.637   4.453   5.618
 7565SOL    HW223595   5.650   4.445   5.455
 7566SOL     OW23596   5.610   5.170   2.501
 7566SOL    HW123597   5.649   5.079   2.517
 7566SOL    HW223598   5.662   5.217   2.430
 7567SOL     OW23599   1.018   0.717   4.849
 7567SOL    HW123600   0.994   0.646   4.783
 7567SOL    HW223601   1.008   0.807   4.807
 7568SOL     OW23602   5.410   5.045   1.604
 7568SOL    HW123603   5.324   5.088   1.577
 7568SOL    HW223604   5.485   5.087   1.553
 7569SOL     OW23605   4.512   4.092   6.374
 7569SOL    HW123606   4.421   4.066   6.341
 7569SOL    HW223607   4.569   4.010   6.383
 7570SOL     OW23608   6.849   3.224   4.503
 7570SOL    HW123609   6.811   3.209   4.595
 7570SOL    HW223610   6.800   3.166   4.438
 7571SOL     OW23611   5.473   3.629   2.985
 7571SOL    HW123612   5.445   3.593   3.074
 7571SOL    HW223613   5.482   3.555   2.919
 7572SOL     OW23614   5.022   6.757   3.109
 7572SOL    HW123615   4.948   6.785   3.170
 7572SOL    HW223616   5.053   6.666   3.134
 7573SOL     OW23617   6.418   0.504   5.550
 7573SOL    HW123618   6.397   0.407   5.564
 7573SOL    HW223619   6.347   0.545   5.493
 7574SOL     OW23620   6.212   1.283   4.464
 7574SOL    HW123621   6.136   1.239   4.417
 7574SOL    HW223622   6.182   1.371   4.501
 7575SOL     OW23623   5.993   6.406   0.286
 7575SOL    HW123624   6.062   6.334   0.278
 7575SOL    HW223625   6.011   6.461   0.367
 7576SOL     OW23626   5.105   2.240   0.129
 7576SOL    HW123627   5.125   2.176   0.204
 7576SOL    HW223628   5.015   2.280   0.142
 7577SOL     OW23629   6.976   6.682   0.280
 7577SOL    HW123630   0.047   6.653   0.278
 7577SOL    HW223631   6.949   6.699   0.374
 7578SOL     OW23632   1.473   5.287   2.402
 7578SOL    HW123633   1.526   5.202   2.403
 7578SOL    HW223634   1.375   5.266   2.398
 7579SOL     OW23635   6.944   1.884   1.447
 7579SOL    HW123636   0.019   1.891   1.448
 7579SOL    HW223637   6.904   1.974   1.464
 7580SOL     OW23638   1.311   4.778   3.410
 7580SOL    HW123639   1.216   4.790   3.436
 7580SOL    HW223640   1.322   4.798   3.312
 7581SOL     OW23641   0.360   1.153   1.563
 7581SOL    HW123642   0.420   1.233   1.566
 7581SOL    HW223643   0.323   1.142   1.471
 7582SOL     OW23644   4.434   1.591   3.576
 7582SOL    HW123645   4.462   1.680   3.540
 7582SOL    HW223646   4.345   1.600   3.620
 7583SOL     OW23647   5.446   3.429   2.768
 7583SOL    HW123648   5.535   3.386   2.758
 7583SOL    HW223649   5.420   3.472   2.681
 7584SOL     OW23650   1.135   6.671   2.458
 7584SOL    HW123651   1.111   6.761   2.421
 7584SOL    HW223652   1.135   6.674   2.558
 7585SOL     OW23653   1.013   2.014   6.676
 7585SOL    HW123654   0.914   1.998   6.670
 7585SOL    HW223655   1.034   2.106   6.644
 7586SOL     OW23656   1.879   6.998   2.980
 7586SOL    HW123657   1.911   0.043   2.915
 7586SOL    HW223658   1.800   0.009   3.030
 7587SOL     OW23659   2.420   1.324   0.136
 7587SOL    HW123660   2.356   1.248   0.149
 7587SOL    HW223661   2.369   1.410   0.136
 7588SOL     OW23662   1.458   3.112   4.030
 7588SOL    HW123663   1.506   3.195   4.001
 7588SOL    HW223664   1.508   3.069   4.105
 7589SOL     OW23665   6.855   1.150   3.114
 7589SOL    HW123666   6.806   1.218   3.059
 7589SOL    HW223667   6.923   1.104   3.058
 7590SOL     OW23668   6.351   1.099   6.858
 7590SOL    HW123669   6.259   1.127   6.883
 7590SOL    HW223670   6.415   1.172   6.881
 7591SOL     OW23671   4.774   3.481   6.332
 7591SOL    HW123672   4.852   3.535   6.364
 7591SOL    HW223673   4.806   3.390   6.305
 7592SOL     OW23674   6.353   4.787   4.672
 7592SOL    HW123675   6.424   4.851   4.701
 7592SOL    HW223676   6.395   4.717   4.614
 7593SOL     OW23677   0.048   2.409   6.888
 7593SOL    HW123678   0.049   2.312   6.864
 7593SOL    HW223679   0.099   2.423   6.973
 7594SOL     OW23680   0.795   4.617   1.685
 7594SOL    HW123681   0.827   4.526   1.660
 7594SOL    HW223682   0.695   4.619   1.683
 7595SOL     OW23683   6.360   3.388   6.586
 7595SOL    HW123684   6.299   3.313   6.612
 7595SOL    HW223685   6.342   3.414   6.491
 7596SOL     OW23686   3.094   6.626   4.564
 7596SOL    HW123687   3.177   6.678   4.541
 7596SOL    HW223688   3.015   6.667   4.518
 7597SOL     OW23689   1.799   6.726   3.144
 7597SOL    HW123690   1.709   6.768   3.154
 7597SOL    HW223691   1.827   6.729   3.048
 7598SOL     OW23692   5.942   0.424   2.807
 7598SOL    HW123693   5.939   0.340   2.754
 7598SOL    HW223694   6.010   0.486   2.768
 7599SOL     OW23695   5.458   3.079   0.886
 7599SOL    HW123696   5.544   3.128   0.869
 7599SOL    HW223697   5.457   2.995   0.832
 7600SOL     OW23698   1.303   0.677   3.426
 7600SOL    HW123699   1.328   0.596   3.373
 7600SOL    HW223700   1.264   0.649   3.514
 7601SOL     OW23701   2.787   5.032   2.386
 7601SOL    HW123702   2.767   5.130   2.390
 7601SOL    HW223703   2.882   5.018   2.359
 7602SOL     OW23704   0.636   2.656   0.592
 7602SOL    HW123705   0.735   2.665   0.581
 7602SOL    HW223706   0.602   2.585   0.530
 7603SOL     OW23707   1.924   6.563   5.747
 7603SOL    HW123708   1.925   6.628   5.823
 7603SOL    HW223709   1.989   6.489   5.765
 7604SOL     OW23710   1.652   1.800   5.221
 7604SOL    HW123711   1.691   1.813   5.130
 7604SOL    HW223712   1.700   1.859   5.286
 7605SOL     OW23713   1.043   0.674   0.721
 7605SOL    HW123714   0.981   0.732   0.776
 7605SOL    HW223715   1.080   0.602   0.779
 7606SOL     OW23716   5.430   2.911   5.125
 7606SOL    HW123717   5.494   2.844   5.086
 7606SOL    HW223718   5.432   2.904   5.225
 7607SOL     OW23719   3.394   5.251   0.600
 7607SOL    HW123720   3.434   5.339   0.574
 7607SOL    HW223721   3.380   5.196   0.518
 7608SOL     OW23722   4.889   2.392   6.578
 7608SOL    HW123723   4.934   2.437   6.655
 7608SOL    HW223724   4.906   2.294   6.581
 7609SOL     OW23725   0.580   3.848   3.766
 7609SOL    HW123726   0.662   3.835   3.822
 7609SOL    HW223727   0.503   3.802   3.810
 7610SOL     OW23728   4.183   4.981   5.894
 7610SOL    HW123729   4.173   5.048   5.968
 7610SOL    HW223730   4.114   4.909   5.904
 7611SOL     OW23731   5.216   3.751   1.265
 7611SOL    HW123732   5.281   3.687   1.308
 7611SOL    HW223733   5.217   3.738   1.166
 7612SOL     OW23734   4.170   2.141   3.078
 7612SOL    HW123735   4.173   2.219   3.016
 7612SOL    HW223736   4.263   2.110   3.098
 7613SOL     OW23737   0.590   1.871   1.912
 7613SOL    HW123738   0.594   1.832   1.820
 7613SOL    HW223739   0.635   1.809   1.977
 7614SOL     OW23740   5.625   3.691   1.285
 7614SOL    HW123741   5.652   3.782   1.315
 7614SOL    HW223742   5.689   3.658   1.215
 7615SOL     OW23743   4.820   4.183   5.710
 7615SOL    HW123744   4.740   4.124   5.720
 7615SOL    HW223745   4.884   4.143   5.646
 7616SOL     OW23746   6.567   0.395   3.732
 7616SOL    HW123747   6.487   0.358   3.779
 7616SOL    HW223748   6.615   0.321   3.685
 7617SOL     OW23749   5.496   5.659   3.064
 7617SOL    HW123750   5.466   5.588   3.000
 7617SOL    HW223751   5.444   5.651   3.149
 7618SOL     OW23752   1.279   2.279   0.173
 7618SOL    HW123753   1.239   2.271   0.082
 7618SOL    HW223754   1.371   2.317   0.165
 7619SOL     OW23755   6.834   2.468   4.569
 7619SOL    HW123756   6.752   2.457   4.625
 7619SOL    HW223757   6.867   2.562   4.576
 7620SOL     OW23758   3.661   4.866   0.877
 7620SOL    HW123759   3.726   4.834   0.808
 7620SOL    HW223760   3.613   4.947   0.843
 7621SOL     OW23761   0.488   6.891   0.972
 7621SOL    HW123762   0.542   6.973   0.991
 7621SOL    HW223763   0.514   6.855   0.882
 7622SOL     OW23764   4.543   4.747   6.468
 7622SOL    HW123765   4.449   4.734   6.439
 7622SOL    HW223766   4.546   4.759   6.567
 7623SOL     OW23767   4.130   4.445   0.615
 7623SOL    HW123768   4.115   4.536   0.577
 7623SOL    HW223769   4.119   4.377   0.542
 7624SOL     OW23770   6.515   2.917   3.214
 7624SOL    HW123771   6.544   2.926   3.309
 7624SOL    HW223772   6.463   2.832   3.203
 7625SOL     OW23773   5.768   2.322   6.941
 7625SOL    HW123774   5.810   2.272   7.016
 7625SOL    HW223775   5.761   2.419   6.965
 7626SOL     OW23776   6.595   0.831   6.257
 7626SOL    HW123777   6.586   0.908   6.320
 7626SOL    HW223778   6.580   0.862   6.163
 7627SOL     OW23779   2.894   1.771   0.528
 7627SOL    HW123780   2.799   1.750   0.551
 7627SOL    HW223781   2.902   1.866   0.500
 7628SOL     OW23782   3.979   2.830   1.451
 7628SOL    HW123783   3.956   2.753   1.509
 7628SOL    HW223784   4.078   2.832   1.436
 7629SOL     OW23785   6.641   4.242   3.549
 7629SOL    HW123786   6.545   4.260   3.530
 7629SOL    HW223787   6.682   4.323   3.592
 7630SOL     OW23788   0.919   0.411   6.067
 7630SOL    HW123789   0.985   0.362   6.010
 7630SOL    HW223790   0.914   0.367   6.157
 7631SOL     OW23791   1.463   1.213   5.575
 7631SOL    HW123792   1.533   1.156   5.618
 7631SOL    HW223793   1.492   1.236   5.482
 7632SOL     OW23794   3.996   4.927   1.224
 7632SOL    HW123795   4.051   4.882   1.153
 7632SOL    HW223796   3.979   4.863   1.299
 7633SOL     OW23797   5.457   0.751   1.769
 7633SOL    HW123798   5.364   0.716   1.778
 7633SOL    HW223799   5.514   0.685   1.720
 7634SOL     OW23800   1.021   1.350   1.802
 7634SOL    HW123801   1.117   1.374   1.806
 7634SOL    HW223802   0.995   1.334   1.707
 7635SOL     OW23803   2.668   5.273   4.543
 7635SOL    HW123804   2.584   5.321   4.516
 7635SOL    HW223805   2.727   5.336   4.593
 7636SOL     OW23806   0.825   3.877   4.095
 7636SOL    HW123807   0.803   3.907   4.188
 7636SOL    HW223808   0.829   3.777   4.093
 7637SOL     OW23809   0.803   6.535   2.793
 7637SOL    HW123810   0.741   6.548   2.871
 7637SOL    HW223811   0.750   6.536   2.708
 7638SOL     OW23812   1.312   5.523   1.941
 7638SOL    HW123813   1.315   5.572   1.853
 7638SOL    HW223814   1.405   5.501   1.970
 7639SOL     OW23815   0.098   1.097   0.756
 7639SOL    HW123816   0.023   1.054   0.807
 7639SOL    HW223817   0.078   1.095   0.659
 7640SOL     OW23818   3.142   2.524   6.865
 7640SOL    HW123819   3.087   2.607   6.873
 7640SOL    HW223820   3.082   2.444   6.865
 7641SOL     OW23821   0.165   4.540   2.966
 7641SOL    HW123822   0.113   4.478   3.024
 7641SOL    HW223823   0.235   4.586   3.021
 7642SOL     OW23824   5.835   1.032   2.763
 7642SOL    HW123825   5.912   0.991   2.812
 7642SOL    HW223826   5.780   0.960   2.721
 7643SOL     OW23827   5.578   1.609   2.347
 7643SOL    HW123828   5.589   1.680   2.277
 7643SOL    HW223829   5.490   1.620   2.393
 7644SOL     OW23830   4.759   2.837   2.243
 7644SOL    HW123831   4.686   2.769   2.239
 7644SOL    HW223832   4.761   2.888   2.157
 7645SOL     OW23833   4.130   3.179   5.478
 7645SOL    HW123834   4.051   3.186   5.417
 7645SOL    HW223835   4.212   3.211   5.431
 7646SOL     OW23836   0.549   2.773   3.300
 7646SOL    HW123837   0.577   2.680   3.324
 7646SOL    HW223838   0.541   2.828   3.384
 7647SOL     OW23839   0.602   2.967   4.395
 7647SOL    HW123840   0.642   2.913   4.322
 7647SOL    HW223841   0.641   2.940   4.483
 7648SOL     OW23842   2.300   1.268   2.167
 7648SOL    HW123843   2.394   1.235   2.170
 7648SOL    HW223844   2.267   1.284   2.260
 7649SOL     OW23845   1.370   1.327   4.663
 7649SOL    HW123846   1.438   1.266   4.623
 7649SOL    HW223847   1.377   1.417   4.619
 7650SOL     OW23848   5.376   1.177   1.409
 7650SOL    HW123849   5.342   1.084   1.416
 7650SOL    HW223850   5.416   1.192   1.319
 7651SOL     OW23851   2.446   5.409   4.421
 7651SOL    HW123852   2.389   5.482   4.457
 7651SOL    HW223853   2.390   5.328   4.404
 7652SOL     OW23854   5.795   2.767   5.271
 7652SOL    HW123855   5.793   2.811   5.360
 7652SOL    HW223856   5.793   2.836   5.199
 7653SOL     OW23857   1.271   1.353   0.193
 7653SOL    HW123858   1.329   1.341   0.274
 7653SOL    HW223859   1.302   1.293   0.120
 7654SOL     OW23860   5.401   3.331   5.051
 7654SOL    HW123861   5.470   3.398   5.023
 7654SOL    HW223862   5.320   3.379   5.084
 7655SOL     OW23863   3.651   6.932   3.702
 7655SOL    HW123864   3.716   7.000   3.734
 7655SOL    HW223865   3.561   6.974   3.690
 7656SOL     OW23866   5.546   3.124   6.019
 7656SOL    HW123867   5.545   3.024   6.019
 7656SOL    HW223868   5.459   3.159   5.986
 7657SOL     OW23869   1.924   3.033   3.885
 7657SOL    HW123870   1.898   3.044   3.789
 7657SOL    HW223871   1.841   3.029   3.941
 7658SOL     OW23872   3.304   0.404   0.955
 7658SOL    HW123873   3.280   0.412   0.858
 7658SOL    HW223874   3.368   0.477   0.979
 7659SOL     OW23875   4.983   4.290   6.807
 7659SOL    HW123876   5.020   4.322   6.895
 7659SOL    HW223877   4.920   4.358   6.771
 7660SOL     OW23878   6.248   5.417   4.839
 7660SOL    HW123879   6.327   5.466   4.875
 7660SOL    HW223880   6.223   5.456   4.750
 7661SOL     OW23881   4.362   2.103   5.808
 7661SOL    HW123882   4.452   2.138   5.833
 7661SOL    HW223883   4.310   2.175   5.762
 7662SOL     OW23884   0.678   2.545   3.337
 7662SOL    HW123885   0.706   2.590   3.422
 7662SOL    HW223886   0.726   2.458   3.328
 7663SOL     OW23887   4.683   5.673   6.555
 7663SOL    HW123888   4.713   5.664   6.460
 7663SOL    HW223889   4.624   5.753   6.563
 7664SOL     OW23890   3.631   1.314   3.220
 7664SOL    HW123891   3.535   1.334   3.238
 7664SOL    HW223892   3.665   1.249   3.287
 7665SOL     OW23893   5.771   1.487   4.205
 7665SOL    HW123894   5.853   1.473   4.149
 7665SOL    HW223895   5.725   1.571   4.175
 7666SOL     OW23896   6.650   5.676   4.206
 7666SOL    HW123897   6.667   5.605   4.137
 7666SOL    HW223898   6.737   5.711   4.240
 7667SOL     OW23899   4.363   0.578   2.644
 7667SOL    HW123900   4.319   0.490   2.627
 7667SOL    HW223901   4.420   0.602   2.565
 7668SOL     OW23902   2.884   4.667   0.506
 7668SOL    HW123903   2.975   4.628   0.516
 7668SOL    HW223904   2.869   4.735   0.579
 7669SOL     OW23905   4.281   1.257   5.611
 7669SOL    HW123906   4.262   1.180   5.671
 7669SOL    HW223907   4.378   1.257   5.586
 7670SOL     OW23908   0.699   6.375   1.020
 7670SOL    HW123909   0.623   6.425   1.062
 7670SOL    HW223910   0.664   6.291   0.979
 7671SOL     OW23911   5.243   6.787   2.367
 7671SOL    HW123912   5.288   6.700   2.384
 7671SOL    HW223913   5.145   6.774   2.357
 7672SOL     OW23914   6.887   5.242   3.026
 7672SOL    HW123915   6.837   5.328   3.029
 7672SOL    HW223916   6.831   5.168   3.063
 7673SOL     OW23917   1.616   5.782   2.362
 7673SOL    HW123918   1.538   5.826   2.317
 7673SOL    HW223919   1.694   5.781   2.299
 7674SOL     OW23920   4.132   0.518   4.048
 7674SOL    HW123921   4.058   0.451   4.052
 7674SOL    HW223922   4.180   0.520   4.136
 7675SOL     OW23923   4.135   6.801   3.485
 7675SOL    HW123924   4.072   6.863   3.531
 7675SOL    HW223925   4.083   6.734   3.431
 7676SOL     OW23926   2.667   2.223   5.944
 7676SOL    HW123927   2.650   2.263   5.854
 7676SOL    HW223928   2.735   2.277   5.993
 7677SOL     OW23929   0.589   4.377   0.800
 7677SOL    HW123930   0.555   4.312   0.732
 7677SOL    HW223931   0.607   4.465   0.755
 7678SOL     OW23932   1.898   2.692   5.227
 7678SOL    HW123933   1.887   2.593   5.231
 7678SOL    HW223934   1.991   2.717   5.256
 7679SOL     OW23935   2.275   5.626   5.259
 7679SOL    HW123936   2.308   5.576   5.178
 7679SOL    HW223937   2.192   5.676   5.236
 7680SOL     OW23938   1.669   0.053   6.117
 7680SOL    HW123939   1.741   0.053   6.047
 7680SOL    HW223940   1.622   0.141   6.117
 7681SOL     OW23941   2.509   1.860   6.837
 7681SOL    HW123942   2.506   1.903   6.747
 7681SOL    HW223943   2.517   1.761   6.827
 7682SOL     OW23944   4.037   1.965   2.492
 7682SOL    HW123945   3.942   1.935   2.494
 7682SOL    HW223946   4.095   1.891   2.459
 7683SOL     OW23947   0.937   1.495   4.906
 7683SOL    HW123948   0.973   1.571   4.959
 7683SOL    HW223949   0.844   1.473   4.937
 7684SOL     OW23950   4.396   2.357   1.873
 7684SOL    HW123951   4.324   2.292   1.898
 7684SOL    HW223952   4.458   2.368   1.950
 7685SOL     OW23953   3.561   1.835   6.937
 7685SOL    HW123954   3.592   1.742   6.956
 7685SOL    HW223955   3.641   1.895   6.931
 7686SOL     OW23956   5.364   6.737   4.539
 7686SOL    HW123957   5.390   6.645   4.508
 7686SOL    HW223958   5.270   6.756   4.510
 7687SOL     OW23959   5.013   5.296   5.342
 7687SOL    HW123960   5.036   5.209   5.385
 7687SOL    HW223961   4.940   5.341   5.392
 7688SOL     OW23962   0.056   6.004   6.039
 7688SOL    HW123963   0.119   5.980   6.113
 7688SOL    HW223964   0.065   5.938   5.964
 7689SOL     OW23965   4.814   0.309   2.323
 7689SOL    HW123966   4.867   0.284   2.241
 7689SOL    HW223967   4.829   0.405   2.344
 7690SOL     OW23968   5.224   5.051   0.386
 7690SOL    HW123969   5.218   5.013   0.478
 7690SOL    HW223970   5.217   5.150   0.391
 7691SOL     OW23971   4.643   4.744   2.064
 7691SOL    HW123972   4.596   4.735   2.152
 7691SOL    HW223973   4.706   4.668   2.051
 7692SOL     OW23974   0.521   6.240   1.825
 7692SOL    HW123975   0.539   6.170   1.894
 7692SOL    HW223976   0.605   6.257   1.773
 7693SOL     OW23977   3.240   0.160   1.665
 7693SOL    HW123978   3.254   0.216   1.583
 7693SOL    HW223979   3.188   0.078   1.640
 7694SOL     OW23980   5.838   2.138   4.556
 7694SOL    HW123981   5.874   2.137   4.463
 7694SOL    HW223982   5.883   2.067   4.610
 7695SOL     OW23983   5.425   1.030   1.995
 7695SOL    HW123984   5.511   0.989   2.028
 7695SOL    HW223985   5.356   0.958   1.986
 7696SOL     OW23986   0.606   1.308   6.096
 7696SOL    HW123987   0.587   1.355   6.010
 7696SOL    HW223988   0.619   1.375   6.169
 7697SOL     OW23989   3.235   0.595   2.676
 7697SOL    HW123990   3.285   0.667   2.629
 7697SOL    HW223991   3.156   0.634   2.724
 7698SOL     OW23992   6.745   2.117   5.638
 7698SOL    HW123993   6.649   2.090   5.641
 7698SOL    HW223994   6.753   2.210   5.602
 7699SOL     OW23995   2.402   5.345   6.809
 7699SOL    HW123996   2.434   5.279   6.741
 7699SOL    HW223997   2.383   5.432   6.764
 7700SOL     OW23998   4.315   6.491   2.967
 7700SOL    HW123999   4.275   6.546   3.040
 7700SOL    HW224000   4.410   6.469   2.990
 7701SOL     OW24001   6.939   1.635   6.006
 7701SOL    HW124002   6.986   1.563   5.955
 7701SOL    HW224003   6.987   1.721   5.993
 7702SOL     OW24004   4.105   6.069   5.216
 7702SOL    HW124005   4.153   6.034   5.297
 7702SOL    HW224006   4.148   6.154   5.186
 7703SOL     OW24007   6.610   6.728   5.285
 7703SOL    HW124008   6.642   6.705   5.193
 7703SOL    HW224009   6.545   6.659   5.316
 7704SOL     OW24010   6.280   1.977   4.241
 7704SOL    HW124011   6.243   2.068   4.258
 7704SOL    HW224012   6.219   1.908   4.280
 7705SOL     OW24013   2.572   4.979   0.732
 7705SOL    HW124014   2.650   4.931   0.772
 7705SOL    HW224015   2.580   4.980   0.633
 7706SOL     OW24016   3.447   2.977   2.913
 7706SOL    HW124017   3.364   2.967   2.859
 7706SOL    HW224018   3.462   3.073   2.934
 7707SOL     OW24019   0.220   4.923   6.530
 7707SOL    HW124020   0.231   4.861   6.607
 7707SOL    HW224021   0.128   4.914   6.492
 7708SOL     OW24022   1.595   6.931   4.051
 7708SOL    HW124023   1.564   6.891   3.965
 7708SOL    HW224024   1.688   6.900   4.072
 7709SOL     OW24025   6.640   5.187   1.318
 7709SOL    HW124026   6.641   5.213   1.222
 7709SOL    HW224027   6.731   5.159   1.347
 7710SOL     OW24028   2.374   2.270   0.965
 7710SOL    HW124029   2.287   2.222   0.978
 7710SOL    HW224030   2.357   2.368   0.954
 7711SOL     OW24031   6.683   5.878   5.741
 7711SOL    HW124032   6.739   5.796   5.756
 7711SOL    HW224033   6.654   5.915   5.830
 7712SOL     OW24034   6.159   4.914   0.000
 7712SOL    HW124035   6.162   4.956   6.934
 7712SOL    HW224036   6.067   4.883   0.020
 7713SOL     OW24037   2.018   4.182   0.938
 7713SOL    HW124038   1.919   4.184   0.924
 7713SOL    HW224039   2.058   4.107   0.885
 7714SOL     OW24040   0.420   6.819   5.269
 7714SOL    HW124041   0.499   6.795   5.213
 7714SOL    HW224042   0.340   6.832   5.211
 7715SOL     OW24043   2.321   1.869   6.580
 7715SOL    HW124044   2.378   1.951   6.583
 7715SOL    HW224045   2.311   1.839   6.485
 7716SOL     OW24046   6.720   5.105   6.554
 7716SOL    HW124047   6.653   5.134   6.623
 7716SOL    HW224048   6.724   5.005   6.552
 7717SOL     OW24049   1.380   1.800   5.270
 7717SOL    HW124050   1.480   1.801   5.269
 7717SOL    HW224051   1.348   1.783   5.364
 7718SOL     OW24052   0.014   4.376   3.114
 7718SOL    HW124053   6.942   4.377   3.085
 7718SOL    HW224054   0.052   4.286   3.096
 7719SOL     OW24055   1.186   4.104   4.775
 7719SOL    HW124056   1.121   4.053   4.831
 7719SOL    HW224057   1.280   4.080   4.802
 7720SOL     OW24058   6.416   2.089   6.023
 7720SOL    HW124059   6.362   2.128   6.098
 7720SOL    HW224060   6.379   2.119   5.936
 7721SOL     OW24061   1.224   0.418   2.212
 7721SOL    HW124062   1.150   0.385   2.271
 7721SOL    HW224063   1.193   0.497   2.160
 7722SOL     OW24064   1.958   5.439   4.135
 7722SOL    HW124065   1.938   5.488   4.050
 7722SOL    HW224066   1.990   5.347   4.114
 7723SOL     OW24067   4.973   3.663   6.377
 7723SOL    HW124068   5.060   3.688   6.335
 7723SOL    HW224069   4.916   3.744   6.387
 7724SOL     OW24070   3.439   4.119   0.403
 7724SOL    HW124071   3.429   4.051   0.475
 7724SOL    HW224072   3.508   4.186   0.429
 7725SOL     OW24073   5.985   2.593   2.589
 7725SOL    HW124074   5.941   2.535   2.658
 7725SOL    HW224075   5.961   2.561   2.498
 7726SOL     OW24076   0.715   2.875   5.981
 7726SOL    HW124077   0.764   2.819   6.048
 7726SOL    HW224078   0.719   2.832   5.891
 7727SOL     OW24079   6.475   2.806   1.633
 7727SOL    HW124080   6.375   2.803   1.633
 7727SOL    HW224081   6.510   2.742   1.565
 7728SOL     OW24082   2.174   2.801   5.240
 7728SOL    HW124083   2.193   2.886   5.192
 7728SOL    HW224084   2.248   2.736   5.223
 7729SOL     OW24085   6.281   1.775   1.814
 7729SOL    HW124086   6.231   1.693   1.786
 7729SOL    HW224087   6.369   1.778   1.767
 7730SOL     OW24088   5.859   4.665   4.983
 7730SOL    HW124089   5.802   4.652   4.902
 7730SOL    HW224090   5.919   4.744   4.970
 7731SOL     OW24091   6.151   6.925   0.676
 7731SOL    HW124092   6.114   6.850   0.731
 7731SOL    HW224093   6.140   7.011   0.724
 7732SOL     OW24094   4.267   0.511   7.022
 7732SOL    HW124095   4.198   0.583   0.006
 7732SOL    HW224096   4.242   0.450   6.946
 7733SOL     OW24097   6.116   5.798   2.577
 7733SOL    HW124098   6.178   5.743   2.632
 7733SOL    HW224099   6.026   5.755   2.575
 7734SOL     OW24100   2.427   4.709   4.806
 7734SOL    HW124101   2.482   4.773   4.753
 7734SOL    HW224102   2.470   4.692   4.894
 7735SOL     OW24103   6.202   5.982   0.078
 7735SOL    HW124104   6.237   5.987   7.009
 7735SOL    HW224105   6.257   5.918   0.131
 7736SOL     OW24106   2.434   3.158   0.445
 7736SOL    HW124107   2.356   3.120   0.496
 7736SOL    HW224108   2.503   3.191   0.510
 7737SOL     OW24109   3.307   5.305   1.798
 7737SOL    HW124110   3.349   5.227   1.752
 7737SOL    HW224111   3.208   5.302   1.785
 7738SOL     OW24112   2.155   6.064   6.708
 7738SOL    HW124113   2.191   6.076   6.616
 7738SOL    HW224114   2.073   6.119   6.720
 7739SOL     OW24115   1.408   2.140   2.013
 7739SOL    HW124116   1.456   2.218   1.972
 7739SOL    HW224117   1.475   2.073   2.043
 7740SOL     OW24118   1.997   1.066   2.404
 7740SOL    HW124119   2.004   1.043   2.501
 7740SOL    HW224120   2.074   1.125   2.379
 7741SOL     OW24121   1.538   4.080   5.090
 7741SOL    HW124122   1.456   4.030   5.064
 7741SOL    HW224123   1.526   4.119   5.181
 7742SOL     OW24124   3.888   1.602   3.919
 7742SOL    HW124125   3.813   1.536   3.925
 7742SOL    HW224126   3.927   1.616   4.010
 7743SOL     OW24127   4.852   0.962   7.001
 7743SOL    HW124128   4.908   1.025   0.031
 7743SOL    HW224129   4.882   0.966   6.905
 7744SOL     OW24130   0.450   6.119   3.683
 7744SOL    HW124131   0.469   6.178   3.605
 7744SOL    HW224132   0.531   6.063   3.702
 7745SOL     OW24133   2.116   6.436   0.275
 7745SOL    HW124134   2.201   6.420   0.325
 7745SOL    HW224135   2.039   6.430   0.339
 7746SOL     OW24136   1.046   6.801   0.868
 7746SOL    HW124137   1.024   6.893   0.898
 7746SOL    HW224138   1.145   6.785   0.878
 7747SOL     OW24139   0.401   6.258   1.070
 7747SOL    HW124140   0.461   6.218   1.001
 7747SOL    HW224141   0.326   6.194   1.090
 7748SOL     OW24142   3.355   3.224   4.939
 7748SOL    HW124143   3.275   3.275   4.969
 7748SOL    HW224144   3.371   3.240   4.842
 7749SOL     OW24145   2.951   3.862   3.372
 7749SOL    HW124146   2.906   3.775   3.396
 7749SOL    HW224147   2.938   3.928   3.446
 7750SOL     OW24148   5.663   5.442   5.454
 7750SOL    HW124149   5.755   5.409   5.474
 7750SOL    HW224150   5.665   5.541   5.442
 7751SOL     OW24151   0.462   1.554   3.657
 7751SOL    HW124152   0.405   1.631   3.631
 7751SOL    HW224153   0.558   1.575   3.636
 7752SOL     OW24154   5.288   5.616   6.071
 7752SOL    HW124155   5.286   5.518   6.048
 7752SOL    HW224156   5.365   5.659   6.022
 7753SOL     OW24157   2.074   0.993   4.461
 7753SOL    HW124158   2.139   1.067   4.449
 7753SOL    HW224159   2.038   0.964   4.372
 7754SOL     OW24160   5.533   0.514   1.487
 7754SOL    HW124161   5.461   0.543   1.423
 7754SOL    HW224162   5.491   0.475   1.568
 7755SOL     OW24163   0.451   0.045   5.638
 7755SOL    HW124164   0.501   6.987   5.665
 7755SOL    HW224165   0.427   0.038   5.541
 7756SOL     OW24166   2.545   6.003   2.324
 7756SOL    HW124167   2.606   5.988   2.246
 7756SOL    HW224168   2.540   6.101   2.343
 7757SOL     OW24169   4.932   6.238   5.016
 7757SOL    HW124170   4.930   6.326   5.063
 7757SOL    HW224171   4.891   6.168   5.074
 7758SOL     OW24172   1.749   1.875   6.728
 7758SOL    HW124173   1.656   1.848   6.704
 7758SOL    HW224174   1.748   1.928   6.813
 7759SOL     OW24175   2.076   1.139   4.790
 7759SOL    HW124176   2.038   1.048   4.806
 7759SOL    HW224177   2.175   1.132   4.779
 7760SOL     OW24178   5.692   3.656   2.131
 7760SOL    HW124179   5.762   3.586   2.146
 7760SOL    HW224180   5.623   3.622   2.067
 7761SOL     OW24181   2.913   0.093   5.983
 7761SOL    HW124182   2.951   0.039   5.908
 7761SOL    HW224183   2.987   0.142   6.030
 7762SOL     OW24184   3.829   0.660   5.349
 7762SOL    HW124185   3.811   0.758   5.355
 7762SOL    HW224186   3.923   0.641   5.376
 7763SOL     OW24187   1.477   1.855   1.132
 7763SOL    HW124188   1.454   1.950   1.110
 7763SOL    HW224189   1.393   1.801   1.138
 7764SOL     OW24190   3.881   2.974   2.403
 7764SOL    HW124191   3.913   3.050   2.459
 7764SOL    HW224192   3.960   2.926   2.363
 7765SOL     OW24193   6.182   3.572   4.259
 7765SOL    HW124194   6.200   3.635   4.183
 7765SOL    HW224195   6.085   3.550   4.263
 7766SOL     OW24196   5.084   1.974   6.845
 7766SOL    HW124197   5.151   2.048   6.849
 7766SOL    HW224198   5.088   1.921   6.930
 7767SOL     OW24199   3.941   6.479   4.140
 7767SOL    HW124200   3.885   6.431   4.071
 7767SOL    HW224201   3.881   6.521   4.208
 7768SOL     OW24202   4.348   4.987   2.944
 7768SOL    HW124203   4.389   5.041   2.871
 7768SOL    HW224204   4.343   4.891   2.917
 7769SOL     OW24205   5.297   1.574   1.811
 7769SOL    HW124206   5.237   1.497   1.790
 7769SOL    HW224207   5.391   1.552   1.784
 7770SOL     OW24208   2.161   4.073   1.953
 7770SOL    HW124209   2.240   4.080   1.892
 7770SOL    HW224210   2.146   4.160   1.999
 7771SOL     OW24211   2.773   2.522   5.218
 7771SOL    HW124212   2.766   2.612   5.262
 7771SOL    HW224213   2.869   2.501   5.202
 7772SOL     OW24214   5.117   1.149   3.526
 7772SOL    HW124215   5.040   1.213   3.533
 7772SOL    HW224216   5.197   1.198   3.490
 7773SOL     OW24217   3.115   4.747   5.534
 7773SOL    HW124218   3.118   4.754   5.434
 7773SOL    HW224219   3.164   4.664   5.562
 7774SOL     OW24220   5.792   1.855   5.966
 7774SOL    HW124221   5.798   1.948   5.928
 7774SOL    HW224222   5.817   1.858   6.063
 7775SOL     OW24223   3.703   6.803   2.929
 7775SOL    HW124224   3.609   6.770   2.917
 7775SOL    HW224225   3.702   6.899   2.955
 7776SOL     OW24226   3.139   2.869   6.237
 7776SOL    HW124227   3.132   2.770   6.243
 7776SOL    HW224228   3.233   2.895   6.214
 7777SOL     OW24229   2.689   1.757   5.446
 7777SOL    HW124230   2.612   1.772   5.384
 7777SOL    HW224231   2.760   1.703   5.400
 7778SOL     OW24232   5.050   6.985   6.937
 7778SOL    HW124233   5.084   6.962   0.003
 7778SOL    HW224234   5.019   0.056   6.936
 7779SOL     OW24235   3.777   2.950   0.702
 7779SOL    HW124236   3.838   2.885   0.747
 7779SOL    HW224237   3.685   2.913   0.699
 7780SOL     OW24238   1.722   5.404   5.060
 7780SOL    HW124239   1.726   5.485   5.002
 7780SOL    HW224240   1.696   5.325   5.004
 7781SOL     OW24241   1.451   3.750   6.150
 7781SOL    HW124242   1.501   3.813   6.209
 7781SOL    HW224243   1.482   3.656   6.167
 7782SOL     OW24244   1.827   3.243   5.575
 7782SOL    HW124245   1.765   3.202   5.508
 7782SOL    HW224246   1.922   3.224   5.548
 7783SOL     OW24247   3.104   6.474   6.021
 7783SOL    HW124248   3.163   6.544   6.061
 7783SOL    HW224249   3.009   6.490   6.048
 7784SOL     OW24250   2.108   2.311   0.226
 7784SOL    HW124251   2.099   2.308   0.126
 7784SOL    HW224252   2.019   2.329   0.267
 7785SOL     OW24253   1.550   6.766   3.817
 7785SOL    HW124254   1.452   6.746   3.818
 7785SOL    HW224255   1.589   6.738   3.730
 7786SOL     OW24256   3.717   5.140   6.255
 7786SOL    HW124257   3.763   5.058   6.290
 7786SOL    HW224258   3.779   5.218   6.263
 7787SOL     OW24259   2.097   2.880   5.503
 7787SOL    HW124260   2.041   2.891   5.585
 7787SOL    HW224261   2.038   2.863   5.424
 7788SOL     OW24262   1.142   0.816   1.646
 7788SOL    HW124263   1.099   0.779   1.564
 7788SOL    HW224264   1.164   0.912   1.632
 7789SOL     OW24265   2.800   0.233   0.610
 7789SOL    HW124266   2.850   0.245   0.525
 7789SOL    HW224267   2.723   0.296   0.613
 7790SOL     OW24268   5.973   4.877   2.572
 7790SOL    HW124269   5.987   4.783   2.602
 7790SOL    HW224270   6.060   4.926   2.575
 7791SOL     OW24271   2.886   6.744   3.873
 7791SOL    HW124272   2.926   6.661   3.834
 7791SOL    HW224273   2.786   6.735   3.878
 7792SOL     OW24274   1.119   5.482   6.047
 7792SOL    HW124275   1.188   5.505   5.978
 7792SOL    HW224276   1.028   5.492   6.007
 7793SOL     OW24277   2.050   0.911   6.070
 7793SOL    HW124278   2.127   0.852   6.045
 7793SOL    HW224279   1.992   0.863   6.136
 7794SOL     OW24280   5.485   5.217   4.062
 7794SOL    HW124281   5.455   5.128   4.028
 7794SOL    HW224282   5.580   5.232   4.036
 7795SOL     OW24283   2.135   4.219   5.124
 7795SOL    HW124284   2.146   4.194   5.221
 7795SOL    HW224285   2.200   4.168   5.069
 7796SOL     OW24286   3.120   4.083   3.889
 7796SOL    HW124287   3.125   4.062   3.986
 7796SOL    HW224288   3.200   4.047   3.842
 7797SOL     OW24289   0.829   5.693   2.349
 7797SOL    HW124290   0.830   5.762   2.422
 7797SOL    HW224291   0.923   5.677   2.318
 7798SOL     OW24292   1.378   4.833   6.529
 7798SOL    HW124293   1.349   4.816   6.436
 7798SOL    HW224294   1.468   4.877   6.529
 7799SOL     OW24295   6.909   6.104   1.851
 7799SOL    HW124296   6.812   6.102   1.873
 7799SOL    HW224297   6.925   6.163   1.773
 7800SOL     OW24298   1.351   4.659   1.136
 7800SOL    HW124299   1.340   4.751   1.173
 7800SOL    HW224300   1.283   4.598   1.176
 7801SOL     OW24301   2.578   1.573   1.525
 7801SOL    HW124302   2.673   1.603   1.532
 7801SOL    HW224303   2.518   1.643   1.565
 7802SOL     OW24304   5.601   2.634   1.203
 7802SOL    HW124305   5.631   2.635   1.108
 7802SOL    HW224306   5.531   2.563   1.215
 7803SOL     OW24307   4.194   3.422   5.760
 7803SOL    HW124308   4.112   3.478   5.751
 7803SOL    HW224309   4.252   3.433   5.679
 7804SOL     OW24310   6.404   0.944   3.611
 7804SOL    HW124311   6.313   0.910   3.635
 7804SOL    HW224312   6.473   0.879   3.643
 7805SOL     OW24313   5.539   1.289   1.592
 7805SOL    HW124314   5.490   1.286   1.506
 7805SOL    HW224315   5.511   1.212   1.650
 7806SOL     OW24316   5.686   2.817   5.559
 7806SOL    HW124317   5.666   2.870   5.642
 7806SOL    HW224318   5.629   2.734   5.558
 7807SOL     OW24319   0.375   4.893   6.305
 7807SOL    HW124320   0.319   4.922   6.381
 7807SOL    HW224321   0.319   4.842   6.239
 7808SOL     OW24322   0.118   3.607   4.541
 7808SOL    HW124323   0.063   3.599   4.624
 7808SOL    HW224324   0.080   3.547   4.470
 7809SOL     OW24325   2.976   6.006   5.064
 7809SOL    HW124326   3.046   6.026   5.132
 7809SOL    HW224327   2.898   5.961   5.108
 7810SOL     OW24328   3.828   7.012   5.609
 7810SOL    HW124329   3.781   7.007   5.697
 7810SOL    HW224330   3.917   0.033   5.621
 7811SOL     OW24331   6.672   4.741   4.096
 7811SOL    HW124332   6.611   4.714   4.171
 7811SOL    HW224333   6.653   4.685   4.016
 7812SOL     OW24334   1.116   2.023   4.008
 7812SOL    HW124335   1.175   2.088   4.056
 7812SOL    HW224336   1.073   1.962   4.075
 7813SOL     OW24337   4.811   2.442   6.035
 7813SOL    HW124338   4.861   2.517   6.078
 7813SOL    HW224339   4.856   2.417   5.949
 7814SOL     OW24340   6.859   2.712   3.812
 7814SOL    HW124341   6.865   2.643   3.740
 7814SOL    HW224342   6.950   2.746   3.833
 7815SOL     OW24343   4.844   1.271   7.008
 7815SOL    HW124344   4.832   1.367   0.010
 7815SOL    HW224345   4.848   1.264   6.909
 7816SOL     OW24346   1.703   2.524   6.577
 7816SOL    HW124347   1.745   2.597   6.523
 7816SOL    HW224348   1.609   2.509   6.546
 7817SOL     OW24349   6.334   3.817   3.940
 7817SOL    HW124350   6.299   3.877   4.012
 7817SOL    HW224351   6.290   3.727   3.948
 7818SOL     OW24352   4.450   0.990   2.856
 7818SOL    HW124353   4.533   1.013   2.806
 7818SOL    HW224354   4.401   0.917   2.808
 7819SOL     OW24355   0.125   2.932   1.592
 7819SOL    HW124356   0.109   2.924   1.494
 7819SOL    HW224357   0.183   3.011   1.610
 7820SOL     OW24358   1.644   2.198   4.780
 7820SOL    HW124359   1.730   2.241   4.808
 7820SOL    HW224360   1.650   2.170   4.685
 7821SOL     OW24361   4.697   5.909   1.297
 7821SOL    HW124362   4.642   5.945   1.222
 7821SOL    HW224363   4.787   5.954   1.297
 7822SOL     OW24364   0.084   0.494   4.971
 7822SOL    HW124365   0.116   0.400   4.967
 7822SOL    HW224366   0.158   0.556   4.944
 7823SOL     OW24367   2.122   3.906   4.926
 7823SOL    HW124368   2.035   3.952   4.943
 7823SOL    HW224369   2.196   3.959   4.968
 7824SOL     OW24370   6.438   2.029   5.214
 7824SOL    HW124371   6.397   1.997   5.129
 7824SOL    HW224372   6.377   2.007   5.290
 7825SOL     OW24373   1.998   3.059   0.370
 7825SOL    HW124374   2.021   3.155   0.382
 7825SOL    HW224375   1.899   3.050   0.356
 7826SOL     OW24376   6.148   1.261   1.079
 7826SOL    HW124377   6.178   1.286   0.987
 7826SOL    HW224378   6.197   1.317   1.146
 7827SOL     OW24379   1.551   5.877   1.045
 7827SOL    HW124380   1.599   5.807   1.098
 7827SOL    HW224381   1.476   5.915   1.100
 7828SOL     OW24382   6.167   4.515   0.250
 7828SOL    HW124383   6.207   4.486   0.163
 7828SOL    HW224384   6.199   4.454   0.323
 7829SOL     OW24385   3.168   3.262   1.108
 7829SOL    HW124386   3.100   3.335   1.117
 7829SOL    HW224387   3.121   3.176   1.085
 7830SOL     OW24388   3.296   5.065   5.580
 7830SOL    HW124389   3.269   5.064   5.484
 7830SOL    HW224390   3.215   5.059   5.639
 7831SOL     OW24391   1.813   0.293   2.150
 7831SOL    HW124392   1.850   0.210   2.193
 7831SOL    HW224393   1.775   0.270   2.061
 7832SOL     OW24394   6.027   0.533   4.657
 7832SOL    HW124395   6.127   0.537   4.659
 7832SOL    HW224396   5.993   0.580   4.576
 7833SOL     OW24397   1.278   0.793   4.973
 7833SOL    HW124398   1.230   0.709   4.946
 7833SOL    HW224399   1.272   0.860   4.898
 7834SOL     OW24400   0.119   1.773   3.210
 7834SOL    HW124401   0.087   1.834   3.283
 7834SOL    HW224402   0.045   1.756   3.146
 7835SOL     OW24403   4.417   1.689   4.900
 7835SOL    HW124404   4.331   1.639   4.897
 7835SOL    HW224405   4.485   1.641   4.844
 7836SOL     OW24406   3.102   4.171   5.495
 7836SOL    HW124407   3.042   4.188   5.573
 7836SOL    HW224408   3.075   4.229   5.418
 7837SOL     OW24409   5.030   5.892   0.173
 7837SOL    HW124410   4.993   5.801   0.157
 7837SOL    HW224411   5.036   5.942   0.087
 7838SOL     OW24412   4.407   6.094   1.399
 7838SOL    HW124413   4.491   6.144   1.380
 7838SOL    HW224414   4.390   6.093   1.498
 7839SOL     OW24415   5.699   4.132   5.050
 7839SOL    HW124416   5.614   4.080   5.050
 7839SOL    HW224417   5.775   4.073   5.076
 7840SOL     OW24418   0.329   3.649   4.690
 7840SOL    HW124419   0.413   3.604   4.660
 7840SOL    HW224420   0.258   3.635   4.622
 7841SOL     OW24421   4.574   1.806   6.585
 7841SOL    HW124422   4.480   1.836   6.603
 7841SOL    HW224423   4.593   1.725   6.641
 7842SOL     OW24424   2.126   1.529   2.241
 7842SOL    HW124425   2.170   1.487   2.320
 7842SOL    HW224426   2.170   1.497   2.157
 7843SOL     OW24427   0.307   6.575   3.737
 7843SOL    HW124428   0.357   6.507   3.791
 7843SOL    HW224429   0.370   6.620   3.674
 7844SOL     OW24430   3.893   0.296   2.360
 7844SOL    HW124431   3.805   0.300   2.313
 7844SOL    HW224432   3.944   0.215   2.330
 7845SOL     OW24433   5.528   1.951   2.160
 7845SOL    HW124434   5.543   1.943   2.061
 7845SOL    HW224435   5.609   1.991   2.203
 7846SOL     OW24436   1.087   2.414   0.766
 7846SOL    HW124437   1.005   2.369   0.800
 7846SOL    HW224438   1.130   2.466   0.840
 7847SOL     OW24439   6.575   1.452   3.796
 7847SOL    HW124440   6.539   1.387   3.729
 7847SOL    HW224441   6.675   1.444   3.800
 7848SOL     OW24442   2.978   4.228   0.805
 7848SOL    HW124443   2.910   4.177   0.753
 7848SOL    HW224444   2.937   4.310   0.843
 7849SOL     OW24445   5.894   3.931   5.101
 7849SOL    HW124446   5.904   3.892   5.010
 7849SOL    HW224447   5.846   3.866   5.160
 7850SOL     OW24448   0.149   1.948   3.831
 7850SOL    HW124449   0.243   1.950   3.796
 7850SOL    HW224450   0.095   1.883   3.777
 7851SOL     OW24451   0.993   2.728   1.999
 7851SOL    HW124452   1.019   2.714   1.904
 7851SOL    HW224453   0.909   2.678   2.019
 7852SOL     OW24454   3.168   0.769   0.223
 7852SOL    HW124455   3.078   0.785   0.182
 7852SOL    HW224456   3.231   0.839   0.191
 7853SOL     OW24457   4.705   3.124   1.512
 7853SOL    HW124458   4.637   3.057   1.480
 7853SOL    HW224459   4.796   3.097   1.481
 7854SOL     OW24460   3.455   2.589   6.105
 7854SOL    HW124461   3.534   2.616   6.160
 7854SOL    HW224462   3.371   2.612   6.153
 7855SOL     OW24463   4.398   6.024   4.761
 7855SOL    HW124464   4.298   6.031   4.753
 7855SOL    HW224465   4.435   5.982   4.678
 7856SOL     OW24466   0.197   5.243   5.458
 7856SOL    HW124467   0.287   5.282   5.471
 7856SOL    HW224468   0.206   5.151   5.419
 7857SOL     OW24469   4.903   3.453   0.453
 7857SOL    HW124470   4.969   3.478   0.382
 7857SOL    HW224471   4.918   3.510   0.534
 7858SOL     OW24472   6.738   6.411   4.466
 7858SOL    HW124473   6.769   6.374   4.553
 7858SOL    HW224474   6.680   6.344   4.420
 7859SOL     OW24475   4.645   3.678   6.684
 7859SOL    HW124476   4.593   3.606   6.729
 7859SOL    HW224477   4.653   3.756   6.745
 7860SOL     OW24478   3.967   1.179   4.750
 7860SOL    HW124479   3.875   1.189   4.712
 7860SOL    HW224480   4.013   1.267   4.750
 7861SOL     OW24481   2.670   5.232   1.783
 7861SOL    HW124482   2.701   5.247   1.877
 7861SOL    HW224483   2.686   5.136   1.758
 7862SOL     OW24484   2.289   5.981   2.289
 7862SOL    HW124485   2.389   5.990   2.289
 7862SOL    HW224486   2.263   5.902   2.234
 7863SOL     OW24487   0.663   4.733   3.555
 7863SOL    HW124488   0.665   4.817   3.610
 7863SOL    HW224489   0.742   4.731   3.494
 7864SOL     OW24490   1.526   5.436   6.334
 7864SOL    HW124491   1.579   5.518   6.313
 7864SOL    HW224492   1.435   5.444   6.292
 7865SOL     OW24493   6.280   5.461   4.284
 7865SOL    HW124494   6.334   5.416   4.213
 7865SOL    HW224495   6.236   5.543   4.246
 7866SOL     OW24496   1.867   0.547   5.788
 7866SOL    HW124497   1.856   0.644   5.766
 7866SOL    HW224498   1.957   0.532   5.827
 7867SOL     OW24499   5.614   6.795   3.299
 7867SOL    HW124500   5.517   6.770   3.295
 7867SOL    HW224501   5.667   6.715   3.327
 7868SOL     OW24502   3.554   5.639   0.774
 7868SOL    HW124503   3.508   5.666   0.689
 7868SOL    HW224504   3.564   5.720   0.833
 7869SOL     OW24505   5.034   4.848   5.718
 7869SOL    HW124506   5.069   4.895   5.637
 7869SOL    HW224507   5.025   4.750   5.699
 7870SOL     OW24508   5.119   6.988   4.741
 7870SOL    HW124509   5.020   6.999   4.744
 7870SOL    HW224510   5.144   6.897   4.773
 7871SOL     OW24511   5.554   1.813   1.860
 7871SOL    HW124512   5.534   1.894   1.806
 7871SOL    HW224513   5.563   1.734   1.799
 7872SOL     OW24514   1.840   4.624   2.341
 7872SOL    HW124515   1.840   4.593   2.246
 7872SOL    HW224516   1.833   4.544   2.402
 7873SOL     OW24517   6.377   0.788   0.293
 7873SOL    HW124518   6.425   0.820   0.211
 7873SOL    HW224519   6.291   0.745   0.267
 7874SOL     OW24520   4.726   2.455   1.038
 7874SOL    HW124521   4.697   2.425   1.129
 7874SOL    HW224522   4.811   2.408   1.013
 7875SOL     OW24523   3.793   3.471   0.276
 7875SOL    HW124524   3.849   3.526   0.338
 7875SOL    HW224525   3.797   3.375   0.303
 7876SOL     OW24526   1.148   6.604   3.652
 7876SOL    HW124527   1.089   6.592   3.732
 7876SOL    HW224528   1.241   6.625   3.682
 7877SOL     OW24529   6.760   2.015   2.787
 7877SOL    HW124530   6.795   2.092   2.733
 7877SOL    HW224531   6.746   2.043   2.881
 7878SOL     OW24532   4.816   4.088   3.480
 7878SOL    HW124533   4.796   4.102   3.383
 7878SOL    HW224534   4.876   4.009   3.490
 7879SOL     OW24535   3.423   4.916   2.747
 7879SOL    HW124536   3.507   4.902   2.696
 7879SOL    HW224537   3.386   5.006   2.727
 7880SOL     OW24538   2.543   3.238   0.895
 7880SOL    HW124539   2.617   3.219   0.960
 7880SOL    HW224540   2.512   3.332   0.906
 7881SOL     OW24541   4.713   4.226   4.180
 7881SOL    HW124542   4.750   4.318   4.192
 7881SOL    HW224543   4.707   4.180   4.269
 7882SOL     OW24544   2.268   3.370   1.624
 7882SOL    HW124545   2.353   3.341   1.579
 7882SOL    HW224546   2.286   3.386   1.721
 7883SOL     OW24547   1.092   7.009   6.036
 7883SOL    HW124548   1.073   0.019   6.128
 7883SOL    HW224549   1.035   0.032   5.969
 7884SOL     OW24550   0.930   4.288   4.199
 7884SOL    HW124551   0.965   4.225   4.269
 7884SOL    HW224552   0.872   4.356   4.243
 7885SOL     OW24553   6.386   5.832   0.589
 7885SOL    HW124554   6.375   5.865   0.683
 7885SOL    HW224555   6.308   5.863   0.534
 7886SOL     OW24556   4.358   5.636   0.309
 7886SOL    HW124557   4.387   5.541   0.295
 7886SOL    HW224558   4.377   5.663   0.403
 7887SOL     OW24559   3.348   2.195   6.953
 7887SOL    HW124560   3.308   2.104   6.949
 7887SOL    HW224561   3.437   2.189   7.001
 7888SOL     OW24562   5.413   0.516   3.754
 7888SOL    HW124563   5.387   0.431   3.708
 7888SOL    HW224564   5.344   0.540   3.822
 7889SOL     OW24565   1.459   5.261   1.660
 7889SOL    HW124566   1.466   5.208   1.744
 7889SOL    HW224567   1.548   5.263   1.614
 7890SOL     OW24568   1.900   4.117   2.377
 7890SOL    HW124569   1.987   4.091   2.334
 7890SOL    HW224570   1.828   4.119   2.308
 7891SOL     OW24571   2.002   4.768   2.844
 7891SOL    HW124572   1.978   4.674   2.819
 7891SOL    HW224573   1.966   4.789   2.935
 7892SOL     OW24574   2.212   2.520   4.562
 7892SOL    HW124575   2.209   2.613   4.525
 7892SOL    HW224576   2.307   2.488   4.563
 7893SOL     OW24577   6.065   6.836   1.678
 7893SOL    HW124578   6.155   6.856   1.717
 7893SOL    HW224579   6.038   6.743   1.703
 7894SOL     OW24580   2.681   6.200   1.703
 7894SOL    HW124581   2.752   6.153   1.755
 7894SOL    HW224582   2.724   6.257   1.633
 7895SOL     OW24583   6.271   1.260   5.522
 7895SOL    HW124584   6.296   1.232   5.615
 7895SOL    HW224585   6.179   1.228   5.501
 7896SOL     OW24586   4.988   4.145   6.293
 7896SOL    HW124587   4.913   4.202   6.260
 7896SOL    HW224588   5.034   4.191   6.369
 7897SOL     OW24589   2.846   3.608   6.303
 7897SOL    HW124590   2.914   3.544   6.337
 7897SOL    HW224591   2.871   3.637   6.210
 7898SOL     OW24592   4.968   2.338   3.731
 7898SOL    HW124593   4.894   2.282   3.768
 7898SOL    HW224594   5.014   2.386   3.806
 7899SOL     OW24595   6.707   2.000   1.747
 7899SOL    HW124596   6.768   2.078   1.733
 7899SOL    HW224597   6.761   1.918   1.766
 7900SOL     OW24598   1.329   5.181   1.171
 7900SOL    HW124599   1.427   5.196   1.173
 7900SOL    HW224600   1.297   5.179   1.076
 7901SOL     OW24601   4.746   0.206   6.234
 7901SOL    HW124602   4.793   0.165   6.156
 7901SOL    HW224603   4.729   0.136   6.303
 7902SOL     OW24604   4.740   5.276   1.649
 7902SOL    HW124605   4.790   5.339   1.707
 7902SOL    HW224606   4.643   5.278   1.673
 7903SOL     OW24607   5.784   2.132   0.146
 7903SOL    HW124608   5.736   2.083   0.073
 7903SOL    HW224609   5.883   2.121   0.134
 7904SOL     OW24610   6.183   0.597   2.762
 7904SOL    HW124611   6.207   0.591   2.859
 7904SOL    HW224612   6.257   0.560   2.706
 7905SOL     OW24613   4.614   1.646   0.369
 7905SOL    HW124614   4.593   1.549   0.385
 7905SOL    HW224615   4.538   1.702   0.403
 7906SOL     OW24616   0.189   5.887   6.781
 7906SOL    HW124617   0.197   5.919   6.876
 7906SOL    HW224618   0.178   5.788   6.781
 7907SOL     OW24619   6.183   2.746   4.635
 7907SOL    HW124620   6.277   2.740   4.601
 7907SOL    HW224621   6.123   2.692   4.576
 7908SOL     OW24622   1.254   1.181   3.850
 7908SOL    HW124623   1.235   1.251   3.919
 7908SOL    HW224624   1.349   1.190   3.820
 7909SOL     OW24625   4.872   3.864   4.907
 7909SOL    HW124626   4.846   3.788   4.966
 7909SOL    HW224627   4.853   3.840   4.812
 7910SOL     OW24628   3.384   3.127   5.261
 7910SOL    HW124629   3.414   3.123   5.356
 7910SOL    HW224630   3.463   3.113   5.201
 7911SOL     OW24631   0.378   4.375   7.005
 7911SOL    HW124632   0.394   4.293   6.949
 7911SOL    HW224633   0.433   4.450   6.969
 7912SOL     OW24634   6.919   5.344   0.111
 7912SOL    HW124635   6.913   5.332   0.012
 7912SOL    HW224636   6.901   5.440   0.134
 7913SOL     OW24637   0.697   5.343   6.783
 7913SOL    HW124638   0.724   5.270   6.844
 7913SOL    HW224639   0.773   5.407   6.771
 7914SOL     OW24640   0.426   4.765   6.994
 7914SOL    HW124641   0.510   4.724   6.959
 7914SOL    HW224642   0.394   4.713   0.049
 7915SOL     OW24643   4.795   2.346   2.383
 7915SOL    HW124644   4.776   2.270   2.321
 7915SOL    HW224645   4.714   2.406   2.387
 7916SOL     OW24646   5.458   4.016   4.992
 7916SOL    HW124647   5.440   3.928   5.036
 7916SOL    HW224648   5.373   4.068   4.984
 7917SOL     OW24649   3.994   3.199   3.718
 7917SOL    HW124650   3.945   3.248   3.791
 7917SOL    HW224651   4.037   3.117   3.756
 7918SOL     OW24652   6.663   1.701   1.159
 7918SOL    HW124653   6.598   1.742   1.095
 7918SOL    HW224654   6.751   1.748   1.151
 7919SOL     OW24655   6.823   4.005   3.589
 7919SOL    HW124656   6.761   4.076   3.557
 7919SOL    HW224657   6.914   4.044   3.604
 7920SOL     OW24658   6.913   5.204   1.368
 7920SOL    HW124659   6.933   5.301   1.362
 7920SOL    HW224660   6.998   5.152   1.371
 7921SOL     OW24661   3.532   6.330   0.418
 7921SOL    HW124662   3.507   6.241   0.380
 7921SOL    HW224663   3.456   6.394   0.406
 7922SOL     OW24664   6.558   5.953   6.995
 7922SOL    HW124665   6.560   5.923   0.065
 7922SOL    HW224666   6.464   5.974   6.969
 7923SOL     OW24667   1.916   0.887   2.915
 7923SOL    HW124668   1.926   0.964   2.978
 7923SOL    HW224669   1.952   0.804   2.959
 7924SOL     OW24670   3.331   6.519   3.366
 7924SOL    HW124671   3.235   6.520   3.395
 7924SOL    HW224672   3.389   6.514   3.447
 7925SOL     OW24673   0.018   1.684   6.679
 7925SOL    HW124674   0.066   1.620   6.619
 7925SOL    HW224675   7.014   1.764   6.626
 7926SOL     OW24676   4.171   1.093   3.825
 7926SOL    HW124677   4.199   1.085   3.921
 7926SOL    HW224678   4.096   1.159   3.817
 7927SOL     OW24679   4.112   5.538   5.050
 7927SOL    HW124680   4.084   5.634   5.044
 7927SOL    HW224681   4.076   5.488   4.971
 7928SOL     OW24682   0.865   4.064   3.787
 7928SOL    HW124683   0.793   4.087   3.720
 7928SOL    HW224684   0.847   4.112   3.872
 7929SOL     OW24685   4.153   3.685   4.962
 7929SOL    HW124686   4.233   3.719   4.913
 7929SOL    HW224687   4.142   3.736   5.048
 7930SOL     OW24688   4.653   5.737   3.379
 7930SOL    HW124689   4.612   5.657   3.424
 7930SOL    HW224690   4.615   5.820   3.419
 7931SOL     OW24691   1.912   2.152   0.038
 7931SOL    HW124692   1.965   2.068   0.030
 7931SOL    HW224693   1.961   2.227   7.019
 7932SOL     OW24694   2.598   0.110   0.060
 7932SOL    HW124695   2.521   0.045   0.066
 7932SOL    HW224696   2.576   0.192   0.112
 7933SOL     OW24697   0.424   0.043   0.442
 7933SOL    HW124698   0.455   0.127   0.399
 7933SOL    HW224699   0.403   0.060   0.539
 7934SOL     OW24700   2.393   3.484   0.096
 7934SOL    HW124701   2.397   3.583   0.115
 7934SOL    HW224702   2.340   3.439   0.167
 7935SOL     OW24703   5.257   5.686   0.055
 7935SOL    HW124704   5.244   5.783   0.037
 7935SOL    HW224705   5.354   5.663   0.045
 7936SOL     OW24706   3.235   5.487   2.716
 7936SOL    HW124707   3.136   5.472   2.715
 7936SOL    HW224708   3.265   5.499   2.810
 7937SOL     OW24709   5.221   0.138   4.330
 7937SOL    HW124710   5.210   0.039   4.336
 7937SOL    HW224711   5.269   0.172   4.410
 7938SOL     OW24712   4.827   4.891   4.663
 7938SOL    HW124713   4.751   4.894   4.729
 7938SOL    HW224714   4.859   4.797   4.654
 7939SOL     OW24715   1.037   1.292   6.213
 7939SOL    HW124716   1.019   1.194   6.217
 7939SOL    HW224717   0.999   1.337   6.293
 7940SOL     OW24718   2.737   5.222   2.051
 7940SOL    HW124719   2.725   5.123   2.053
 7940SOL    HW224720   2.803   5.249   2.122
 7941SOL     OW24721   6.480   6.720   1.626
 7941SOL    HW124722   6.404   6.660   1.651
 7941SOL    HW224723   6.493   6.718   1.527
 7942SOL     OW24724   6.932   6.467   2.865
 7942SOL    HW124725   7.006   6.458   2.798
 7942SOL    HW224726   6.939   6.394   2.932
 7943SOL     OW24727   5.751   1.963   1.015
 7943SOL    HW124728   5.781   2.058   1.010
 7943SOL    HW224729   5.824   1.904   0.980
 7944SOL     OW24730   6.911   3.262   0.983
 7944SOL    HW124731   6.846   3.298   1.050
 7944SOL    HW224732   6.908   3.318   0.900
 7945SOL     OW24733   5.622   6.868   2.598
 7945SOL    HW124734   5.574   6.839   2.682
 7945SOL    HW224735   5.714   6.898   2.621
 7946SOL     OW24736   1.394   2.621   5.799
 7946SOL    HW124737   1.364   2.638   5.705
 7946SOL    HW224738   1.427   2.527   5.807
 7947SOL     OW24739   3.969   3.123   6.944
 7947SOL    HW124740   3.984   3.060   7.021
 7947SOL    HW224741   3.982   3.074   6.858
 7948SOL     OW24742   6.516   6.677   1.355
 7948SOL    HW124743   6.464   6.750   1.309
 7948SOL    HW224744   6.492   6.589   1.314
 7949SOL     OW24745   5.054   5.272   4.064
 7949SOL    HW124746   5.038   5.201   4.133
 7949SOL    HW224747   5.092   5.231   3.981
 7950SOL     OW24748   4.975   5.119   3.556
 7950SOL    HW124749   5.017   5.132   3.646
 7950SOL    HW224750   5.035   5.063   3.499
 7951SOL     OW24751   2.988   3.468   1.086
 7951SOL    HW124752   2.958   3.563   1.083
 7951SOL    HW224753   2.918   3.412   1.130
 7952SOL     OW24754   0.103   3.148   6.455
 7952SOL    HW124755   0.161   3.178   6.531
 7952SOL    HW224756   0.066   3.057   6.476
 7953SOL     OW24757   2.051   2.889   3.046
 7953SOL    HW124758   1.994   2.937   2.980
 7953SOL    HW224759   1.994   2.846   3.115
 7954SOL     OW24760   4.584   5.188   4.637
 7954SOL    HW124761   4.545   5.242   4.563
 7954SOL    HW224762   4.513   5.133   4.680
 7955SOL     OW24763   6.944   6.473   6.483
 7955SOL    HW124764   6.866   6.445   6.538
 7955SOL    HW224765   6.965   6.569   6.500
 7956SOL     OW24766   0.574   5.413   2.877
 7956SOL    HW124767   0.609   5.337   2.822
 7956SOL    HW224768   0.590   5.394   2.974
 7957SOL     OW24769   2.474   1.885   0.678
 7957SOL    HW124770   2.482   1.900   0.777
 7957SOL    HW224771   2.380   1.903   0.649
 7958SOL     OW24772   3.309   5.591   4.257
 7958SOL    HW124773   3.394   5.618   4.212
 7958SOL    HW224774   3.247   5.550   4.191
 7959SOL     OW24775   4.120   4.955   0.674
 7959SOL    HW124776   4.029   4.936   0.711
 7959SOL    HW224777   4.113   5.026   0.603
 7960SOL     OW24778   3.595   2.100   1.281
 7960SOL    HW124779   3.586   2.045   1.198
 7960SOL    HW224780   3.576   2.196   1.261
 7961SOL     OW24781   2.152   6.183   6.249
 7961SOL    HW124782   2.202   6.171   6.335
 7961SOL    HW224783   2.126   6.093   6.213
 7962SOL     OW24784   2.280   0.518   0.950
 7962SOL    HW124785   2.257   0.580   1.026
 7962SOL    HW224786   2.197   0.491   0.903
 7963SOL     OW24787   0.127   1.456   4.609
 7963SOL    HW124788   0.082   1.367   4.602
 7963SOL    HW224789   0.210   1.456   4.553
 7964SOL     OW24790   5.953   5.320   3.850
 7964SOL    HW124791   6.013   5.374   3.909
 7964SOL    HW224792   6.008   5.269   3.784
 7965SOL     OW24793   4.326   3.126   0.048
 7965SOL    HW124794   4.305   3.032   0.021
 7965SOL    HW224795   4.290   3.143   0.140
 7966SOL     OW24796   1.196   3.573   4.847
 7966SOL    HW124797   1.226   3.527   4.763
 7966SOL    HW224798   1.126   3.517   4.892
 7967SOL     OW24799   2.654   6.561   3.920
 7967SOL    HW124800   2.700   6.472   3.920
 7967SOL    HW224801   2.566   6.552   3.966
 7968SOL     OW24802   2.187   3.109   3.088
 7968SOL    HW124803   2.126   3.035   3.060
 7968SOL    HW224804   2.280   3.073   3.100
 7969SOL     OW24805   4.374   0.118   2.220
 7969SOL    HW124806   4.409   0.158   2.305
 7969SOL    HW224807   4.309   0.046   2.241
 7970SOL     OW24808   0.054   3.967   2.482
 7970SOL    HW124809   0.148   3.999   2.472
 7970SOL    HW224810   0.025   3.922   2.397
 7971SOL     OW24811   3.412   1.358   1.756
 7971SOL    HW124812   3.385   1.429   1.690
 7971SOL    HW224813   3.368   1.271   1.732
 7972SOL     OW24814   6.911   4.043   1.302
 7972SOL    HW124815   6.980   3.989   1.254
 7972SOL    HW224816   6.844   3.982   1.345
 7973SOL     OW24817   5.233   3.324   3.678
 7973SOL    HW124818   5.224   3.411   3.728
 7973SOL    HW224819   5.297   3.335   3.603
 7974SOL     OW24820   5.895   0.393   4.405
 7974SOL    HW124821   5.881   0.491   4.393
 7974SOL    HW224822   5.987   0.376   4.440
 7975SOL     OW24823   5.239   0.499   4.014
 7975SOL    HW124824   5.216   0.596   4.008
 7975SOL    HW224825   5.155   0.445   4.012
 7976SOL     OW24826   0.390   6.519   5.826
 7976SOL    HW124827   0.472   6.564   5.791
 7976SOL    HW224828   0.330   6.496   5.749
 7977SOL     OW24829   4.312   5.967   2.530
 7977SOL    HW124830   4.401   5.922   2.522
 7977SOL    HW224831   4.318   6.038   2.600
 7978SOL     OW24832   5.855   4.531   5.900
 7978SOL    HW124833   5.810   4.620   5.904
 7978SOL    HW224834   5.830   4.484   5.816
 7979SOL     OW24835   2.708   0.342   4.831
 7979SOL    HW124836   2.644   0.306   4.899
 7979SOL    HW224837   2.801   0.318   4.857
 7980SOL     OW24838   3.817   5.406   0.126
 7980SOL    HW124839   3.782   5.397   0.219
 7980SOL    HW224840   3.853   5.499   0.113
 7981SOL     OW24841   1.063   5.626   1.538
 7981SOL    HW124842   1.129   5.552   1.548
 7981SOL    HW224843   1.022   5.647   1.626
 7982SOL     OW24844   6.829   2.361   0.981
 7982SOL    HW124845   6.815   2.447   1.029
 7982SOL    HW224846   6.868   2.380   0.891
 7983SOL     OW24847   5.207   2.027   3.135
 7983SOL    HW124848   5.162   1.949   3.178
 7983SOL    HW224849   5.173   2.112   3.177
 7984SOL     OW24850   1.439   1.847   1.734
 7984SOL    HW124851   1.444   1.909   1.655
 7984SOL    HW224852   1.509   1.872   1.800
 7985SOL     OW24853   1.674   0.221   2.973
 7985SOL    HW124854   1.640   0.313   2.956
 7985SOL    HW224855   1.690   0.175   2.885
 7986SOL     OW24856   3.453   1.255   0.195
 7986SOL    HW124857   3.372   1.278   0.250
 7986SOL    HW224858   3.426   1.246   0.099
 7987SOL     OW24859   0.625   3.436   6.444
 7987SOL    HW124860   0.721   3.436   6.470
 7987SOL    HW224861   0.579   3.513   6.487
 7988SOL     OW24862   2.520   2.444   4.585
 7988SOL    HW124863   2.609   2.421   4.623
 7988SOL    HW224864   2.500   2.383   4.507
 7989SOL     OW24865   3.459   2.793   5.325
 7989SOL    HW124866   3.487   2.698   5.336
 7989SOL    HW224867   3.367   2.796   5.285
 7990SOL     OW24868   0.585   3.643   3.202
 7990SOL    HW124869   0.590   3.654   3.301
 7990SOL    HW224870   0.496   3.676   3.169
 7991SOL     OW24871   6.868   2.195   5.882
 7991SOL    HW124872   6.911   2.285   5.884
 7991SOL    HW224873   6.827   2.179   5.792
 7992SOL     OW24874   1.278   6.212   1.088
 7992SOL    HW124875   1.302   6.290   1.145
 7992SOL    HW224876   1.237   6.141   1.145
 7993SOL     OW24877   1.846   5.793   6.500
 7993SOL    HW124878   1.836   5.879   6.451
 7993SOL    HW224879   1.922   5.800   6.565
 7994SOL     OW24880   4.609   0.359   3.706
 7994SOL    HW124881   4.696   0.337   3.752
 7994SOL    HW224882   4.544   0.394   3.774
 7995SOL     OW24883   3.857   5.231   3.498
 7995SOL    HW124884   3.811   5.149   3.534
 7995SOL    HW224885   3.794   5.282   3.440
 7996SOL     OW24886   3.345   6.202   4.412
 7996SOL    HW124887   3.359   6.132   4.343
 7996SOL    HW224888   3.331   6.291   4.368
 7997SOL     OW24889   6.300   1.815   1.423
 7997SOL    HW124890   6.296   1.716   1.440
 7997SOL    HW224891   6.270   1.833   1.329
 7998SOL     OW24892   4.389   5.090   0.506
 7998SOL    HW124893   4.438   5.052   0.584
 7998SOL    HW224894   4.409   5.036   0.424
 7999SOL     OW24895   1.261   0.077   5.834
 7999SOL    HW124896   1.332   0.011   5.809
 7999SOL    HW224897   1.230   0.058   5.927
 8000SOL     OW24898   5.533   0.170   6.706
 8000SOL    HW124899   5.539   0.094   6.642
 8000SOL    HW224900   5.504   0.252   6.657
 8001SOL     OW24901   2.888   6.081   1.835
 8001SOL    HW124902   2.845   6.013   1.894
 8001SOL    HW224903   2.985   6.061   1.825
 8002SOL     OW24904   0.530   3.376   5.852
 8002SOL    HW124905   0.441   3.408   5.821
 8002SOL    HW224906   0.522   3.336   5.944
 8003SOL     OW24907   2.728   4.790   2.901
 8003SOL    HW124908   2.714   4.710   2.843
 8003SOL    HW224909   2.825   4.797   2.925
 8004SOL     OW24910   1.689   4.757   3.396
 8004SOL    HW124911   1.751   4.723   3.466
 8004SOL    HW224912   1.645   4.680   3.350
 8005SOL     OW24913   3.520   1.568   2.404
 8005SOL    HW124914   3.476   1.535   2.320
 8005SOL    HW224915   3.454   1.622   2.457
 8006SOL     OW24916   2.396   5.984   0.491
 8006SOL    HW124917   2.476   6.020   0.443
 8006SOL    HW224918   2.425   5.910   0.552
 8007SOL     OW24919   0.633   0.327   4.063
 8007SOL    HW124920   0.542   0.363   4.049
 8007SOL    HW224921   0.630   0.255   4.133
 8008SOL     OW24922   4.561   6.700   6.288
 8008SOL    HW124923   4.541   6.627   6.354
 8008SOL    HW224924   4.527   6.673   6.198
 8009SOL     OW24925   6.252   0.203   2.684
 8009SOL    HW124926   6.232   0.257   2.602
 8009SOL    HW224927   6.167   0.186   2.734
 8010SOL     OW24928   1.953   1.448   6.996
 8010SOL    HW124929   1.954   1.541   6.958
 8010SOL    HW224930   1.898   1.389   6.937
 8011SOL     OW24931   2.061   2.692   1.301
 8011SOL    HW124932   2.083   2.739   1.386
 8011SOL    HW224933   2.096   2.599   1.304
 8012SOL     OW24934   1.493   5.842   1.313
 8012SOL    HW124935   1.442   5.766   1.352
 8012SOL    HW224936   1.591   5.824   1.320
 8013SOL     OW24937   0.381   5.303   4.714
 8013SOL    HW124938   0.313   5.229   4.714
 8013SOL    HW224939   0.388   5.342   4.806
 8014SOL     OW24940   1.459   6.266   5.578
 8014SOL    HW124941   1.424   6.200   5.645
 8014SOL    HW224942   1.511   6.337   5.625
 8015SOL     OW24943   3.068   1.558   0.502
 8015SOL    HW124944   3.002   1.633   0.496
 8015SOL    HW224945   3.025   1.478   0.542
 8016SOL     OW24946   4.329   0.139   0.224
 8016SOL    HW124947   4.402   0.086   0.268
 8016SOL    HW224948   4.347   0.146   0.126
 8017SOL     OW24949   6.911   4.543   6.066
 8017SOL    HW124950   6.990   4.529   6.006
 8017SOL    HW224951   6.829   4.506   6.022
 8018SOL     OW24952   5.040   2.161   5.844
 8018SOL    HW124953   5.135   2.144   5.870
 8018SOL    HW224954   5.005   2.238   5.897
 8019SOL     OW24955   1.786   3.752   0.086
 8019SOL    HW124956   1.849   3.828   0.067
 8019SOL    HW224957   1.762   3.707   7.025
 8020SOL     OW24958   5.682   6.698   0.160
 8020SOL    HW124959   5.718   6.609   0.133
 8020SOL    HW224960   5.677   6.757   0.080
 8021SOL     OW24961   1.297   1.687   1.891
 8021SOL    HW124962   1.350   1.743   1.828
 8021SOL    HW224963   1.306   1.724   1.984
 8022SOL     OW24964   4.203   1.012   2.985
 8022SOL    HW124965   4.286   1.009   2.929
 8022SOL    HW224966   4.150   0.929   2.971
 8023SOL     OW24967   5.732   6.082   3.471
 8023SOL    HW124968   5.665   6.137   3.521
 8023SOL    HW224969   5.821   6.128   3.471
 8024SOL     OW24970   3.285   5.427   6.793
 8024SOL    HW124971   3.292   5.364   6.716
 8024SOL    HW224972   3.327   5.514   6.768
 8025SOL     OW24973   3.580   6.431   5.796
 8025SOL    HW124974   3.637   6.433   5.713
 8025SOL    HW224975   3.587   6.340   5.838
 8026SOL     OW24976   0.556   3.648   6.665
 8026SOL    HW124977   0.626   3.638   6.736
 8026SOL    HW224978   0.529   3.744   6.658
 8027SOL     OW24979   4.712   2.235   5.555
 8027SOL    HW124980   4.671   2.153   5.516
 8027SOL    HW224981   4.660   2.315   5.526
 8028SOL     OW24982   3.472   4.750   5.285
 8028SOL    HW124983   3.457   4.685   5.360
 8028SOL    HW224984   3.570   4.757   5.266
 8029SOL     OW24985   5.616   3.952   6.468
 8029SOL    HW124986   5.703   3.933   6.423
 8029SOL    HW224987   5.559   3.870   6.467
 8030SOL     OW24988   5.821   4.043   5.459
 8030SOL    HW124989   5.862   4.120   5.409
 8030SOL    HW224990   5.728   4.067   5.487
 8031SOL     OW24991   5.311   5.884   2.311
 8031SOL    HW124992   5.406   5.867   2.283
 8031SOL    HW224993   5.267   5.797   2.334
 8032SOL     OW24994   6.079   4.234   5.103
 8032SOL    HW124995   6.165   4.189   5.128
 8032SOL    HW224996   6.063   4.223   5.005
 8033SOL     OW24997   5.185   3.073   6.940
 8033SOL    HW124998   5.095   3.032   6.931
 8033SOL    HW224999   5.234   3.031   7.017
 8034SOL     OW25000   6.259   1.139   5.243
 8034SOL    HW125001   6.181   1.200   5.256
 8034SOL    HW225002   6.339   1.176   5.289
 8035SOL     OW25003   5.030   6.995   5.039
 8035SOL    HW125004   5.024   6.976   4.941
 8035SOL    HW225005   4.986   6.921   5.090
 8036SOL     OW25006   1.324   3.508   1.836
 8036SOL    HW125007   1.254   3.541   1.898
 8036SOL    HW225008   1.387   3.448   1.885
 8037SOL     OW25009   1.573   3.171   1.807
 8037SOL    HW125010   1.483   3.136   1.781
 8037SOL    HW225011   1.625   3.194   1.725
 8038SOL     OW25012   5.207   1.947   2.843
 8038SOL    HW125013   5.299   1.927   2.809
 8038SOL    HW225014   5.211   1.964   2.942
 8039SOL     OW25015   1.825   6.762   3.570
 8039SOL    HW125016   1.770   6.680   3.585
 8039SOL    HW225017   1.884   6.779   3.649
 8040SOL     OW25018   0.579   5.244   1.021
 8040SOL    HW125019   0.505   5.196   0.974
 8040SOL    HW225020   0.582   5.339   0.990
 8041SOL     OW25021   3.902   1.895   2.112
 8041SOL    HW125022   3.833   1.944   2.166
 8041SOL    HW225023   3.988   1.946   2.115
 8042SOL     OW25024   3.317   2.863   1.846
 8042SOL    HW125025   3.277   2.884   1.936
 8042SOL    HW225026   3.312   2.944   1.788
 8043SOL     OW25027   3.156   6.930   0.590
 8043SOL    HW125028   3.069   6.887   0.614
 8043SOL    HW225029   3.150   6.968   0.498
 8044SOL     OW25030   3.124   3.038   1.463
 8044SOL    HW125031   3.157   3.132   1.455
 8044SOL    HW225032   3.026   3.038   1.481
 8045SOL     OW25033   5.717   1.271   2.102
 8045SOL    HW125034   5.784   1.267   2.028
 8045SOL    HW225035   5.627   1.295   2.065
 8046SOL     OW25036   6.106   4.507   6.046
 8046SOL    HW125037   6.009   4.517   6.023
 8046SOL    HW225038   6.117   4.432   6.111
 8047SOL     OW25039   3.210   5.150   4.740
 8047SOL    HW125040   3.221   5.063   4.788
 8047SOL    HW225041   3.220   5.134   4.641
 8048SOL     OW25042   5.675   1.322   5.008
 8048SOL    HW125043   5.713   1.414   5.021
 8048SOL    HW225044   5.727   1.257   5.063
 8049SOL     OW25045   0.995   6.515   1.789
 8049SOL    HW125046   0.949   6.591   1.834
 8049SOL    HW225047   1.086   6.502   1.830
 8050SOL     OW25048   0.866   3.867   1.208
 8050SOL    HW125049   0.929   3.900   1.278
 8050SOL    HW225050   0.882   3.916   1.123
 8051SOL     OW25051   5.219   0.034   3.296
 8051SOL    HW125052   5.245   7.000   3.219
 8051SOL    HW225053   5.258   0.125   3.284
 8052SOL     OW25054   3.174   1.578   2.196
 8052SOL    HW125055   3.171   1.676   2.176
 8052SOL    HW225056   3.268   1.545   2.187
 8053SOL     OW25057   3.812   3.559   2.914
 8053SOL    HW125058   3.781   3.481   2.970
 8053SOL    HW225059   3.739   3.627   2.909
 8054SOL     OW25060   4.810   6.536   4.613
 8054SOL    HW125061   4.725   6.540   4.665
 8054SOL    HW225062   4.888   6.537   4.676
 8055SOL     OW25063   0.730   0.281   5.639
 8055SOL    HW125064   0.685   0.311   5.554
 8055SOL    HW225065   0.794   0.351   5.670
 8056SOL     OW25066   4.809   1.115   3.408
 8056SOL    HW125067   4.835   1.196   3.462
 8056SOL    HW225068   4.793   1.141   3.313
 8057SOL     OW25069   2.747   1.018   2.728
 8057SOL    HW125070   2.844   1.001   2.739
 8057SOL    HW225071   2.729   1.116   2.740
 8058SOL     OW25072   3.452   0.092   2.954
 8058SOL    HW125073   3.534   0.065   3.004
 8058SOL    HW225074   3.424   0.184   2.983
 8059SOL     OW25075   3.907   2.026   4.996
 8059SOL    HW125076   3.971   2.093   4.959
 8059SOL    HW225077   3.950   1.935   4.997
 8060SOL     OW25078   0.425   1.265   4.646
 8060SOL    HW125079   0.337   1.242   4.688
 8060SOL    HW225080   0.414   1.345   4.587
 8061SOL     OW25081   6.784   5.796   1.737
 8061SOL    HW125082   6.792   5.892   1.711
 8061SOL    HW225083   6.731   5.788   1.821
 8062SOL     OW25084   2.200   4.475   4.030
 8062SOL    HW125085   2.243   4.462   3.941
 8062SOL    HW225086   2.168   4.569   4.039
 8063SOL     OW25087   2.026   3.586   0.195
 8063SOL    HW125088   1.988   3.670   0.234
 8063SOL    HW225089   2.098   3.609   0.130
 8064SOL     OW25090   0.501   4.780   0.333
 8064SOL    HW125091   0.460   4.783   0.424
 8064SOL    HW225092   0.450   4.715   0.276
 8065SOL     OW25093   4.188   6.590   3.938
 8065SOL    HW125094   4.092   6.562   3.934
 8065SOL    HW225095   4.246   6.510   3.950
 8066SOL     OW25096   1.261   1.068   6.361
 8066SOL    HW125097   1.311   1.112   6.286
 8066SOL    HW225098   1.164   1.062   6.337
 8067SOL     OW25099   4.112   3.298   1.532
 8067SOL    HW125100   4.081   3.358   1.458
 8067SOL    HW225101   4.033   3.260   1.580
 8068SOL     OW25102   6.321   5.865   5.328
 8068SOL    HW125103   6.222   5.868   5.336
 8068SOL    HW225104   6.362   5.873   5.419
 8069SOL     OW25105   2.310   6.056   1.372
 8069SOL    HW125106   2.245   6.131   1.363
 8069SOL    HW225107   2.266   5.977   1.415
 8070SOL     OW25108   2.758   4.540   0.811
 8070SOL    HW125109   2.761   4.479   0.731
 8070SOL    HW225110   2.727   4.631   0.783
 8071SOL     OW25111   3.858   6.390   5.053
 8071SOL    HW125112   3.784   6.424   5.111
 8071SOL    HW225113   3.938   6.450   5.061
 8072SOL     OW25114   3.403   1.616   0.442
 8072SOL    HW125115   3.389   1.650   0.535
 8072SOL    HW225116   3.318   1.576   0.408
 8073SOL     OW25117   5.192   0.169   6.464
 8073SOL    HW125118   5.115   0.109   6.484
 8073SOL    HW225119   5.260   0.119   6.410
 8074SOL     OW25120   3.359   2.723   0.097
 8074SOL    HW125121   3.400   2.809   0.129
 8074SOL    HW225122   3.394   2.702   0.005
 8075SOL     OW25123   6.609   1.591   1.636
 8075SOL    HW125124   6.616   1.574   1.537
 8075SOL    HW225125   6.591   1.689   1.651
 8076SOL     OW25126   4.548   2.535   5.932
 8076SOL    HW125127   4.634   2.484   5.933
 8076SOL    HW225128   4.551   2.608   6.001
 8077SOL     OW25129   0.587   6.864   1.483
 8077SOL    HW125130   0.678   6.824   1.472
 8077SOL    HW225131   0.580   6.909   1.572
 8078SOL     OW25132   6.309   2.046   0.355
 8078SOL    HW125133   6.227   2.026   0.408
 8078SOL    HW225134   6.386   2.063   0.417
 8079SOL     OW25135   5.861   2.153   3.114
 8079SOL    HW125136   5.763   2.167   3.129
 8079SOL    HW225137   5.892   2.073   3.165
 8080SOL     OW25138   1.777   3.818   0.656
 8080SOL    HW125139   1.742   3.729   0.685
 8080SOL    HW225140   1.792   3.818   0.558
 8081SOL     OW25141   5.846   0.555   5.334
 8081SOL    HW125142   5.916   0.491   5.366
 8081SOL    HW225143   5.880   0.605   5.255
 8082SOL     OW25144   5.583   2.269   2.871
 8082SOL    HW125145   5.636   2.353   2.856
 8082SOL    HW225146   5.510   2.264   2.804
 8083SOL     OW25147   4.945   3.134   1.969
 8083SOL    HW125148   4.859   3.086   1.986
 8083SOL    HW225149   4.998   3.139   2.053
 8084SOL     OW25150   6.020   6.269   1.079
 8084SOL    HW125151   5.930   6.230   1.098
 8084SOL    HW225152   6.091   6.209   1.116
 8085SOL     OW25153   5.903   0.179   1.719
 8085SOL    HW125154   5.932   0.189   1.623
 8085SOL    HW225155   5.978   0.207   1.779
 8086SOL     OW25156   3.931   0.120   4.133
 8086SOL    HW125157   4.013   0.120   4.076
 8086SOL    HW225158   3.891   0.029   4.135
 8087SOL     OW25159   2.229   1.758   1.048
 8087SOL    HW125160   2.292   1.713   1.112
 8087SOL    HW225161   2.221   1.703   0.965
 8088SOL     OW25162   6.646   2.018   2.128
 8088SOL    HW125163   6.613   2.112   2.127
 8088SOL    HW225164   6.746   2.018   2.132
 8089SOL     OW25165   4.949   2.115   6.613
 8089SOL    HW125166   5.010   2.076   6.683
 8089SOL    HW225167   4.925   2.044   6.547
 8090SOL     OW25168   5.422   2.130   6.436
 8090SOL    HW125169   5.374   2.043   6.428
 8090SOL    HW225170   5.391   2.178   6.518
 8091SOL     OW25171   3.412   3.948   6.923
 8091SOL    HW125172   3.458   3.986   6.843
 8091SOL    HW225173   3.461   3.975   7.006
 8092SOL     OW25174   1.661   1.148   4.534
 8092SOL    HW125175   1.741   1.197   4.570
 8092SOL    HW225176   1.662   1.152   4.434
 8093SOL     OW25177   6.261   6.073   1.102
 8093SOL    HW125178   6.281   6.161   1.059
 8093SOL    HW225179   6.315   6.063   1.185
 8094SOL     OW25180   2.104   4.373   5.433
 8094SOL    HW125181   2.014   4.415   5.419
 8094SOL    HW225182   2.160   4.433   5.492
 8095SOL     OW25183   5.939   3.347   4.035
 8095SOL    HW125184   5.939   3.411   4.112
 8095SOL    HW225185   6.001   3.271   4.056
 8096SOL     OW25186   2.592   5.771   3.257
 8096SOL    HW125187   2.568   5.760   3.160
 8096SOL    HW225188   2.591   5.868   3.280
 8097SOL     OW25189   5.306   0.993   3.724
 8097SOL    HW125190   5.241   1.014   3.651
 8097SOL    HW225191   5.357   0.910   3.699
 8098SOL     OW25192   2.406   6.420   4.329
 8098SOL    HW125193   2.384   6.461   4.417
 8098SOL    HW225194   2.353   6.335   4.318
 8099SOL     OW25195   6.339   0.705   3.966
 8099SOL    HW125196   6.385   0.670   3.884
 8099SOL    HW225197   6.404   0.760   4.018
 8100SOL     OW25198   0.419   6.803   0.335
 8100SOL    HW125199   0.508   6.761   0.320
 8100SOL    HW225200   0.430   6.888   0.386
 8101SOL     OW25201   1.689   0.096   4.762
 8101SOL    HW125202   1.734   0.096   4.851
 8101SOL    HW225203   1.751   0.132   4.693
 8102SOL     OW25204   1.091   5.431   6.497
 8102SOL    HW125205   1.022   5.358   6.498
 8102SOL    HW225206   1.049   5.517   6.528
 8103SOL     OW25207   4.155   1.069   1.649
 8103SOL    HW125208   4.198   0.980   1.632
 8103SOL    HW225209   4.068   1.073   1.600
 8104SOL     OW25210   3.571   6.894   6.535
 8104SOL    HW125211   3.523   6.888   6.447
 8104SOL    HW225212   3.600   6.988   6.550
 8105SOL     OW25213   2.211   2.378   3.301
 8105SOL    HW125214   2.166   2.314   3.364
 8105SOL    HW225215   2.291   2.334   3.261
 8106SOL     OW25216   1.702   5.445   3.752
 8106SOL    HW125217   1.746   5.376   3.694
 8106SOL    HW225218   1.619   5.406   3.792
 8107SOL     OW25219   1.959   6.154   5.655
 8107SOL    HW125220   1.991   6.132   5.562
 8107SOL    HW225221   1.868   6.117   5.668
 8108SOL     OW25222   6.670   2.725   4.908
 8108SOL    HW125223   6.636   2.782   4.982
 8108SOL    HW225224   6.596   2.668   4.872
 8109SOL     OW25225   1.786   4.182   4.724
 8109SOL    HW125226   1.877   4.217   4.702
 8109SOL    HW225227   1.794   4.110   4.794
 8110SOL     OW25228   3.317   6.487   0.361
 8110SOL    HW125229   3.279   6.554   0.298
 8110SOL    HW225230   3.289   6.509   0.455
 8111SOL     OW25231   2.923   7.011   5.543
 8111SOL    HW125232   2.952   6.917   5.530
 8111SOL    HW225233   2.823   7.017   5.535
 8112SOL     OW25234   2.648   0.782   5.430
 8112SOL    HW125235   2.582   0.775   5.505
 8112SOL    HW225236   2.687   0.692   5.411
 8113SOL     OW25237   3.094   2.791   0.130
 8113SOL    HW125238   3.187   2.756   0.138
 8113SOL    HW225239   3.030   2.723   0.165
 8114SOL     OW25240   2.342   2.742   2.340
 8114SOL    HW125241   2.351   2.786   2.251
 8114SOL    HW225242   2.411   2.670   2.349
 8115SOL     OW25243   3.918   1.344   1.325
 8115SOL    HW125244   3.820   1.327   1.325
 8115SOL    HW225245   3.963   1.282   1.261
 8116SOL     OW25246   5.351   0.339   5.205
 8116SOL    HW125247   5.369   0.343   5.107
 8116SOL    HW225248   5.435   0.318   5.255
 8117SOL     OW25249   1.628   2.112   3.490
 8117SOL    HW125250   1.694   2.055   3.540
 8117SOL    HW225251   1.539   2.067   3.489
 8118SOL     OW25252   0.857   3.854   5.940
 8118SOL    HW125253   0.937   3.907   5.913
 8118SOL    HW225254   0.790   3.914   5.984
 8119SOL     OW25255   0.501   5.781   4.161
 8119SOL    HW125256   0.476   5.685   4.152
 8119SOL    HW225257   0.464   5.833   4.084
 8120SOL     OW25258   3.954   4.057   6.811
 8120SOL    HW125259   3.945   4.011   6.900
 8120SOL    HW225260   3.997   4.146   6.823
 8121SOL     OW25261   6.927   6.300   3.065
 8121SOL    HW125262   6.878   6.234   3.123
 8121SOL    HW225263   7.020   6.312   3.099
 8122SOL     OW25264   0.202   5.007   2.384
 8122SOL    HW125265   0.214   4.968   2.476
 8122SOL    HW225266   0.284   5.059   2.360
 8123SOL     OW25267   0.836   0.335   6.322
 8123SOL    HW125268   0.766   0.282   6.273
 8123SOL    HW225269   0.815   0.335   6.419
 8124SOL     OW25270   1.282   6.563   1.586
 8124SOL    HW125271   1.304   6.656   1.615
 8124SOL    HW225272   1.277   6.503   1.666
 8125SOL     OW25273   6.261   5.231   3.332
 8125SOL    HW125274   6.187   5.291   3.361
 8125SOL    HW225275   6.261   5.224   3.232
 8126SOL     OW25276   6.001   4.969   2.204
 8126SOL    HW125277   5.965   4.876   2.209
 8126SOL    HW225278   6.101   4.966   2.213
 8127SOL     OW25279   2.372   5.370   0.465
 8127SOL    HW125280   2.471   5.372   0.477
 8127SOL    HW225281   2.327   5.408   0.545
 8128SOL     OW25282   3.321   2.728   6.792
 8128SOL    HW125283   3.395   2.708   6.728
 8128SOL    HW225284   3.265   2.646   6.804
 8129SOL     OW25285   5.327   1.192   6.629
 8129SOL    HW125286   5.380   1.138   6.564
 8129SOL    HW225287   5.345   1.160   6.722
 8130SOL     OW25288   0.874   5.268   5.915
 8130SOL    HW125289   0.863   5.367   5.914
 8130SOL    HW225290   0.785   5.224   5.926
 8131SOL     OW25291   3.127   1.236   0.005
 8131SOL    HW125292   3.080   1.324   0.000
 8131SOL    HW225293   3.222   1.247   7.000
 8132SOL     OW25294   5.436   5.749   5.886
 8132SOL    HW125295   5.472   5.835   5.922
 8132SOL    HW225296   5.461   5.741   5.789
 8133SOL     OW25297   3.186   4.859   3.082
 8133SOL    HW125298   3.167   4.957   3.083
 8133SOL    HW225299   3.175   4.822   3.174
 8134SOL     OW25300   1.891   1.863   4.023
 8134SOL    HW125301   1.961   1.921   4.062
 8134SOL    HW225302   1.932   1.799   3.958
 8135SOL     OW25303   3.019   5.018   2.237
 8135SOL    HW125304   3.046   4.976   2.151
 8135SOL    HW225305   3.037   5.117   2.234
 8136SOL     OW25306   4.339   5.382   2.881
 8136SOL    HW125307   4.245   5.413   2.869
 8136SOL    HW225308   4.338   5.292   2.925
 8137SOL     OW25309   2.213   3.019   4.621
 8137SOL    HW125310   2.174   3.112   4.623
 8137SOL    HW225311   2.217   2.987   4.527
 8138SOL     OW25312   6.282   2.207   2.079
 8138SOL    HW125313   6.266   2.242   1.987
 8138SOL    HW225314   6.277   2.107   2.079
 8139SOL     OW25315   1.106   2.986   3.631
 8139SOL    HW125316   1.188   3.024   3.673
 8139SOL    HW225317   1.036   2.973   3.701
 8140SOL     OW25318   3.910   6.942   0.134
 8140SOL    HW125319   3.918   6.843   0.125
 8140SOL    HW225320   3.837   6.964   0.199
 8141SOL     OW25321   5.166   0.520   5.237
 8141SOL    HW125322   5.235   0.449   5.224
 8141SOL    HW225323   5.079   0.478   5.262
 8142SOL     OW25324   2.082   5.500   0.405
 8142SOL    HW125325   2.129   5.415   0.428
 8142SOL    HW225326   2.147   5.563   0.362
 8143SOL     OW25327   5.167   5.139   1.584
 8143SOL    HW125328   5.188   5.234   1.605
 8143SOL    HW225329   5.070   5.129   1.564
 8144SOL     OW25330   0.100   5.949   5.775
 8144SOL    HW125331   0.071   5.857   5.753
 8144SOL    HW225332   0.196   5.961   5.751
 8145SOL     OW25333   4.846   5.534   0.476
 8145SOL    HW125334   4.775   5.559   0.410
 8145SOL    HW225335   4.837   5.438   0.500
 8146SOL     OW25336   6.334   0.525   4.863
 8146SOL    HW125337   6.432   0.537   4.877
 8146SOL    HW225338   6.315   0.508   4.766
 8147SOL     OW25339   0.311   0.563   0.142
 8147SOL    HW125340   0.255   0.644   0.160
 8147SOL    HW225341   0.378   0.553   0.216
 8148SOL     OW25342   3.996   4.342   6.833
 8148SOL    HW125343   4.012   4.420   6.895
 8148SOL    HW225344   3.924   4.366   6.768
 8149SOL     OW25345   1.662   6.683   4.317
 8149SOL    HW125346   1.620   6.713   4.232
 8149SOL    HW225347   1.687   6.763   4.372
 8150SOL     OW25348   0.759   3.152   0.883
 8150SOL    HW125349   0.746   3.075   0.946
 8150SOL    HW225350   0.729   3.126   0.791
 8151SOL     OW25351   6.229   5.664   3.642
 8151SOL    HW125352   6.287   5.651   3.562
 8151SOL    HW225353   6.141   5.703   3.614
 8152SOL     OW25354   4.470   2.137   3.087
 8152SOL    HW125355   4.553   2.162   3.137
 8152SOL    HW225356   4.493   2.118   2.991
 8153SOL     OW25357   0.889   0.653   3.433
 8153SOL    HW125358   0.940   0.589   3.375
 8153SOL    HW225359   0.802   0.611   3.459
 8154SOL     OW25360   2.984   1.484   3.016
 8154SOL    HW125361   2.980   1.543   2.936
 8154SOL    HW225362   3.077   1.481   3.051
 8155SOL     OW25363   1.535   3.849   2.474
 8155SOL    HW125364   1.624   3.890   2.495
 8155SOL    HW225365   1.472   3.865   2.550
 8156SOL     OW25366   5.559   6.084   0.993
 8156SOL    HW125367   5.471   6.079   0.947
 8156SOL    HW225368   5.616   6.007   0.963
 8157SOL     OW25369   6.118   3.486   6.173
 8157SOL    HW125370   6.038   3.509   6.228
 8157SOL    HW225371   6.104   3.515   6.079
 8158SOL     OW25372   5.706   5.131   5.977
 8158SOL    HW125373   5.707   5.034   6.001
 8158SOL    HW225374   5.795   5.171   5.997
 8159SOL     OW25375   3.833   6.619   5.866
 8159SOL    HW125376   3.741   6.596   5.836
 8159SOL    HW225377   3.888   6.535   5.871
 8160SOL     OW25378   5.018   0.892   3.398
 8160SOL    HW125379   4.997   0.986   3.426
 8160SOL    HW225380   5.097   0.893   3.337
 8161SOL     OW25381   5.565   3.609   0.165
 8161SOL    HW125382   5.523   3.604   0.074
 8161SOL    HW225383   5.618   3.526   0.182
 8162SOL     OW25384   0.528   5.082   0.019
 8162SOL    HW125385   0.557   5.022   6.970
 8162SOL    HW225386   0.498   5.027   0.097
 8163SOL     OW25387   3.862   5.062   5.358
 8163SOL    HW125388   3.884   5.046   5.454
 8163SOL    HW225389   3.844   5.159   5.343
 8164SOL     OW25390   4.071   0.717   6.897
 8164SOL    HW125391   4.117   0.748   6.980
 8164SOL    HW225392   4.082   0.785   6.825
 8165SOL     OW25393   6.498   4.001   6.456
 8165SOL    HW125394   6.542   3.915   6.431
 8165SOL    HW225395   6.507   4.017   6.554
 8166SOL     OW25396   2.004   2.330   3.973
 8166SOL    HW125397   1.995   2.330   3.873
 8166SOL    HW225398   1.914   2.316   4.014
 8167SOL     OW25399   7.003   1.476   3.744
 8167SOL    HW125400   0.043   1.401   3.730
 8167SOL    HW225401   7.019   1.517   3.834
 8168SOL     OW25402   2.494   0.580   1.286
 8168SOL    HW125403   2.440   0.628   1.216
 8168SOL    HW225404   2.587   0.566   1.252
 8169SOL     OW25405   3.933   2.013   0.420
 8169SOL    HW125406   3.973   2.018   0.512
 8169SOL    HW225407   3.991   2.064   0.356
 8170SOL     OW25408   6.483   4.372   2.057
 8170SOL    HW125409   6.476   4.297   1.991
 8170SOL    HW225410   6.567   4.424   2.039
 8171SOL     OW25411   1.424   1.040   6.610
 8171SOL    HW125412   1.394   0.954   6.569
 8171SOL    HW225413   1.345   1.093   6.639
 8172SOL     OW25414   0.258   2.399   2.290
 8172SOL    HW125415   0.299   2.442   2.209
 8172SOL    HW225416   0.325   2.337   2.331
 8173SOL     OW25417   6.165   1.842   2.529
 8173SOL    HW125418   6.170   1.862   2.627
 8173SOL    HW225419   6.069   1.827   2.502
 8174SOL     OW25420   1.123   6.370   2.350
 8174SOL    HW125421   1.041   6.328   2.310
 8174SOL    HW225422   1.111   6.470   2.352
 8175SOL     OW25423   0.586   2.787   4.165
 8175SOL    HW125424   0.527   2.713   4.196
 8175SOL    HW225425   0.546   2.831   4.085
 8176SOL     OW25426   1.888   4.361   1.298
 8176SOL    HW125427   1.820   4.426   1.331
 8176SOL    HW225428   1.931   4.397   1.214
 8177SOL     OW25429   3.437   0.804   2.557
 8177SOL    HW125430   3.414   0.836   2.465
 8177SOL    HW225431   3.519   0.747   2.554
 8178SOL     OW25432   3.477   6.414   1.124
 8178SOL    HW125433   3.422   6.352   1.181
 8178SOL    HW225434   3.426   6.499   1.109
 8179SOL     OW25435   6.132   1.022   4.107
 8179SOL    HW125436   6.108   1.096   4.170
 8179SOL    HW225437   6.222   1.040   4.067
 8180SOL     OW25438   6.230   0.329   6.873
 8180SOL    HW125439   6.182   0.332   6.961
 8180SOL    HW225440   6.304   0.396   6.873
 8181SOL     OW25441   0.694   1.023   1.389
 8181SOL    HW125442   0.643   0.940   1.368
 8181SOL    HW225443   0.765   1.037   1.320
 8182SOL     OW25444   3.789   3.560   5.004
 8182SOL    HW125445   3.815   3.583   4.910
 8182SOL    HW225446   3.693   3.531   5.005
 8183SOL     OW25447   6.637   1.277   5.306
 8183SOL    HW125448   6.579   1.345   5.262
 8183SOL    HW225449   6.685   1.319   5.384
 8184SOL     OW25450   0.867   6.939   0.263
 8184SOL    HW125451   0.820   6.972   0.345
 8184SOL    HW225452   0.902   6.846   0.281
 8185SOL     OW25453   1.998   0.512   0.866
 8185SOL    HW125454   1.959   0.438   0.810
 8185SOL    HW225455   1.953   0.598   0.843
 8186SOL     OW25456   2.218   3.988   5.725
 8186SOL    HW125457   2.225   4.076   5.679
 8186SOL    HW225458   2.275   3.920   5.679
 8187SOL     OW25459   2.619   1.707   5.089
 8187SOL    HW125460   2.672   1.790   5.102
 8187SOL    HW225461   2.632   1.673   4.995
 8188SOL     OW25462   4.330   1.882   3.870
 8188SOL    HW125463   4.303   1.825   3.792
 8188SOL    HW225464   4.309   1.834   3.955
 8189SOL     OW25465   5.567   5.345   3.266
 8189SOL    HW125466   5.658   5.315   3.240
 8189SOL    HW225467   5.510   5.357   3.184
 8190SOL     OW25468   5.170   3.971   3.399
 8190SOL    HW125469   5.098   3.961   3.468
 8190SOL    HW225470   5.232   3.893   3.404
 8191SOL     OW25471   4.726   5.408   2.325
 8191SOL    HW125472   4.715   5.363   2.237
 8191SOL    HW225473   4.640   5.454   2.350
 8192SOL     OW25474   2.060   5.466   1.915
 8192SOL    HW125475   2.005   5.406   1.973
 8192SOL    HW225476   2.140   5.416   1.883
 8193SOL     OW25477   6.761   5.859   4.613
 8193SOL    HW125478   6.677   5.824   4.571
 8193SOL    HW225479   6.839   5.806   4.581
 8194SOL     OW25480   4.469   0.785   0.909
 8194SOL    HW125481   4.532   0.847   0.956
 8194SOL    HW225482   4.391   0.836   0.875
 8195SOL     OW25483   6.019   6.925   3.912
 8195SOL    HW125484   5.947   6.899   3.848
 8195SOL    HW225485   6.010   6.870   3.995
 8196SOL     OW25486   5.470   0.549   6.807
 8196SOL    HW125487   5.548   0.541   6.745
 8196SOL    HW225488   5.408   0.471   6.795
 8197SOL     OW25489   4.487   1.746   1.754
 8197SOL    HW125490   4.430   1.766   1.675
 8197SOL    HW225491   4.577   1.786   1.741
 8198SOL     OW25492   2.764   0.506   2.230
 8198SOL    HW125493   2.720   0.570   2.294
 8198SOL    HW225494   2.816   0.558   2.162
 8199SOL     OW25495   4.852   3.424   5.736
 8199SOL    HW125496   4.771   3.387   5.781
 8199SOL    HW225497   4.889   3.499   5.791
 8200SOL     OW25498   5.978   4.291   1.962
 8200SOL    HW125499   5.990   4.298   2.061
 8200SOL    HW225500   6.062   4.320   1.916
 8201SOL     OW25501   0.263   0.937   5.410
 8201SOL    HW125502   0.197   0.871   5.377
 8201SOL    HW225503   0.309   0.980   5.333
 8202SOL     OW25504   6.705   6.144   2.522
 8202SOL    HW125505   6.795   6.129   2.480
 8202SOL    HW225506   6.696   6.240   2.548
 8203SOL     OW25507   2.096   2.089   0.418
 8203SOL    HW125508   1.999   2.077   0.397
 8203SOL    HW225509   2.137   2.150   0.350
 8204SOL     OW25510   3.840   3.796   0.620
 8204SOL    HW125511   3.752   3.820   0.579
 8204SOL    HW225512   3.890   3.880   0.643
 8205SOL     OW25513   0.380   2.856   0.059
 8205SOL    HW125514   0.283   2.831   0.066
 8205SOL    HW225515   0.436   2.776   0.082
 8206SOL     OW25516   4.670   1.214   0.480
 8206SOL    HW125517   4.575   1.229   0.455
 8206SOL    HW225518   4.692   1.116   0.471
 8207SOL     OW25519   3.386   3.841   4.455
 8207SOL    HW125520   3.343   3.931   4.456
 8207SOL    HW225521   3.329   3.777   4.404
 8208SOL     OW25522   0.915   0.946   0.655
 8208SOL    HW125523   0.945   0.855   0.627
 8208SOL    HW225524   0.875   0.994   0.577
 8209SOL     OW25525   0.232   0.908   4.976
 8209SOL    HW125526   0.242   0.831   4.913
 8209SOL    HW225527   0.188   0.877   5.060
 8210SOL     OW25528   2.048   2.642   0.428
 8210SOL    HW125529   1.991   2.567   0.462
 8210SOL    HW225530   2.046   2.643   0.328
 8211SOL     OW25531   3.586   3.810   1.331
 8211SOL    HW125532   3.574   3.835   1.427
 8211SOL    HW225533   3.597   3.711   1.323
 8212SOL     OW25534   1.520   2.540   2.951
 8212SOL    HW125535   1.556   2.461   2.901
 8212SOL    HW225536   1.474   2.601   2.888
 8213SOL     OW25537   6.560   5.389   1.535
 8213SOL    HW125538   6.538   5.336   1.453
 8213SOL    HW225539   6.614   5.333   1.597
 8214SOL     OW25540   5.820   4.477   3.783
 8214SOL    HW125541   5.820   4.558   3.842
 8214SOL    HW225542   5.728   4.436   3.783
 8215SOL     OW25543   3.157   6.041   5.265
 8215SOL    HW125544   3.254   6.063   5.268
 8215SOL    HW225545   3.144   5.943   5.277
 8216SOL     OW25546   5.678   5.977   4.370
 8216SOL    HW125547   5.592   5.960   4.418
 8216SOL    HW225548   5.658   5.995   4.273
 8217SOL     OW25549   2.400   4.950   6.919
 8217SOL    HW125550   2.320   5.005   6.895
 8217SOL    HW225551   2.483   5.001   6.900
 8218SOL     OW25552   0.734   1.268   6.685
 8218SOL    HW125553   0.695   1.177   6.697
 8218SOL    HW225554   0.772   1.300   6.772
 8219SOL     OW25555   4.542   1.480   0.129
 8219SOL    HW125556   4.633   1.470   0.170
 8219SOL    HW225557   4.537   1.568   0.082
 8220SOL     OW25558   3.694   3.354   3.080
 8220SOL    HW125559   3.678   3.402   3.167
 8220SOL    HW225560   3.743   3.269   3.098
 8221SOL     OW25561   4.484   6.011   4.488
 8221SOL    HW125562   4.482   6.101   4.531
 8221SOL    HW225563   4.431   6.013   4.403
 8222SOL     OW25564   5.276   1.881   2.204
 8222SOL    HW125565   5.268   1.796   2.152
 8222SOL    HW225566   5.366   1.921   2.189
 8223SOL     OW25567   1.495   3.476   6.232
 8223SOL    HW125568   1.536   3.439   6.149
 8223SOL    HW225569   1.397   3.453   6.234
 8224SOL     OW25570   0.558   2.745   3.010
 8224SOL    HW125571   0.542   2.770   3.106
 8224SOL    HW225572   0.571   2.828   2.955
 8225SOL     OW25573   3.726   0.847   0.194
 8225SOL    HW125574   3.741   0.773   0.260
 8225SOL    HW225575   3.657   0.910   0.229
 8226SOL     OW25576   4.671   0.125   2.658
 8226SOL    HW125577   4.737   0.055   2.685
 8226SOL    HW225578   4.680   0.204   2.719
 8227SOL     OW25579   0.053   2.691   3.456
 8227SOL    HW125580   7.015   2.692   3.378
 8227SOL    HW225581   0.040   2.607   3.508
 8228SOL     OW25582   0.140   2.527   5.714
 8228SOL    HW125583   0.186   2.614   5.699
 8228SOL    HW225584   0.196   2.469   5.773
 8229SOL     OW25585   3.553   4.372   0.591
 8229SOL    HW125586   3.535   4.468   0.612
 8229SOL    HW225587   3.593   4.328   0.671
 8230SOL     OW25588   4.681   0.060   5.549
 8230SOL    HW125589   4.747   0.073   5.623
 8230SOL    HW225590   4.676   0.143   5.494
 8231SOL     OW25591   3.871   5.729   1.064
 8231SOL    HW125592   3.969   5.743   1.051
 8231SOL    HW225593   3.850   5.731   1.162
 8232SOL     OW25594   5.019   1.536   0.784
 8232SOL    HW125595   5.048   1.445   0.755
 8232SOL    HW225596   5.062   1.558   0.872
 8233SOL     OW25597   0.783   6.304   6.218
 8233SOL    HW125598   0.756   6.235   6.150
 8233SOL    HW225599   0.723   6.384   6.210
 8234SOL     OW25600   2.936   3.809   0.013
 8234SOL    HW125601   3.023   3.846   0.044
 8234SOL    HW225602   2.865   3.879   0.019
 8235SOL     OW25603   2.073   3.440   0.589
 8235SOL    HW125604   2.137   3.383   0.641
 8235SOL    HW225605   2.057   3.398   0.500
 8236SOL     OW25606   6.600   3.975   0.169
 8236SOL    HW125607   6.663   3.995   0.093
 8236SOL    HW225608   6.630   4.023   0.251
 8237SOL     OW25609   5.086   6.360   4.646
 8237SOL    HW125610   5.046   6.406   4.566
 8237SOL    HW225611   5.171   6.405   4.672
 8238SOL     OW25612   1.771   4.764   0.506
 8238SOL    HW125613   1.778   4.854   0.550
 8238SOL    HW225614   1.675   4.737   0.502
 8239SOL     OW25615   6.726   1.048   5.518
 8239SOL    HW125616   6.711   0.949   5.519
 8239SOL    HW225617   6.684   1.086   5.436
 8240SOL     OW25618   3.375   3.810   2.790
 8240SOL    HW125619   3.374   3.741   2.717
 8240SOL    HW225620   3.338   3.896   2.754
 8241SOL     OW25621   3.926   6.681   0.055
 8241SOL    HW125622   3.916   6.586   0.084
 8241SOL    HW225623   3.861   6.700   7.005
 8242SOL     OW25624   1.367   4.422   6.035
 8242SOL    HW125625   1.330   4.434   5.943
 8242SOL    HW225626   1.292   4.412   6.100
 8243SOL     OW25627   0.984   2.929   0.202
 8243SOL    HW125628   1.048   2.998   0.236
 8243SOL    HW225629   0.893   2.947   0.240
 8244SOL     OW25630   0.823   6.777   3.514
 8244SOL    HW125631   0.898   6.816   3.567
 8244SOL    HW225632   0.752   6.744   3.575
 8245SOL     OW25633   3.461   1.271   2.810
 8245SOL    HW125634   3.385   1.306   2.755
 8245SOL    HW225635   3.510   1.201   2.758
 8246SOL     OW25636   6.931   3.236   5.602
 8246SOL    HW125637   6.849   3.265   5.553
 8246SOL    HW225638   7.012   3.279   5.561
 8247SOL     OW25639   1.134   0.032   2.091
 8247SOL    HW125640   1.138   0.129   2.067
 8247SOL    HW225641   1.123   0.023   2.190
 8248SOL     OW25642   5.734   5.280   3.595
 8248SOL    HW125643   5.717   5.369   3.553
 8248SOL    HW225644   5.804   5.291   3.667
 8249SOL     OW25645   2.244   3.277   5.228
 8249SOL    HW125646   2.258   3.201   5.291
 8249SOL    HW225647   2.216   3.242   5.139
 8250SOL     OW25648   3.333   4.111   2.289
 8250SOL    HW125649   3.315   4.070   2.378
 8250SOL    HW225650   3.417   4.165   2.294
 8251SOL     OW25651   6.022   2.864   4.186
 8251SOL    HW125652   6.036   2.877   4.088
 8251SOL    HW225653   6.022   2.953   4.232
 8252SOL     OW25654   3.547   3.121   6.494
 8252SOL    HW125655   3.640   3.085   6.494
 8252SOL    HW225656   3.540   3.196   6.561
 8253SOL     OW25657   3.952   4.219   5.231
 8253SOL    HW125658   4.026   4.164   5.271
 8253SOL    HW225659   3.948   4.202   5.132
 8254SOL     OW25660   4.501   4.613   4.592
 8254SOL    HW125661   4.531   4.696   4.545
 8254SOL    HW225662   4.403   4.600   4.577
 8255SOL     OW25663   3.115   6.427   5.120
 8255SOL    HW125664   3.070   6.377   5.194
 8255SOL    HW225665   3.199   6.469   5.155
 8256SOL     OW25666   6.561   0.827   1.984
 8256SOL    HW125667   6.604   0.797   2.069
 8256SOL    HW225668   6.614   0.793   1.906
 8257SOL     OW25669   6.402   3.988   3.533
 8257SOL    HW125670   6.398   4.087   3.518
 8257SOL    HW225671   6.467   3.948   3.468
 8258SOL     OW25672   5.074   1.299   0.680
 8258SOL    HW125673   5.026   1.227   0.730
 8258SOL    HW225674   5.034   1.310   0.589
 8259SOL     OW25675   4.440   1.839   3.433
 8259SOL    HW125676   4.519   1.892   3.463
 8259SOL    HW225677   4.458   1.801   3.342
 8260SOL     OW25678   2.694   0.226   2.209
 8260SOL    HW125679   2.700   0.320   2.241
 8260SOL    HW225680   2.746   0.167   2.271
 8261SOL     OW25681   6.528   1.194   1.967
 8261SOL    HW125682   6.533   1.188   1.868
 8261SOL    HW225683   6.618   1.172   2.007
 8262SOL     OW25684   0.807   2.900   1.054
 8262SOL    HW125685   0.717   2.859   1.037
 8262SOL    HW225686   0.807   2.944   1.144
 8263SOL     OW25687   1.074   2.415   0.366
 8263SOL    HW125688   1.140   2.352   0.325
 8263SOL    HW225689   1.123   2.490   0.411
 8264SOL     OW25690   2.276   6.265   2.224
 8264SOL    HW125691   2.179   6.285   2.208
 8264SOL    HW225692   2.286   6.171   2.257
 8265SOL     OW25693   0.999   6.689   1.430
 8265SOL    HW125694   1.089   6.673   1.471
 8265SOL    HW225695   1.008   6.699   1.331
 8266SOL     OW25696   2.113   1.071   3.527
 8266SOL    HW125697   2.058   1.019   3.593
 8266SOL    HW225698   2.195   1.019   3.505
 8267SOL     OW25699   1.620   3.262   1.027
 8267SOL    HW125700   1.583   3.169   1.031
 8267SOL    HW225701   1.692   3.267   0.958
 8268SOL     OW25702   2.462   6.189   5.526
 8268SOL    HW125703   2.371   6.225   5.508
 8268SOL    HW225704   2.508   6.245   5.594
 8269SOL     OW25705   5.326   1.562   1.424
 8269SOL    HW125706   5.315   1.655   1.459
 8269SOL    HW225707   5.296   1.496   1.493
 8270SOL     OW25708   2.987   6.663   5.002
 8270SOL    HW125709   2.993   6.571   5.041
 8270SOL    HW225710   3.035   6.727   5.062
 8271SOL     OW25711   0.174   0.733   2.457
 8271SOL    HW125712   0.169   0.824   2.416
 8271SOL    HW225713   0.105   0.674   2.414
 8272SOL     OW25714   4.916   1.715   1.543
 8272SOL    HW125715   4.995   1.740   1.599
 8272SOL    HW225716   4.905   1.616   1.545
 8273SOL     OW25717   1.921   6.177   0.918
 8273SOL    HW125718   1.863   6.100   0.892
 8273SOL    HW225719   1.908   6.252   0.854
 8274SOL     OW25720   4.811   4.449   3.294
 8274SOL    HW125721   4.864   4.396   3.361
 8274SOL    HW225722   4.760   4.521   3.341
 8275SOL     OW25723   4.963   1.563   5.621
 8275SOL    HW125724   5.044   1.574   5.679
 8275SOL    HW225725   4.898   1.637   5.639
 8276SOL     OW25726   1.627   2.572   3.597
 8276SOL    HW125727   1.633   2.670   3.613
 8276SOL    HW225728   1.531   2.543   3.595
 8277SOL     OW25729   6.759   1.018   0.213
 8277SOL    HW125730   6.704   0.947   0.257
 8277SOL    HW225731   6.855   1.005   0.236
 8278SOL     OW25732   2.890   1.818   5.631
 8278SOL    HW125733   2.856   1.843   5.722
 8278SOL    HW225734   2.815   1.825   5.565
 8279SOL     OW25735   1.594   0.532   4.024
 8279SOL    HW125736   1.548   0.503   3.940
 8279SOL    HW225737   1.551   0.615   4.060
 8280SOL     OW25738   2.370   2.650   0.634
 8280SOL    HW125739   2.454   2.704   0.626
 8280SOL    HW225740   2.349   2.608   0.546
 8281SOL     OW25741   2.210   4.825   1.294
 8281SOL    HW125742   2.137   4.767   1.327
 8281SOL    HW225743   2.282   4.769   1.253
 8282SOL     OW25744   5.264   3.799   0.027
 8282SOL    HW125745   5.166   3.819   0.027
 8282SOL    HW225746   5.307   3.852   0.100
 8283SOL     OW25747   2.156   4.857   0.314
 8283SOL    HW125748   2.085   4.927   0.317
 8283SOL    HW225749   2.221   4.872   0.388
 8284SOL     OW25750   0.950   3.709   0.388
 8284SOL    HW125751   0.969   3.620   0.428
 8284SOL    HW225752   0.951   3.702   0.288
 8285SOL     OW25753   3.403   2.856   4.828
 8285SOL    HW125754   3.469   2.813   4.891
 8285SOL    HW225755   3.328   2.896   4.880
 8286SOL     OW25756   5.414   3.265   6.462
 8286SOL    HW125757   5.413   3.253   6.363
 8286SOL    HW225758   5.342   3.328   6.489
 8287SOL     OW25759   1.945   5.470   4.426
 8287SOL    HW125760   1.932   5.455   4.328
 8287SOL    HW225761   1.978   5.385   4.468
 8288SOL     OW25762   2.874   1.695   1.494
 8288SOL    HW125763   2.911   1.765   1.432
 8288SOL    HW225764   2.949   1.637   1.526
 8289SOL     OW25765   0.534   5.919   1.707
 8289SOL    HW125766   0.585   5.922   1.793
 8289SOL    HW225767   0.560   5.998   1.651
 8290SOL     OW25768   5.840   0.988   0.902
 8290SOL    HW125769   5.836   0.896   0.864
 8290SOL    HW225770   5.867   1.052   0.830
 8291SOL     OW25771   5.172   6.377   5.886
 8291SOL    HW125772   5.272   6.386   5.889
 8291SOL    HW225773   5.131   6.446   5.945
 8292SOL     OW25774   2.410   6.122   0.074
 8292SOL    HW125775   2.328   6.177   0.082
 8292SOL    HW225776   2.489   6.174   0.106
 8293SOL     OW25777   3.213   6.846   0.097
 8293SOL    HW125778   3.289   6.908   0.121
 8293SOL    HW225779   3.249   6.757   0.071
 8294SOL     OW25780   5.892   4.772   4.631
 8294SOL    HW125781   5.843   4.842   4.579
 8294SOL    HW225782   5.825   4.713   4.677
 8295SOL     OW25783   4.969   5.741   1.511
 8295SOL    HW125784   4.888   5.683   1.502
 8295SOL    HW225785   4.962   5.794   1.595
 8296SOL     OW25786   2.392   6.560   6.540
 8296SOL    HW125787   2.381   6.586   6.636
 8296SOL    HW225788   2.322   6.606   6.485
 8297SOL     OW25789   6.597   2.673   2.266
 8297SOL    HW125790   6.675   2.657   2.326
 8297SOL    HW225791   6.546   2.587   2.254
 8298SOL     OW25792   5.806   2.210   1.119
 8298SOL    HW125793   5.761   2.245   1.201
 8298SOL    HW225794   5.905   2.220   1.130
 8299SOL     OW25795   0.359   2.587   2.072
 8299SOL    HW125796   0.382   2.623   1.981
 8299SOL    HW225797   0.287   2.644   2.113
 8300SOL     OW25798   0.401   5.938   5.183
 8300SOL    HW125799   0.332   5.895   5.241
 8300SOL    HW225800   0.381   6.036   5.175
 8301SOL     OW25801   4.274   1.704   1.933
 8301SOL    HW125802   4.188   1.739   1.896
 8301SOL    HW225803   4.348   1.727   1.870
 8302SOL     OW25804   5.990   6.337   6.408
 8302SOL    HW125805   5.961   6.254   6.457
 8302SOL    HW225806   6.076   6.369   6.446
 8303SOL     OW25807   6.498   1.284   4.012
 8303SOL    HW125808   6.469   1.189   4.000
 8303SOL    HW225809   6.542   1.317   3.929
 8304SOL     OW25810   1.364   3.290   0.846
 8304SOL    HW125811   1.410   3.371   0.810
 8304SOL    HW225812   1.298   3.317   0.916
 8305SOL     OW25813   3.877   4.898   4.640
 8305SOL    HW125814   3.814   4.856   4.574
 8305SOL    HW225815   3.900   4.990   4.609
 8306SOL     OW25816   6.978   2.925   5.370
 8306SOL    HW125817   0.004   3.010   5.381
 8306SOL    HW225818   6.911   2.916   5.444
 8307SOL     OW25819   4.201   5.127   1.887
 8307SOL    HW125820   4.106   5.138   1.855
 8307SOL    HW225821   4.212   5.038   1.931
 8308SOL     OW25822   4.162   5.831   1.167
 8308SOL    HW125823   4.107   5.914   1.164
 8308SOL    HW225824   4.254   5.851   1.134
 8309SOL     OW25825   6.314   5.685   3.353
 8309SOL    HW125826   6.255   5.764   3.375
 8309SOL    HW225827   6.407   5.704   3.385
 8310SOL     OW25828   1.062   4.257   0.753
 8310SOL    HW125829   1.123   4.178   0.757
 8310SOL    HW225830   1.060   4.302   0.843
 8311SOL     OW25831   0.550   1.243   4.913
 8311SOL    HW125832   0.501   1.271   4.831
 8311SOL    HW225833   0.545   1.143   4.923
 8312SOL     OW25834   4.249   6.469   0.948
 8312SOL    HW125835   4.206   6.558   0.961
 8312SOL    HW225836   4.240   6.415   1.032
 8313SOL     OW25837   5.019   1.287   2.670
 8313SOL    HW125838   4.920   1.293   2.682
 8313SOL    HW225839   5.061   1.249   2.753
 8314SOL     OW25840   4.400   0.083   0.976
 8314SOL    HW125841   4.324   0.092   1.040
 8314SOL    HW225842   4.435   7.014   0.978
 8315SOL     OW25843   4.084   3.491   0.857
 8315SOL    HW125844   4.147   3.568   0.863
 8315SOL    HW225845   4.127   3.408   0.894
 8316SOL     OW25846   1.225   1.993   1.843
 8316SOL    HW125847   1.290   2.050   1.893
 8316SOL    HW225848   1.270   1.953   1.763
 8317SOL     OW25849   2.500   2.322   2.351
 8317SOL    HW125850   2.520   2.225   2.363
 8317SOL    HW225851   2.408   2.342   2.385
 8318SOL     OW25852   4.341   1.265   4.803
 8318SOL    HW125853   4.385   1.304   4.883
 8318SOL    HW225854   4.399   1.192   4.765
 8319SOL     OW25855   2.904   1.550   6.311
 8319SOL    HW125856   2.805   1.542   6.306
 8319SOL    HW225857   2.945   1.512   6.228
 8320SOL     OW25858   3.232   3.753   1.371
 8320SOL    HW125859   3.266   3.696   1.296
 8320SOL    HW225860   3.202   3.841   1.336
 8321SOL     OW25861   6.994   1.061   0.498
 8321SOL    HW125862   6.973   1.006   0.417
 8321SOL    HW225863   6.909   1.102   0.533
 8322SOL     OW25864   6.993   0.830   0.685
 8322SOL    HW125865   0.069   0.830   0.684
 8322SOL    HW225866   6.959   0.897   0.619
 8323SOL     OW25867   5.918   6.030   2.719
 8323SOL    HW125868   5.920   6.093   2.641
 8323SOL    HW225869   6.009   5.991   2.732
 8324SOL     OW25870   5.677   1.212   1.834
 8324SOL    HW125871   5.588   1.253   1.819
 8324SOL    HW225872   5.669   1.112   1.836
 8325SOL     OW25873   3.249   3.395   5.229
 8325SOL    HW125874   3.293   3.305   5.236
 8325SOL    HW225875   3.213   3.407   5.137
 8326SOL     OW25876   4.865   3.387   5.207
 8326SOL    HW125877   4.790   3.437   5.163
 8326SOL    HW225878   4.862   3.404   5.306
 8327SOL     OW25879   6.133   2.028   6.182
 8327SOL    HW125880   6.171   1.936   6.190
 8327SOL    HW225881   6.070   2.045   6.258
 8328SOL     OW25882   2.588   4.222   5.901
 8328SOL    HW125883   2.501   4.236   5.949
 8328SOL    HW225884   2.571   4.182   5.811
 8329SOL     OW25885   0.039   3.828   6.458
 8329SOL    HW125886   0.086   3.907   6.417
 8329SOL    HW225887   6.995   3.861   6.522
 8330SOL     OW25888   2.933   0.271   0.363
 8330SOL    HW125889   3.024   0.290   0.326
 8330SOL    HW225890   2.883   0.213   0.299
 8331SOL     OW25891   2.754   1.221   1.314
 8331SOL    HW125892   2.678   1.157   1.302
 8331SOL    HW225893   2.839   1.179   1.281
 8332SOL     OW25894   4.797   4.672   2.430
 8332SOL    HW125895   4.832   4.703   2.519
 8332SOL    HW225896   4.819   4.575   2.419
 8333SOL     OW25897   0.504   6.563   6.510
 8333SOL    HW125898   0.501   6.557   6.610
 8333SOL    HW225899   0.495   6.472   6.471
 8334SOL     OW25900   4.531   1.539   4.072
 8334SOL    HW125901   4.550   1.442   4.057
 8334SOL    HW225902   4.565   1.566   4.162
 8335SOL     OW25903   6.376   5.803   6.454
 8335SOL    HW125904   6.374   5.746   6.536
 8335SOL    HW225905   6.367   5.745   6.373
 8336SOL     OW25906   6.613   6.622   2.656
 8336SOL    HW125907   6.677   6.685   2.610
 8336SOL    HW225908   6.554   6.674   2.718
 8337SOL     OW25909   0.839   6.414   3.267
 8337SOL    HW125910   0.851   6.512   3.281
 8337SOL    HW225911   0.928   6.369   3.265
 8338SOL     OW25912   2.396   5.100   1.867
 8338SOL    HW125913   2.450   5.084   1.785
 8338SOL    HW225914   2.314   5.152   1.844
 8339SOL     OW25915   5.806   0.597   1.781
 8339SOL    HW125916   5.785   0.686   1.742
 8339SOL    HW225917   5.829   0.607   1.878
 8340SOL     OW25918   5.325   4.007   1.392
 8340SOL    HW125919   5.303   3.929   1.334
 8340SOL    HW225920   5.242   4.059   1.411
 8341SOL     OW25921   2.162   6.782   0.036
 8341SOL    HW125922   2.108   6.718   0.091
 8341SOL    HW225923   2.100   6.846   7.014
 8342SOL     OW25924   3.752   0.217   1.785
 8342SOL    HW125925   3.738   0.129   1.832
 8342SOL    HW225926   3.679   0.231   1.719
 8343SOL     OW25927   1.044   4.869   6.094
 8343SOL    HW125928   1.075   4.854   6.188
 8343SOL    HW225929   0.953   4.828   6.083
 8344SOL     OW25930   4.584   0.531   5.362
 8344SOL    HW125931   4.669   0.583   5.368
 8344SOL    HW225932   4.512   0.579   5.412
 8345SOL     OW25933   5.055   1.869   3.588
 8345SOL    HW125934   5.084   1.954   3.631
 8345SOL    HW225935   4.968   1.839   3.629
 8346SOL     OW25936   2.873   4.355   0.053
 8346SOL    HW125937   2.896   4.257   0.058
 8346SOL    HW225938   2.944   4.407   0.101
 8347SOL     OW25939   3.851   5.749   4.175
 8347SOL    HW125940   3.858   5.817   4.247
 8347SOL    HW225941   3.820   5.662   4.214
 8348SOL     OW25942   1.165   6.869   1.822
 8348SOL    HW125943   1.239   6.834   1.766
 8348SOL    HW225944   1.133   6.797   1.884
 8349SOL     OW25945   6.377   6.013   1.341
 8349SOL    HW125946   6.458   6.056   1.300
 8349SOL    HW225947   6.403   5.928   1.387
 8350SOL     OW25948   4.848   0.944   4.643
 8350SOL    HW125949   4.866   0.957   4.741
 8350SOL    HW225950   4.786   1.016   4.611
 8351SOL     OW25951   4.513   5.315   4.413
 8351SOL    HW125952   4.428   5.310   4.361
 8351SOL    HW225953   4.587   5.349   4.354
 8352SOL     OW25954   6.739   6.382   2.656
 8352SOL    HW125955   6.664   6.448   2.663
 8352SOL    HW225956   6.797   6.389   2.736
 8353SOL     OW25957   6.700   3.240   1.487
 8353SOL    HW125958   6.710   3.228   1.388
 8353SOL    HW225959   6.681   3.151   1.528
 8354SOL     OW25960   3.913   0.501   6.873
 8354SOL    HW125961   3.972   0.580   6.890
 8354SOL    HW225962   3.938   0.460   6.785
 8355SOL     OW25963   2.688   0.493   7.016
 8355SOL    HW125964   2.603   0.490   0.044
 8355SOL    HW225965   2.675   0.549   6.934
 8356SOL     OW25966   1.363   6.231   0.685
 8356SOL    HW125967   1.427   6.298   0.722
 8356SOL    HW225968   1.362   6.149   0.743
 8357SOL     OW25969   3.803   0.243   5.837
 8357SOL    HW125970   3.714   0.213   5.802
 8357SOL    HW225971   3.859   0.276   5.760
 8358SOL     OW25972   1.077   3.391   5.630
 8358SOL    HW125973   1.025   3.422   5.550
 8358SOL    HW225974   1.169   3.365   5.602
 8359SOL     OW25975   2.945   6.373   4.462
 8359SOL    HW125976   2.991   6.460   4.445
 8359SOL    HW225977   2.985   6.329   4.543
 8360SOL     OW25978   3.859   5.980   1.367
 8360SOL    HW125979   3.900   6.009   1.281
 8360SOL    HW225980   3.822   6.059   1.415
 8361SOL     OW25981   2.102   0.385   2.638
 8361SOL    HW125982   2.148   0.300   2.663
 8361SOL    HW225983   2.105   0.395   2.538
 8362SOL     OW25984   2.873   1.587   0.771
 8362SOL    HW125985   2.858   1.644   0.691
 8362SOL    HW225986   2.786   1.555   0.806
 8363SOL     OW25987   0.696   2.384   0.086
 8363SOL    HW125988   0.626   2.312   0.081
 8363SOL    HW225989   0.771   2.361   0.025
 8364SOL     OW25990   6.650   3.349   2.564
 8364SOL    HW125991   6.672   3.428   2.621
 8364SOL    HW225992   6.645   3.267   2.622
 8365SOL     OW25993   2.011   4.388   1.817
 8365SOL    HW125994   2.005   4.367   1.719
 8365SOL    HW225995   2.055   4.477   1.829
 8366SOL     OW25996   3.369   5.108   2.237
 8366SOL    HW125997   3.365   5.023   2.291
 8366SOL    HW225998   3.369   5.085   2.140
 8367SOL     OW25999   3.960   6.069   3.894
 8367SOL    HW126000   4.031   6.009   3.931
 8367SOL    HW226001   3.913   6.022   3.819
 8368SOL     OW26002   2.335   6.575   5.723
 8368SOL    HW126003   2.260   6.609   5.780
 8368SOL    HW226004   2.302   6.558   5.630
 8369SOL     OW26005   1.780   6.664   6.669
 8369SOL    HW126006   1.877   6.680   6.687
 8369SOL    HW226007   1.726   6.688   6.750
 8370SOL     OW26008   2.718   2.121   5.369
 8370SOL    HW126009   2.626   2.159   5.356
 8370SOL    HW226010   2.725   2.086   5.463
 8371SOL     OW26011   1.814   4.090   1.344
 8371SOL    HW126012   1.842   4.182   1.317
 8371SOL    HW226013   1.859   4.023   1.286
 8372SOL     OW26014   0.493   5.700   2.389
 8372SOL    HW126015   0.457   5.614   2.351
 8372SOL    HW226016   0.542   5.681   2.474
 8373SOL     OW26017   1.156   0.315   4.283
 8373SOL    HW126018   1.188   0.330   4.376
 8373SOL    HW226019   1.147   0.403   4.237
 8374SOL     OW26020   6.823   0.675   6.184
 8374SOL    HW126021   6.750   0.732   6.222
 8374SOL    HW226022   6.912   0.713   6.210
 8375SOL     OW26023   3.117   6.971   5.755
 8375SOL    HW126024   3.064   6.887   5.766
 8375SOL    HW226025   3.070   0.007   5.690
 8376SOL     OW26026   1.895   0.477   4.212
 8376SOL    HW126027   1.956   0.444   4.284
 8376SOL    HW226028   1.903   0.418   4.132
 8377SOL     OW26029   5.820   5.347   1.437
 8377SOL    HW126030   5.897   5.369   1.497
 8377SOL    HW226031   5.785   5.430   1.396
 8378SOL     OW26032   4.964   4.520   3.054
 8378SOL    HW126033   4.947   4.607   3.102
 8378SOL    HW226034   4.926   4.445   3.108
 8379SOL     OW26035   6.435   2.333   1.087
 8379SOL    HW126036   6.476   2.246   1.115
 8379SOL    HW226037   6.412   2.328   0.989
 8380SOL     OW26038   6.616   1.609   2.450
 8380SOL    HW126039   6.594   1.549   2.374
 8380SOL    HW226040   6.544   1.677   2.462
 8381SOL     OW26041   0.170   4.069   4.921
 8381SOL    HW126042   0.136   4.148   4.971
 8381SOL    HW226043   0.249   4.096   4.865
 8382SOL     OW26044   1.339   0.931   2.088
 8382SOL    HW126045   1.428   0.976   2.076
 8382SOL    HW226046   1.280   0.953   2.010
 8383SOL     OW26047   2.250   0.360   6.014
 8383SOL    HW126048   2.317   0.411   6.067
 8383SOL    HW226049   2.194   0.424   5.962
 8384SOL     OW26050   0.501   0.299   0.332
 8384SOL    HW126051   0.541   0.301   0.240
 8384SOL    HW226052   0.493   0.392   0.367
 8385SOL     OW26053   5.861   2.669   1.589
 8385SOL    HW126054   5.898   2.747   1.638
 8385SOL    HW226055   5.885   2.585   1.637
 8386SOL     OW26056   0.809   4.309   2.594
 8386SOL    HW126057   0.844   4.219   2.619
 8386SOL    HW226058   0.746   4.299   2.516
 8387SOL     OW26059   0.903   1.365   1.535
 8387SOL    HW126060   0.919   1.451   1.584
 8387SOL    HW226061   0.946   1.368   1.445
 8388SOL     OW26062   1.520   5.949   0.614
 8388SOL    HW126063   1.442   5.925   0.672
 8388SOL    HW226064   1.550   6.041   0.635
 8389SOL     OW26065   6.180   4.120   2.665
 8389SOL    HW126066   6.115   4.097   2.593
 8389SOL    HW226067   6.238   4.196   2.635
 8390SOL     OW26068   3.887   1.312   6.568
 8390SOL    HW126069   3.817   1.268   6.624
 8390SOL    HW226070   3.869   1.410   6.562
 8391SOL     OW26071   6.160   5.563   0.554
 8391SOL    HW126072   6.142   5.489   0.490
 8391SOL    HW226073   6.166   5.650   0.505
 8392SOL     OW26074   6.243   3.703   3.478
 8392SOL    HW126075   6.156   3.685   3.524
 8392SOL    HW226076   6.265   3.800   3.484
 8393SOL     OW26077   6.217   0.951   2.962
 8393SOL    HW126078   6.127   0.915   2.936
 8393SOL    HW226079   6.269   0.974   2.879
 8394SOL     OW26080   5.651   3.251   1.688
 8394SOL    HW126081   5.701   3.202   1.759
 8394SOL    HW226082   5.554   3.225   1.691
 8395SOL     OW26083   2.824   6.586   5.365
 8395SOL    HW126084   2.818   6.531   5.281
 8395SOL    HW226085   2.774   6.672   5.352
 8396SOL     OW26086   5.177   4.882   3.042
 8396SOL    HW126087   5.120   4.916   2.967
 8396SOL    HW226088   5.118   4.847   3.115
 8397SOL     OW26089   0.770   0.914   3.471
 8397SOL    HW126090   0.762   0.816   3.453
 8397SOL    HW226091   0.865   0.936   3.494
 8398SOL     OW26092   5.061   2.458   5.885
 8398SOL    HW126093   5.148   2.436   5.929
 8398SOL    HW226094   5.027   2.545   5.919
 8399SOL     OW26095   6.456   6.294   6.861
 8399SOL    HW126096   6.367   6.320   6.900
 8399SOL    HW226097   6.455   6.310   6.762
 8400SOL     OW26098   1.907   2.524   4.225
 8400SOL    HW126099   1.976   2.452   4.230
 8400SOL    HW226100   1.923   2.592   4.296
 8401SOL     OW26101   2.022   1.520   5.320
 8401SOL    HW126102   2.079   1.602   5.315
 8401SOL    HW226103   1.982   1.503   5.230
 8402SOL     OW26104   5.542   1.844   6.286
 8402SOL    HW126105   5.531   1.785   6.206
 8402SOL    HW226106   5.547   1.940   6.257
 8403SOL     OW26107   0.546   3.225   4.339
 8403SOL    HW126108   0.570   3.129   4.357
 8403SOL    HW226109   0.462   3.248   4.389
 8404SOL     OW26110   3.777   0.176   6.096
 8404SOL    HW126111   3.835   0.191   6.017
 8404SOL    HW226112   3.685   0.210   6.077
 8405SOL     OW26113   3.138   1.700   6.066
 8405SOL    HW126114   3.235   1.675   6.073
 8405SOL    HW226115   3.130   1.799   6.050
 8406SOL     OW26116   4.117   0.168   0.408
 8406SOL    HW126117   4.210   0.178   0.372
 8406SOL    HW226118   4.055   0.225   0.354
 8407SOL     OW26119   3.978   6.314   3.482
 8407SOL    HW126120   3.937   6.234   3.440
 8407SOL    HW226121   3.942   6.326   3.574
 8408SOL     OW26122   5.481   5.029   0.704
 8408SOL    HW126123   5.507   5.037   0.800
 8408SOL    HW226124   5.385   5.000   0.698
 8409SOL     OW26125   4.942   2.382   1.937
 8409SOL    HW126126   4.849   2.409   1.914
 8409SOL    HW226127   4.952   2.380   2.036
 8410SOL     OW26128   6.206   2.039   1.821
 8410SOL    HW126129   6.305   2.050   1.829
 8410SOL    HW226130   6.181   1.944   1.839
 8411SOL     OW26131   0.361   5.845   1.176
 8411SOL    HW126132   0.459   5.867   1.178
 8411SOL    HW226133   0.349   5.751   1.143
 8412SOL     OW26134   3.830   2.228   1.086
 8412SOL    HW126135   3.789   2.279   1.162
 8412SOL    HW226136   3.774   2.147   1.066
 8413SOL     OW26137   4.405   5.741   6.144
 8413SOL    HW126138   4.330   5.714   6.204
 8413SOL    HW226139   4.450   5.659   6.107
 8414SOL     OW26140   2.267   0.921   3.159
 8414SOL    HW126141   2.364   0.924   3.183
 8414SOL    HW226142   2.258   0.897   3.063
 8415SOL     OW26143   1.738   6.576   3.939
 8415SOL    HW126144   1.691   6.591   3.852
 8415SOL    HW226145   1.788   6.659   3.964
 8416SOL     OW26146   6.411   1.609   4.813
 8416SOL    HW126147   6.401   1.704   4.784
 8416SOL    HW226148   6.462   1.558   4.744
 8417SOL     OW26149   1.454   2.918   5.180
 8417SOL    HW126150   1.458   2.957   5.088
 8417SOL    HW226151   1.359   2.896   5.203
 8418SOL     OW26152   0.279   5.125   1.947
 8418SOL    HW126153   0.221   5.093   2.022
 8418SOL    HW226154   0.323   5.047   1.903
 8419SOL     OW26155   6.037   1.335   2.660
 8419SOL    HW126156   6.136   1.350   2.668
 8419SOL    HW226157   6.004   1.285   2.740
 8420SOL     OW26158   3.154   6.450   1.648
 8420SOL    HW126159   3.071   6.428   1.597
 8420SOL    HW226160   3.227   6.476   1.584
 8421SOL     OW26161   3.491   4.763   0.034
 8421SOL    HW126162   3.526   4.777   6.966
 8421SOL    HW226163   3.471   4.666   0.049
 8422SOL     OW26164   4.090   1.678   2.850
 8422SOL    HW126165   4.065   1.689   2.946
 8422SOL    HW226166   4.075   1.764   2.801
 8423SOL     OW26167   4.360   4.249   5.663
 8423SOL    HW126168   4.265   4.279   5.673
 8423SOL    HW226169   4.384   4.245   5.566
 8424SOL     OW26170   1.961   2.324   3.010
 8424SOL    HW126171   1.929   2.352   2.919
 8424SOL    HW226172   2.005   2.402   3.055
 8425SOL     OW26173   4.083   3.448   4.884
 8425SOL    HW126174   4.098   3.546   4.898
 8425SOL    HW226175   4.115   3.398   4.965
 8426SOL     OW26176   3.613   3.199   2.710
 8426SOL    HW126177   3.665   3.114   2.704
 8426SOL    HW226178   3.528   3.190   2.657
 8427SOL     OW26179   3.166   3.682   3.657
 8427SOL    HW126180   3.172   3.688   3.558
 8427SOL    HW226181   3.070   3.693   3.686
 8428SOL     OW26182   6.856   6.721   1.781
 8428SOL    HW126183   6.872   6.804   1.835
 8428SOL    HW226184   6.772   6.677   1.812
 8429SOL     OW26185   1.426   5.418   5.655
 8429SOL    HW126186   1.458   5.404   5.561
 8429SOL    HW226187   1.395   5.331   5.693
 8430SOL     OW26188   3.928   5.102   4.257
 8430SOL    HW126189   3.847   5.065   4.210
 8430SOL    HW226190   4.006   5.042   4.241
 8431SOL     OW26191   3.995   3.815   0.255
 8431SOL    HW126192   3.974   3.739   0.316
 8431SOL    HW226193   4.078   3.862   0.287
 8432SOL     OW26194   6.607   5.276   5.580
 8432SOL    HW126195   6.527   5.331   5.604
 8432SOL    HW226196   6.686   5.309   5.631
 8433SOL     OW26197   4.310   2.962   0.767
 8433SOL    HW126198   4.365   2.975   0.850
 8433SOL    HW226199   4.234   3.026   0.767
 8434SOL     OW26200   2.527   6.903   4.323
 8434SOL    HW126201   2.524   6.891   4.224
 8434SOL    HW226202   2.620   6.929   4.350
 8435SOL     OW26203   5.568   0.172   2.686
 8435SOL    HW126204   5.518   0.129   2.611
 8435SOL    HW226205   5.617   0.253   2.652
 8436SOL     OW26206   2.981   6.490   3.800
 8436SOL    HW126207   3.064   6.448   3.762
 8436SOL    HW226208   2.905   6.426   3.796
 8437SOL     OW26209   2.262   2.693   2.616
 8437SOL    HW126210   2.256   2.745   2.531
 8437SOL    HW226211   2.249   2.596   2.598
 8438SOL     OW26212   2.506   4.475   3.227
 8438SOL    HW126213   2.592   4.426   3.244
 8438SOL    HW226214   2.430   4.410   3.229
 8439SOL     OW26215   6.524   4.869   2.942
 8439SOL    HW126216   6.476   4.835   3.022
 8439SOL    HW226217   6.581   4.947   2.969
 8440SOL     OW26218   2.422   2.245   3.159
 8440SOL    HW126219   2.473   2.164   3.191
 8440SOL    HW226220   2.413   2.242   3.060
 8441SOL     OW26221   5.935   6.286   6.122
 8441SOL    HW126222   5.947   6.288   6.222
 8441SOL    HW226223   6.015   6.244   6.080
 8442SOL     OW26224   3.747   1.223   4.582
 8442SOL    HW126225   3.776   1.318   4.574
 8442SOL    HW226226   3.723   1.188   4.491
 8443SOL     OW26227   2.284   4.936   3.729
 8443SOL    HW126228   2.245   4.844   3.733
 8443SOL    HW226229   2.328   4.949   3.640
 8444SOL     OW26230   3.022   6.928   3.480
 8444SOL    HW126231   3.042   0.001   3.491
 8444SOL    HW226232   3.107   6.876   3.486
 8445SOL     OW26233   3.001   0.625   0.785
 8445SOL    HW126234   2.952   0.710   0.804
 8445SOL    HW226235   2.942   0.547   0.807
 8446SOL     OW26236   6.506   5.150   5.331
 8446SOL    HW126237   6.587   5.116   5.285
 8446SOL    HW226238   6.530   5.227   5.389
 8447SOL     OW26239   3.866   1.684   1.509
 8447SOL    HW126240   3.789   1.630   1.542
 8447SOL    HW226241   3.927   1.626   1.455
 8448SOL     OW26242   4.863   6.304   3.397
 8448SOL    HW126243   4.770   6.283   3.429
 8448SOL    HW226244   4.908   6.219   3.368
 8449SOL     OW26245   0.418   3.329   3.251
 8449SOL    HW126246   0.452   3.418   3.220
 8449SOL    HW226247   0.451   3.258   3.189
 8450SOL     OW26248   0.408   0.851   1.516
 8450SOL    HW126249   0.466   0.798   1.455
 8450SOL    HW226250   0.463   0.887   1.592
 8451SOL     OW26251   3.202   1.119   0.247
 8451SOL    HW126252   3.162   1.152   0.162
 8451SOL    HW226253   3.266   1.046   0.228
 8452SOL     OW26254   5.325   2.827   4.809
 8452SOL    HW126255   5.233   2.865   4.806
 8452SOL    HW226256   5.392   2.901   4.821
 8453SOL     OW26257   0.129   5.384   0.233
 8453SOL    HW126258   0.165   5.463   0.184
 8453SOL    HW226259   0.044   5.353   0.189
 8454SOL     OW26260   0.384   5.284   0.389
 8454SOL    HW126261   0.452   5.226   0.344
 8454SOL    HW226262   0.325   5.325   0.319
 8455SOL     OW26263   6.617   2.305   3.235
 8455SOL    HW126264   6.559   2.322   3.156
 8455SOL    HW226265   6.640   2.208   3.239
 8456SOL     OW26266   4.303   0.615   3.512
 8456SOL    HW126267   4.328   0.519   3.507
 8456SOL    HW226268   4.379   0.668   3.551
 8457SOL     OW26269   6.837   5.894   4.889
 8457SOL    HW126270   6.802   5.868   4.800
 8457SOL    HW226271   6.761   5.916   4.950
 8458SOL     OW26272   1.652   0.292   0.611
 8458SOL    HW126273   1.609   0.205   0.589
 8458SOL    HW226274   1.670   0.343   0.527
 8459SOL     OW26275   1.878   5.850   3.060
 8459SOL    HW126276   1.969   5.890   3.069
 8459SOL    HW226277   1.826   5.903   2.992
 8460SOL     OW26278   4.544   3.764   5.490
 8460SOL    HW126279   4.564   3.701   5.566
 8460SOL    HW226280   4.618   3.758   5.422
 8461SOL     OW26281   0.895   2.518   5.050
 8461SOL    HW126282   0.851   2.431   5.029
 8461SOL    HW226283   0.926   2.517   5.146
 8462SOL     OW26284   3.339   1.571   6.856
 8462SOL    HW126285   3.259   1.604   6.806
 8462SOL    HW226286   3.353   1.627   6.938
 8463SOL     OW26287   6.517   0.286   2.029
 8463SOL    HW126288   6.506   0.343   1.948
 8463SOL    HW226289   6.603   0.309   2.074
 8464SOL     OW26290   5.631   4.539   4.055
 8464SOL    HW126291   5.724   4.503   4.045
 8464SOL    HW226292   5.588   4.545   3.965
 8465SOL     OW26293   1.586   2.165   0.573
 8465SOL    HW126294   1.654   2.102   0.610
 8465SOL    HW226295   1.576   2.149   0.475
 8466SOL     OW26296   1.387   6.589   4.115
 8466SOL    HW126297   1.460   6.527   4.142
 8466SOL    HW226298   1.363   6.574   4.019
 8467SOL     OW26299   2.916   5.721   0.632
 8467SOL    HW126300   3.013   5.743   0.639
 8467SOL    HW226301   2.898   5.678   0.544
 8468SOL     OW26302   3.121   1.546   0.896
 8468SOL    HW126303   3.164   1.626   0.938
 8468SOL    HW226304   3.024   1.564   0.879
 8469SOL     OW26305   3.154   2.941   6.770
 8469SOL    HW126306   3.217   2.873   6.809
 8469SOL    HW226307   3.160   2.938   6.670
 8470SOL     OW26308   2.479   3.517   1.372
 8470SOL    HW126309   2.387   3.555   1.373
 8470SOL    HW226310   2.477   3.423   1.408
 8471SOL     OW26311   2.842   0.906   3.488
 8471SOL    HW126312   2.747   0.875   3.493
 8471SOL    HW226313   2.879   0.885   3.397
 8472SOL     OW26314   0.103   6.863   4.063
 8472SOL    HW126315   0.069   6.816   3.982
 8472SOL    HW226316   0.068   6.957   4.063
 8473SOL     OW26317   0.180   5.368   6.761
 8473SOL    HW126318   0.105   5.305   6.782
 8473SOL    HW226319   0.262   5.340   6.811
 8474SOL     OW26320   3.082   3.269   1.827
 8474SOL    HW126321   3.151   3.214   1.780
 8474SOL    HW226322   3.122   3.355   1.857
 8475SOL     OW26323   6.910   1.431   2.794
 8475SOL    HW126324   6.823   1.408   2.837
 8475SOL    HW226325   6.897   1.437   2.695
 8476SOL     OW26326   6.271   0.619   2.080
 8476SOL    HW126327   6.198   0.664   2.028
 8476SOL    HW226328   6.359   0.658   2.054
 8477SOL     OW26329   2.989   6.347   1.475
 8477SOL    HW126330   3.027   6.259   1.447
 8477SOL    HW226331   2.889   6.344   1.468
 8478SOL     OW26332   1.255   0.875   5.582
 8478SOL    HW126333   1.191   0.947   5.609
 8478SOL    HW226334   1.205   0.792   5.560
 8479SOL     OW26335   5.977   1.402   0.244
 8479SOL    HW126336   6.057   1.413   0.303
 8479SOL    HW226337   5.938   1.311   0.258
 8480SOL     OW26338   3.452   1.110   1.311
 8480SOL    HW126339   3.368   1.147   1.349
 8480SOL    HW226340   3.439   1.012   1.292
 8481SOL     OW26341   4.317   1.722   4.091
 8481SOL    HW126342   4.398   1.667   4.071
 8481SOL    HW226343   4.333   1.775   4.174
 8482SOL     OW26344   2.279   0.030   2.069
 8482SOL    HW126345   2.305   0.008   1.975
 8482SOL    HW226346   2.183   0.057   2.071
 8483SOL     OW26347   3.152   5.897   2.169
 8483SOL    HW126348   3.057   5.865   2.166
 8483SOL    HW226349   3.201   5.849   2.242
 8484SOL     OW26350   6.948   4.953   2.860
 8484SOL    HW126351   0.018   4.934   2.888
 8484SOL    HW226352   6.919   5.040   2.901
 8485SOL     OW26353   1.727   3.618   6.885
 8485SOL    HW126354   1.637   3.642   6.848
 8485SOL    HW226355   1.798   3.647   6.822
 8486SOL     OW26356   5.494   1.244   2.843
 8486SOL    HW126357   5.562   1.303   2.885
 8486SOL    HW226358   5.540   1.171   2.792
 8487SOL     OW26359   5.245   6.893   0.670
 8487SOL    HW126360   5.214   6.814   0.721
 8487SOL    HW226361   5.210   6.889   0.576
 8488SOL     OW26362   5.576   5.208   5.309
 8488SOL    HW126363   5.583   5.291   5.364
 8488SOL    HW226364   5.597   5.230   5.214
 8489SOL     OW26365   5.990   6.886   1.242
 8489SOL    HW126366   5.964   6.800   1.199
 8489SOL    HW226367   6.068   6.870   1.303
 8490SOL     OW26368   4.561   6.309   3.475
 8490SOL    HW126369   4.557   6.345   3.568
 8490SOL    HW226370   4.474   6.325   3.429
 8491SOL     OW26371   2.580   0.505   1.611
 8491SOL    HW126372   2.498   0.510   1.553
 8491SOL    HW226373   2.584   0.587   1.668
 8492SOL     OW26374   4.618   3.642   5.772
 8492SOL    HW126375   4.547   3.706   5.803
 8492SOL    HW226376   4.620   3.563   5.832
 8493SOL     OW26377   3.301   1.932   0.014
 8493SOL    HW126378   3.301   1.919   0.113
 8493SOL    HW226379   3.393   1.917   7.003
 8494SOL     OW26380   1.614   4.763   6.287
 8494SOL    HW126381   1.681   4.693   6.263
 8494SOL    HW226382   1.536   4.757   6.225
 8495SOL     OW26383   6.964   3.399   0.748
 8495SOL    HW126384   0.005   3.330   0.717
 8495SOL    HW226385   7.013   3.482   0.776
 8496SOL     OW26386   0.474   2.104   3.025
 8496SOL    HW126387   0.559   2.152   3.049
 8496SOL    HW226388   0.408   2.171   2.989
 8497SOL     OW26389   5.473   6.525   4.432
 8497SOL    HW126390   5.571   6.527   4.454
 8497SOL    HW226391   5.461   6.499   4.336
 8498SOL     OW26392   0.259   6.155   1.891
 8498SOL    HW126393   0.225   6.206   1.812
 8498SOL    HW226394   0.355   6.176   1.906
 8499SOL     OW26395   2.373   5.559   6.148
 8499SOL    HW126396   2.344   5.466   6.173
 8499SOL    HW226397   2.473   5.563   6.145
 8500SOL     OW26398   2.459   0.726   5.627
 8500SOL    HW126399   2.454   0.670   5.709
 8500SOL    HW226400   2.456   0.823   5.652
 8501SOL     OW26401   1.692   2.008   6.960
 8501SOL    HW126402   1.766   2.046   7.016
 8501SOL    HW226403   1.622   1.969   7.020
 8502SOL     OW26404   1.036   5.202   1.503
 8502SOL    HW126405   0.986   5.115   1.507
 8502SOL    HW226406   1.076   5.213   1.411
 8503SOL     OW26407   1.198   5.235   2.629
 8503SOL    HW126408   1.195   5.200   2.536
 8503SOL    HW226409   1.124   5.195   2.683
 8504SOL     OW26410   1.636   6.158   3.156
 8504SOL    HW126411   1.597   6.193   3.241
 8504SOL    HW226412   1.570   6.171   3.081
 8505SOL     OW26413   5.000   4.188   3.175
 8505SOL    HW126414   4.906   4.154   3.176
 8505SOL    HW226415   5.028   4.208   3.081
 8506SOL     OW26416   0.747   6.955   0.514
 8506SOL    HW126417   0.708   6.866   0.534
 8506SOL    HW226418   0.713   7.022   0.580
 8507SOL     OW26419   2.124   0.609   5.302
 8507SOL    HW126420   2.117   0.648   5.394
 8507SOL    HW226421   2.053   0.539   5.289
 8508SOL     OW26422   0.066   2.956   4.563
 8508SOL    HW126423   0.151   2.985   4.606
 8508SOL    HW226424   7.013   2.986   4.619
 8509SOL     OW26425   6.496   1.523   4.553
 8509SOL    HW126426   6.596   1.514   4.544
 8509SOL    HW226427   6.457   1.552   4.466
 8510SOL     OW26428   6.712   5.042   3.071
 8510SOL    HW126429   6.630   5.089   3.104
 8510SOL    HW226430   6.754   4.991   3.145
 8511SOL     OW26431   5.781   4.486   1.826
 8511SOL    HW126432   5.875   4.452   1.827
 8511SOL    HW226433   5.781   4.586   1.827
 8512SOL     OW26434   3.753   2.225   0.330
 8512SOL    HW126435   3.805   2.291   0.276
 8512SOL    HW226436   3.759   2.135   0.287
 8513SOL     OW26437   4.867   4.060   1.320
 8513SOL    HW126438   4.884   3.962   1.305
 8513SOL    HW226439   4.786   4.070   1.378
 8514SOL     OW26440   2.336   2.646   3.357
 8514SOL    HW126441   2.319   2.547   3.362
 8514SOL    HW226442   2.397   2.666   3.280
 8515SOL     OW26443   0.392   1.309   6.887
 8515SOL    HW126444   0.297   1.341   6.892
 8515SOL    HW226445   0.397   1.214   6.918
 8516SOL     OW26446   6.341   3.119   1.583
 8516SOL    HW126447   6.418   3.166   1.625
 8516SOL    HW226448   6.373   3.040   1.532
 8517SOL     OW26449   1.866   2.382   6.126
 8517SOL    HW126450   1.847   2.285   6.115
 8517SOL    HW226451   1.892   2.421   6.038
 8518SOL     OW26452   5.160   4.107   5.865
 8518SOL    HW126453   5.087   4.172   5.885
 8518SOL    HW226454   5.185   4.057   5.948
 8519SOL     OW26455   0.626   4.902   0.864
 8519SOL    HW126456   0.541   4.945   0.834
 8519SOL    HW226457   0.701   4.968   0.857
 8520SOL     OW26458   3.095   2.997   5.690
 8520SOL    HW126459   3.106   2.947   5.604
 8520SOL    HW226460   3.171   2.974   5.752
 8521SOL     OW26461   1.956   5.678   5.538
 8521SOL    HW126462   2.027   5.738   5.575
 8521SOL    HW226463   1.924   5.616   5.610
 8522SOL     OW26464   0.403   0.032   1.421
 8522SOL    HW126465   0.375   0.085   1.501
 8522SOL    HW226466   0.476   6.993   1.447
 8523SOL     OW26467   2.312   6.697   6.823
 8523SOL    HW126468   2.270   6.731   6.907
 8523SOL    HW226469   2.387   6.635   6.847
 8524SOL     OW26470   1.156   3.829   4.820
 8524SOL    HW126471   1.203   3.870   4.742
 8524SOL    HW226472   1.182   3.733   4.829
 8525SOL     OW26473   5.713   4.953   1.135
 8525SOL    HW126474   5.770   4.891   1.081
 8525SOL    HW226475   5.618   4.921   1.135
 8526SOL     OW26476   3.529   6.631   0.768
 8526SOL    HW126477   3.497   6.539   0.749
 8526SOL    HW226478   3.610   6.627   0.827
 8527SOL     OW26479   3.431   0.516   6.951
 8527SOL    HW126480   3.448   0.421   6.923
 8527SOL    HW226481   3.473   0.532   0.016
 8528SOL     OW26482   3.634   1.518   0.820
 8528SOL    HW126483   3.627   1.614   0.793
 8528SOL    HW226484   3.726   1.484   0.801
 8529SOL     OW26485   1.249   6.699   0.504
 8529SOL    HW126486   1.194   6.782   0.517
 8529SOL    HW226487   1.251   6.675   0.407
 8530SOL     OW26488   3.996   3.517   5.200
 8530SOL    HW126489   3.923   3.551   5.140
 8530SOL    HW226490   4.051   3.450   5.150
 8531SOL     OW26491   0.072   5.774   2.433
 8531SOL    HW126492   0.065   5.683   2.475
 8531SOL    HW226493   0.140   5.828   2.482
 8532SOL     OW26494   4.040   6.061   4.236
 8532SOL    HW126495   4.046   6.005   4.154
 8532SOL    HW226496   3.955   6.115   4.233
 8533SOL     OW26497   1.667   6.011   0.373
 8533SOL    HW126498   1.622   5.977   0.290
 8533SOL    HW226499   1.618   5.975   0.453
 8534SOL     OW26500   4.884   2.901   4.017
 8534SOL    HW126501   4.971   2.854   4.033
 8534SOL    HW226502   4.882   2.935   3.923
 8535SOL     OW26503   5.913   1.293   4.046
 8535SOL    HW126504   5.968   1.367   4.007
 8535SOL    HW226505   5.831   1.280   3.990
 8536SOL     OW26506   0.506   1.721   5.313
 8536SOL    HW126507   0.563   1.639   5.313
 8536SOL    HW226508   0.452   1.723   5.228
 8537SOL     OW26509   5.749   1.644   3.443
 8537SOL    HW126510   5.780   1.550   3.427
 8537SOL    HW226511   5.653   1.644   3.470
 8538SOL     OW26512   1.837   1.225   6.843
 8538SOL    HW126513   1.878   1.152   6.787
 8538SOL    HW226514   1.738   1.226   6.829
 8539SOL     OW26515   6.892   1.749   2.161
 8539SOL    HW126516   6.906   1.839   2.120
 8539SOL    HW226517   6.827   1.757   2.236
 8540SOL     OW26518   5.879   0.067   6.787
 8540SOL    HW126519   5.826   0.112   6.858
 8540SOL    HW226520   5.854   0.104   6.698
 8541SOL     OW26521   3.691   1.729   3.591
 8541SOL    HW126522   3.634   1.803   3.556
 8541SOL    HW226523   3.720   1.670   3.515
 8542SOL     OW26524   3.995   4.186   6.240
 8542SOL    HW126525   3.909   4.137   6.254
 8542SOL    HW226526   4.026   4.225   6.327
 8543SOL     OW26527   1.958   1.560   1.566
 8543SOL    HW126528   2.010   1.524   1.489
 8543SOL    HW226529   1.995   1.648   1.594
 8544SOL     OW26530   5.788   3.182   4.418
 8544SOL    HW126531   5.882   3.172   4.385
 8544SOL    HW226532   5.777   3.271   4.463
 8545SOL     OW26533   4.441   0.093   5.753
 8545SOL    HW126534   4.464   0.099   5.656
 8545SOL    HW226535   4.419   0.184   5.788
 8546SOL     OW26536   5.919   2.112   4.292
 8546SOL    HW126537   5.932   2.013   4.293
 8546SOL    HW226538   5.875   2.138   4.206
 8547SOL     OW26539   0.672   6.604   6.027
 8547SOL    HW126540   0.589   6.660   6.020
 8547SOL    HW226541   0.673   6.537   5.953
 8548SOL     OW26542   5.875   2.918   5.028
 8548SOL    HW126543   5.970   2.903   5.004
 8548SOL    HW226544   5.853   3.015   5.021
 8549SOL     OW26545   0.313   3.741   3.874
 8549SOL    HW126546   0.215   3.727   3.885
 8549SOL    HW226547   0.362   3.659   3.905
 8550SOL     OW26548   2.173   4.750   6.076
 8550SOL    HW126549   2.074   4.740   6.081
 8550SOL    HW226550   2.215   4.703   6.154
 8551SOL     OW26551   3.707   4.061   6.498
 8551SOL    HW126552   3.803   4.043   6.475
 8551SOL    HW226553   3.680   4.007   6.577
 8552SOL     OW26554   2.688   6.083   4.160
 8552SOL    HW126555   2.695   6.019   4.237
 8552SOL    HW226556   2.760   6.064   4.094
 8553SOL     OW26557   5.466   5.633   6.731
 8553SOL    HW126558   5.550   5.583   6.751
 8553SOL    HW226559   5.389   5.589   6.775
 8554SOL     OW26560   0.780   4.778   0.237
 8554SOL    HW126561   0.809   4.784   0.333
 8554SOL    HW226562   0.681   4.762   0.233
 8555SOL     OW26563   0.985   0.514   3.217
 8555SOL    HW126564   1.075   0.472   3.231
 8555SOL    HW226565   0.982   0.557   3.127
 8556SOL     OW26566   0.831   6.675   3.249
 8556SOL    HW126567   0.855   6.735   3.173
 8556SOL    HW226568   0.850   6.723   3.335
 8557SOL     OW26569   6.602   1.491   1.898
 8557SOL    HW126570   6.685   1.546   1.894
 8557SOL    HW226571   6.555   1.494   1.810
 8558SOL     OW26572   2.535   5.871   3.011
 8558SOL    HW126573   2.502   5.965   3.023
 8558SOL    HW226574   2.578   5.863   2.921
 8559SOL     OW26575   6.434   0.608   2.598
 8559SOL    HW126576   6.512   0.545   2.604
 8559SOL    HW226577   6.467   0.702   2.607
 8560SOL     OW26578   6.734   0.203   1.315
 8560SOL    HW126579   6.798   0.217   1.390
 8560SOL    HW226580   6.666   0.276   1.315
 8561SOL     OW26581   3.501   6.246   2.158
 8561SOL    HW126582   3.470   6.224   2.066
 8561SOL    HW226583   3.443   6.318   2.196
 8562SOL     OW26584   4.872   6.798   5.137
 8562SOL    HW126585   4.897   6.710   5.096
 8562SOL    HW226586   4.782   6.826   5.103
 8563SOL     OW26587   2.465   3.059   6.753
 8563SOL    HW126588   2.490   2.963   6.768
 8563SOL    HW226589   2.455   3.076   6.655
 8564SOL     OW26590   2.358   0.990   3.444
 8564SOL    HW126591   2.413   0.910   3.470
 8564SOL    HW226592   2.324   0.978   3.351
 8565SOL     OW26593   5.087   6.897   1.567
 8565SOL    HW126594   5.071   6.977   1.625
 8565SOL    HW226595   5.014   6.830   1.580
 8566SOL     OW26596   1.183   1.209   2.179
 8566SOL    HW126597   1.242   1.290   2.178
 8566SOL    HW226598   1.170   1.178   2.273
 8567SOL     OW26599   6.905   1.798   1.704
 8567SOL    HW126600   7.000   1.803   1.734
 8567SOL    HW226601   6.901   1.797   1.604
 8568SOL     OW26602   4.635   1.193   6.564
 8568SOL    HW126603   4.640   1.173   6.466
 8568SOL    HW226604   4.546   1.164   6.600
 8569SOL     OW26605   4.844   1.534   5.943
 8569SOL    HW126606   4.916   1.603   5.936
 8569SOL    HW226607   4.870   1.453   5.890
 8570SOL     OW26608   1.054   2.543   6.251
 8570SOL    HW126609   0.996   2.465   6.228
 8570SOL    HW226610   1.129   2.551   6.185
 8571SOL     OW26611   6.958   5.382   6.000
 8571SOL    HW126612   0.001   5.451   5.975
 8571SOL    HW226613   6.921   5.403   6.091
 8572SOL     OW26614   3.033   5.361   5.813
 8572SOL    HW126615   3.109   5.407   5.768
 8572SOL    HW226616   3.038   5.263   5.795
 8573SOL     OW26617   3.849   6.070   6.708
 8573SOL    HW126618   3.772   6.028   6.756
 8573SOL    HW226619   3.815   6.143   6.648
 8574SOL     OW26620   0.193   4.998   5.395
 8574SOL    HW126621   0.153   4.969   5.308
 8574SOL    HW226622   0.225   4.917   5.445
 8575SOL     OW26623   2.929   2.540   0.182
 8575SOL    HW126624   2.905   2.571   0.090
 8575SOL    HW226625   2.859   2.477   0.216
 8576SOL     OW26626   0.853   6.725   0.708
 8576SOL    HW126627   0.935   6.764   0.751
 8576SOL    HW226628   0.878   6.686   0.619
 8577SOL     OW26629   6.198   5.059   4.473
 8577SOL    HW126630   6.194   5.156   4.447
 8577SOL    HW226631   6.180   5.051   4.571
 8578SOL     OW26632   4.920   0.603   3.810
 8578SOL    HW126633   4.985   0.663   3.857
 8578SOL    HW226634   4.869   0.655   3.742
 8579SOL     OW26635   1.620   5.698   3.658
 8579SOL    HW126636   1.648   5.604   3.678
 8579SOL    HW226637   1.587   5.741   3.743
 8580SOL     OW26638   2.402   6.762   2.024
 8580SOL    HW126639   2.371   6.852   2.051
 8580SOL    HW226640   2.478   6.733   2.082
 8581SOL     OW26641   3.170   2.706   1.692
 8581SOL    HW126642   3.227   2.761   1.754
 8581SOL    HW226643   3.216   2.619   1.672
 8582SOL     OW26644   4.381   4.527   2.384
 8582SOL    HW126645   4.469   4.491   2.354
 8582SOL    HW226646   4.309   4.496   2.321
 8583SOL     OW26647   5.917   0.765   6.023
 8583SOL    HW126648   5.978   0.768   5.944
 8583SOL    HW226649   5.832   0.720   5.997
 8584SOL     OW26650   0.434   3.957   6.667
 8584SOL    HW126651   0.532   3.949   6.684
 8584SOL    HW226652   0.418   3.972   6.570
 8585SOL     OW26653   6.859   6.796   0.506
 8585SOL    HW126654   6.927   6.869   0.503
 8585SOL    HW226655   6.775   6.826   0.461
 8586SOL     OW26656   2.459   6.371   3.152
 8586SOL    HW126657   2.522   6.444   3.127
 8586SOL    HW226658   2.381   6.409   3.202
 8587SOL     OW26659   0.965   0.206   3.063
 8587SOL    HW126660   1.004   0.229   2.974
 8587SOL    HW226661   0.865   0.209   3.057
 8588SOL     OW26662   2.917   0.822   0.128
 8588SOL    HW126663   2.887   0.863   0.042
 8588SOL    HW226664   2.837   0.799   0.184
 8589SOL     OW26665   4.357   2.007   4.514
 8589SOL    HW126666   4.277   2.035   4.569
 8589SOL    HW226667   4.421   2.083   4.509
 8590SOL     OW26668   6.816   5.976   4.136
 8590SOL    HW126669   6.824   5.894   4.079
 8590SOL    HW226670   6.719   5.996   4.150
 8591SOL     OW26671   0.815   4.509   6.320
 8591SOL    HW126672   0.854   4.549   6.237
 8591SOL    HW226673   0.753   4.574   6.362
 8592SOL     OW26674   0.180   4.124   0.234
 8592SOL    HW126675   0.237   4.204   0.212
 8592SOL    HW226676   0.221   4.075   0.311
 8593SOL     OW26677   1.146   6.686   2.045
 8593SOL    HW126678   1.209   6.715   2.117
 8593SOL    HW226679   1.170   6.594   2.014
 8594SOL     OW26680   3.342   3.786   5.082
 8594SOL    HW126681   3.343   3.698   5.034
 8594SOL    HW226682   3.405   3.849   5.037
 8595SOL     OW26683   2.259   1.390   2.471
 8595SOL    HW126684   2.341   1.339   2.495
 8595SOL    HW226685   2.186   1.369   2.537
 8596SOL     OW26686   6.034   5.475   2.340
 8596SOL    HW126687   6.128   5.469   2.373
 8596SOL    HW226688   5.992   5.384   2.343
 8597SOL     OW26689   4.192   2.181   1.263
 8597SOL    HW126690   4.124   2.218   1.327
 8597SOL    HW226691   4.169   2.208   1.170
 8598SOL     OW26692   0.083   5.609   1.424
 8598SOL    HW126693   0.010   5.610   1.492
 8598SOL    HW226694   0.157   5.671   1.452
 8599SOL     OW26695   1.209   3.004   4.123
 8599SOL    HW126696   1.295   3.043   4.089
 8599SOL    HW226697   1.210   2.905   4.111
 8600SOL     OW26698   5.755   4.962   6.801
 8600SOL    HW126699   5.782   4.868   6.824
 8600SOL    HW226700   5.788   4.984   6.710
 8601SOL     OW26701   0.613   1.096   4.557
 8601SOL    HW126702   0.614   1.031   4.633
 8601SOL    HW226703   0.554   1.173   4.580
 8602SOL     OW26704   2.303   6.489   2.406
 8602SOL    HW126705   2.300   6.414   2.340
 8602SOL    HW226706   2.315   6.452   2.498
 8603SOL     OW26707   3.719   4.230   0.421
 8603SOL    HW126708   3.671   4.296   0.478
 8603SOL    HW226709   3.814   4.258   0.410
 8604SOL     OW26710   6.278   3.056   3.379
 8604SOL    HW126711   6.184   3.092   3.383
 8604SOL    HW226712   6.342   3.133   3.381
 8605SOL     OW26713   3.246   5.058   4.487
 8605SOL    HW126714   3.152   5.041   4.456
 8605SOL    HW226715   3.308   4.996   4.439
 8606SOL     OW26716   2.248   4.516   5.706
 8606SOL    HW126717   2.343   4.548   5.711
 8606SOL    HW226718   2.245   4.419   5.731
 8607SOL     OW26719   3.057   4.977   1.204
 8607SOL    HW126720   3.146   4.946   1.236
 8607SOL    HW226721   3.000   5.001   1.282
 8608SOL     OW26722   4.937   4.796   3.151
 8608SOL    HW126723   4.899   4.859   3.219
 8608SOL    HW226724   4.874   4.790   3.073
 8609SOL     OW26725   4.032   0.813   4.351
 8609SOL    HW126726   4.092   0.738   4.378
 8609SOL    HW226727   4.028   0.881   4.424
 8610SOL     OW26728   1.368   0.102   2.852
 8610SOL    HW126729   1.456   0.119   2.807
 8610SOL    HW226730   1.343   0.006   2.839
 8611SOL     OW26731   1.751   2.347   3.772
 8611SOL    HW126732   1.715   2.418   3.712
 8611SOL    HW226733   1.849   2.335   3.754
 8612SOL     OW26734   3.175   3.261   6.650
 8612SOL    HW126735   3.174   3.359   6.633
 8612SOL    HW226736   3.149   3.212   6.567
 8613SOL     OW26737   2.268   1.319   1.490
 8613SOL    HW126738   2.356   1.318   1.442
 8613SOL    HW226739   2.194   1.301   1.425
 8614SOL     OW26740   0.849   4.047   2.654
 8614SOL    HW126741   0.876   4.004   2.740
 8614SOL    HW226742   0.891   3.998   2.577
 8615SOL     OW26743   5.131   1.935   4.869
 8615SOL    HW126744   5.195   1.979   4.805
 8615SOL    HW226745   5.178   1.912   4.953
 8616SOL     OW26746   0.856   5.143   0.964
 8616SOL    HW126747   0.767   5.139   1.009
 8616SOL    HW226748   0.870   5.235   0.926
 8617SOL     OW26749   6.218   1.359   0.379
 8617SOL    HW126750   6.278   1.438   0.394
 8617SOL    HW226751   6.262   1.296   0.316
 8618SOL     OW26752   5.240   0.030   1.385
 8618SOL    HW126753   5.209   0.071   1.299
 8618SOL    HW226754   5.192   6.969   1.401
 8619SOL     OW26755   3.827   4.779   0.692
 8619SOL    HW126756   3.859   4.753   0.601
 8619SOL    HW226757   3.809   4.696   0.746
 8620SOL     OW26758   6.136   6.646   3.223
 8620SOL    HW126759   6.062   6.688   3.170
 8620SOL    HW226760   6.210   6.712   3.234
 8621SOL     OW26761   6.199   1.320   3.412
 8621SOL    HW126762   6.137   1.244   3.399
 8621SOL    HW226763   6.168   1.399   3.358
 8622SOL     OW26764   4.757   4.792   0.675
 8622SOL    HW126765   4.727   4.715   0.618
 8622SOL    HW226766   4.680   4.854   0.691
 8623SOL     OW26767   0.492   4.267   2.967
 8623SOL    HW126768   0.459   4.310   2.883
 8623SOL    HW226769   0.494   4.335   3.041
 8624SOL     OW26770   1.226   4.862   3.845
 8624SOL    HW126771   1.253   4.774   3.805
 8624SOL    HW226772   1.281   4.880   3.927
 8625SOL     OW26773   4.480   0.679   4.200
 8625SOL    HW126774   4.505   0.703   4.107
 8625SOL    HW226775   4.552   0.709   4.263
 8626SOL     OW26776   3.866   3.209   4.480
 8626SOL    HW126777   3.890   3.260   4.397
 8626SOL    HW226778   3.911   3.251   4.559
 8627SOL     OW26779   1.272   0.262   2.580
 8627SOL    HW126780   1.282   0.183   2.520
 8627SOL    HW226781   1.361   0.288   2.617
 8628SOL     OW26782   6.370   6.889   1.236
 8628SOL    HW126783   6.292   6.916   1.293
 8628SOL    HW226784   6.442   6.958   1.243
 8629SOL     OW26785   1.687   5.505   4.679
 8629SOL    HW126786   1.761   5.440   4.661
 8629SOL    HW226787   1.690   5.533   4.775
 8630SOL     OW26788   6.289   3.969   4.763
 8630SOL    HW126789   6.258   3.886   4.810
 8630SOL    HW226790   6.334   3.943   4.677
 8631SOL     OW26791   4.197   6.199   6.547
 8631SOL    HW126792   4.145   6.217   6.464
 8631SOL    HW226793   4.151   6.128   6.601
 8632SOL     OW26794   3.474   6.269   3.662
 8632SOL    HW126795   3.532   6.207   3.609
 8632SOL    HW226796   3.513   6.281   3.754
 8633SOL     OW26797   5.248   0.990   4.319
 8633SOL    HW126798   5.328   1.040   4.351
 8633SOL    HW226799   5.198   0.954   4.398
 8634SOL     OW26800   6.224   3.089   0.709
 8634SOL    HW126801   6.174   3.002   0.699
 8634SOL    HW226802   6.315   3.080   0.667
 8635SOL     OW26803   6.146   3.810   6.029
 8635SOL    HW126804   6.119   3.717   6.001
 8635SOL    HW226805   6.159   3.867   5.949
 8636SOL     OW26806   5.455   5.346   0.012
 8636SOL    HW126807   5.541   5.314   0.053
 8636SOL    HW226808   5.415   5.272   6.982
 8637SOL     OW26809   1.562   0.473   0.790
 8637SOL    HW126810   1.619   0.406   0.742
 8637SOL    HW226811   1.551   0.554   0.733
 8638SOL     OW26812   2.011   3.358   0.315
 8638SOL    HW126813   1.998   3.436   0.253
 8638SOL    HW226814   1.956   3.281   0.282
 8639SOL     OW26815   6.192   2.776   1.611
 8639SOL    HW126816   6.192   2.726   1.524
 8639SOL    HW226817   6.105   2.824   1.622
 8640SOL     OW26818   4.747   4.031   0.652
 8640SOL    HW126819   4.794   3.969   0.589
 8640SOL    HW226820   4.735   3.987   0.741
 8641SOL     OW26821   6.841   4.391   4.841
 8641SOL    HW126822   6.777   4.333   4.892
 8641SOL    HW226823   6.913   4.423   4.903
 8642SOL     OW26824   4.073   0.502   2.432
 8642SOL    HW126825   4.156   0.449   2.444
 8642SOL    HW226826   4.000   0.443   2.397
 8643SOL     OW26827   4.224   6.766   6.749
 8643SOL    HW126828   4.137   6.718   6.740
 8643SOL    HW226829   4.243   6.783   6.845
 8644SOL     OW26830   4.783   2.383   5.767
 8644SOL    HW126831   4.785   2.471   5.718
 8644SOL    HW226832   4.770   2.309   5.702
 8645SOL     OW26833   5.458   4.771   1.669
 8645SOL    HW126834   5.440   4.868   1.681
 8645SOL    HW226835   5.372   4.722   1.662
 8646SOL     OW26836   5.824   1.007   1.177
 8646SOL    HW126837   5.916   1.008   1.217
 8646SOL    HW226838   5.831   0.999   1.078
 8647SOL     OW26839   3.975   4.753   6.165
 8647SOL    HW126840   4.065   4.724   6.131
 8647SOL    HW226841   3.945   4.833   6.112
 8648SOL     OW26842   5.701   1.649   4.758
 8648SOL    HW126843   5.660   1.586   4.693
 8648SOL    HW226844   5.629   1.702   4.804
 8649SOL     OW26845   5.742   5.290   5.722
 8649SOL    HW126846   5.663   5.288   5.660
 8649SOL    HW226847   5.730   5.220   5.793
 8650SOL     OW26848   1.414   4.673   4.814
 8650SOL    HW126849   1.314   4.663   4.807
 8650SOL    HW226850   1.451   4.599   4.870
 8651SOL     OW26851   4.014   0.624   0.549
 8651SOL    HW126852   4.093   0.582   0.593
 8651SOL    HW226853   3.931   0.575   0.577
 8652SOL     OW26854   1.583   4.488   3.268
 8652SOL    HW126855   1.523   4.486   3.188
 8652SOL    HW226856   1.676   4.462   3.241
 8653SOL     OW26857   5.975   2.519   5.907
 8653SOL    HW126858   6.044   2.561   5.847
 8653SOL    HW226859   6.020   2.453   5.967
 8654SOL     OW26860   0.813   6.322   1.877
 8654SOL    HW126861   0.753   6.386   1.926
 8654SOL    HW226862   0.888   6.373   1.835
 8655SOL     OW26863   5.918   0.778   3.562
 8655SOL    HW126864   5.901   0.701   3.500
 8655SOL    HW226865   6.017   0.795   3.566
 8656SOL     OW26866   6.622   1.535   1.369
 8656SOL    HW126867   6.629   1.594   1.288
 8656SOL    HW226868   6.636   1.440   1.342
 8657SOL     OW26869   4.492   5.040   6.728
 8657SOL    HW126870   4.436   5.056   6.809
 8657SOL    HW226871   4.528   4.947   6.730
 8658SOL     OW26872   4.544   5.900   0.306
 8658SOL    HW126873   4.579   5.806   0.305
 8658SOL    HW226874   4.620   5.964   0.315
 8659SOL     OW26875   4.692   1.268   3.146
 8659SOL    HW126876   4.672   1.366   3.141
 8659SOL    HW226877   4.616   1.216   3.106
 8660SOL     OW26878   4.973   3.614   0.675
 8660SOL    HW126879   5.045   3.683   0.661
 8660SOL    HW226880   4.951   3.610   0.773
 8661SOL     OW26881   5.699   3.954   1.736
 8661SOL    HW126882   5.758   3.911   1.805
 8661SOL    HW226883   5.689   4.052   1.757
 8662SOL     OW26884   4.991   6.337   1.912
 8662SOL    HW126885   5.090   6.325   1.926
 8662SOL    HW226886   4.967   6.311   1.819
 8663SOL     OW26887   2.522   5.724   0.568
 8663SOL    HW126888   2.605   5.690   0.612
 8663SOL    HW226889   2.530   5.715   0.469
 8664SOL     OW26890   3.508   5.060   0.764
 8664SOL    HW126891   3.442   5.046   0.838
 8664SOL    HW226892   3.472   5.130   0.701
 8665SOL     OW26893   5.358   5.386   5.158
 8665SOL    HW126894   5.428   5.426   5.099
 8665SOL    HW226895   5.287   5.345   5.102
 8666SOL     OW26896   5.422   2.573   5.008
 8666SOL    HW126897   5.516   2.562   5.040
 8666SOL    HW226898   5.412   2.663   4.965
 8667SOL     OW26899   4.690   2.398   3.045
 8667SOL    HW126900   4.664   2.375   3.139
 8667SOL    HW226901   4.691   2.316   2.989
 8668SOL     OW26902   5.135   2.573   3.654
 8668SOL    HW126903   5.180   2.556   3.566
 8668SOL    HW226904   5.147   2.494   3.713
 8669SOL     OW26905   2.914   6.973   6.855
 8669SOL    HW126906   2.966   6.923   6.786
 8669SOL    HW226907   2.817   6.977   6.828
 8670SOL     OW26908   3.281   4.836   5.115
 8670SOL    HW126909   3.202   4.782   5.145
 8670SOL    HW226910   3.359   4.816   5.174
 8671SOL     OW26911   5.700   1.065   3.815
 8671SOL    HW126912   5.659   1.128   3.881
 8671SOL    HW226913   5.797   1.054   3.835
 8672SOL     OW26914   2.474   6.012   3.984
 8672SOL    HW126915   2.471   5.916   3.957
 8672SOL    HW226916   2.530   6.021   4.067
 8673SOL     OW26917   0.310   1.030   6.974
 8673SOL    HW126918   0.340   1.035   0.044
 8673SOL    HW226919   0.210   1.038   6.971
 8674SOL     OW26920   6.611   5.825   1.235
 8674SOL    HW126921   6.594   5.801   1.330
 8674SOL    HW226922   6.709   5.835   1.220
 8675SOL     OW26923   3.466   1.832   3.932
 8675SOL    HW126924   3.535   1.890   3.974
 8675SOL    HW226925   3.375   1.862   3.960
 8676SOL     OW26926   3.684   0.051   3.409
 8676SOL    HW126927   3.611   7.007   3.405
 8676SOL    HW226928   3.754   0.022   3.474
 8677SOL     OW26929   2.156   5.703   5.874
 8677SOL    HW126930   2.149   5.714   5.774
 8677SOL    HW226931   2.232   5.642   5.895
 8678SOL     OW26932   0.207   0.268   0.602
 8678SOL    HW126933   0.144   0.321   0.658
 8678SOL    HW226934   0.281   0.232   0.659
 8679SOL     OW26935   6.404   2.960   4.987
 8679SOL    HW126936   6.497   2.958   5.024
 8679SOL    HW226937   6.352   2.882   5.022
 8680SOL     OW26938   0.474   3.680   0.876
 8680SOL    HW126939   0.533   3.761   0.878
 8680SOL    HW226940   0.378   3.708   0.886
 8681SOL     OW26941   4.457   4.741   0.538
 8681SOL    HW126942   4.459   4.828   0.488
 8681SOL    HW226943   4.528   4.681   0.502
 8682SOL     OW26944   3.953   6.920   2.601
 8682SOL    HW126945   3.976   6.828   2.569
 8682SOL    HW226946   3.964   6.984   2.525
 8683SOL     OW26947   1.161   2.500   1.905
 8683SOL    HW126948   1.231   2.566   1.933
 8683SOL    HW226949   1.162   2.422   1.967
 8684SOL     OW26950   0.480   3.168   4.862
 8684SOL    HW126951   0.447   3.241   4.922
 8684SOL    HW226952   0.565   3.197   4.817
 8685SOL     OW26953   1.029   2.511   5.803
 8685SOL    HW126954   0.947   2.518   5.859
 8685SOL    HW226955   1.039   2.596   5.750
 8686SOL     OW26956   6.464   2.148   1.870
 8686SOL    HW126957   6.473   2.206   1.951
 8686SOL    HW226958   6.532   2.075   1.873
 8687SOL     OW26959   3.290   6.205   2.952
 8687SOL    HW126960   3.226   6.141   2.996
 8687SOL    HW226961   3.318   6.275   3.018
 8688SOL     OW26962   2.614   6.328   0.100
 8688SOL    HW126963   2.599   6.373   0.012
 8688SOL    HW226964   2.614   6.396   0.173
 8689SOL     OW26965   3.495   5.014   0.144
 8689SOL    HW126966   3.488   4.930   0.091
 8689SOL    HW226967   3.522   5.089   0.083
 8690SOL     OW26968   1.814   2.816   3.490
 8690SOL    HW126969   1.860   2.744   3.541
 8690SOL    HW226970   1.724   2.832   3.530
 8691SOL     OW26971   4.367   2.696   6.154
 8691SOL    HW126972   4.306   2.652   6.088
 8691SOL    HW226973   4.342   2.793   6.163
 8692SOL     OW26974   3.374   2.104   2.584
 8692SOL    HW126975   3.309   2.126   2.657
 8692SOL    HW226976   3.325   2.095   2.497
 8693SOL     OW26977   5.518   1.851   0.851
 8693SOL    HW126978   5.605   1.841   0.899
 8693SOL    HW226979   5.491   1.763   0.811
 8694SOL     OW26980   4.145   1.151   6.326
 8694SOL    HW126981   4.107   1.063   6.353
 8694SOL    HW226982   4.084   1.195   6.261
 8695SOL     OW26983   4.161   2.596   5.997
 8695SOL    HW126984   4.143   2.600   5.899
 8695SOL    HW226985   4.129   2.508   6.033
 8696SOL     OW26986   3.263   5.912   0.890
 8696SOL    HW126987   3.244   5.840   0.824
 8696SOL    HW226988   3.178   5.952   0.922
 8697SOL     OW26989   6.497   3.634   0.790
 8697SOL    HW126990   6.558   3.601   0.718
 8697SOL    HW226991   6.524   3.726   0.817
 8698SOL     OW26992   5.911   6.109   4.048
 8698SOL    HW126993   5.961   6.024   4.031
 8698SOL    HW226994   5.936   6.145   4.138
 8699SOL     OW26995   1.571   2.477   5.430
 8699SOL    HW126996   1.572   2.466   5.529
 8699SOL    HW226997   1.480   2.509   5.401
 8700SOL     OW26998   2.654   1.295   4.442
 8700SOL    HW126999   2.604   1.258   4.520
 8700SOL    HW227000   2.605   1.274   4.357
 8701SOL     OW27001   1.446   0.516   0.084
 8701SOL    HW127002   1.510   0.534   0.009
 8701SOL    HW227003   1.364   0.473   0.047
 8702SOL     OW27004   5.467   4.780   0.196
 8702SOL    HW127005   5.481   4.690   0.238
 8702SOL    HW227006   5.539   4.842   0.225
 8703SOL     OW27007   2.579   5.391   1.200
 8703SOL    HW127008   2.592   5.390   1.299
 8703SOL    HW227009   2.642   5.458   1.160
 8704SOL     OW27010   6.070   3.753   2.312
 8704SOL    HW127011   6.052   3.813   2.390
 8704SOL    HW227012   5.990   3.695   2.295
 8705SOL     OW27013   4.750   0.952   0.795
 8705SOL    HW127014   4.775   0.856   0.783
 8705SOL    HW227015   4.725   0.969   0.890
 8706SOL     OW27016   4.632   2.193   5.878
 8706SOL    HW127017   4.692   2.256   5.829
 8706SOL    HW227018   4.684   2.142   5.946
 8707SOL     OW27019   5.093   2.303   6.856
 8707SOL    HW127020   4.994   2.294   6.845
 8707SOL    HW227021   5.116   2.304   6.953
 8708SOL     OW27022   4.254   2.293   2.238
 8708SOL    HW127023   4.182   2.361   2.224
 8708SOL    HW227024   4.288   2.299   2.332
 8709SOL     OW27025   6.864   6.108   6.466
 8709SOL    HW127026   6.902   6.067   6.549
 8709SOL    HW227027   6.939   6.136   6.406
 8710SOL     OW27028   2.129   3.674   3.023
 8710SOL    HW127029   2.084   3.616   3.090
 8710SOL    HW227030   2.154   3.620   2.943
 8711SOL     OW27031   6.962   6.069   2.420
 8711SOL    HW127032   6.997   6.111   2.504
 8711SOL    HW227033   6.997   5.975   2.413
 8712SOL     OW27034   4.162   2.309   4.146
 8712SOL    HW127035   4.189   2.315   4.051
 8712SOL    HW227036   4.165   2.400   4.188
 8713SOL     OW27037   0.333   4.219   3.439
 8713SOL    HW127038   0.346   4.241   3.535
 8713SOL    HW227039   0.422   4.222   3.392
 8714SOL     OW27040   0.352   0.953   5.882
 8714SOL    HW127041   0.370   0.929   5.977
 8714SOL    HW227042   0.270   1.010   5.877
 8715SOL     OW27043   4.782   0.223   1.139
 8715SOL    HW127044   4.748   0.171   1.061
 8715SOL    HW227045   4.758   0.320   1.128
 8716SOL     OW27046   0.623   0.517   1.709
 8716SOL    HW127047   0.684   0.562   1.643
 8716SOL    HW227048   0.540   0.571   1.720
 8717SOL     OW27049   4.100   3.184   2.888
 8717SOL    HW127050   4.040   3.230   2.824
 8717SOL    HW227051   4.188   3.165   2.844
 8718SOL     OW27052   0.855   2.846   5.287
 8718SOL    HW127053   0.814   2.840   5.196
 8718SOL    HW227054   0.810   2.919   5.339
 8719SOL     OW27055   2.068   0.042   6.252
 8719SOL    HW127056   1.999   0.018   6.321
 8719SOL    HW227057   2.027   0.102   6.184
 8720SOL     OW27058   6.446   5.213   5.858
 8720SOL    HW127059   6.352   5.247   5.854
 8720SOL    HW227060   6.454   5.131   5.801
 8721SOL     OW27061   5.479   2.062   3.917
 8721SOL    HW127062   5.553   2.045   3.852
 8721SOL    HW227063   5.407   1.994   3.906
 8722SOL     OW27064   3.801   0.565   0.824
 8722SOL    HW127065   3.735   0.507   0.776
 8722SOL    HW227066   3.754   0.642   0.866
 8723SOL     OW27067   5.488   6.038   1.257
 8723SOL    HW127068   5.505   6.050   1.159
 8723SOL    HW227069   5.497   5.941   1.280
 8724SOL     OW27070   5.929   6.997   4.935
 8724SOL    HW127071   5.875   7.012   4.852
 8724SOL    HW227072   6.006   0.036   4.936
 8725SOL     OW27073   2.648   7.023   6.833
 8725SOL    HW127074   2.639   0.026   6.929
 8725SOL    HW227075   2.558   7.000   6.797
 8726SOL     OW27076   6.367   0.997   1.694
 8726SOL    HW127077   6.326   0.911   1.723
 8726SOL    HW227078   6.311   1.038   1.622
 8727SOL     OW27079   6.617   6.707   1.895
 8727SOL    HW127080   6.542   6.658   1.850
 8727SOL    HW227081   6.580   6.786   1.944
 8728SOL     OW27082   4.161   7.020   4.373
 8728SOL    HW127083   4.087   6.964   4.337
 8728SOL    HW227084   4.240   6.962   4.393
 8729SOL     OW27085   4.628   6.028   3.317
 8729SOL    HW127086   4.695   6.006   3.387
 8729SOL    HW227087   4.546   6.066   3.359
 8730SOL     OW27088   6.498   4.837   2.610
 8730SOL    HW127089   6.528   4.869   2.699
 8730SOL    HW227090   6.459   4.745   2.619
 8731SOL     OW27091   2.116   1.703   2.611
 8731SOL    HW127092   2.059   1.643   2.554
 8731SOL    HW227093   2.069   1.720   2.698
 8732SOL     OW27094   5.155   4.733   1.933
 8732SOL    HW127095   5.206   4.646   1.935
 8732SOL    HW227096   5.084   4.728   1.864
 8733SOL     OW27097   1.247   5.831   3.352
 8733SOL    HW127098   1.238   5.732   3.367
 8733SOL    HW227099   1.297   5.847   3.267
 8734SOL     OW27100   0.548   4.415   2.140
 8734SOL    HW127101   0.465   4.400   2.194
 8734SOL    HW227102   0.563   4.513   2.128
 8735SOL     OW27103   1.046   1.372   0.022
 8735SOL    HW127104   1.118   1.398   0.086
 8735SOL    HW227105   1.032   1.273   0.026
 8736SOL     OW27106   0.602   6.582   0.077
 8736SOL    HW127107   0.681   6.540   0.032
 8736SOL    HW227108   0.613   6.681   0.079
 8737SOL     OW27109   2.939   6.768   5.843
 8737SOL    HW127110   2.962   6.685   5.792
 8737SOL    HW227111   2.842   6.787   5.833
 8738SOL     OW27112   1.749   4.477   3.786
 8738SOL    HW127113   1.732   4.495   3.883
 8738SOL    HW227114   1.772   4.381   3.773
 8739SOL     OW27115   6.165   5.269   5.866
 8739SOL    HW127116   6.154   5.269   5.766
 8739SOL    HW227117   6.144   5.178   5.901
 8740SOL     OW27118   4.522   1.434   5.337
 8740SOL    HW127119   4.618   1.438   5.365
 8740SOL    HW227120   4.504   1.507   5.271
 8741SOL     OW27121   2.310   0.935   2.291
 8741SOL    HW127122   2.303   0.990   2.209
 8741SOL    HW227123   2.333   0.841   2.266
 8742SOL     OW27124   5.586   5.495   1.600
 8742SOL    HW127125   5.610   5.504   1.503
 8742SOL    HW227126   5.497   5.452   1.609
 8743SOL     OW27127   2.240   6.747   2.387
 8743SOL    HW127128   2.179   6.770   2.310
 8743SOL    HW227129   2.256   6.648   2.388
 8744SOL     OW27130   3.908   2.313   6.576
 8744SOL    HW127131   3.839   2.360   6.521
 8744SOL    HW227132   3.962   2.380   6.626
 8745SOL     OW27133   6.307   2.461   6.224
 8745SOL    HW127134   6.255   2.405   6.159
 8745SOL    HW227135   6.271   2.555   6.223
 8746SOL     OW27136   4.378   4.237   5.367
 8746SOL    HW127137   4.460   4.192   5.331
 8746SOL    HW227138   4.359   4.319   5.314
 8747SOL     OW27139   0.855   2.684   3.134
 8747SOL    HW127140   0.766   2.675   3.178
 8747SOL    HW227141   0.904   2.762   3.172
 8748SOL     OW27142   6.847   1.323   6.568
 8748SOL    HW127143   6.870   1.365   6.481
 8748SOL    HW227144   6.750   1.298   6.569
 8749SOL     OW27145   2.744   0.061   5.234
 8749SOL    HW127146   2.775   7.020   5.166
 8749SOL    HW227147   2.731   0.014   5.322
 8750SOL     OW27148   2.870   3.273   5.114
 8750SOL    HW127149   2.836   3.208   5.046
 8750SOL    HW227150   2.795   3.299   5.175
 8751SOL     OW27151   6.350   6.923   2.213
 8751SOL    HW127152   6.391   6.910   2.303
 8751SOL    HW227153   6.277   6.856   2.200
 8752SOL     OW27154   2.967   4.452   6.741
 8752SOL    HW127155   2.872   4.435   6.764
 8752SOL    HW227156   3.008   4.510   6.811
 8753SOL     OW27157   5.109   1.422   4.482
 8753SOL    HW127158   5.133   1.520   4.485
 8753SOL    HW227159   5.149   1.381   4.400
 8754SOL     OW27160   1.255   1.590   5.955
 8754SOL    HW127161   1.263   1.516   6.021
 8754SOL    HW227162   1.270   1.678   6.001
 8755SOL     OW27163   2.599   1.285   6.753
 8755SOL    HW127164   2.590   1.347   6.675
 8755SOL    HW227165   2.603   1.339   6.837
 8756SOL     OW27166   1.992   3.502   3.170
 8756SOL    HW127167   1.996   3.402   3.172
 8756SOL    HW227168   1.994   3.537   3.264
 8757SOL     OW27169   5.470   6.775   5.772
 8757SOL    HW127170   5.473   6.688   5.821
 8757SOL    HW227171   5.390   6.827   5.801
 8758SOL     OW27172   4.887   6.268   2.166
 8758SOL    HW127173   4.944   6.300   2.241
 8758SOL    HW227174   4.939   6.271   2.081
 8759SOL     OW27175   4.136   2.114   6.616
 8759SOL    HW127176   4.137   2.214   6.622
 8759SOL    HW227177   4.067   2.078   6.679
 8760SOL     OW27178   2.345   1.565   5.168
 8760SOL    HW127179   2.256   1.601   5.138
 8760SOL    HW227180   2.408   1.565   5.091
 8761SOL     OW27181   4.426   0.605   1.109
 8761SOL    HW127182   4.336   0.560   1.107
 8761SOL    HW227183   4.427   0.681   1.044
 8762SOL     OW27184   1.414   3.513   2.743
 8762SOL    HW127185   1.487   3.582   2.740
 8762SOL    HW227186   1.344   3.535   2.675
 8763SOL     OW27187   6.195   5.934   4.730
 8763SOL    HW127188   6.223   5.864   4.664
 8763SOL    HW227189   6.275   5.969   4.778
 8764SOL     OW27190   4.676   1.044   4.318
 8764SOL    HW127191   4.586   1.038   4.276
 8764SOL    HW227192   4.710   0.951   4.337
 8765SOL     OW27193   6.077   6.689   4.942
 8765SOL    HW127194   6.033   6.754   5.004
 8765SOL    HW227195   6.104   6.607   4.992
 8766SOL     OW27196   3.691   4.853   3.199
 8766SOL    HW127197   3.782   4.835   3.162
 8766SOL    HW227198   3.622   4.843   3.127
 8767SOL     OW27199   4.224   0.684   3.233
 8767SOL    HW127200   4.220   0.586   3.251
 8767SOL    HW227201   4.221   0.733   3.320
 8768SOL     OW27202   1.620   2.890   0.108
 8768SOL    HW127203   1.676   2.847   0.178
 8768SOL    HW227204   1.636   2.845   0.020
 8769SOL     OW27205   0.998   0.032   4.978
 8769SOL    HW127206   1.020   6.961   4.997
 8769SOL    HW227207   1.031   0.057   4.887
 8770SOL     OW27208   4.972   4.431   2.167
 8770SOL    HW127209   5.036   4.508   2.163
 8770SOL    HW227210   5.022   4.346   2.178
 8771SOL     OW27211   2.133   0.569   5.888
 8771SOL    HW127212   2.122   0.619   5.802
 8771SOL    HW227213   2.178   0.628   5.955
 8772SOL     OW27214   6.028   6.994   0.430
 8772SOL    HW127215   6.091   6.947   0.491
 8772SOL    HW227216   6.079   0.021   0.361
 8773SOL     OW27217   4.860   2.067   3.392
 8773SOL    HW127218   4.918   2.146   3.409
 8773SOL    HW227219   4.906   2.005   3.327
 8774SOL     OW27220   1.768   1.312   0.564
 8774SOL    HW127221   1.761   1.411   0.558
 8774SOL    HW227222   1.826   1.286   0.641
 8775SOL     OW27223   6.036   0.426   3.986
 8775SOL    HW127224   5.973   0.504   3.987
 8775SOL    HW227225   6.097   0.432   4.065
 8776SOL     OW27226   2.990   3.116   4.676
 8776SOL    HW127227   3.061   3.059   4.717
 8776SOL    HW227228   2.915   3.058   4.644
 8777SOL     OW27229   6.933   4.228   1.104
 8777SOL    HW127230   0.006   4.215   1.088
 8777SOL    HW227231   6.898   4.152   1.159
 8778SOL     OW27232   0.045   2.581   4.269
 8778SOL    HW127233   0.130   2.632   4.284
 8778SOL    HW227234   6.997   2.644   4.241
 8779SOL     OW27235   2.470   5.320   2.034
 8779SOL    HW127236   2.427   5.231   2.015
 8779SOL    HW227237   2.563   5.306   2.066
 8780SOL     OW27238   1.350   5.848   3.603
 8780SOL    HW127239   1.261   5.804   3.607
 8780SOL    HW227240   1.383   5.849   3.509
 8781SOL     OW27241   6.697   2.067   4.195
 8781SOL    HW127242   6.630   2.133   4.231
 8781SOL    HW227243   6.789   2.099   4.217
 8782SOL     OW27244   5.826   0.855   1.658
 8782SOL    HW127245   5.819   0.814   1.568
 8782SOL    HW227246   5.899   0.924   1.658
 8783SOL     OW27247   5.692   3.553   3.873
 8783SOL    HW127248   5.786   3.552   3.838
 8783SOL    HW227249   5.672   3.466   3.917
 8784SOL     OW27250   4.963   4.481   5.082
 8784SOL    HW127251   4.912   4.539   5.019
 8784SOL    HW227252   4.952   4.516   5.176
 8785SOL     OW27253   5.761   3.426   0.102
 8785SOL    HW127254   5.753   3.332   0.134
 8785SOL    HW227255   5.807   3.482   0.172
 8786SOL     OW27256   2.528   6.507   6.870
 8786SOL    HW127257   2.616   6.486   6.827
 8786SOL    HW227258   2.460   6.439   6.841
 8787SOL     OW27259   1.428   2.620   2.019
 8787SOL    HW127260   1.458   2.714   2.004
 8787SOL    HW227261   1.484   2.578   2.090
 8788SOL     OW27262   6.509   1.969   5.614
 8788SOL    HW127263   6.456   1.946   5.532
 8788SOL    HW227264   6.559   1.888   5.645
 8789SOL     OW27265   6.316   0.213   5.559
 8789SOL    HW127266   6.289   0.165   5.475
 8789SOL    HW227267   6.384   0.159   5.608
 8790SOL     OW27268   6.768   1.155   0.584
 8790SOL    HW127269   6.773   1.238   0.638
 8790SOL    HW227270   6.694   1.097   0.618
 8791SOL     OW27271   5.205   6.802   5.500
 8791SOL    HW127272   5.120   6.822   5.451
 8791SOL    HW227273   5.262   6.884   5.504
 8792SOL     OW27274   3.748   6.692   3.253
 8792SOL    HW127275   3.735   6.764   3.185
 8792SOL    HW227276   3.698   6.716   3.336
 8793SOL     OW27277   2.085   5.974   4.006
 8793SOL    HW127278   2.093   5.913   4.086
 8793SOL    HW227279   2.151   6.048   4.015
 8794SOL     OW27280   3.615   6.480   1.879
 8794SOL    HW127281   3.687   6.427   1.924
 8794SOL    HW227282   3.541   6.419   1.852
 8795SOL     OW27283   1.333   6.746   5.004
 8795SOL    HW127284   1.273   6.666   5.010
 8795SOL    HW227285   1.370   6.752   4.911
 8796SOL     OW27286   4.136   1.057   5.392
 8796SOL    HW127287   4.104   1.085   5.482
 8796SOL    HW227288   4.109   1.126   5.324
 8797SOL     OW27289   1.078   6.903   5.533
 8797SOL    HW127290   0.991   6.944   5.563
 8797SOL    HW227291   1.071   6.804   5.536
 8798SOL     OW27292   5.325   4.754   5.154
 8798SOL    HW127293   5.388   4.712   5.088
 8798SOL    HW227294   5.241   4.701   5.158
 8799SOL     OW27295   1.897   5.083   3.149
 8799SOL    HW127296   1.966   5.095   3.221
 8799SOL    HW227297   1.890   4.986   3.125
 8800SOL     OW27298   5.260   4.003   4.744
 8800SOL    HW127299   5.214   4.015   4.832
 8800SOL    HW227300   5.197   4.023   4.670
 8801SOL     OW27301   2.434   1.277   4.238
 8801SOL    HW127302   2.484   1.201   4.197
 8801SOL    HW227303   2.336   1.256   4.239
 8802SOL     OW27304   1.374   0.455   1.188
 8802SOL    HW127305   1.389   0.514   1.108
 8802SOL    HW227306   1.278   0.460   1.215
 8803SOL     OW27307   1.636   4.670   5.951
 8803SOL    HW127308   1.686   4.586   5.928
 8803SOL    HW227309   1.678   4.712   6.031
 8804SOL     OW27310   3.846   0.986   2.010
 8804SOL    HW127311   3.856   1.084   1.993
 8804SOL    HW227312   3.867   0.966   2.106
 8805SOL     OW27313   2.367   0.444   3.911
 8805SOL    HW127314   2.451   0.392   3.895
 8805SOL    HW227315   2.386   0.520   3.974
 8806SOL     OW27316   2.191   5.249   1.518
 8806SOL    HW127317   2.231   5.168   1.474
 8806SOL    HW227318   2.249   5.328   1.502
 8807SOL     OW27319   6.367   6.032   6.226
 8807SOL    HW127320   6.302   5.959   6.243
 8807SOL    HW227321   6.445   6.023   6.289
 8808SOL     OW27322   5.704   1.573   0.661
 8808SOL    HW127323   5.732   1.512   0.735
 8808SOL    HW227324   5.604   1.585   0.664
 8809SOL     OW27325   5.393   4.489   2.237
 8809SOL    HW127326   5.366   4.398   2.267
 8809SOL    HW227327   5.380   4.496   2.138
 8810SOL     OW27328   5.693   1.130   5.386
 8810SOL    HW127329   5.687   1.036   5.420
 8810SOL    HW227330   5.788   1.160   5.384
 8811SOL     OW27331   2.316   1.814   4.104
 8811SOL    HW127332   2.295   1.722   4.073
 8811SOL    HW227333   2.244   1.877   4.075
 8812SOL     OW27334   0.973   0.879   0.960
 8812SOL    HW127335   1.071   0.856   0.961
 8812SOL    HW227336   0.955   0.945   0.888
 8813SOL     OW27337   1.040   4.738   1.728
 8813SOL    HW127338   1.073   4.688   1.808
 8813SOL    HW227339   0.954   4.698   1.697
 8814SOL     OW27340   6.279   1.024   0.755
 8814SOL    HW127341   6.283   1.117   0.719
 8814SOL    HW227342   6.249   1.027   0.851
 8815SOL     OW27343   6.830   6.118   0.775
 8815SOL    HW127344   6.877   6.203   0.754
 8815SOL    HW227345   6.755   6.104   0.710
 8816SOL     OW27346   1.439   0.624   0.984
 8816SOL    HW127347   1.475   0.567   0.911
 8816SOL    HW227348   1.514   0.669   1.032
 8817SOL     OW27349   0.520   5.822   5.910
 8817SOL    HW127350   0.488   5.916   5.899
 8817SOL    HW227351   0.541   5.783   5.820
 8818SOL     OW27352   6.875   3.786   3.258
 8818SOL    HW127353   6.826   3.742   3.183
 8818SOL    HW227354   6.925   3.716   3.310
 8819SOL     OW27355   4.342   5.829   3.818
 8819SOL    HW127356   4.318   5.746   3.868
 8819SOL    HW227357   4.284   5.837   3.737
 8820SOL     OW27358   2.552   2.116   4.123
 8820SOL    HW127359   2.487   2.077   4.189
 8820SOL    HW227360   2.556   2.058   4.042
 8821SOL     OW27361   1.421   6.568   6.829
 8821SOL    HW127362   1.483   6.617   6.768
 8821SOL    HW227363   1.373   6.497   6.778
 8822SOL     OW27364   0.909   0.063   3.427
 8822SOL    HW127365   0.940   7.004   3.473
 8822SOL    HW227366   0.931   0.057   3.330
 8823SOL     OW27367   2.201   0.694   1.171
 8823SOL    HW127368   2.225   0.787   1.197
 8823SOL    HW227369   2.105   0.676   1.196
 8824SOL     OW27370   1.938   3.811   0.878
 8824SOL    HW127371   2.009   3.876   0.852
 8824SOL    HW227372   1.862   3.818   0.814
 8825SOL     OW27373   1.987   0.519   3.511
 8825SOL    HW127374   1.961   0.430   3.475
 8825SOL    HW227375   2.064   0.509   3.573
 8826SOL     OW27376   6.222   2.499   0.291
 8826SOL    HW127377   6.145   2.449   0.329
 8826SOL    HW227378   6.209   2.514   0.193
 8827SOL     OW27379   2.896   1.319   3.214
 8827SOL    HW127380   2.906   1.382   3.137
 8827SOL    HW227381   2.965   1.338   3.283
 8828SOL     OW27382   4.055   5.464   4.212
 8828SOL    HW127383   3.980   5.524   4.187
 8828SOL    HW227384   4.040   5.427   4.304
 8829SOL     OW27385   0.333   2.485   0.014
 8829SOL    HW127386   0.414   2.541   0.001
 8829SOL    HW227387   0.352   2.391   7.010
 8830SOL     OW27388   0.189   2.017   0.879
 8830SOL    HW127389   0.256   2.004   0.952
 8830SOL    HW227390   0.127   1.939   0.876
 8831SOL     OW27391   5.398   1.462   3.506
 8831SOL    HW127392   5.324   1.526   3.525
 8831SOL    HW227393   5.390   1.427   3.413
 8832SOL     OW27394   6.297   6.335   2.653
 8832SOL    HW127395   6.259   6.390   2.728
 8832SOL    HW227396   6.330   6.248   2.689
 8833SOL     OW27397   1.803   6.704   5.520
 8833SOL    HW127398   1.832   6.659   5.605
 8833SOL    HW227399   1.755   6.789   5.542
 8834SOL     OW27400   5.761   3.916   4.596
 8834SOL    HW127401   5.787   3.995   4.542
 8834SOL    HW227402   5.682   3.871   4.554
 8835SOL     OW27403   6.160   0.404   5.762
 8835SOL    HW127404   6.205   0.445   5.842
 8835SOL    HW227405   6.223   0.340   5.718
 8836SOL     OW27406   4.247   0.987   0.026
 8836SOL    HW127407   4.343   1.005   0.005
 8836SOL    HW227408   4.240   0.905   0.082
 8837SOL     OW27409   0.676   0.070   2.456
 8837SOL    HW127410   0.775   0.062   2.459
 8837SOL    HW227411   0.644   0.114   2.541
 8838SOL     OW27412   2.684   5.183   2.924
 8838SOL    HW127413   2.700   5.102   2.868
 8838SOL    HW227414   2.587   5.186   2.951
 8839SOL     OW27415   5.493   5.553   2.170
 8839SOL    HW127416   5.520   5.472   2.117
 8839SOL    HW227417   5.396   5.547   2.192
 8840SOL     OW27418   6.952   2.275   1.922
 8840SOL    HW127419   6.899   2.300   2.003
 8840SOL    HW227420   0.024   2.292   1.938
 8841SOL     OW27421   1.464   0.655   5.298
 8841SOL    HW127422   1.365   0.641   5.296
 8841SOL    HW227423   1.489   0.722   5.228
 8842SOL     OW27424   3.355   2.633   0.468
 8842SOL    HW127425   3.291   2.601   0.538
 8842SOL    HW227426   3.314   2.711   0.420
 8843SOL     OW27427   1.706   2.873   5.291
 8843SOL    HW127428   1.611   2.850   5.268
 8843SOL    HW227429   1.767   2.799   5.263
 8844SOL     OW27430   5.345   1.129   6.900
 8844SOL    HW127431   5.299   1.202   6.952
 8844SOL    HW227432   5.443   1.131   6.921
 8845SOL     OW27433   4.245   4.224   0.087
 8845SOL    HW127434   4.299   4.146   0.118
 8845SOL    HW227435   4.247   4.228   7.012
 8846SOL     OW27436   2.264   6.165   4.038
 8846SOL    HW127437   2.355   6.125   4.026
 8846SOL    HW227438   2.260   6.254   3.993
 8847SOL     OW27439   3.022   1.012   2.811
 8847SOL    HW127440   3.097   1.044   2.753
 8847SOL    HW227441   3.049   1.016   2.907
 8848SOL     OW27442   2.732   0.812   1.305
 8848SOL    HW127443   2.643   0.814   1.351
 8848SOL    HW227444   2.760   0.717   1.290
 8849SOL     OW27445   2.869   6.412   3.290
 8849SOL    HW127446   2.899   6.394   3.196
 8849SOL    HW227447   2.772   6.435   3.290
 8850SOL     OW27448   1.347   1.656   0.167
 8850SOL    HW127449   1.319   1.673   0.261
 8850SOL    HW227450   1.419   1.586   0.166
 8851SOL     OW27451   1.909   4.526   2.761
 8851SOL    HW127452   1.854   4.482   2.832
 8851SOL    HW227453   2.005   4.503   2.775
 8852SOL     OW27454   1.011   1.693   5.716
 8852SOL    HW127455   1.084   1.656   5.772
 8852SOL    HW227456   1.019   1.793   5.713
 8853SOL     OW27457   3.284   0.646   2.052
 8853SOL    HW127458   3.214   0.615   2.117
 8853SOL    HW227459   3.367   0.671   2.101
 8854SOL     OW27460   2.060   3.306   4.608
 8854SOL    HW127461   2.093   3.357   4.529
 8854SOL    HW227462   2.001   3.365   4.663
 8855SOL     OW27463   6.395   4.796   1.618
 8855SOL    HW127464   6.347   4.776   1.703
 8855SOL    HW227465   6.393   4.894   1.600
 8856SOL     OW27466   6.667   5.984   6.743
 8856SOL    HW127467   6.752   6.035   6.754
 8856SOL    HW227468   6.625   5.968   6.832
 8857SOL     OW27469   6.598   1.647   5.089
 8857SOL    HW127470   6.565   1.680   5.001
 8857SOL    HW227471   6.626   1.724   5.146
 8858SOL     OW27472   0.126   4.623   4.822
 8858SOL    HW127473   0.220   4.597   4.847
 8858SOL    HW227474   0.092   4.559   4.752
 8859SOL     OW27475   1.314   1.002   4.042
 8859SOL    HW127476   1.288   1.040   4.131
 8859SOL    HW227477   1.272   1.057   3.969
 8860SOL     OW27478   0.129   2.997   1.313
 8860SOL    HW127479   0.031   3.011   1.298
 8860SOL    HW227480   0.158   2.914   1.266
 8861SOL     OW27481   3.958   1.334   0.306
 8861SOL    HW127482   4.026   1.261   0.307
 8861SOL    HW227483   3.993   1.411   0.252
 8862SOL     OW27484   4.699   5.731   4.053
 8862SOL    HW127485   4.788   5.731   4.099
 8862SOL    HW227486   4.632   5.682   4.110
 8863SOL     OW27487   1.627   4.974   3.215
 8863SOL    HW127488   1.636   4.878   3.243
 8863SOL    HW227489   1.716   5.011   3.192
 8864SOL     OW27490   4.930   3.852   6.655
 8864SOL    HW127491   4.944   3.753   6.650
 8864SOL    HW227492   4.874   3.882   6.578
 8865SOL     OW27493   3.082   1.004   5.923
 8865SOL    HW127494   3.014   1.072   5.951
 8865SOL    HW227495   3.090   1.004   5.823
 8866SOL     OW27496   5.224   6.622   2.732
 8866SOL    HW127497   5.282   6.591   2.657
 8866SOL    HW227498   5.203   6.546   2.792
 8867SOL     OW27499   5.952   3.498   3.803
 8867SOL    HW127500   5.926   3.429   3.871
 8867SOL    HW227501   6.022   3.460   3.742
 8868SOL     OW27502   6.807   3.431   2.365
 8868SOL    HW127503   6.899   3.421   2.402
 8868SOL    HW227504   6.743   3.377   2.419
 8869SOL     OW27505   4.009   5.503   4.788
 8869SOL    HW127506   3.972   5.420   4.746
 8869SOL    HW227507   3.960   5.583   4.754
 8870SOL     OW27508   2.095   0.089   1.366
 8870SOL    HW127509   2.001   0.055   1.371
 8870SOL    HW227510   2.116   0.143   1.448
 8871SOL     OW27511   1.722   1.134   3.180
 8871SOL    HW127512   1.708   1.104   3.275
 8871SOL    HW227513   1.639   1.117   3.128
 8872SOL     OW27514   1.393   4.674   6.155
 8872SOL    HW127515   1.413   4.601   6.089
 8872SOL    HW227516   1.338   4.637   6.230
 8873SOL     OW27517   1.966   0.627   1.618
 8873SOL    HW127518   1.955   0.686   1.698
 8873SOL    HW227519   2.032   0.554   1.640
 8874SOL     OW27520   1.335   5.809   1.805
 8874SOL    HW127521   1.331   5.789   1.708
 8874SOL    HW227522   1.421   5.856   1.826
 8875SOL     OW27523   6.947   3.406   4.079
 8875SOL    HW127524   6.904   3.446   3.998
 8875SOL    HW227525   6.912   3.313   4.093
 8876SOL     OW27526   2.871   0.742   6.487
 8876SOL    HW127527   2.920   0.824   6.518
 8876SOL    HW227528   2.928   0.661   6.504
 8877SOL     OW27529   1.678   3.656   2.704
 8877SOL    HW127530   1.635   3.746   2.698
 8877SOL    HW227531   1.737   3.652   2.784
 8878SOL     OW27532   3.371   4.443   0.411
 8878SOL    HW127533   3.306   4.367   0.404
 8878SOL    HW227534   3.449   4.416   0.466
 8879SOL     OW27535   6.597   4.934   2.389
 8879SOL    HW127536   6.684   4.907   2.430
 8879SOL    HW227537   6.527   4.939   2.460
 8880SOL     OW27538   3.762   6.231   4.018
 8880SOL    HW127539   3.753   6.226   4.118
 8880SOL    HW227540   3.832   6.166   3.988
 8881SOL     OW27541   5.432   5.045   4.383
 8881SOL    HW127542   5.457   5.019   4.476
 8881SOL    HW227543   5.352   4.992   4.354
 8882SOL     OW27544   3.742   0.657   0.387
 8882SOL    HW127545   3.756   0.721   0.463
 8882SOL    HW227546   3.828   0.609   0.367
 8883SOL     OW27547   0.717   6.334   5.706
 8883SOL    HW127548   0.723   6.309   5.803
 8883SOL    HW227549   0.787   6.285   5.654
 8884SOL     OW27550   6.031   4.261   5.415
 8884SOL    HW127551   6.113   4.270   5.472
 8884SOL    HW227552   6.056   4.265   5.319
 8885SOL     OW27553   5.341   4.909   7.010
 8885SOL    HW127554   5.313   4.838   6.945
 8885SOL    HW227555   5.390   4.867   0.062
 8886SOL     OW27556   3.700   5.627   6.121
 8886SOL    HW127557   3.690   5.529   6.141
 8886SOL    HW227558   3.715   5.677   6.206
 8887SOL     OW27559   4.208   0.890   0.928
 8887SOL    HW127560   4.264   0.973   0.936
 8887SOL    HW227561   4.118   0.913   0.892
 8888SOL     OW27562   2.019   2.254   3.703
 8888SOL    HW127563   1.975   2.168   3.728
 8888SOL    HW227564   2.041   2.252   3.605
 8889SOL     OW27565   6.645   6.549   6.597
 8889SOL    HW127566   6.685   6.459   6.614
 8889SOL    HW227567   6.546   6.540   6.586
 8890SOL     OW27568   0.628   6.272   6.666
 8890SOL    HW127569   0.708   6.215   6.686
 8890SOL    HW227570   0.610   6.271   6.568
 8891SOL     OW27571   4.412   4.615   6.967
 8891SOL    HW127572   4.463   4.531   6.944
 8891SOL    HW227573   4.382   4.610   0.038
 8892SOL     OW27574   4.042   4.877   4.025
 8892SOL    HW127575   3.948   4.844   4.037
 8892SOL    HW227576   4.045   4.943   3.950
 8893SOL     OW27577   0.983   5.430   5.204
 8893SOL    HW127578   0.962   5.354   5.143
 8893SOL    HW227579   1.063   5.407   5.259
 8894SOL     OW27580   4.706   1.852   6.998
 8894SOL    HW127581   4.752   1.856   0.063
 8894SOL    HW227582   4.610   1.830   7.011
 8895SOL     OW27583   0.470   2.875   0.542
 8895SOL    HW127584   0.394   2.829   0.496
 8895SOL    HW227585   0.544   2.810   0.558
 8896SOL     OW27586   1.459   2.795   4.620
 8896SOL    HW127587   1.430   2.846   4.539
 8896SOL    HW227588   1.381   2.745   4.658
 8897SOL     OW27589   2.068   3.831   3.579
 8897SOL    HW127590   2.085   3.761   3.648
 8897SOL    HW227591   2.119   3.914   3.603
 8898SOL     OW27592   5.605   4.129   2.110
 8898SOL    HW127593   5.639   4.041   2.145
 8898SOL    HW227594   5.673   4.200   2.125
 8899SOL     OW27595   7.004   5.074   6.571
 8899SOL    HW127596   6.908   5.100   6.560
 8899SOL    HW227597   0.011   5.100   6.662
 8900SOL     OW27598   5.721   2.525   3.536
 8900SOL    HW127599   5.652   2.560   3.598
 8900SOL    HW227600   5.680   2.457   3.474
 8901SOL     OW27601   0.872   2.130   3.619
 8901SOL    HW127602   0.946   2.196   3.607
 8901SOL    HW227603   0.893   2.068   3.694
 8902SOL     OW27604   1.635   5.304   0.230
 8902SOL    HW127605   1.702   5.375   0.251
 8902SOL    HW227606   1.647   5.272   0.136
 8903SOL     OW27607   1.553   1.497   5.139
 8903SOL    HW127608   1.510   1.572   5.189
 8903SOL    HW227609   1.485   1.454   5.079
 8904SOL     OW27610   1.314   1.837   3.269
 8904SOL    HW127611   1.235   1.898   3.266
 8904SOL    HW227612   1.319   1.784   3.185
 8905SOL     OW27613   1.598   3.073   2.636
 8905SOL    HW127614   1.529   3.056   2.707
 8905SOL    HW227615   1.673   3.126   2.674
 8906SOL     OW27616   0.577   6.179   0.850
 8906SOL    HW127617   0.541   6.203   0.759
 8906SOL    HW227618   0.567   6.080   0.863
 8907SOL     OW27619   3.203   2.778   5.239
 8907SOL    HW127620   3.140   2.702   5.226
 8907SOL    HW227621   3.161   2.863   5.207
 8908SOL     OW27622   1.494   4.667   0.464
 8908SOL    HW127623   1.462   4.573   0.477
 8908SOL    HW227624   1.426   4.718   0.410
 8909SOL     OW27625   2.708   1.172   6.495
 8909SOL    HW127626   2.635   1.240   6.506
 8909SOL    HW227627   2.752   1.184   6.406
 8910SOL     OW27628   0.631   2.652   5.153
 8910SOL    HW127629   0.701   2.601   5.103
 8910SOL    HW227630   0.666   2.678   5.243
 8911SOL     OW27631   5.212   2.267   4.427
 8911SOL    HW127632   5.277   2.207   4.381
 8911SOL    HW227633   5.250   2.296   4.515
 8912SOL     OW27634   3.240   2.825   5.527
 8912SOL    HW127635   3.243   2.799   5.431
 8912SOL    HW227636   3.296   2.906   5.542
 8913SOL     OW27637   4.854   5.257   0.540
 8913SOL    HW127638   4.888   5.168   0.571
 8913SOL    HW227639   4.799   5.299   0.613
 8914SOL     OW27640   4.793   6.751   4.869
 8914SOL    HW127641   4.694   6.758   4.862
 8914SOL    HW227642   4.836   6.822   4.812
 8915SOL     OW27643   1.419   1.559   4.509
 8915SOL    HW127644   1.487   1.571   4.436
 8915SOL    HW227645   1.335   1.606   4.484
 8916SOL     OW27646   5.915   2.137   6.322
 8916SOL    HW127647   5.838   2.076   6.302
 8916SOL    HW227648   5.884   2.211   6.382
 8917SOL     OW27649   5.802   1.879   0.725
 8917SOL    HW127650   5.860   1.822   0.782
 8917SOL    HW227651   5.772   1.828   0.644
 8918SOL     OW27652   1.466   5.474   1.068
 8918SOL    HW127653   1.527   5.395   1.061
 8918SOL    HW227654   1.395   5.455   1.136
 8919SOL     OW27655   4.868   4.766   6.691
 8919SOL    HW127656   4.916   4.847   6.724
 8919SOL    HW227657   4.921   4.723   6.618
 8920SOL     OW27658   0.904   1.591   6.941
 8920SOL    HW127659   0.826   1.539   6.978
 8920SOL    HW227660   0.989   1.550   6.974
 8921SOL     OW27661   1.379   2.571   1.426
 8921SOL    HW127662   1.429   2.552   1.341
 8921SOL    HW227663   1.336   2.487   1.459
 8922SOL     OW27664   3.894   6.694   1.932
 8922SOL    HW127665   3.882   6.604   1.972
 8922SOL    HW227666   3.842   6.700   1.846
 8923SOL     OW27667   1.076   1.967   5.713
 8923SOL    HW127668   1.067   2.065   5.731
 8923SOL    HW227669   1.130   1.954   5.630
 8924SOL     OW27670   5.165   5.921   4.810
 8924SOL    HW127671   5.164   5.965   4.720
 8924SOL    HW227672   5.121   5.831   4.803
 8925SOL     OW27673   6.859   0.270   2.478
 8925SOL    HW127674   6.809   0.188   2.449
 8925SOL    HW227675   6.868   0.269   2.578
 8926SOL     OW27676   6.612   3.628   5.224
 8926SOL    HW127677   6.517   3.654   5.240
 8926SOL    HW227678   6.660   3.623   5.312
 8927SOL     OW27679   6.815   1.422   5.528
 8927SOL    HW127680   6.904   1.441   5.485
 8927SOL    HW227681   6.829   1.377   5.616
 8928SOL     OW27682   1.500   6.893   6.407
 8928SOL    HW127683   1.563   6.838   6.353
 8928SOL    HW227684   1.489   6.983   6.363
 8929SOL     OW27685   6.263   1.891   4.991
 8929SOL    HW127686   6.346   1.887   4.937
 8929SOL    HW227687   6.208   1.970   4.963
 8930SOL     OW27688   0.970   3.553   2.826
 8930SOL    HW127689   1.036   3.621   2.858
 8930SOL    HW227690   0.877   3.586   2.843
 8931SOL     OW27691   3.271   3.102   1.698
 8931SOL    HW127692   3.222   3.063   1.620
 8931SOL    HW227693   3.349   3.155   1.665
 8932SOL     OW27694   6.842   2.393   2.868
 8932SOL    HW127695   6.850   2.306   2.916
 8932SOL    HW227696   6.879   2.384   2.776
 8933SOL     OW27697   3.198   2.479   6.560
 8933SOL    HW127698   3.114   2.512   6.517
 8933SOL    HW227699   3.193   2.493   6.659
 8934SOL     OW27700   3.661   5.126   4.795
 8934SOL    HW127701   3.737   5.080   4.750
 8934SOL    HW227702   3.633   5.073   4.875
 8935SOL     OW27703   0.458   4.163   0.633
 8935SOL    HW127704   0.436   4.071   0.667
 8935SOL    HW227705   0.538   4.157   0.573
 8936SOL     OW27706   1.600   3.701   0.295
 8936SOL    HW127707   1.674   3.713   0.229
 8936SOL    HW227708   1.580   3.603   0.305
 8937SOL     OW27709   0.929   7.011   5.273
 8937SOL    HW127710   0.905   7.009   5.370
 8937SOL    HW227711   1.001   6.944   5.255
 8938SOL     OW27712   0.542   5.475   0.876
 8938SOL    HW127713   0.447   5.456   0.850
 8938SOL    HW227714   0.569   5.564   0.840
 8939SOL     OW27715   4.878   2.644   4.419
 8939SOL    HW127716   4.894   2.564   4.361
 8939SOL    HW227717   4.856   2.723   4.362
 8940SOL     OW27718   0.340   0.915   4.052
 8940SOL    HW127719   0.325   1.011   4.028
 8940SOL    HW227720   0.273   0.887   4.119
 8941SOL     OW27721   5.749   2.292   5.740
 8941SOL    HW127722   5.771   2.320   5.647
 8941SOL    HW227723   5.657   2.322   5.763
 8942SOL     OW27724   0.707   3.585   5.734
 8942SOL    HW127725   0.640   3.524   5.776
 8942SOL    HW227726   0.795   3.539   5.728
 8943SOL     OW27727   4.207   3.942   0.386
 8943SOL    HW127728   4.189   4.039   0.403
 8943SOL    HW227729   4.259   3.905   0.463
 8944SOL     OW27730   4.848   4.984   5.258
 8944SOL    HW127731   4.901   5.032   5.328
 8944SOL    HW227732   4.758   5.027   5.249
 8945SOL     OW27733   2.081   0.949   3.805
 8945SOL    HW127734   2.122   0.978   3.891
 8945SOL    HW227735   1.983   0.936   3.818
 8946SOL     OW27736   2.907   1.489   5.571
 8946SOL    HW127737   2.870   1.578   5.545
 8946SOL    HW227738   2.960   1.451   5.495
 8947SOL     OW27739   1.217   3.484   5.179
 8947SOL    HW127740   1.155   3.477   5.101
 8947SOL    HW227741   1.311   3.496   5.147
 8948SOL     OW27742   6.081   5.711   4.181
 8948SOL    HW127743   6.082   5.762   4.095
 8948SOL    HW227744   6.033   5.763   4.251
 8949SOL     OW27745   1.777   0.157   0.969
 8949SOL    HW127746   1.850   0.204   1.020
 8949SOL    HW227747   1.693   0.210   0.976
 8950SOL     OW27748   4.896   2.884   5.673
 8950SOL    HW127749   4.980   2.880   5.619
 8950SOL    HW227750   4.818   2.902   5.613
 8951SOL     OW27751   1.587   2.077   5.093
 8951SOL    HW127752   1.567   2.020   5.173
 8951SOL    HW227753   1.574   2.173   5.117
 8952SOL     OW27754   1.169   0.673   2.108
 8952SOL    HW127755   1.254   0.721   2.131
 8952SOL    HW227756   1.099   0.740   2.080
 8953SOL     OW27757   1.044   3.760   6.929
 8953SOL    HW127758   1.085   3.713   6.850
 8953SOL    HW227759   1.032   3.695   7.004
 8954SOL     OW27760   0.526   6.131   5.882
 8954SOL    HW127761   0.458   6.095   5.818
 8954SOL    HW227762   0.485   6.206   5.934
 8955SOL     OW27763   0.326   4.384   2.291
 8955SOL    HW127764   0.268   4.418   2.216
 8955SOL    HW227765   0.282   4.403   2.379
 8956SOL     OW27766   0.050   1.587   0.326
 8956SOL    HW127767   0.012   1.497   0.302
 8956SOL    HW227768   0.102   1.580   0.411
 8957SOL     OW27769   2.974   4.225   1.490
 8957SOL    HW127770   2.997   4.317   1.522
 8957SOL    HW227771   2.940   4.170   1.567
 8958SOL     OW27772   1.214   0.585   3.699
 8958SOL    HW127773   1.152   0.606   3.775
 8958SOL    HW227774   1.287   0.525   3.731
 8959SOL     OW27775   1.840   4.520   0.940
 8959SOL    HW127776   1.770   4.571   0.890
 8959SOL    HW227777   1.838   4.424   0.912
 8960SOL     OW27778   5.240   5.633   2.309
 8960SOL    HW127779   5.146   5.647   2.278
 8960SOL    HW227780   5.245   5.550   2.365
 8961SOL     OW27781   1.831   2.259   4.447
 8961SOL    HW127782   1.930   2.274   4.440
 8961SOL    HW227783   1.813   2.170   4.489
 8962SOL     OW27784   6.380   6.542   1.928
 8962SOL    HW127785   6.382   6.526   2.027
 8962SOL    HW227786   6.286   6.560   1.899
 8963SOL     OW27787   5.018   6.628   4.383
 8963SOL    HW127788   5.051   6.570   4.308
 8963SOL    HW227789   4.921   6.610   4.399
 8964SOL     OW27790   5.983   3.829   3.145
 8964SOL    HW127791   5.903   3.823   3.204
 8964SOL    HW227792   5.987   3.749   3.085
 8965SOL     OW27793   2.037   4.695   0.969
 8965SOL    HW127794   2.116   4.671   1.025
 8965SOL    HW227795   1.966   4.626   0.981
 8966SOL     OW27796   1.831   3.746   5.496
 8966SOL    HW127797   1.875   3.667   5.540
 8966SOL    HW227798   1.743   3.763   5.541
 8967SOL     OW27799   3.523   5.757   1.799
 8967SOL    HW127800   3.544   5.828   1.732
 8967SOL    HW227801   3.467   5.795   1.873
 8968SOL     OW27802   4.908   5.737   2.291
 8968SOL    HW127803   4.893   5.738   2.390
 8968SOL    HW227804   4.932   5.829   2.260
 8969SOL     OW27805   6.309   0.352   3.875
 8969SOL    HW127806   6.272   0.259   3.869
 8969SOL    HW227807   6.242   0.412   3.916
 8970SOL     OW27808   2.938   2.362   0.441
 8970SOL    HW127809   2.872   2.328   0.374
 8970SOL    HW227810   3.030   2.336   0.413
 8971SOL     OW27811   3.642   5.823   2.406
 8971SOL    HW127812   3.642   5.745   2.468
 8971SOL    HW227813   3.637   5.790   2.311
 8972SOL     OW27814   4.794   5.853   6.128
 8972SOL    HW127815   4.765   5.774   6.183
 8972SOL    HW227816   4.780   5.833   6.031
 8973SOL     OW27817   0.909   3.495   2.369
 8973SOL    HW127818   0.983   3.469   2.431
 8973SOL    HW227819   0.846   3.418   2.360
 8974SOL     OW27820   1.251   4.043   5.615
 8974SOL    HW127821   1.268   3.964   5.675
 8974SOL    HW227822   1.152   4.055   5.603
 8975SOL     OW27823   2.292   0.673   6.892
 8975SOL    HW127824   2.235   0.724   6.828
 8975SOL    HW227825   2.384   0.664   6.855
 8976SOL     OW27826   0.639   5.259   5.310
 8976SOL    HW127827   0.591   5.188   5.258
 8976SOL    HW227828   0.573   5.309   5.366
 8977SOL     OW27829   5.575   1.936   6.776
 8977SOL    HW127830   5.604   1.891   6.691
 8977SOL    HW227831   5.591   2.034   6.768
 8978SOL     OW27832   6.138   6.684   6.377
 8978SOL    HW127833   6.058   6.685   6.437
 8978SOL    HW227834   6.179   6.776   6.375
 8979SOL     OW27835   1.130   3.337   4.391
 8979SOL    HW127836   1.144   3.391   4.308
 8979SOL    HW227837   1.075   3.256   4.369
 8980SOL     OW27838   2.301   3.051   5.390
 8980SOL    HW127839   2.237   2.976   5.405
 8980SOL    HW227840   2.385   3.015   5.350
 8981SOL     OW27841   3.639   1.628   5.142
 8981SOL    HW127842   3.589   1.687   5.079
 8981SOL    HW227843   3.662   1.678   5.225
 8982SOL     OW27844   1.594   2.361   0.198
 8982SOL    HW127845   1.598   2.413   0.113
 8982SOL    HW227846   1.550   2.417   0.269
 8983SOL     OW27847   2.889   6.502   6.251
 8983SOL    HW127848   2.893   6.601   6.235
 8983SOL    HW227849   2.926   6.482   6.342
 8984SOL     OW27850   1.098   6.830   3.996
 8984SOL    HW127851   1.148   6.845   4.081
 8984SOL    HW227852   1.063   6.736   3.995
 8985SOL     OW27853   3.767   2.059   0.772
 8985SOL    HW127854   3.745   2.017   0.684
 8985SOL    HW227855   3.828   2.137   0.758
 8986SOL     OW27856   4.443   5.415   2.650
 8986SOL    HW127857   4.505   5.345   2.615
 8986SOL    HW227858   4.417   5.392   2.744
 8987SOL     OW27859   4.169   6.478   2.114
 8987SOL    HW127860   4.225   6.520   2.042
 8987SOL    HW227861   4.129   6.550   2.171
 8988SOL     OW27862   1.300   4.442   4.648
 8988SOL    HW127863   1.382   4.497   4.637
 8988SOL    HW227864   1.291   4.414   4.743
 8989SOL     OW27865   4.907   3.587   6.745
 8989SOL    HW127866   4.816   3.609   6.712
 8989SOL    HW227867   4.900   3.535   6.830
 8990SOL     OW27868   1.389   5.282   4.897
 8990SOL    HW127869   1.420   5.302   4.804
 8990SOL    HW227870   1.459   5.229   4.945
 8991SOL     OW27871   1.893   3.116   4.501
 8991SOL    HW127872   1.896   3.036   4.561
 8991SOL    HW227873   1.944   3.191   4.542
 8992SOL     OW27874   4.274   1.557   0.749
 8992SOL    HW127875   4.350   1.559   0.814
 8992SOL    HW227876   4.257   1.649   0.714
 8993SOL     OW27877   4.415   2.374   0.253
 8993SOL    HW127878   4.492   2.411   0.304
 8993SOL    HW227879   4.330   2.398   0.300
 8994SOL     OW27880   1.505   4.109   5.611
 8994SOL    HW127881   1.406   4.102   5.615
 8994SOL    HW227882   1.542   4.031   5.562
 8995SOL     OW27883   0.853   2.101   0.012
 8995SOL    HW127884   0.901   2.178   6.995
 8995SOL    HW227885   0.897   2.015   7.009
 8996SOL     OW27886   5.411   4.221   6.912
 8996SOL    HW127887   5.396   4.157   6.837
 8996SOL    HW227888   5.376   4.181   6.997
 8997SOL     OW27889   5.188   1.971   6.236
 8997SOL    HW127890   5.096   1.978   6.199
 8997SOL    HW227891   5.201   1.881   6.277
 8998SOL     OW27892   6.184   3.655   4.548
 8998SOL    HW127893   6.270   3.706   4.557
 8998SOL    HW227894   6.191   3.591   4.471
 8999SOL     OW27895   4.743   6.427   6.604
 8999SOL    HW127896   4.816   6.421   6.672
 8999SOL    HW227897   4.658   6.453   6.649
 9000SOL     OW27898   1.784   3.443   2.025
 9000SOL    HW127899   1.691   3.409   2.010
 9000SOL    HW227900   1.791   3.536   1.991
 9001SOL     OW27901   1.446   4.918   2.073
 9001SOL    HW127902   1.391   4.839   2.044
 9001SOL    HW227903   1.531   4.885   2.115
 9002SOL     OW27904   1.748   4.924   4.923
 9002SOL    HW127905   1.760   4.843   4.980
 9002SOL    HW227906   1.826   4.985   4.935
 9003SOL     OW27907   5.787   4.266   1.321
 9003SOL    HW127908   5.741   4.178   1.335
 9003SOL    HW227909   5.780   4.321   1.404
 9004SOL     OW27910   4.183   5.541   0.600
 9004SOL    HW127911   4.241   5.469   0.562
 9004SOL    HW227912   4.216   5.630   0.570
 9005SOL     OW27913   6.723   1.708   5.542
 9005SOL    HW127914   6.666   1.719   5.624
 9005SOL    HW227915   6.746   1.612   5.530
 9006SOL     OW27916   1.937   5.785   1.284
 9006SOL    HW127917   1.883   5.869   1.293
 9006SOL    HW227918   1.958   5.769   1.188
 9007SOL     OW27919   3.507   0.547   3.491
 9007SOL    HW127920   3.532   0.626   3.548
 9007SOL    HW227921   3.588   0.516   3.441
 9008SOL     OW27922   0.726   5.268   2.694
 9008SOL    HW127923   0.780   5.216   2.628
 9008SOL    HW227924   0.759   5.362   2.696
 9009SOL     OW27925   2.883   5.262   0.808
 9009SOL    HW127926   2.959   5.321   0.833
 9009SOL    HW227927   2.882   5.181   0.867
 9010SOL     OW27928   1.921   6.297   4.261
 9010SOL    HW127929   1.920   6.336   4.169
 9010SOL    HW227930   1.883   6.204   4.258
 9011SOL     OW27931   4.593   1.001   1.324
 9011SOL    HW127932   4.648   0.961   1.398
 9011SOL    HW227933   4.501   1.020   1.359
 9012SOL     OW27934   2.100   4.931   6.662
 9012SOL    HW127935   2.198   4.913   6.647
 9012SOL    HW227936   2.090   5.011   6.722
 9013SOL     OW27937   0.483   0.548   6.024
 9013SOL    HW127938   0.528   0.465   5.990
 9013SOL    HW227939   0.412   0.576   5.960
 9014SOL     OW27940   0.096   2.226   0.750
 9014SOL    HW127941   0.106   2.300   0.817
 9014SOL    HW227942   0.128   2.140   0.791
 9015SOL     OW27943   4.672   2.475   1.838
 9015SOL    HW127944   4.696   2.572   1.834
 9015SOL    HW227945   4.591   2.458   1.782
 9016SOL     OW27946   6.591   6.217   0.161
 9016SOL    HW127947   6.642   6.136   0.190
 9016SOL    HW227948   6.594   6.223   0.061
 9017SOL     OW27949   4.911   1.716   4.089
 9017SOL    HW127950   4.824   1.723   4.040
 9017SOL    HW227951   4.945   1.623   4.084
 9018SOL     OW27952   2.592   3.025   5.818
 9018SOL    HW127953   2.686   3.037   5.787
 9018SOL    HW227954   2.530   3.069   5.752
 9019SOL     OW27955   1.532   5.189   2.703
 9019SOL    HW127956   1.513   5.121   2.632
 9019SOL    HW227957   1.494   5.157   2.790
 9020SOL     OW27958   0.038   3.913   1.105
 9020SOL    HW127959   0.049   3.823   1.149
 9020SOL    HW227960   0.108   3.924   1.035
 9021SOL     OW27961   0.147   1.232   3.453
 9021SOL    HW127962   0.166   1.232   3.355
 9021SOL    HW227963   0.053   1.263   3.468
 9022SOL     OW27964   2.588   0.970   0.145
 9022SOL    HW127965   2.626   0.948   0.056
 9022SOL    HW227966   2.623   0.905   0.213
 9023SOL     OW27967   3.507   3.513   1.812
 9023SOL    HW127968   3.487   3.494   1.716
 9023SOL    HW227969   3.495   3.611   1.830
 9024SOL     OW27970   1.492   3.930   5.930
 9024SOL    HW127971   1.438   3.902   5.851
 9024SOL    HW227972   1.472   3.870   6.007
 9025SOL     OW27973   0.783   5.195   0.635
 9025SOL    HW127974   0.772   5.158   0.543
 9025SOL    HW227975   0.708   5.259   0.655
 9026SOL     OW27976   3.483   2.521   0.797
 9026SOL    HW127977   3.454   2.591   0.862
 9026SOL    HW227978   3.412   2.510   0.727
 9027SOL     OW27979   0.201   3.511   2.692
 9027SOL    HW127980   0.295   3.544   2.684
 9027SOL    HW227981   0.167   3.532   2.784
 9028SOL     OW27982   3.132   3.036   5.181
 9028SOL    HW127983   3.207   3.086   5.225
 9028SOL    HW227984   3.054   3.030   5.245
 9029SOL     OW27985   3.666   6.738   4.985
 9029SOL    HW127986   3.727   6.817   4.982
 9029SOL    HW227987   3.594   6.748   4.916
 9030SOL     OW27988   2.051   2.208   3.435
 9030SOL    HW127989   1.977   2.200   3.369
 9030SOL    HW227990   2.120   2.138   3.416
 9031SOL     OW27991   4.205   6.210   3.701
 9031SOL    HW127992   4.263   6.259   3.766
 9031SOL    HW227993   4.112   6.248   3.704
 9032SOL     OW27994   4.757   4.171   0.930
 9032SOL    HW127995   4.672   4.180   0.878
 9032SOL    HW227996   4.785   4.261   0.965
 9033SOL     OW27997   0.434   4.347   2.713
 9033SOL    HW127998   0.441   4.252   2.684
 9033SOL    HW227999   0.493   4.404   2.656
 9034SOL     OW28000   2.748   5.517   4.666
 9034SOL    HW128001   2.693   5.592   4.630
 9034SOL    HW228002   2.844   5.543   4.666
 9035SOL     OW28003   2.447   4.684   6.960
 9035SOL    HW128004   2.447   4.783   6.950
 9035SOL    HW228005   2.363   4.655   7.006
 9036SOL     OW28006   2.287   3.269   5.862
 9036SOL    HW128007   2.254   3.363   5.870
 9036SOL    HW228008   2.374   3.268   5.812
 9037SOL     OW28009   0.805   4.140   4.015
 9037SOL    HW128010   0.867   4.192   4.074
 9037SOL    HW228011   0.799   4.046   4.048
 9038SOL     OW28012   4.741   2.266   6.387
 9038SOL    HW128013   4.650   2.253   6.426
 9038SOL    HW228014   4.801   2.308   6.455
 9039SOL     OW28015   2.211   4.947   6.389
 9039SOL    HW128016   2.156   4.934   6.307
 9039SOL    HW228017   2.208   5.043   6.417
 9040SOL     OW28018   2.527   2.537   2.671
 9040SOL    HW128019   2.521   2.631   2.636
 9040SOL    HW228020   2.438   2.509   2.705
 9041SOL     OW28021   1.288   2.205   0.836
 9041SOL    HW128022   1.295   2.157   0.749
 9041SOL    HW228023   1.212   2.270   0.832
 9042SOL     OW28024   4.380   0.178   4.276
 9042SOL    HW128025   4.384   0.183   4.176
 9042SOL    HW228026   4.298   0.129   4.304
 9043SOL     OW28027   2.463   0.788   6.259
 9043SOL    HW128028   2.526   0.802   6.335
 9043SOL    HW228029   2.376   0.832   6.280
 9044SOL     OW28030   6.535   0.637   0.479
 9044SOL    HW128031   6.470   0.588   0.537
 9044SOL    HW228032   6.486   0.679   0.402
 9045SOL     OW28033   3.691   1.336   2.608
 9045SOL    HW128034   3.624   1.407   2.629
 9045SOL    HW228035   3.704   1.331   2.509
 9046SOL     OW28036   3.373   4.100   2.811
 9046SOL    HW128037   3.459   4.108   2.862
 9046SOL    HW228038   3.297   4.095   2.875
 9047SOL     OW28039   1.941   3.512   4.742
 9047SOL    HW128040   1.911   3.482   4.833
 9047SOL    HW228041   1.860   3.533   4.686
 9048SOL     OW28042   6.616   2.936   6.236
 9048SOL    HW128043   6.554   2.934   6.314
 9048SOL    HW228044   6.663   3.025   6.233
 9049SOL     OW28045   3.833   6.731   5.589
 9049SOL    HW128046   3.840   6.831   5.583
 9049SOL    HW228047   3.803   6.706   5.681
 9050SOL     OW28048   0.563   3.897   1.217
 9050SOL    HW128049   0.492   3.827   1.231
 9050SOL    HW228050   0.651   3.852   1.200
 9051SOL     OW28051   2.775   0.546   1.241
 9051SOL    HW128052   2.804   0.491   1.163
 9051SOL    HW228053   2.810   0.504   1.325
 9052SOL     OW28054   2.413   2.608   4.115
 9052SOL    HW128055   2.468   2.644   4.040
 9052SOL    HW228056   2.384   2.515   4.093
 9053SOL     OW28057   2.442   1.185   2.441
 9053SOL    HW128058   2.459   1.102   2.493
 9053SOL    HW228059   2.506   1.190   2.365
 9054SOL     OW28060   3.049   5.631   4.694
 9054SOL    HW128061   3.099   5.568   4.636
 9054SOL    HW228062   3.085   5.628   4.787
 9055SOL     OW28063   5.943   1.855   4.186
 9055SOL    HW128064   6.003   1.847   4.106
 9055SOL    HW228065   5.936   1.766   4.231
 9056SOL     OW28066   0.394   2.098   1.454
 9056SOL    HW128067   0.460   2.116   1.527
 9056SOL    HW228068   0.425   2.020   1.400
 9057SOL     OW28069   4.409   2.722   5.498
 9057SOL    HW128070   4.501   2.725   5.459
 9057SOL    HW228071   4.342   2.705   5.425
 9058SOL     OW28072   1.615   1.026   2.047
 9058SOL    HW128073   1.624   1.002   2.143
 9058SOL    HW228074   1.646   0.950   1.990
 9059SOL     OW28075   1.186   2.483   3.159
 9059SOL    HW128076   1.097   2.513   3.193
 9059SOL    HW228077   1.259   2.525   3.214
 9060SOL     OW28078   5.737   2.922   4.432
 9060SOL    HW128079   5.652   2.893   4.476
 9060SOL    HW228080   5.755   3.018   4.454
 9061SOL     OW28081   2.805   5.454   2.252
 9061SOL    HW128082   2.759   5.538   2.222
 9061SOL    HW228083   2.757   5.415   2.330
 9062SOL     OW28084   1.344   6.122   2.019
 9062SOL    HW128085   1.263   6.064   2.010
 9062SOL    HW228086   1.371   6.156   1.929
 9063SOL     OW28087   2.969   0.319   3.959
 9063SOL    HW128088   2.999   0.384   4.029
 9063SOL    HW228089   2.991   0.355   3.869
 9064SOL     OW28090   6.126   3.262   6.490
 9064SOL    HW128091   6.110   3.345   6.438
 9064SOL    HW228092   6.072   3.263   6.574
 9065SOL     OW28093   3.614   0.203   0.191
 9065SOL    HW128094   3.679   0.162   0.255
 9065SOL    HW228095   3.660   0.221   0.104
 9066SOL     OW28096   5.216   6.944   0.140
 9066SOL    HW128097   5.210   0.011   0.180
 9066SOL    HW228098   5.289   6.893   0.184
 9067SOL     OW28099   1.180   0.363   3.512
 9067SOL    HW128100   1.201   0.413   3.596
 9067SOL    HW228101   1.082   0.349   3.505
 9068SOL     OW28102   1.802   6.448   4.454
 9068SOL    HW128103   1.787   6.529   4.399
 9068SOL    HW228104   1.856   6.381   4.402
 9069SOL     OW28105   1.391   3.013   0.808
 9069SOL    HW128106   1.382   3.113   0.811
 9069SOL    HW228107   1.441   2.981   0.888
 9070SOL     OW28108   1.763   3.438   4.928
 9070SOL    HW128109   1.781   3.426   5.026
 9070SOL    HW228110   1.682   3.385   4.903
 9071SOL     OW28111   6.928   6.644   0.992
 9071SOL    HW128112   6.966   6.726   1.033
 9071SOL    HW228113   6.840   6.666   0.949
 9072SOL     OW28114   0.247   2.680   1.296
 9072SOL    HW128115   0.275   2.652   1.204
 9072SOL    HW228116   0.324   2.723   1.343
 9073SOL     OW28117   1.998   0.005   2.136
 9073SOL    HW128118   1.986   0.043   2.228
 9073SOL    HW228119   1.910   7.023   2.091
 9074SOL     OW28120   1.061   0.386   2.458
 9074SOL    HW128121   1.137   0.344   2.507
 9074SOL    HW228122   1.060   0.484   2.475
 9075SOL     OW28123   6.896   1.410   2.140
 9075SOL    HW128124   6.914   1.507   2.126
 9075SOL    HW228125   6.800   1.397   2.166
 9076SOL     OW28126   0.293   1.075   6.568
 9076SOL    HW128127   0.301   1.136   6.647
 9076SOL    HW228128   0.376   1.018   6.562
 9077SOL     OW28129   4.275   6.687   1.398
 9077SOL    HW128130   4.200   6.645   1.347
 9077SOL    HW228131   4.244   6.773   1.439
 9078SOL     OW28132   3.408   2.998   4.571
 9078SOL    HW128133   3.414   2.935   4.648
 9078SOL    HW228134   3.489   3.057   4.570
 9079SOL     OW28135   2.925   0.621   4.602
 9079SOL    HW128136   3.008   0.676   4.608
 9079SOL    HW228137   2.871   0.633   4.686
 9080SOL     OW28138   5.275   2.843   6.399
 9080SOL    HW128139   5.231   2.915   6.345
 9080SOL    HW228140   5.305   2.882   6.487
 9081SOL     OW28141   5.006   6.294   2.407
 9081SOL    HW128142   5.068   6.233   2.359
 9081SOL    HW228143   4.958   6.244   2.478
 9082SOL     OW28144   1.767   0.342   4.540
 9082SOL    HW128145   1.733   0.394   4.618
 9082SOL    HW228146   1.723   0.375   4.456
 9083SOL     OW28147   4.860   4.963   5.929
 9083SOL    HW128148   4.938   4.945   5.870
 9083SOL    HW228149   4.832   4.878   5.974
 9084SOL     OW28150   3.880   4.008   3.230
 9084SOL    HW128151   3.931   4.021   3.145
 9084SOL    HW228152   3.790   4.051   3.221
 9085SOL     OW28153   2.356   0.845   0.766
 9085SOL    HW128154   2.330   0.762   0.814
 9085SOL    HW228155   2.362   0.827   0.668
 9086SOL     OW28156   0.664   4.054   0.493
 9086SOL    HW128157   0.733   4.084   0.560
 9086SOL    HW228158   0.688   3.964   0.459
 9087SOL     OW28159   5.112   2.998   1.778
 9087SOL    HW128160   5.137   2.922   1.839
 9087SOL    HW228161   5.051   3.060   1.826
 9088SOL     OW28162   6.275   0.426   1.110
 9088SOL    HW128163   6.373   0.426   1.088
 9088SOL    HW228164   6.264   0.427   1.210
 9089SOL     OW28165   5.475   6.435   5.714
 9089SOL    HW128166   5.423   6.483   5.643
 9089SOL    HW228167   5.467   6.485   5.801
 9090SOL     OW28168   6.160   0.880   5.290
 9090SOL    HW128169   6.110   0.874   5.377
 9090SOL    HW228170   6.179   0.976   5.270
 9091SOL     OW28171   2.835   3.715   6.804
 9091SOL    HW128172   2.830   3.780   6.728
 9091SOL    HW228173   2.885   3.757   6.880
 9092SOL     OW28174   6.706   1.273   0.340
 9092SOL    HW128175   6.703   1.197   0.275
 9092SOL    HW228176   6.741   1.241   0.427
 9093SOL     OW28177   1.769   5.854   5.423
 9093SOL    HW128178   1.796   5.886   5.332
 9093SOL    HW228179   1.842   5.798   5.462
 9094SOL     OW28180   6.833   4.196   2.868
 9094SOL    HW128181   6.760   4.254   2.831
 9094SOL    HW228182   6.888   4.160   2.793
 9095SOL     OW28183   4.933   4.856   6.291
 9095SOL    HW128184   4.984   4.918   6.351
 9095SOL    HW228185   4.835   4.877   6.297
 9096SOL     OW28186   6.825   5.128   3.472
 9096SOL    HW128187   6.853   5.055   3.534
 9096SOL    HW228188   6.785   5.203   3.524
 9097SOL     OW28189   2.071   2.196   6.638
 9097SOL    HW128190   1.973   2.209   6.623
 9097SOL    HW228191   2.086   2.112   6.689
 9098SOL     OW28192   2.427   2.172   5.050
 9098SOL    HW128193   2.361   2.243   5.024
 9098SOL    HW228194   2.511   2.215   5.081
 9099SOL     OW28195   2.461   3.025   6.490
 9099SOL    HW128196   2.526   3.078   6.435
 9099SOL    HW228197   2.373   3.072   6.493
 9100SOL     OW28198   1.133   3.905   2.043
 9100SOL    HW128199   1.096   3.896   2.136
 9100SOL    HW228200   1.093   3.835   1.984
 9101SOL     OW28201   2.957   1.601   2.716
 9101SOL    HW128202   2.859   1.587   2.730
 9101SOL    HW228203   2.974   1.635   2.624
 9102SOL     OW28204   3.919   6.867   2.145
 9102SOL    HW128205   3.891   6.808   2.070
 9102SOL    HW228206   3.978   6.817   2.208
 9103SOL     OW28207   6.000   1.412   6.789
 9103SOL    HW128208   5.958   1.502   6.799
 9103SOL    HW228209   6.019   1.395   6.693
 9104SOL     OW28210   6.758   0.291   2.152
 9104SOL    HW128211   6.838   0.333   2.195
 9104SOL    HW228212   6.763   0.191   2.161
 9105SOL     OW28213   1.125   6.771   5.200
 9105SOL    HW128214   1.078   6.781   5.112
 9105SOL    HW228215   1.089   6.691   5.248
 9106SOL     OW28216   0.578   3.702   0.193
 9106SOL    HW128217   0.596   3.614   0.149
 9106SOL    HW228218   0.590   3.776   0.127
 9107SOL     OW28219   2.109   0.591   6.216
 9107SOL    HW128220   2.031   0.535   6.186
 9107SOL    HW228221   2.135   0.564   6.309
 9108SOL     OW28222   4.931   4.607   5.323
 9108SOL    HW128223   4.891   4.650   5.403
 9108SOL    HW228224   4.975   4.676   5.266
 9109SOL     OW28225   4.888   2.997   2.436
 9109SOL    HW128226   4.851   2.926   2.377
 9109SOL    HW228227   4.892   3.083   2.386
 9110SOL     OW28228   1.026   5.613   4.407
 9110SOL    HW128229   0.979   5.640   4.492
 9110SOL    HW228230   1.015   5.685   4.339
 9111SOL     OW28231   4.840   3.063   5.877
 9111SOL    HW128232   4.743   3.055   5.901
 9111SOL    HW228233   4.861   2.999   5.802
 9112SOL     OW28234   1.500   5.110   2.958
 9112SOL    HW128235   1.570   5.041   2.978
 9112SOL    HW228236   1.510   5.186   3.023
 9113SOL     OW28237   5.869   2.597   3.816
 9113SOL    HW128238   5.812   2.675   3.788
 9113SOL    HW228239   5.913   2.557   3.736
 9114SOL     OW28240   1.556   6.212   3.986
 9114SOL    HW128241   1.518   6.128   4.024
 9114SOL    HW228242   1.563   6.282   4.058
 9115SOL     OW28243   6.167   4.921   3.252
 9115SOL    HW128244   6.127   4.871   3.328
 9115SOL    HW228245   6.175   5.018   3.277
 9116SOL     OW28246   0.217   6.874   3.233
 9116SOL    HW128247   0.296   6.870   3.296
 9116SOL    HW228248   0.138   6.831   3.277
 9117SOL     OW28249   4.144   1.187   6.603
 9117SOL    HW128250   4.055   1.227   6.626
 9117SOL    HW228251   4.159   1.194   6.504
 9118SOL     OW28252   6.098   3.983   0.546
 9118SOL    HW128253   6.058   4.070   0.576
 9118SOL    HW228254   6.173   3.958   0.607
 9119SOL     OW28255   3.691   6.714   1.303
 9119SOL    HW128256   3.723   6.723   1.397
 9119SOL    HW228257   3.681   6.804   1.262
 9120SOL     OW28258   6.895   2.609   6.444
 9120SOL    HW128259   6.914   2.592   6.541
 9120SOL    HW228260   6.934   2.535   6.389
 9121SOL     OW28261   3.740   0.150   5.388
 9121SOL    HW128262   3.810   0.220   5.372
 9121SOL    HW228263   3.768   0.092   5.465
 9122SOL     OW28264   2.146   3.888   2.135
 9122SOL    HW128265   2.180   3.943   2.211
 9122SOL    HW228266   2.156   3.939   2.049
 9123SOL     OW28267   1.549   0.082   3.353
 9123SOL    HW128268   1.571   0.175   3.325
 9123SOL    HW228269   1.586   0.065   3.445
 9124SOL     OW28270   3.588   5.010   1.806
 9124SOL    HW128271   3.600   5.033   1.710
 9124SOL    HW228272   3.618   4.916   1.822
 9125SOL     OW28273   3.643   5.838   0.271
 9125SOL    HW128274   3.707   5.761   0.270
 9125SOL    HW228275   3.681   5.912   0.326
 9126SOL     OW28276   4.243   4.548   1.096
 9126SOL    HW128277   4.273   4.535   1.191
 9126SOL    HW228278   4.245   4.459   1.049
 9127SOL     OW28279   6.948   3.141   5.130
 9127SOL    HW128280   6.929   3.045   5.114
 9127SOL    HW228281   6.944   3.191   5.044
 9128SOL     OW28282   6.354   3.019   4.695
 9128SOL    HW128283   6.255   3.005   4.684
 9128SOL    HW228284   6.379   3.002   4.790
 9129SOL     OW28285   1.974   1.932   1.023
 9129SOL    HW128286   2.034   1.857   1.050
 9129SOL    HW228287   1.897   1.937   1.088
 9130SOL     OW28288   2.649   4.032   5.620
 9130SOL    HW128289   2.675   4.086   5.540
 9130SOL    HW228290   2.603   3.949   5.590
 9131SOL     OW28291   5.620   2.540   0.270
 9131SOL    HW128292   5.627   2.638   0.286
 9131SOL    HW228293   5.603   2.493   0.356
 9132SOL     OW28294   0.955   4.685   3.931
 9132SOL    HW128295   1.003   4.682   3.843
 9132SOL    HW228296   0.944   4.781   3.958
 9133SOL     OW28297   3.747   0.826   0.890
 9133SOL    HW128298   3.682   0.892   0.928
 9133SOL    HW228299   3.840   0.862   0.899
 9134SOL     OW28300   4.724   5.233   0.874
 9134SOL    HW128301   4.693   5.225   0.969
 9134SOL    HW228302   4.664   5.296   0.825
 9135SOL     OW28303   1.147   5.933   1.950
 9135SOL    HW128304   1.214   5.871   1.908
 9135SOL    HW228305   1.060   5.884   1.962
 9136SOL     OW28306   5.419   4.988   6.098
 9136SOL    HW128307   5.392   4.988   6.001
 9136SOL    HW228308   5.510   4.947   6.107
 9137SOL     OW28309   5.046   6.015   6.200
 9137SOL    HW128310   5.114   5.941   6.200
 9137SOL    HW228311   4.958   5.979   6.169
 9138SOL     OW28312   2.201   3.086   0.596
 9138SOL    HW128313   2.156   3.157   0.650
 9138SOL    HW228314   2.133   3.037   0.541
 9139SOL     OW28315   0.157   0.359   1.591
 9139SOL    HW128316   0.224   0.286   1.604
 9139SOL    HW228317   0.194   0.428   1.528
 9140SOL     OW28318   0.196   4.602   1.833
 9140SOL    HW128319   0.207   4.645   1.922
 9140SOL    HW228320   0.188   4.672   1.763
 9141SOL     OW28321   6.784   5.417   6.219
 9141SOL    HW128322   6.739   5.481   6.282
 9141SOL    HW228323   6.714   5.370   6.164
 9142SOL     OW28324   0.477   3.362   2.961
 9142SOL    HW128325   0.460   3.457   2.936
 9142SOL    HW228326   0.570   3.352   2.996
 9143SOL     OW28327   6.860   3.969   2.666
 9143SOL    HW128328   6.912   4.000   2.587
 9143SOL    HW228329   6.763   3.991   2.653
 9144SOL     OW28330   3.002   5.288   4.833
 9144SOL    HW128331   3.079   5.239   4.793
 9144SOL    HW228332   3.012   5.291   4.933
 9145SOL     OW28333   1.259   7.024   6.504
 9145SOL    HW128334   1.328   6.952   6.511
 9145SOL    HW228335   1.206   0.003   6.588
 9146SOL     OW28336   5.929   3.338   3.469
 9146SOL    HW128337   5.986   3.380   3.540
 9146SOL    HW228338   5.948   3.382   3.381
 9147SOL     OW28339   5.560   6.974   3.853
 9147SOL    HW128340   5.621   6.901   3.884
 9147SOL    HW228341   5.569   0.028   3.915
 9148SOL     OW28342   6.428   0.379   1.687
 9148SOL    HW128343   6.370   0.301   1.664
 9148SOL    HW228344   6.381   0.464   1.664
 9149SOL     OW28345   6.202   3.134   0.982
 9149SOL    HW128346   6.161   3.183   1.059
 9149SOL    HW228347   6.138   3.132   0.906
 9150SOL     OW28348   2.516   3.983   6.814
 9150SOL    HW128349   2.478   4.072   6.842
 9150SOL    HW228350   2.527   3.981   6.715
 9151SOL     OW28351   2.127   3.695   3.787
 9151SOL    HW128352   2.087   3.758   3.854
 9151SOL    HW228353   2.182   3.627   3.835
 9152SOL     OW28354   2.040   3.841   4.003
 9152SOL    HW128355   1.942   3.837   3.983
 9152SOL    HW228356   2.053   3.877   4.096
 9153SOL     OW28357   0.074   2.148   6.784
 9153SOL    HW128358   0.061   2.095   6.868
 9153SOL    HW228359   7.014   2.148   6.731
 9154SOL     OW28360   6.514   5.483   3.200
 9154SOL    HW128361   6.491   5.578   3.215
 9154SOL    HW228362   6.431   5.430   3.184
 9155SOL     OW28363   1.414   5.757   2.728
 9155SOL    HW128364   1.397   5.692   2.654
 9155SOL    HW228365   1.327   5.797   2.758
 9156SOL     OW28366   6.909   3.915   0.596
 9156SOL    HW128367   6.899   3.860   0.679
 9156SOL    HW228368   6.831   3.898   0.535
 9157SOL     OW28369   3.673   4.293   6.342
 9157SOL    HW128370   3.635   4.275   6.252
 9157SOL    HW228371   3.672   4.209   6.396
 9158SOL     OW28372   6.691   3.705   4.169
 9158SOL    HW128373   6.639   3.678   4.088
 9158SOL    HW228374   6.697   3.627   4.232
 9159SOL     OW28375   3.146   7.005   3.173
 9159SOL    HW128376   3.201   6.926   3.148
 9159SOL    HW228377   3.193   0.035   3.242
 9160SOL     OW28378   1.024   4.657   6.487
 9160SOL    HW128379   1.033   4.715   6.406
 9160SOL    HW228380   1.054   4.707   6.568
 9161SOL     OW28381   6.061   3.843   1.589
 9161SOL    HW128382   6.089   3.814   1.680
 9161SOL    HW228383   6.064   3.764   1.527
 9162SOL     OW28384   4.378   1.767   2.906
 9162SOL    HW128385   4.304   1.800   2.964
 9162SOL    HW228386   4.344   1.695   2.845
 9163SOL     OW28387   1.331   2.253   3.302
 9163SOL    HW128388   1.297   2.315   3.231
 9163SOL    HW228389   1.409   2.202   3.266
 9164SOL     OW28390   2.421   0.186   6.788
 9164SOL    HW128391   2.485   0.180   6.865
 9164SOL    HW228392   2.410   0.096   6.746
 9165SOL     OW28393   4.842   2.677   5.155
 9165SOL    HW128394   4.819   2.595   5.102
 9165SOL    HW228395   4.941   2.692   5.153
 9166SOL     OW28396   4.804   5.750   1.827
 9166SOL    HW128397   4.715   5.794   1.812
 9166SOL    HW228398   4.877   5.812   1.798
 9167SOL     OW28399   1.538   0.863   5.536
 9167SOL    HW128400   1.536   0.771   5.496
 9167SOL    HW228401   1.445   0.889   5.564
 9168SOL     OW28402   6.649   5.192   4.481
 9168SOL    HW128403   6.655   5.192   4.581
 9168SOL    HW228404   6.635   5.099   4.448
 9169SOL     OW28405   6.211   6.342   6.952
 9169SOL    HW128406   6.135   6.278   6.957
 9169SOL    HW228407   6.211   6.400   0.008
 9170SOL     OW28408   1.275   1.396   6.134
 9170SOL    HW128409   1.344   1.326   6.150
 9170SOL    HW228410   1.183   1.356   6.143
 9171SOL     OW28411   3.150   4.975   0.718
 9171SOL    HW128412   3.109   4.890   0.748
 9171SOL    HW228413   3.079   5.036   0.683
 9172SOL     OW28414   5.339   1.369   4.768
 9172SOL    HW128415   5.408   1.306   4.805
 9172SOL    HW228416   5.271   1.318   4.716
 9173SOL     OW28417   6.253   2.370   3.880
 9173SOL    HW128418   6.171   2.402   3.927
 9173SOL    HW228419   6.230   2.290   3.824
 9174SOL     OW28420   0.762   5.656   6.970
 9174SOL    HW128421   0.739   5.733   6.910
 9174SOL    HW228422   0.790   5.577   6.915
 9175SOL     OW28423   1.696   6.667   0.174
 9175SOL    HW128424   1.666   6.762   0.186
 9175SOL    HW228425   1.790   6.666   0.139
 9176SOL     OW28426   1.860   1.303   2.798
 9176SOL    HW128427   1.826   1.343   2.884
 9176SOL    HW228428   1.806   1.222   2.775
 9177SOL     OW28429   0.490   4.873   4.040
 9177SOL    HW128430   0.460   4.968   4.044
 9177SOL    HW228431   0.427   4.815   4.092
 9178SOL     OW28432   2.195   6.308   0.049
 9178SOL    HW128433   2.143   6.342   0.128
 9178SOL    HW228434   2.178   6.367   6.995
 9179SOL     OW28435   4.252   6.314   5.232
 9179SOL    HW128436   4.291   6.310   5.324
 9179SOL    HW228437   4.318   6.276   5.167
 9180SOL     OW28438   6.963   1.795   4.033
 9180SOL    HW128439   6.946   1.864   4.104
 9180SOL    HW228440   6.886   1.794   3.969
 9181SOL     OW28441   4.218   1.998   3.480
 9181SOL    HW128442   4.303   1.952   3.454
 9181SOL    HW228443   4.221   2.093   3.451
 9182SOL     OW28444   2.085   1.251   2.676
 9182SOL    HW128445   2.007   1.298   2.716
 9182SOL    HW228446   2.075   1.152   2.688
 9183SOL     OW28447   5.326   2.371   5.986
 9183SOL    HW128448   5.301   2.278   6.013
 9183SOL    HW228449   5.360   2.421   6.066
 9184SOL     OW28450   3.396   3.041   0.593
 9184SOL    HW128451   3.337   2.995   0.527
 9184SOL    HW228452   3.444   2.973   0.648
 9185SOL     OW28453   0.748   0.532   0.004
 9185SOL    HW128454   0.673   0.554   6.966
 9185SOL    HW228455   0.762   0.608   0.067
 9186SOL     OW28456   5.072   0.432   6.399
 9186SOL    HW128457   5.102   0.337   6.402
 9186SOL    HW228458   4.973   0.435   6.392
 9187SOL     OW28459   5.081   1.751   0.093
 9187SOL    HW128460   5.033   1.765   0.179
 9187SOL    HW228461   5.179   1.739   0.110
 9188SOL     OW28462   1.177   0.116   1.797
 9188SOL    HW128463   1.178   0.021   1.828
 9188SOL    HW228464   1.268   0.140   1.762
 9189SOL     OW28465   2.538   1.635   3.468
 9189SOL    HW128466   2.591   1.706   3.420
 9189SOL    HW228467   2.586   1.548   3.460
 9190SOL     OW28468   5.445   3.587   5.148
 9190SOL    HW128469   5.519   3.581   5.082
 9190SOL    HW228470   5.452   3.673   5.199
 9191SOL     OW28471   5.048   6.401   6.282
 9191SOL    HW128472   4.953   6.370   6.271
 9191SOL    HW228473   5.067   6.474   6.217
 9192SOL     OW28474   0.126   4.254   6.076
 9192SOL    HW128475   0.148   4.329   6.015
 9192SOL    HW228476   0.174   4.171   6.045
 9193SOL     OW28477   4.109   3.297   3.331
 9193SOL    HW128478   4.170   3.306   3.409
 9193SOL    HW228479   4.014   3.294   3.362
 9194SOL     OW28480   2.630   5.839   2.737
 9194SOL    HW128481   2.544   5.811   2.694
 9194SOL    HW228482   2.697   5.766   2.729
 9195SOL     OW28483   0.460   2.954   3.483
 9195SOL    HW128484   0.427   2.890   3.552
 9195SOL    HW228485   0.383   3.004   3.444
 9196SOL     OW28486   3.980   0.798   3.216
 9196SOL    HW128487   3.994   0.879   3.273
 9196SOL    HW228488   4.069   0.758   3.192
 9197SOL     OW28489   2.871   3.091   6.754
 9197SOL    HW128490   2.881   3.058   6.660
 9197SOL    HW228491   2.794   3.155   6.759
 9198SOL     OW28492   5.656   3.657   5.594
 9198SOL    HW128493   5.617   3.679   5.504
 9198SOL    HW228494   5.624   3.723   5.662
 9199SOL     OW28495   1.714   4.078   6.495
 9199SOL    HW128496   1.655   4.024   6.554
 9199SOL    HW228497   1.715   4.173   6.527
 9200SOL     OW28498   6.670   0.198   0.925
 9200SOL    HW128499   6.746   0.179   0.988
 9200SOL    HW228500   6.706   0.210   0.833
 9201SOL     OW28501   6.671   4.300   1.658
 9201SOL    HW128502   6.649   4.397   1.654
 9201SOL    HW228503   6.724   4.274   1.577
 9202SOL     OW28504   2.693   5.000   4.175
 9202SOL    HW128505   2.662   4.985   4.269
 9202SOL    HW228506   2.774   4.944   4.158
 9203SOL     OW28507   5.544   1.269   5.721
 9203SOL    HW128508   5.480   1.255   5.645
 9203SOL    HW228509   5.511   1.219   5.801
 9204SOL     OW28510   5.572   4.038   3.145
 9204SOL    HW128511   5.610   3.964   3.089
 9204SOL    HW228512   5.474   4.047   3.127
 9205SOL     OW28513   6.115   2.812   2.611
 9205SOL    HW128514   6.057   2.863   2.675
 9205SOL    HW228515   6.079   2.719   2.601
 9206SOL     OW28516   1.899   6.152   3.359
 9206SOL    HW128517   1.873   6.099   3.439
 9206SOL    HW228518   1.818   6.194   3.318
 9207SOL     OW28519   4.280   5.904   6.405
 9207SOL    HW128520   4.351   5.968   6.376
 9207SOL    HW228521   4.227   5.875   6.325
 9208SOL     OW28522   4.909   3.469   2.197
 9208SOL    HW128523   4.882   3.551   2.246
 9208SOL    HW228524   4.917   3.490   2.099
 9209SOL     OW28525   3.657   1.501   3.032
 9209SOL    HW128526   3.698   1.438   2.966
 9209SOL    HW228527   3.620   1.449   3.110
 9210SOL     OW28528   2.166   0.145   0.980
 9210SOL    HW128529   2.218   0.164   1.064
 9210SOL    HW228530   2.155   0.046   0.969
 9211SOL     OW28531   4.942   1.721   6.217
 9211SOL    HW128532   4.851   1.684   6.238
 9211SOL    HW228533   4.934   1.817   6.191
 9212SOL     OW28534   5.552   4.468   4.555
 9212SOL    HW128535   5.492   4.389   4.567
 9212SOL    HW228536   5.627   4.444   4.492
 9213SOL     OW28537   6.149   0.111   3.841
 9213SOL    HW128538   6.074   0.137   3.780
 9213SOL    HW228539   6.116   0.041   3.905
 9214SOL     OW28540   2.015   2.463   4.734
 9214SOL    HW128541   2.089   2.481   4.670
 9214SOL    HW228542   2.022   2.526   4.812
 9215SOL     OW28543   0.631   3.865   2.701
 9215SOL    HW128544   0.687   3.946   2.685
 9215SOL    HW228545   0.682   3.800   2.757
 9216SOL     OW28546   2.868   5.638   5.189
 9216SOL    HW128547   2.933   5.607   5.120
 9216SOL    HW228548   2.780   5.593   5.174
 9217SOL     OW28549   5.192   1.307   6.029
 9217SOL    HW128550   5.164   1.373   5.960
 9217SOL    HW228551   5.196   1.351   6.118
 9218SOL     OW28552   5.909   6.705   6.208
 9218SOL    HW128553   5.927   6.724   6.112
 9218SOL    HW228554   5.996   6.703   6.258
 9219SOL     OW28555   3.604   2.859   5.582
 9219SOL    HW128556   3.571   2.790   5.518
 9219SOL    HW228557   3.701   2.877   5.566
 9220SOL     OW28558   1.292   6.104   2.969
 9220SOL    HW128559   1.287   6.197   3.007
 9220SOL    HW228560   1.336   6.107   2.879
 9221SOL     OW28561   2.371   0.413   6.625
 9221SOL    HW128562   2.367   0.365   6.712
 9221SOL    HW228563   2.431   0.364   6.562
 9222SOL     OW28564   1.467   4.964   3.567
 9222SOL    HW128565   1.556   4.960   3.522
 9222SOL    HW228566   1.409   4.890   3.533
 9223SOL     OW28567   1.460   4.082   4.796
 9223SOL    HW128568   1.514   4.124   4.869
 9223SOL    HW228569   1.521   4.039   4.730
 9224SOL     OW28570   1.490   4.568   3.820
 9224SOL    HW128571   1.551   4.621   3.878
 9224SOL    HW228572   1.544   4.517   3.752
 9225SOL     OW28573   4.426   6.959   6.246
 9225SOL    HW128574   4.420   6.974   6.147
 9225SOL    HW228575   4.493   6.887   6.265
 9226SOL     OW28576   0.900   6.994   1.187
 9226SOL    HW128577   0.801   7.006   1.195
 9226SOL    HW228578   0.946   0.047   1.229
 9227SOL     OW28579   2.631   5.264   0.951
 9227SOL    HW128580   2.634   5.335   1.021
 9227SOL    HW228581   2.708   5.277   0.888
 9228SOL     OW28582   2.484   2.372   5.702
 9228SOL    HW128583   2.464   2.286   5.654
 9228SOL    HW228584   2.541   2.430   5.643
 9229SOL     OW28585   0.174   4.691   6.643
 9229SOL    HW128586   0.126   4.703   6.557
 9229SOL    HW228587   0.195   4.594   6.657
 9230SOL     OW28588   4.866   2.244   4.103
 9230SOL    HW128589   4.863   2.202   4.012
 9230SOL    HW228590   4.932   2.195   4.160
 9231SOL     OW28591   0.669   5.550   5.243
 9231SOL    HW128592   0.687   5.608   5.163
 9231SOL    HW228593   0.724   5.467   5.237
 9232SOL     OW28594   2.150   5.733   1.666
 9232SOL    HW128595   2.071   5.764   1.719
 9232SOL    HW228596   2.232   5.734   1.724
 9233SOL     OW28597   0.474   0.591   0.372
 9233SOL    HW128598   0.398   0.586   0.436
 9233SOL    HW228599   0.518   0.681   0.378
 9234SOL     OW28600   2.409   4.669   0.738
 9234SOL    HW128601   2.423   4.602   0.666
 9234SOL    HW228602   2.404   4.623   0.826
 9235SOL     OW28603   2.511   2.603   3.840
 9235SOL    HW128604   2.556   2.677   3.789
 9235SOL    HW228605   2.538   2.515   3.802
 9236SOL     OW28606   1.817   3.006   6.551
 9236SOL    HW128607   1.808   3.096   6.510
 9236SOL    HW228608   1.782   3.008   6.645
 9237SOL     OW28609   5.721   5.550   3.458
 9237SOL    HW128610   5.814   5.574   3.430
 9237SOL    HW228611   5.673   5.507   3.381
 9238SOL     OW28612   1.487   3.248   4.983
 9238SOL    HW128613   1.413   3.181   4.987
 9238SOL    HW228614   1.569   3.210   5.025
 9239SOL     OW28615   0.542   4.633   0.689
 9239SOL    HW128616   0.583   4.695   0.755
 9239SOL    HW228617   0.470   4.680   0.638
 9240SOL     OW28618   4.815   2.992   2.710
 9240SOL    HW128619   4.880   3.050   2.759
 9240SOL    HW228620   4.838   2.989   2.613
 9241SOL     OW28621   6.343   6.552   0.442
 9241SOL    HW128622   6.388   6.607   0.513
 9241SOL    HW228623   6.252   6.524   0.474
 9242SOL     OW28624   1.569   2.369   1.887
 9242SOL    HW128625   1.533   2.428   1.959
 9242SOL    HW228626   1.626   2.297   1.927
 9243SOL     OW28627   0.832   0.193   1.550
 9243SOL    HW128628   0.870   0.267   1.606
 9243SOL    HW228629   0.793   0.123   1.609
 9244SOL     OW28630   3.629   6.532   5.159
 9244SOL    HW128631   3.618   6.550   5.257
 9244SOL    HW228632   3.652   6.617   5.112
 9245SOL     OW28633   0.893   4.133   3.358
 9245SOL    HW128634   0.972   4.135   3.297
 9245SOL    HW228635   0.871   4.226   3.386
 9246SOL     OW28636   6.232   0.474   4.160
 9246SOL    HW128637   6.279   0.434   4.238
 9246SOL    HW228638   6.299   0.517   4.099
 9247SOL     OW28639   3.687   5.611   3.058
 9247SOL    HW128640   3.743   5.630   2.978
 9247SOL    HW228641   3.690   5.513   3.079
 9248SOL     OW28642   2.773   1.529   5.270
 9248SOL    HW128643   2.734   1.438   5.267
 9248SOL    HW228644   2.731   1.586   5.199
 9249SOL     OW28645   3.921   4.626   1.731
 9249SOL    HW128646   3.822   4.640   1.726
 9249SOL    HW228647   3.968   4.712   1.709
 9250SOL     OW28648   6.770   3.960   4.564
 9250SOL    HW128649   6.867   3.984   4.561
 9250SOL    HW228650   6.741   3.934   4.472
 9251SOL     OW28651   3.974   2.786   0.863
 9251SOL    HW128652   4.044   2.719   0.839
 9251SOL    HW228653   4.014   2.856   0.922
 9252SOL     OW28654   4.379   0.691   5.481
 9252SOL    HW128655   4.402   0.724   5.572
 9252SOL    HW228656   4.284   0.659   5.480
 9253SOL     OW28657   0.522   4.734   5.669
 9253SOL    HW128658   0.505   4.817   5.615
 9253SOL    HW228659   0.613   4.699   5.647
 9254SOL     OW28660   6.315   4.348   2.602
 9254SOL    HW128661   6.312   4.443   2.632
 9254SOL    HW228662   6.384   4.338   2.530
 9255SOL     OW28663   6.305   4.396   0.441
 9255SOL    HW128664   6.351   4.314   0.474
 9255SOL    HW228665   6.225   4.415   0.498
 9256SOL     OW28666   2.241   6.842   1.545
 9256SOL    HW128667   2.269   6.796   1.629
 9256SOL    HW228668   2.323   6.868   1.493
 9257SOL     OW28669   0.129   5.724   3.841
 9257SOL    HW128670   0.115   5.813   3.796
 9257SOL    HW228671   0.113   5.734   3.939
 9258SOL     OW28672   3.944   3.590   0.480
 9258SOL    HW128673   4.038   3.558   0.489
 9258SOL    HW228674   3.931   3.671   0.537
 9259SOL     OW28675   1.744   1.269   6.485
 9259SOL    HW128676   1.660   1.323   6.492
 9259SOL    HW228677   1.821   1.329   6.464
 9260SOL     OW28678   5.562   2.982   5.747
 9260SOL    HW128679   5.616   3.055   5.789
 9260SOL    HW228680   5.492   3.022   5.688
 9261SOL     OW28681   4.059   1.970   0.658
 9261SOL    HW128682   4.123   2.034   0.700
 9261SOL    HW228683   4.031   1.901   0.725
 9262SOL     OW28684   6.841   6.552   4.017
 9262SOL    HW128685   6.779   6.477   3.992
 9262SOL    HW228686   6.860   6.549   4.115
 9263SOL     OW28687   2.546   4.733   3.326
 9263SOL    HW128688   2.556   4.811   3.265
 9263SOL    HW228689   2.531   4.650   3.272
 9264SOL     OW28690   5.608   3.993   6.746
 9264SOL    HW128691   5.517   3.960   6.773
 9264SOL    HW228692   5.609   4.008   6.647
 9265SOL     OW28693   4.228   1.930   6.935
 9265SOL    HW128694   4.198   2.022   6.959
 9265SOL    HW228695   4.274   1.889   7.014
 9266SOL     OW28696   0.790   4.359   1.569
 9266SOL    HW128697   0.795   4.393   1.475
 9266SOL    HW228698   0.696   4.331   1.589
 9267SOL     OW28699   0.630   1.066   3.722
 9267SOL    HW128700   0.658   1.026   3.635
 9267SOL    HW228701   0.540   1.029   3.747
 9268SOL     OW28702   0.858   6.842   1.608
 9268SOL    HW128703   0.913   6.925   1.609
 9268SOL    HW228704   0.900   6.774   1.549
 9269SOL     OW28705   4.516   6.959   0.310
 9269SOL    HW128706   4.549   6.993   0.398
 9269SOL    HW228707   4.522   6.859   0.309
 9270SOL     OW28708   3.529   1.083   6.478
 9270SOL    HW128709   3.523   1.069   6.379
 9270SOL    HW228710   3.622   1.063   6.509
 9271SOL     OW28711   1.246   0.386   6.918
 9271SOL    HW128712   1.162   0.408   6.967
 9271SOL    HW228713   1.270   0.291   6.934
 9272SOL     OW28714   6.480   6.588   6.205
 9272SOL    HW128715   6.485   6.645   6.287
 9272SOL    HW228716   6.442   6.499   6.229
 9273SOL     OW28717   5.261   5.757   4.004
 9273SOL    HW128718   5.254   5.706   4.090
 9273SOL    HW228719   5.183   5.820   3.996
 9274SOL     OW28720   0.662   3.028   0.389
 9274SOL    HW128721   0.598   2.959   0.424
 9274SOL    HW228722   0.675   3.014   0.291
 9275SOL     OW28723   0.963   6.731   1.135
 9275SOL    HW128724   0.938   6.714   1.040
 9275SOL    HW228725   0.927   6.819   1.164
 9276SOL     OW28726   3.249   4.237   0.278
 9276SOL    HW128727   3.326   4.182   0.311
 9276SOL    HW228728   3.169   4.177   0.264
 9277SOL     OW28729   4.451   4.793   2.263
 9277SOL    HW128730   4.419   4.708   2.305
 9277SOL    HW228731   4.514   4.838   2.325
 9278SOL     OW28732   0.464   0.795   4.342
 9278SOL    HW128733   0.513   0.874   4.305
 9278SOL    HW228734   0.530   0.725   4.370
 9279SOL     OW28735   3.718   5.055   1.563
 9279SOL    HW128736   3.673   5.141   1.539
 9279SOL    HW228737   3.808   5.051   1.519
 9280SOL     OW28738   1.462   1.160   3.049
 9280SOL    HW128739   1.416   1.144   3.137
 9280SOL    HW228740   1.415   1.109   2.977
 9281SOL     OW28741   3.517   3.910   6.656
 9281SOL    HW128742   3.444   3.977   6.638
 9281SOL    HW228743   3.476   3.820   6.672
 9282SOL     OW28744   3.239   0.139   4.667
 9282SOL    HW128745   3.332   0.175   4.654
 9282SOL    HW228746   3.179   0.212   4.700
 9283SOL     OW28747   4.795   6.307   6.308
 9283SOL    HW128748   4.839   6.278   6.393
 9283SOL    HW228749   4.757   6.228   6.261
 9284SOL     OW28750   3.154   4.057   4.996
 9284SOL    HW128751   3.106   4.121   5.056
 9284SOL    HW228752   3.251   4.055   5.021
 9285SOL     OW28753   6.114   3.238   2.532
 9285SOL    HW128754   6.192   3.293   2.560
 9285SOL    HW228755   6.145   3.147   2.503
 9286SOL     OW28756   4.503   6.446   0.884
 9286SOL    HW128757   4.530   6.443   0.788
 9286SOL    HW228758   4.404   6.433   0.891
 9287SOL     OW28759   2.922   4.812   5.704
 9287SOL    HW128760   2.841   4.781   5.654
 9287SOL    HW228761   3.004   4.775   5.660
 9288SOL     OW28762   4.321   2.340   3.925
 9288SOL    HW128763   4.403   2.385   3.889
 9288SOL    HW228764   4.269   2.301   3.850
 9289SOL     OW28765   4.490   6.232   6.584
 9289SOL    HW128766   4.519   6.276   6.669
 9289SOL    HW228767   4.391   6.228   6.580
 9290SOL     OW28768   5.535   0.539   4.964
 9290SOL    HW128769   5.595   0.502   5.035
 9290SOL    HW228770   5.586   0.546   4.878
 9291SOL     OW28771   0.979   5.634   5.459
 9291SOL    HW128772   1.035   5.577   5.520
 9291SOL    HW228773   0.958   5.583   5.376
 9292SOL     OW28774   1.287   1.058   6.071
 9292SOL    HW128775   1.370   1.002   6.072
 9292SOL    HW228776   1.298   1.133   6.005
 9293SOL     OW28777   4.634   2.790   5.756
 9293SOL    HW128778   4.617   2.707   5.810
 9293SOL    HW228779   4.704   2.771   5.687
 9294SOL     OW28780   4.624   0.907   0.109
 9294SOL    HW128781   4.583   0.823   0.075
 9294SOL    HW228782   4.701   0.933   0.050
 9295SOL     OW28783   0.308   0.589   4.841
 9295SOL    HW128784   0.329   0.626   4.750
 9295SOL    HW228785   0.368   0.632   4.909
 9296SOL     OW28786   2.728   4.370   0.593
 9296SOL    HW128787   2.733   4.289   0.652
 9296SOL    HW228788   2.762   4.348   0.502
 9297SOL     OW28789   6.833   6.575   3.179
 9297SOL    HW128790   6.850   6.504   3.111
 9297SOL    HW228791   6.734   6.592   3.187
 9298SOL     OW28792   1.546   6.637   5.813
 9298SOL    HW128793   1.586   6.553   5.775
 9298SOL    HW228794   1.595   6.664   5.895
 9299SOL     OW28795   1.921   2.231   4.785
 9299SOL    HW128796   1.961   2.322   4.787
 9299SOL    HW228797   1.974   2.173   4.723
 9300SOL     OW28798   1.585   5.704   5.540
 9300SOL    HW128799   1.644   5.769   5.493
 9300SOL    HW228800   1.593   5.614   5.497
 9301SOL     OW28801   0.316   3.926   4.617
 9301SOL    HW128802   0.327   3.831   4.647
 9301SOL    HW228803   0.349   3.935   4.523
 9302SOL     OW28804   2.131   3.066   5.096
 9302SOL    HW128805   2.230   3.054   5.086
 9302SOL    HW228806   2.084   3.007   5.031
 9303SOL     OW28807   2.988   4.124   0.182
 9303SOL    HW128808   2.927   4.065   0.235
 9303SOL    HW228809   3.055   4.067   0.133
 9304SOL     OW28810   5.156   4.761   0.888
 9304SOL    HW128811   5.131   4.810   0.972
 9304SOL    HW228812   5.074   4.741   0.835
 9305SOL     OW28813   2.549   1.411   0.555
 9305SOL    HW128814   2.555   1.433   0.457
 9305SOL    HW228815   2.610   1.334   0.576
 9306SOL     OW28816   0.511   3.937   5.189
 9306SOL    HW128817   0.565   3.959   5.108
 9306SOL    HW228818   0.420   3.906   5.160
 9307SOL     OW28819   2.525   3.056   1.127
 9307SOL    HW128820   2.453   3.094   1.068
 9307SOL    HW228821   2.605   3.116   1.126
 9308SOL     OW28822   1.552   3.873   1.497
 9308SOL    HW128823   1.613   3.839   1.424
 9308SOL    HW228824   1.599   3.945   1.548
 9309SOL     OW28825   4.774   5.956   5.678
 9309SOL    HW128826   4.804   5.870   5.720
 9309SOL    HW228827   4.732   6.014   5.748
 9310SOL     OW28828   4.084   5.543   5.939
 9310SOL    HW128829   4.101   5.477   5.866
 9310SOL    HW228830   4.070   5.634   5.899
 9311SOL     OW28831   4.462   3.521   1.650
 9311SOL    HW128832   4.474   3.423   1.667
 9311SOL    HW228833   4.364   3.541   1.642
 9312SOL     OW28834   1.009   2.183   0.979
 9312SOL    HW128835   1.059   2.256   1.026
 9312SOL    HW228836   0.914   2.184   1.008
 9313SOL     OW28837   1.580   6.639   1.650
 9313SOL    HW128838   1.581   6.540   1.666
 9313SOL    HW228839   1.637   6.660   1.571
 9314SOL     OW28840   4.731   2.588   0.800
 9314SOL    HW128841   4.696   2.681   0.810
 9314SOL    HW228842   4.750   2.549   0.891
 9315SOL     OW28843   5.713   1.405   6.752
 9315SOL    HW128844   5.809   1.401   6.780
 9315SOL    HW228845   5.705   1.458   6.668
 9316SOL     OW28846   4.917   1.024   5.543
 9316SOL    HW128847   4.996   0.963   5.531
 9316SOL    HW228848   4.851   0.982   5.604
 9317SOL     OW28849   2.693   5.645   4.153
 9317SOL    HW128850   2.611   5.699   4.174
 9317SOL    HW228851   2.704   5.575   4.224
 9318SOL     OW28852   4.502   6.373   0.574
 9318SOL    HW128853   4.427   6.439   0.580
 9318SOL    HW228854   4.563   6.398   0.499
 9319SOL     OW28855   2.721   4.139   0.755
 9319SOL    HW128856   2.740   4.043   0.739
 9319SOL    HW228857   2.671   4.149   0.842
 9320SOL     OW28858   5.831   0.176   6.549
 9320SOL    HW128859   5.822   0.248   6.481
 9320SOL    HW228860   5.804   0.088   6.509
 9321SOL     OW28861   0.225   3.125   5.521
 9321SOL    HW128862   0.246   3.044   5.467
 9321SOL    HW228863   0.224   3.102   5.618
 9322SOL     OW28864   6.174   3.953   5.747
 9322SOL    HW128865   6.119   3.919   5.671
 9322SOL    HW228866   6.267   3.917   5.738
 9323SOL     OW28867   1.385   3.453   3.331
 9323SOL    HW128868   1.411   3.545   3.300
 9323SOL    HW228869   1.367   3.395   3.252
 9324SOL     OW28870   1.180   4.464   1.217
 9324SOL    HW128871   1.266   4.418   1.238
 9324SOL    HW228872   1.107   4.425   1.272
 9325SOL     OW28873   1.778   5.320   2.556
 9325SOL    HW128874   1.775   5.224   2.585
 9325SOL    HW228875   1.871   5.354   2.565
 9326SOL     OW28876   3.986   4.268   0.369
 9326SOL    HW128877   4.059   4.212   0.407
 9326SOL    HW228878   4.021   4.320   0.291
 9327SOL     OW28879   4.562   0.827   3.246
 9327SOL    HW128880   4.529   0.774   3.168
 9327SOL    HW228881   4.659   0.808   3.261
 9328SOL     OW28882   2.876   6.555   4.178
 9328SOL    HW128883   2.913   6.587   4.091
 9328SOL    HW228884   2.782   6.523   4.164
 9329SOL     OW28885   0.107   6.158   6.335
 9329SOL    HW128886   0.169   6.209   6.394
 9329SOL    HW228887   0.157   6.123   6.256
 9330SOL     OW28888   6.575   0.134   0.108
 9330SOL    HW128889   6.651   0.148   0.044
 9330SOL    HW228890   6.550   0.038   0.110
 9331SOL     OW28891   1.805   2.989   4.842
 9331SOL    HW128892   1.892   2.941   4.833
 9331SOL    HW228893   1.818   3.071   4.898
 9332SOL     OW28894   4.140   5.857   0.754
 9332SOL    HW128895   4.162   5.941   0.804
 9332SOL    HW228896   4.189   5.780   0.795
 9333SOL     OW28897   3.365   5.094   0.383
 9333SOL    HW128898   3.410   5.065   0.298
 9333SOL    HW228899   3.286   5.035   0.401
 9334SOL     OW28900   4.957   6.867   5.386
 9334SOL    HW128901   4.953   6.849   5.288
 9334SOL    HW228902   4.868   6.851   5.427
 9335SOL     OW28903   2.387   1.727   1.644
 9335SOL    HW128904   2.353   1.656   1.705
 9335SOL    HW228905   2.352   1.816   1.674
 9336SOL     OW28906   6.650   0.842   4.945
 9336SOL    HW128907   6.659   0.901   5.025
 9336SOL    HW228908   6.582   0.881   4.883
 9337SOL     OW28909   4.634   0.793   5.911
 9337SOL    HW128910   4.581   0.832   5.986
 9337SOL    HW228911   4.729   0.826   5.917
 9338SOL     OW28912   6.616   6.217   0.663
 9338SOL    HW128913   6.582   6.170   0.582
 9338SOL    HW228914   6.714   6.235   0.652
 9339SOL     OW28915   5.931   4.857   6.413
 9339SOL    HW128916   5.907   4.931   6.475
 9339SOL    HW228917   5.964   4.895   6.326
 9340SOL     OW28918   3.519   6.095   2.397
 9340SOL    HW128919   3.491   6.130   2.308
 9340SOL    HW228920   3.595   6.030   2.385
 9341SOL     OW28921   6.022   4.131   6.389
 9341SOL    HW128922   6.016   4.135   6.488
 9341SOL    HW228923   5.959   4.061   6.354
 9342SOL     OW28924   2.333   0.443   4.331
 9342SOL    HW128925   2.427   0.414   4.347
 9342SOL    HW228926   2.294   0.390   4.256
 9343SOL     OW28927   4.741   4.492   2.006
 9343SOL    HW128928   4.677   4.416   2.011
 9343SOL    HW228929   4.821   4.473   2.062
 9344SOL     OW28930   5.613   5.490   5.936
 9344SOL    HW128931   5.539   5.528   5.880
 9344SOL    HW228932   5.655   5.413   5.888
 9345SOL     OW28933   6.904   6.105   0.092
 9345SOL    HW128934   6.989   6.140   0.053
 9345SOL    HW228935   6.916   6.087   0.190
 9346SOL     OW28936   5.575   6.750   2.041
 9346SOL    HW128937   5.565   6.785   2.134
 9346SOL    HW228938   5.638   6.808   1.990
 9347SOL     OW28939   3.746   5.741   1.313
 9347SOL    HW128940   3.646   5.739   1.315
 9347SOL    HW228941   3.779   5.829   1.348
 9348SOL     OW28942   2.414   6.420   2.667
 9348SOL    HW128943   2.394   6.439   2.764
 9348SOL    HW228944   2.388   6.326   2.645
 9349SOL     OW28945   6.618   5.837   2.283
 9349SOL    HW128946   6.555   5.875   2.351
 9349SOL    HW228947   6.573   5.834   2.194
 9350SOL     OW28948   6.872   1.596   5.000
 9350SOL    HW128949   6.801   1.580   4.931
 9350SOL    HW228950   6.829   1.607   5.089
 9351SOL     OW28951   2.431   0.894   5.193
 9351SOL    HW128952   2.469   0.801   5.200
 9351SOL    HW228953   2.500   0.960   5.224
 9352SOL     OW28954   2.226   2.407   5.832
 9352SOL    HW128955   2.164   2.394   5.755
 9352SOL    HW228956   2.319   2.381   5.805
 9353SOL     OW28957   1.152   4.143   1.603
 9353SOL    HW128958   1.107   4.054   1.591
 9353SOL    HW228959   1.240   4.142   1.555
 9354SOL     OW28960   6.479   2.073   1.092
 9354SOL    HW128961   6.446   1.982   1.066
 9354SOL    HW228962   6.577   2.079   1.076
 9355SOL     OW28963   6.858   0.712   4.153
 9355SOL    HW128964   6.826   0.727   4.059
 9355SOL    HW228965   6.910   0.791   4.183
 9356SOL     OW28966   4.461   5.430   2.101
 9356SOL    HW128967   4.454   5.461   2.195
 9356SOL    HW228968   4.429   5.501   2.039
 9357SOL     OW28969   3.103   3.627   0.297
 9357SOL    HW128970   3.060   3.609   0.209
 9357SOL    HW228971   3.161   3.550   0.322
 9358SOL     OW28972   5.756   4.427   1.532
 9358SOL    HW128973   5.717   4.517   1.516
 9358SOL    HW228974   5.796   4.424   1.624
 9359SOL     OW28975   0.061   4.171   6.859
 9359SOL    HW128976   0.071   4.263   6.899
 9359SOL    HW228977   0.052   4.104   6.932
 9360SOL     OW28978   1.943   7.021   5.351
 9360SOL    HW128979   2.012   6.984   5.414
 9360SOL    HW228980   1.987   0.057   5.285
 9361SOL     OW28981   3.094   6.234   2.703
 9361SOL    HW128982   3.035   6.194   2.773
 9361SOL    HW228983   3.164   6.168   2.676
 9362SOL     OW28984   2.360   0.943   2.582
 9362SOL    HW128985   2.411   0.863   2.614
 9362SOL    HW228986   2.350   0.937   2.482
 9363SOL     OW28987   3.442   5.567   2.301
 9363SOL    HW128988   3.460   5.495   2.234
 9363SOL    HW228989   3.436   5.526   2.392
 9364SOL     OW28990   4.627   2.669   6.182
 9364SOL    HW128991   4.531   2.697   6.181
 9364SOL    HW228992   4.656   2.652   6.276
 9365SOL     OW28993   2.654   2.344   5.047
 9365SOL    HW128994   2.579   2.392   5.001
 9365SOL    HW228995   2.703   2.407   5.107
 9366SOL     OW28996   3.280   1.713   0.689
 9366SOL    HW128997   3.209   1.643   0.691
 9366SOL    HW228998   3.267   1.771   0.609
 9367SOL     OW28999   0.098   5.312   3.923
 9367SOL    HW129000   0.155   5.244   3.876
 9367SOL    HW229001   0.077   5.387   3.860
 9368SOL     OW29002   3.625   2.057   2.472
 9368SOL    HW129003   3.538   2.093   2.506
 9368SOL    HW229004   3.693   2.057   2.545
 9369SOL     OW29005   6.555   1.546   6.263
 9369SOL    HW129006   6.489   1.520   6.192
 9369SOL    HW229007   6.594   1.635   6.241
 9370SOL     OW29008   5.868   1.248   2.986
 9370SOL    HW129009   5.848   1.191   2.906
 9370SOL    HW229010   5.935   1.319   2.961
 9371SOL     OW29011   1.745   5.305   0.702
 9371SOL    HW129012   1.824   5.362   0.725
 9371SOL    HW229013   1.670   5.363   0.672
 9372SOL     OW29014   5.509   6.125   3.039
 9372SOL    HW129015   5.441   6.170   2.981
 9372SOL    HW229016   5.581   6.189   3.062
 9373SOL     OW29017   4.161   1.836   3.093
 9373SOL    HW129018   4.142   1.916   3.036
 9373SOL    HW229019   4.092   1.831   3.166
 9374SOL     OW29020   5.634   2.541   7.009
 9374SOL    HW129021   5.541   2.575   6.994
 9374SOL    HW229022   5.651   2.537   0.083
 9375SOL     OW29023   6.930   1.285   3.338
 9375SOL    HW129024   6.852   1.347   3.337
 9375SOL    HW229025   6.936   1.237   3.251
 9376SOL     OW29026   3.645   3.720   1.033
 9376SOL    HW129027   3.729   3.709   0.980
 9376SOL    HW229028   3.582   3.645   1.012
 9377SOL     OW29029   6.580   5.762   3.531
 9377SOL    HW129030   6.674   5.735   3.550
 9377SOL    HW229031   6.577   5.818   3.448
 9378SOL     OW29032   2.628   7.013   5.548
 9378SOL    HW129033   2.581   0.072   5.521
 9378SOL    HW229034   2.582   6.973   5.628
 9379SOL     OW29035   4.843   4.568   4.868
 9379SOL    HW129036   4.749   4.535   4.876
 9379SOL    HW229037   4.870   4.569   4.771
 9380SOL     OW29038   6.248   6.283   5.451
 9380SOL    HW129039   6.261   6.237   5.539
 9380SOL    HW229040   6.325   6.263   5.391
 9381SOL     OW29041   2.942   3.082   5.395
 9381SOL    HW129042   3.010   3.140   5.440
 9381SOL    HW229043   2.884   3.140   5.336
 9382SOL     OW29044   3.786   1.159   3.408
 9382SOL    HW129045   3.879   1.122   3.411
 9382SOL    HW229046   3.763   1.200   3.496
 9383SOL     OW29047   3.630   5.917   4.610
 9383SOL    HW129048   3.568   5.981   4.656
 9383SOL    HW229049   3.646   5.838   4.669
 9384SOL     OW29050   4.035   5.825   2.313
 9384SOL    HW129051   3.986   5.894   2.366
 9384SOL    HW229052   4.035   5.739   2.363
 9385SOL     OW29053   4.079   1.960   2.791
 9385SOL    HW129054   4.021   1.997   2.718
 9385SOL    HW229055   4.163   2.014   2.798
 9386SOL     OW29056   3.361   5.979   4.240
 9386SOL    HW129057   3.282   5.918   4.246
 9386SOL    HW229058   3.362   6.023   4.150
 9387SOL     OW29059   4.242   0.013   1.193
 9387SOL    HW129060   4.205   6.948   1.170
 9387SOL    HW229061   4.302   0.006   1.273
 9388SOL     OW29062   1.730   6.134   2.393
 9388SOL    HW129063   1.727   6.093   2.485
 9388SOL    HW229064   1.819   6.116   2.351
 9389SOL     OW29065   2.283   0.223   5.161
 9389SOL    HW129066   2.256   0.252   5.253
 9389SOL    HW229067   2.370   0.266   5.137
 9390SOL     OW29068   3.773   5.833   3.168
 9390SOL    HW129069   3.773   5.737   3.141
 9390SOL    HW229070   3.766   5.890   3.087
 9391SOL     OW29071   2.075   0.671   5.636
 9391SOL    HW129072   2.128   0.751   5.610
 9391SOL    HW229073   1.978   0.688   5.619
 9392SOL     OW29074   0.358   6.767   4.402
 9392SOL    HW129075   0.367   6.764   4.303
 9392SOL    HW229076   0.285   6.831   4.427
 9393SOL     OW29077   3.883   1.794   4.257
 9393SOL    HW129078   3.836   1.825   4.174
 9393SOL    HW229079   3.933   1.710   4.238
 9394SOL     OW29080   6.003   2.489   3.590
 9394SOL    HW129081   5.909   2.516   3.571
 9394SOL    HW229082   6.058   2.502   3.507
 9395SOL     OW29083   2.949   2.096   0.570
 9395SOL    HW129084   2.956   2.183   0.522
 9395SOL    HW229085   2.899   2.109   0.656
 9396SOL     OW29086   6.966   6.508   4.911
 9396SOL    HW129087   0.035   6.513   4.944
 9396SOL    HW229088   6.950   6.578   4.841
 9397SOL     OW29089   2.508   0.332   0.193
 9397SOL    HW129090   2.528   0.366   0.285
 9397SOL    HW229091   2.453   0.399   0.143
 9398SOL     OW29092   1.984   0.604   6.956
 9398SOL    HW129093   1.930   0.561   0.005
 9398SOL    HW229094   2.056   0.660   6.996
 9399SOL     OW29095   6.945   1.954   0.319
 9399SOL    HW129096   6.922   1.885   0.250
 9399SOL    HW229097   0.018   1.949   0.340
 9400SOL     OW29098   5.144   3.681   1.748
 9400SOL    HW129099   5.192   3.766   1.729
 9400SOL    HW229100   5.048   3.690   1.723
 9401SOL     OW29101   2.646   6.731   3.697
 9401SOL    HW129102   2.668   6.697   3.605
 9401SOL    HW229103   2.633   6.654   3.759
 9402SOL     OW29104   1.785   4.597   5.668
 9402SOL    HW129105   1.781   4.579   5.570
 9402SOL    HW229106   1.876   4.633   5.692
 9403SOL     OW29107   4.957   1.841   2.740
 9403SOL    HW129108   5.053   1.863   2.758
 9403SOL    HW229109   4.950   1.746   2.709
 9404SOL     OW29110   1.384   4.548   6.632
 9404SOL    HW129111   1.408   4.644   6.644
 9404SOL    HW229112   1.414   4.496   6.712
 9405SOL     OW29113   6.812   0.024   2.187
 9405SOL    HW129114   6.743   0.010   2.258
 9405SOL    HW229115   6.902   0.003   2.224
 9406SOL     OW29116   0.292   1.337   5.995
 9406SOL    HW129117   0.251   1.251   5.964
 9406SOL    HW229118   0.392   1.330   5.988
 9407SOL     OW29119   2.592   6.900   2.733
 9407SOL    HW129120   2.574   6.938   2.642
 9407SOL    HW229121   2.619   6.804   2.724
 9408SOL     OW29122   3.347   1.555   5.766
 9408SOL    HW129123   3.346   1.576   5.864
 9408SOL    HW229124   3.254   1.530   5.737
 9409SOL     OW29125   4.702   4.263   4.710
 9409SOL    HW129126   4.647   4.321   4.770
 9409SOL    HW229127   4.741   4.187   4.764
 9410SOL     OW29128   3.517   5.499   1.746
 9410SOL    HW129129   3.533   5.594   1.774
 9410SOL    HW229130   3.419   5.482   1.741
 9411SOL     OW29131   3.541   4.542   0.973
 9411SOL    HW129132   3.509   4.614   0.911
 9411SOL    HW229133   3.463   4.503   1.022
 9412SOL     OW29134   0.750   3.615   1.511
 9412SOL    HW129135   0.671   3.593   1.568
 9412SOL    HW229136   0.762   3.714   1.506
 9413SOL     OW29137   4.311   5.598   5.275
 9413SOL    HW129138   4.273   5.637   5.191
 9413SOL    HW229139   4.249   5.618   5.351
 9414SOL     OW29140   3.404   1.667   3.398
 9414SOL    HW129141   3.421   1.761   3.425
 9414SOL    HW229142   3.410   1.658   3.299
 9415SOL     OW29143   2.379   6.150   2.594
 9415SOL    HW129144   2.355   6.105   2.508
 9415SOL    HW229145   2.327   6.109   2.669
 9416SOL     OW29146   0.427   1.456   1.627
 9416SOL    HW129147   0.445   1.545   1.585
 9416SOL    HW229148   0.441   1.463   1.726
 9417SOL     OW29149   2.757   0.474   5.623
 9417SOL    HW129150   2.820   0.508   5.693
 9417SOL    HW229151   2.792   0.498   5.533
 9418SOL     OW29152   2.130   6.434   0.631
 9418SOL    HW129153   2.198   6.503   0.606
 9418SOL    HW229154   2.172   6.343   0.626
 9419SOL     OW29155   3.436   6.174   5.175
 9419SOL    HW129156   3.480   6.244   5.119
 9419SOL    HW229157   3.382   6.113   5.117
 9420SOL     OW29158   0.698   1.961   5.312
 9420SOL    HW129159   0.690   1.862   5.315
 9420SOL    HW229160   0.619   2.000   5.265
 9421SOL     OW29161   2.152   5.835   5.616
 9421SOL    HW129162   2.160   5.922   5.567
 9421SOL    HW229163   2.229   5.775   5.591
 9422SOL     OW29164   5.267   0.269   2.103
 9422SOL    HW129165   5.208   0.214   2.162
 9422SOL    HW229166   5.363   0.247   2.121
 9423SOL     OW29167   4.286   0.785   2.781
 9423SOL    HW129168   4.301   0.716   2.710
 9423SOL    HW229169   4.190   0.783   2.809
 9424SOL     OW29170   5.070   0.603   5.519
 9424SOL    HW129171   5.156   0.617   5.470
 9424SOL    HW229172   5.023   0.523   5.481
 9425SOL     OW29173   6.813   3.654   6.162
 9425SOL    HW129174   6.903   3.668   6.202
 9425SOL    HW229175   6.761   3.740   6.167
 9426SOL     OW29176   2.786   1.671   0.272
 9426SOL    HW129177   2.691   1.702   0.281
 9426SOL    HW229178   2.840   1.707   0.347
 9427SOL     OW29179   2.388   4.775   5.347
 9427SOL    HW129180   2.311   4.838   5.343
 9427SOL    HW229181   2.464   4.817   5.397
 9428SOL     OW29182   5.276   0.156   1.612
 9428SOL    HW129183   5.282   0.113   1.522
 9428SOL    HW229184   5.353   0.218   1.625
 9429SOL     OW29185   1.364   4.554   1.779
 9429SOL    HW129186   1.320   4.550   1.689
 9429SOL    HW229187   1.352   4.466   1.826
 9430SOL     OW29188   6.675   6.468   1.599
 9430SOL    HW129189   6.675   6.424   1.689
 9430SOL    HW229190   6.619   6.551   1.603
 9431SOL     OW29191   5.313   4.068   0.583
 9431SOL    HW129192   5.281   4.158   0.554
 9431SOL    HW229193   5.367   4.026   0.511
 9432SOL     OW29194   6.686   0.203   3.559
 9432SOL    HW129195   6.710   0.112   3.593
 9432SOL    HW229196   6.691   0.203   3.459
 9433SOL     OW29197   3.238   4.911   4.036
 9433SOL    HW129198   3.233   4.852   4.117
 9433SOL    HW229199   3.189   4.869   3.960
 9434SOL     OW29200   5.336   4.682   3.593
 9434SOL    HW129201   5.318   4.730   3.507
 9434SOL    HW229202   5.408   4.730   3.643
 9435SOL     OW29203   1.228   1.363   4.099
 9435SOL    HW129204   1.149   1.423   4.108
 9435SOL    HW229205   1.311   1.411   4.127
 9436SOL     OW29206   1.047   4.191   2.042
 9436SOL    HW129207   1.062   4.097   2.011
 9436SOL    HW229208   1.039   4.251   1.962
 9437SOL     OW29209   1.232   6.121   3.468
 9437SOL    HW129210   1.218   6.025   3.489
 9437SOL    HW229211   1.231   6.174   3.552
 9438SOL     OW29212   0.860   6.255   1.236
 9438SOL    HW129213   0.834   6.288   1.145
 9438SOL    HW229214   0.803   6.298   1.305
 9439SOL     OW29215   0.599   3.253   2.051
 9439SOL    HW129216   0.570   3.158   2.059
 9439SOL    HW229217   0.518   3.312   2.039
 9440SOL     OW29218   4.798   5.509   4.501
 9440SOL    HW129219   4.823   5.413   4.489
 9440SOL    HW229220   4.733   5.535   4.429
 9441SOL     OW29221   1.579   5.151   5.027
 9441SOL    HW129222   1.602   5.078   4.963
 9441SOL    HW229223   1.587   5.118   5.120
 9442SOL     OW29224   6.081   2.153   0.142
 9442SOL    HW129225   6.104   2.232   0.085
 9442SOL    HW229226   6.133   2.073   0.112
 9443SOL     OW29227   2.322   4.488   1.338
 9443SOL    HW129228   2.339   4.413   1.274
 9443SOL    HW229229   2.298   4.451   1.427
 9444SOL     OW29230   0.771   3.377   6.770
 9444SOL    HW129231   0.709   3.301   6.750
 9444SOL    HW229232   0.829   3.395   6.691
 9445SOL     OW29233   5.362   3.154   1.747
 9445SOL    HW129234   5.303   3.231   1.726
 9445SOL    HW229235   5.341   3.078   1.686
 9446SOL     OW29236   6.469   0.002   3.208
 9446SOL    HW129237   6.385   0.053   3.192
 9446SOL    HW229238   6.518   7.016   3.122
 9447SOL     OW29239   5.666   3.386   3.053
 9447SOL    HW129240   5.700   3.472   3.015
 9447SOL    HW229241   5.738   3.316   3.047
 9448SOL     OW29242   5.289   6.185   6.429
 9448SOL    HW129243   5.210   6.216   6.377
 9448SOL    HW229244   5.361   6.255   6.425
 9449SOL     OW29245   7.014   5.553   6.283
 9449SOL    HW129246   6.942   5.484   6.278
 9449SOL    HW229247   6.976   5.639   6.318
 9450SOL     OW29248   3.313   5.346   4.939
 9450SOL    HW129249   3.283   5.278   4.872
 9450SOL    HW229250   3.398   5.388   4.908
 9451SOL     OW29251   3.890   5.380   6.086
 9451SOL    HW129252   3.830   5.335   6.019
 9451SOL    HW229253   3.941   5.453   6.041
 9452SOL     OW29254   1.711   3.252   1.302
 9452SOL    HW129255   1.707   3.348   1.328
 9452SOL    HW229256   1.675   3.241   1.210
 9453SOL     OW29257   2.063   4.316   3.240
 9453SOL    HW129258   2.045   4.218   3.247
 9453SOL    HW229259   1.985   4.368   3.274
 9454SOL     OW29260   2.194   3.468   6.167
 9454SOL    HW129261   2.122   3.410   6.130
 9454SOL    HW229262   2.217   3.540   6.102
 9455SOL     OW29263   3.320   1.628   2.621
 9455SOL    HW129264   3.267   1.697   2.572
 9455SOL    HW229265   3.257   1.563   2.666
 9456SOL     OW29266   0.374   4.609   0.181
 9456SOL    HW129267   0.277   4.588   0.196
 9456SOL    HW229268   0.428   4.525   0.192
 9457SOL     OW29269   1.655   3.642   6.377
 9457SOL    HW129270   1.734   3.654   6.317
 9457SOL    HW229271   1.592   3.576   6.336
 9458SOL     OW29272   1.508   4.352   6.794
 9458SOL    HW129273   1.585   4.303   6.836
 9458SOL    HW229274   1.469   4.295   6.722
 9459SOL     OW29275   6.420   5.232   2.433
 9459SOL    HW129276   6.431   5.181   2.348
 9459SOL    HW229277   6.403   5.329   2.412
 9460SOL     OW29278   0.076   1.809   5.008
 9460SOL    HW129279   7.022   1.861   4.974
 9460SOL    HW229280   0.086   1.725   4.955
 9461SOL     OW29281   6.429   1.618   3.297
 9461SOL    HW129282   6.474   1.558   3.363
 9461SOL    HW229283   6.341   1.647   3.332
 9462SOL     OW29284   2.199   3.921   3.112
 9462SOL    HW129285   2.253   3.912   3.195
 9462SOL    HW229286   2.159   3.833   3.087
 9463SOL     OW29287   0.436   1.098   1.197
 9463SOL    HW129288   0.476   1.033   1.133
 9463SOL    HW229289   0.490   1.099   1.281
 9464SOL     OW29290   5.432   6.516   7.023
 9464SOL    HW129291   5.370   6.484   6.950
 9464SOL    HW229292   5.513   6.558   6.982
 9465SOL     OW29293   6.919   0.370   3.302
 9465SOL    HW129294   6.886   0.441   3.239
 9465SOL    HW229295   6.853   0.296   3.307
 9466SOL     OW29296   4.048   3.923   5.098
 9466SOL    HW129297   4.083   3.976   5.176
 9466SOL    HW229298   3.975   3.974   5.054
 9467SOL     OW29299   1.290   2.938   1.419
 9467SOL    HW129300   1.333   2.973   1.336
 9467SOL    HW229301   1.355   2.881   1.468
 9468SOL     OW29302   5.740   2.623   6.006
 9468SOL    HW129303   5.675   2.617   5.930
 9468SOL    HW229304   5.829   2.589   5.976
 9469SOL     OW29305   6.288   5.316   1.717
 9469SOL    HW129306   6.249   5.225   1.710
 9469SOL    HW229307   6.376   5.319   1.670
 9470SOL     OW29308   5.657   3.293   6.196
 9470SOL    HW129309   5.622   3.237   6.121
 9470SOL    HW229310   5.599   3.279   6.277
 9471SOL     OW29311   6.359   2.520   5.254
 9471SOL    HW129312   6.444   2.545   5.301
 9471SOL    HW229313   6.286   2.506   5.322
 9472SOL     OW29314   6.513   3.629   4.495
 9472SOL    HW129315   6.561   3.595   4.414
 9472SOL    HW229316   6.500   3.728   4.486
 9473SOL     OW29317   3.741   6.448   5.584
 9473SOL    HW129318   3.788   6.366   5.552
 9473SOL    HW229319   3.713   6.503   5.505
 9474SOL     OW29320   6.299   3.910   1.247
 9474SOL    HW129321   6.385   3.897   1.297
 9474SOL    HW229322   6.241   3.830   1.259
 9475SOL     OW29323   3.367   3.527   0.423
 9475SOL    HW129324   3.309   3.566   0.494
 9475SOL    HW229325   3.418   3.450   0.460
 9476SOL     OW29326   3.098   3.377   4.658
 9476SOL    HW129327   3.049   3.446   4.711
 9476SOL    HW229328   3.058   3.287   4.675
 9477SOL     OW29329   0.358   3.403   2.046
 9477SOL    HW129330   0.265   3.377   2.071
 9477SOL    HW229331   0.355   3.484   1.987
 9478SOL     OW29332   6.078   3.747   6.301
 9478SOL    HW129333   6.142   3.811   6.343
 9478SOL    HW229334   6.087   3.751   6.201
 9479SOL     OW29335   5.349   6.671   6.206
 9479SOL    HW129336   5.436   6.653   6.253
 9479SOL    HW229337   5.293   6.732   6.263
 9480SOL     OW29338   4.522   4.339   6.722
 9480SOL    HW129339   4.600   4.320   6.662
 9480SOL    HW229340   4.555   4.382   6.806
 9481SOL     OW29341   5.927   3.918   1.312
 9481SOL    HW129342   5.850   3.899   1.373
 9481SOL    HW229343   5.993   3.843   1.317
 9482SOL     OW29344   6.462   1.041   3.127
 9482SOL    HW129345   6.411   1.033   3.041
 9482SOL    HW229346   6.400   1.064   3.201
 9483SOL     OW29347   1.866   1.374   0.907
 9483SOL    HW129348   1.769   1.393   0.892
 9483SOL    HW229349   1.886   1.382   1.005
 9484SOL     OW29350   5.059   1.860   3.306
 9484SOL    HW129351   5.014   1.775   3.279
 9484SOL    HW229352   5.075   1.859   3.405
 9485SOL     OW29353   0.678   0.032   1.729
 9485SOL    HW129354   0.584   0.002   1.748
 9485SOL    HW229355   0.738   0.001   1.803
 9486SOL     OW29356   2.134   5.199   1.044
 9486SOL    HW129357   2.184   5.189   1.130
 9486SOL    HW229358   2.199   5.216   0.970
 9487SOL     OW29359   2.903   3.461   3.843
 9487SOL    HW129360   2.887   3.557   3.867
 9487SOL    HW229361   2.860   3.402   3.911
 9488SOL     OW29362   2.945   6.645   1.500
 9488SOL    HW129363   2.928   6.635   1.598
 9488SOL    HW229364   2.963   6.555   1.460
 9489SOL     OW29365   3.418   4.082   1.331
 9489SOL    HW129366   3.322   4.109   1.322
 9489SOL    HW229367   3.441   4.075   1.428
 9490SOL     OW29368   5.590   6.976   0.375
 9490SOL    HW129369   5.654   6.951   0.448
 9490SOL    HW229370   5.558   0.045   0.389
 9491SOL     OW29371   6.713   4.650   4.445
 9491SOL    HW129372   6.741   4.635   4.540
 9491SOL    HW229373   6.698   4.561   4.400
 9492SOL     OW29374   3.312   3.568   2.628
 9492SOL    HW129375   3.311   3.634   2.554
 9492SOL    HW229376   3.406   3.538   2.646
 9493SOL     OW29377   4.383   5.262   3.879
 9493SOL    HW129378   4.299   5.253   3.932
 9493SOL    HW229379   4.364   5.310   3.793
 9494SOL     OW29380   4.253   3.704   0.922
 9494SOL    HW129381   4.339   3.708   0.973
 9494SOL    HW229382   4.224   3.797   0.898
 9495SOL     OW29383   6.499   2.581   4.284
 9495SOL    HW129384   6.444   2.657   4.250
 9495SOL    HW229385   6.527   2.600   4.378
 9496SOL     OW29386   5.175   4.720   0.339
 9496SOL    HW129387   5.222   4.668   0.268
 9496SOL    HW229388   5.241   4.757   0.404
 9497SOL     OW29389   4.881   3.853   0.504
 9497SOL    HW129390   4.981   3.849   0.508
 9497SOL    HW229391   4.844   3.760   0.500
 9498SOL     OW29392   5.168   0.588   6.599
 9498SOL    HW129393   5.223   0.657   6.551
 9498SOL    HW229394   5.121   0.531   6.532
 9499SOL     OW29395   2.492   3.438   5.589
 9499SOL    HW129396   2.457   3.463   5.499
 9499SOL    HW229397   2.508   3.521   5.642
 9500SOL     OW29398   3.282   6.713   1.928
 9500SOL    HW129399   3.257   6.810   1.928
 9500SOL    HW229400   3.232   6.667   2.001
 9501SOL     OW29401   3.257   1.522   4.480
 9501SOL    HW129402   3.261   1.621   4.493
 9501SOL    HW229403   3.170   1.497   4.438
 9502SOL     OW29404   0.209   2.018   5.126
 9502SOL    HW129405   0.188   2.014   5.224
 9502SOL    HW229406   0.164   1.942   5.080
 9503SOL     OW29407   0.406   1.063   1.833
 9503SOL    HW129408   0.446   1.152   1.856
 9503SOL    HW229409   0.374   1.064   1.739
 9504SOL     OW29410   0.188   2.309   1.141
 9504SOL    HW129411   0.176   2.349   1.232
 9504SOL    HW229412   0.279   2.268   1.135
 9505SOL     OW29413   5.360   3.768   3.449
 9505SOL    HW129414   5.329   3.680   3.487
 9505SOL    HW229415   5.449   3.755   3.405
 9506SOL     OW29416   0.684   2.950   6.282
 9506SOL    HW129417   0.731   3.038   6.291
 9506SOL    HW229418   0.750   2.878   6.262
 9507SOL     OW29419   2.001   1.324   3.732
 9507SOL    HW129420   2.078   1.268   3.704
 9507SOL    HW229421   2.013   1.352   3.827
 9508SOL     OW29422   6.441   2.525   0.780
 9508SOL    HW129423   6.425   2.430   0.809
 9508SOL    HW229424   6.465   2.526   0.683
 9509SOL     OW29425   1.156   6.380   5.416
 9509SOL    HW129426   1.097   6.423   5.484
 9509SOL    HW229427   1.185   6.290   5.448
 9510SOL     OW29428   0.840   3.902   1.890
 9510SOL    HW129429   0.812   3.923   1.984
 9510SOL    HW229430   0.835   3.985   1.834
 9511SOL     OW29431   0.960   1.854   6.933
 9511SOL    HW129432   0.932   1.758   6.942
 9511SOL    HW229433   0.970   1.877   6.836
 9512SOL     OW29434   5.799   1.786   3.235
 9512SOL    HW129435   5.774   1.725   3.310
 9512SOL    HW229436   5.881   1.837   3.259
 9513SOL     OW29437   1.236   3.176   4.733
 9513SOL    HW129438   1.290   3.256   4.708
 9513SOL    HW229439   1.281   3.128   4.809
 9514SOL     OW29440   1.301   3.893   0.037
 9514SOL    HW129441   1.205   3.885   0.010
 9514SOL    HW229442   1.315   3.844   0.123
 9515SOL     OW29443   1.548   6.035   0.102
 9515SOL    HW129444   1.484   6.093   0.051
 9515SOL    HW229445   1.505   5.948   0.123
 9516SOL     OW29446   4.897   3.697   4.648
 9516SOL    HW129447   4.948   3.660   4.726
 9516SOL    HW229448   4.928   3.651   4.564
 9517SOL     OW29449   1.627   4.676   1.164
 9517SOL    HW129450   1.532   4.651   1.149
 9517SOL    HW229451   1.682   4.651   1.084
 9518SOL     OW29452   1.611   2.257   6.867
 9518SOL    HW129453   1.645   2.165   6.888
 9518SOL    HW229454   1.512   2.255   6.857
 9519SOL     OW29455   3.435   3.239   2.958
 9519SOL    HW129456   3.523   3.281   2.981
 9519SOL    HW229457   3.413   3.257   2.863
 9520SOL     OW29458   6.764   1.363   3.613
 9520SOL    HW129459   6.800   1.388   3.523
 9520SOL    HW229460   6.837   1.370   3.681
 9521SOL     OW29461   3.709   4.175   1.422
 9521SOL    HW129462   3.676   4.128   1.504
 9521SOL    HW229463   3.645   4.247   1.397
 9522SOL     OW29464   4.075   5.448   2.860
 9522SOL    HW129465   4.041   5.378   2.922
 9522SOL    HW229466   4.037   5.537   2.885
 9523SOL     OW29467   2.669   5.260   5.206
 9523SOL    HW129468   2.642   5.308   5.289
 9523SOL    HW229469   2.650   5.163   5.216
 9524SOL     OW29470   1.744   2.833   0.919
 9524SOL    HW129471   1.699   2.908   0.968
 9524SOL    HW229472   1.794   2.776   0.984
 9525SOL     OW29473   1.809   1.929   5.390
 9525SOL    HW129474   1.872   1.954   5.317
 9525SOL    HW229475   1.857   1.929   5.478
 9526SOL     OW29476   5.873   4.773   0.940
 9526SOL    HW129477   5.938   4.712   0.986
 9526SOL    HW229478   5.921   4.830   0.874
 9527SOL     OW29479   2.268   0.315   4.697
 9527SOL    HW129480   2.203   0.267   4.756
 9527SOL    HW229481   2.225   0.398   4.662
 9528SOL     OW29482   6.331   1.619   0.991
 9528SOL    HW129483   6.266   1.595   1.062
 9528SOL    HW229484   6.410   1.557   0.996
 9529SOL     OW29485   5.285   4.027   0.840
 9529SOL    HW129486   5.292   4.032   0.741
 9529SOL    HW229487   5.201   4.074   0.870
 9530SOL     OW29488   0.803   4.499   4.325
 9530SOL    HW129489   0.863   4.484   4.404
 9530SOL    HW229490   0.811   4.594   4.294
 9531SOL     OW29491   4.211   4.697   3.128
 9531SOL    HW129492   4.279   4.630   3.159
 9531SOL    HW229493   4.225   4.716   3.031
 9532SOL     OW29494   6.774   4.968   0.999
 9532SOL    HW129495   6.751   4.889   1.056
 9532SOL    HW229496   6.723   4.963   0.914
 9533SOL     OW29497   0.605   5.108   3.871
 9533SOL    HW129498   0.635   5.143   3.960
 9533SOL    HW229499   0.658   5.026   3.848
 9534SOL     OW29500   5.837   4.137   4.433
 9534SOL    HW129501   5.817   4.220   4.485
 9534SOL    HW229502   5.815   4.151   4.337
 9535SOL     OW29503   1.878   0.837   6.330
 9535SOL    HW129504   1.920   0.748   6.348
 9535SOL    HW229505   1.806   0.854   6.397
 9536SOL     OW29506   3.446   3.105   5.509
 9536SOL    HW129507   3.492   3.022   5.539
 9536SOL    HW229508   3.509   3.183   5.517
 9537SOL     OW29509   3.114   1.742   4.768
 9537SOL    HW129510   3.133   1.749   4.670
 9537SOL    HW229511   3.189   1.784   4.819
 9538SOL     OW29512   4.701   0.768   4.367
 9538SOL    HW129513   4.657   0.814   4.445
 9538SOL    HW229514   4.790   0.733   4.396
 9539SOL     OW29515   2.952   3.496   4.165
 9539SOL    HW129516   2.970   3.579   4.112
 9539SOL    HW229517   2.951   3.519   4.263
 9540SOL     OW29518   5.167   6.079   4.575
 9540SOL    HW129519   5.081   6.043   4.539
 9540SOL    HW229520   5.171   6.178   4.559
 9541SOL     OW29521   2.270   0.756   6.039
 9541SOL    HW129522   2.360   0.787   6.069
 9541SOL    HW229523   2.221   0.715   6.117
 9542SOL     OW29524   5.888   5.283   4.290
 9542SOL    HW129525   5.843   5.194   4.300
 9542SOL    HW229526   5.834   5.352   4.340
 9543SOL     OW29527   3.595   0.523   6.190
 9543SOL    HW129528   3.676   0.547   6.138
 9543SOL    HW229529   3.618   0.515   6.287
 9544SOL     OW29530   5.273   3.188   4.222
 9544SOL    HW129531   5.185   3.151   4.251
 9544SOL    HW229532   5.339   3.113   4.211
 9545SOL     OW29533   5.941   5.184   2.367
 9545SOL    HW129534   5.997   5.173   2.450
 9545SOL    HW229535   5.948   5.102   2.311
 9546SOL     OW29536   3.854   1.334   5.801
 9546SOL    HW129537   3.804   1.256   5.765
 9546SOL    HW229538   3.949   1.309   5.817
 9547SOL     OW29539   2.341   5.475   3.818
 9547SOL    HW129540   2.417   5.473   3.753
 9547SOL    HW229541   2.375   5.461   3.911
 9548SOL     OW29542   0.385   5.696   4.966
 9548SOL    HW129543   0.318   5.698   4.892
 9548SOL    HW229544   0.419   5.788   4.983
 9549SOL     OW29545   2.551   1.167   2.137
 9549SOL    HW129546   2.571   1.187   2.041
 9549SOL    HW229547   2.637   1.159   2.189
 9550SOL     OW29548   6.384   2.258   0.840
 9550SOL    HW129549   6.459   2.196   0.860
 9550SOL    HW229550   6.311   2.208   0.793
 9551SOL     OW29551   5.693   3.243   5.823
 9551SOL    HW129552   5.627   3.208   5.889
 9551SOL    HW229553   5.769   3.287   5.872
 9552SOL     OW29554   2.413   6.049   5.820
 9552SOL    HW129555   2.388   6.146   5.825
 9552SOL    HW229556   2.370   6.000   5.896
 9553SOL     OW29557   5.336   2.414   0.166
 9553SOL    HW129558   5.268   2.353   0.124
 9553SOL    HW229559   5.303   2.445   0.255
 9554SOL     OW29560   1.492   6.269   3.376
 9554SOL    HW129561   1.489   6.350   3.436
 9554SOL    HW229562   1.416   6.208   3.398
 9555SOL     OW29563   0.412   0.816   3.329
 9555SOL    HW129564   0.476   0.844   3.258
 9555SOL    HW229565   0.384   0.896   3.382
 9556SOL     OW29566   1.816   3.536   1.193
 9556SOL    HW129567   1.866   3.566   1.274
 9556SOL    HW229568   1.877   3.543   1.113
 9557SOL     OW29569   5.381   7.007   1.061
 9557SOL    HW129570   5.333   0.062   1.098
 9557SOL    HW229571   5.475   0.008   1.039
 9558SOL     OW29572   6.028   6.012   5.347
 9558SOL    HW129573   5.984   6.075   5.411
 9558SOL    HW229574   6.070   6.064   5.272
 9559SOL     OW29575   1.096   4.379   0.512
 9559SOL    HW129576   1.063   4.340   0.598
 9559SOL    HW229577   1.018   4.408   0.457
 9560SOL     OW29578   2.467   0.774   2.929
 9560SOL    HW129579   2.483   0.771   3.028
 9560SOL    HW229580   2.393   0.838   2.909
 9561SOL     OW29581   0.397   0.495   1.263
 9561SOL    HW129582   0.373   0.504   1.359
 9561SOL    HW229583   0.404   0.586   1.221
 9562SOL     OW29584   2.795   0.235   4.566
 9562SOL    HW129585   2.852   0.153   4.558
 9562SOL    HW229586   2.775   0.252   4.663
 9563SOL     OW29587   0.296   6.875   0.080
 9563SOL    HW129588   0.291   6.813   0.002
 9563SOL    HW229589   0.340   6.829   0.157
 9564SOL     OW29590   2.488   1.067   0.824
 9564SOL    HW129591   2.444   1.112   0.902
 9564SOL    HW229592   2.438   0.984   0.801
 9565SOL     OW29593   3.684   1.135   5.720
 9565SOL    HW129594   3.621   1.154   5.795
 9565SOL    HW229595   3.636   1.141   5.633
 9566SOL     OW29596   2.631   5.986   0.353
 9566SOL    HW129597   2.703   5.962   0.418
 9566SOL    HW229598   2.671   6.011   0.265
 9567SOL     OW29599   5.102   4.275   0.226
 9567SOL    HW129600   5.083   4.283   0.324
 9567SOL    HW229601   5.168   4.201   0.211
 9568SOL     OW29602   4.289   1.881   0.203
 9568SOL    HW129603   4.189   1.873   0.195
 9568SOL    HW229604   4.313   1.976   0.222
 9569SOL     OW29605   0.099   1.250   2.203
 9569SOL    HW129606   0.020   1.311   2.202
 9569SOL    HW229607   0.143   1.251   2.114
 9570SOL     OW29608   0.809   2.962   1.549
 9570SOL    HW129609   0.783   3.058   1.554
 9570SOL    HW229610   0.860   2.946   1.464
 9571SOL     OW29611   3.160   3.231   5.486
 9571SOL    HW129612   3.136   3.328   5.491
 9571SOL    HW229613   3.258   3.222   5.470
 9572SOL     OW29614   2.143   5.202   2.211
 9572SOL    HW129615   2.131   5.104   2.228
 9572SOL    HW229616   2.053   5.244   2.195
 9573SOL     OW29617   0.690   1.693   6.657
 9573SOL    HW129618   0.634   1.726   6.733
 9573SOL    HW229619   0.642   1.620   6.609
 9574SOL     OW29620   3.406   2.875   2.495
 9574SOL    HW129621   3.361   2.849   2.409
 9574SOL    HW229622   3.338   2.877   2.569
 9575SOL     OW29623   0.218   1.247   1.954
 9575SOL    HW129624   0.276   1.328   1.960
 9575SOL    HW229625   0.275   1.166   1.940
 9576SOL     OW29626   2.215   1.903   0.574
 9576SOL    HW129627   2.189   1.981   0.518
 9576SOL    HW229628   2.133   1.864   0.617
 9577SOL     OW29629   0.952   0.179   5.857
 9577SOL    HW129630   0.893   0.238   5.912
 9577SOL    HW229631   1.045   0.216   5.856
 9578SOL     OW29632   1.458   3.322   2.938
 9578SOL    HW129633   1.554   3.350   2.936
 9578SOL    HW229634   1.409   3.364   2.862
 9579SOL     OW29635   0.283   5.791   3.068
 9579SOL    HW129636   0.297   5.889   3.084
 9579SOL    HW229637   0.295   5.742   3.154
 9580SOL     OW29638   4.501   3.136   0.620
 9580SOL    HW129639   4.477   3.041   0.638
 9580SOL    HW229640   4.418   3.190   0.606
 9581SOL     OW29641   0.347   0.236   6.580
 9581SOL    HW129642   0.386   0.148   6.554
 9581SOL    HW229643   0.247   0.233   6.570
 9582SOL     OW29644   4.469   5.906   5.039
 9582SOL    HW129645   4.535   5.831   5.045
 9582SOL    HW229646   4.479   5.951   4.950
 9583SOL     OW29647   2.837   3.694   1.341
 9583SOL    HW129648   2.765   3.672   1.408
 9583SOL    HW229649   2.806   3.668   1.250
 9584SOL     OW29650   6.751   4.836   6.094
 9584SOL    HW129651   6.815   4.789   6.154
 9584SOL    HW229652   6.688   4.770   6.053
 9585SOL     OW29653   5.269   6.414   3.184
 9585SOL    HW129654   5.321   6.350   3.240
 9585SOL    HW229655   5.178   6.428   3.224
 9586SOL     OW29656   4.973   5.485   2.377
 9586SOL    HW129657   4.978   5.578   2.341
 9586SOL    HW229658   4.882   5.448   2.361
 9587SOL     OW29659   1.300   0.204   1.481
 9587SOL    HW129660   1.351   0.191   1.396
 9587SOL    HW229661   1.221   0.144   1.483
 9588SOL     OW29662   6.375   6.612   0.745
 9588SOL    HW129663   6.372   6.655   0.835
 9588SOL    HW229664   6.439   6.662   0.687
 9589SOL     OW29665   1.858   4.737   0.221
 9589SOL    HW129666   1.760   4.720   0.205
 9589SOL    HW229667   1.875   4.737   0.320
 9590SOL     OW29668   6.016   3.291   1.835
 9590SOL    HW129669   6.110   3.315   1.856
 9590SOL    HW229670   6.013   3.245   1.746
 9591SOL     OW29671   2.789   5.470   5.863
 9591SOL    HW129672   2.790   5.534   5.940
 9591SOL    HW229673   2.872   5.414   5.865
 9592SOL     OW29674   2.665   4.742   0.186
 9592SOL    HW129675   2.650   4.717   0.282
 9592SOL    HW229676   2.700   4.663   0.136
 9593SOL     OW29677   0.750   1.001   6.444
 9593SOL    HW129678   0.672   1.054   6.414
 9593SOL    HW229679   0.797   1.049   6.519
 9594SOL     OW29680   1.997   5.206   4.006
 9594SOL    HW129681   1.908   5.160   4.006
 9594SOL    HW229682   2.037   5.201   3.915
 9595SOL     OW29683   0.227   3.003   4.170
 9595SOL    HW129684   0.192   3.087   4.129
 9595SOL    HW229685   0.150   2.950   4.208
 9596SOL     OW29686   1.139   4.826   6.685
 9596SOL    HW129687   1.230   4.796   6.657
 9596SOL    HW229688   1.137   4.837   6.784
 9597SOL     OW29689   6.819   4.358   1.874
 9597SOL    HW129690   6.911   4.387   1.847
 9597SOL    HW229691   6.766   4.333   1.793
 9598SOL     OW29692   1.787   5.006   3.490
 9598SOL    HW129693   1.840   4.967   3.565
 9598SOL    HW229694   1.731   4.935   3.448
 9599SOL     OW29695   2.466   0.634   4.055
 9599SOL    HW129696   2.562   0.635   4.085
 9599SOL    HW229697   2.408   0.671   4.127
 9600SOL     OW29698   2.920   6.838   0.072
 9600SOL    HW129699   2.941   6.748   0.034
 9600SOL    HW229700   2.902   6.903   7.022
 9601SOL     OW29701   5.060   4.151   0.939
 9601SOL    HW129702   5.080   4.167   1.036
 9601SOL    HW229703   4.961   4.141   0.927
 9602SOL     OW29704   5.883   3.924   6.696
 9602SOL    HW129705   5.787   3.947   6.708
 9602SOL    HW229706   5.901   3.832   6.732
 9603SOL     OW29707   4.618   1.189   6.009
 9603SOL    HW129708   4.575   1.110   6.052
 9603SOL    HW229709   4.708   1.204   6.050
 9604SOL     OW29710   4.704   0.100   0.912
 9604SOL    HW129711   4.605   0.101   0.928
 9604SOL    HW229712   4.731   0.010   0.879
 9605SOL     OW29713   0.763   5.994   3.294
 9605SOL    HW129714   0.850   6.003   3.246
 9605SOL    HW229715   0.762   5.909   3.347
 9606SOL     OW29716   1.762   6.256   0.210
 9606SOL    HW129717   1.682   6.196   0.202
 9606SOL    HW229718   1.845   6.203   0.194
 9607SOL     OW29719   2.155   0.796   6.491
 9607SOL    HW129720   2.155   0.824   6.587
 9607SOL    HW229721   2.180   0.700   6.484
 9608SOL     OW29722   0.117   4.852   1.732
 9608SOL    HW129723   0.089   4.946   1.716
 9608SOL    HW229724   0.058   4.790   1.681
 9609SOL     OW29725   2.618   3.139   0.255
 9609SOL    HW129726   2.568   3.112   0.172
 9609SOL    HW229727   2.554   3.175   0.323
 9610SOL     OW29728   1.607   4.941   3.864
 9610SOL    HW129729   1.589   4.949   3.766
 9610SOL    HW229730   1.520   4.943   3.914
 9611SOL     OW29731   1.000   6.278   6.844
 9611SOL    HW129732   0.941   6.209   6.885
 9611SOL    HW229733   1.039   6.336   6.916
 9612SOL     OW29734   0.361   3.871   1.718
 9612SOL    HW129735   0.362   3.967   1.688
 9612SOL    HW229736   0.276   3.853   1.768
 9613SOL     OW29737   5.145   0.266   3.535
 9613SOL    HW129738   5.081   0.287   3.609
 9613SOL    HW229739   5.137   0.336   3.464
 9614SOL     OW29740   4.145   2.430   1.660
 9614SOL    HW129741   4.227   2.435   1.717
 9614SOL    HW229742   4.089   2.353   1.688
 9615SOL     OW29743   2.366   0.138   0.319
 9615SOL    HW129744   2.425   0.062   0.346
 9615SOL    HW229745   2.420   0.208   0.273
 9616SOL     OW29746   3.641   3.536   1.378
 9616SOL    HW129747   3.617   3.479   1.299
 9616SOL    HW229748   3.719   3.497   1.426
 9617SOL     OW29749   1.337   3.208   3.167
 9617SOL    HW129750   1.357   3.257   3.081
 9617SOL    HW229751   1.421   3.170   3.204
 9618SOL     OW29752   3.890   6.421   0.141
 9618SOL    HW129753   3.828   6.372   0.203
 9618SOL    HW229754   3.909   6.363   0.061
 9619SOL     OW29755   1.507   6.681   6.584
 9619SOL    HW129756   1.599   6.642   6.589
 9619SOL    HW229757   1.511   6.769   6.537
 9620SOL     OW29758   4.174   0.706   6.254
 9620SOL    HW129759   4.164   0.634   6.185
 9620SOL    HW229760   4.271   0.727   6.266
 9621SOL     OW29761   0.896   2.267   2.073
 9621SOL    HW129762   0.854   2.225   2.153
 9621SOL    HW229763   0.995   2.274   2.086
 9622SOL     OW29764   6.784   1.340   0.799
 9622SOL    HW129765   6.840   1.410   0.843
 9622SOL    HW229766   6.763   1.268   0.866
 9623SOL     OW29767   2.815   3.696   5.669
 9623SOL    HW129768   2.898   3.748   5.648
 9623SOL    HW229769   2.825   3.603   5.636
 9624SOL     OW29770   6.611   4.060   2.597
 9624SOL    HW129771   6.614   4.099   2.505
 9624SOL    HW229772   6.602   4.133   2.664
 9625SOL     OW29773   4.780   5.828   6.790
 9625SOL    HW129774   4.748   5.763   6.721
 9625SOL    HW229775   4.780   5.920   6.751
 9626SOL     OW29776   4.069   5.319   0.379
 9626SOL    HW129777   4.049   5.412   0.411
 9626SOL    HW229778   4.153   5.286   0.422
 9627SOL     OW29779   6.818   6.338   4.735
 9627SOL    HW129780   6.725   6.318   4.763
 9627SOL    HW229781   6.863   6.394   4.804
 9628SOL     OW29782   4.946   4.816   0.234
 9628SOL    HW129783   5.026   4.784   0.286
 9628SOL    HW229784   4.956   4.788   0.139
 9629SOL     OW29785   0.469   6.887   1.774
 9629SOL    HW129786   0.500   6.839   1.856
 9629SOL    HW229787   0.380   6.852   1.747
 9630SOL     OW29788   6.706   6.978   4.993
 9630SOL    HW129789   6.664   6.932   4.915
 9630SOL    HW229790   6.646   6.971   5.072
 9631SOL     OW29791   0.009   6.698   6.746
 9631SOL    HW129792   6.972   6.735   6.816
 9631SOL    HW229793   7.016   6.744   6.658
 9632SOL     OW29794   1.059   0.063   2.752
 9632SOL    HW129795   1.116   7.012   2.785
 9632SOL    HW229796   1.108   0.150   2.765
 9633SOL     OW29797   5.285   5.336   6.022
 9633SOL    HW129798   5.269   5.317   6.119
 9633SOL    HW229799   5.364   5.283   5.991
 9634SOL     OW29800   1.253   5.739   4.130
 9634SOL    HW129801   1.319   5.765   4.201
 9634SOL    HW229802   1.300   5.692   4.056
 9635SOL     OW29803   1.481   4.867   5.242
 9635SOL    HW129804   1.472   4.946   5.303
 9635SOL    HW229805   1.431   4.886   5.157
 9636SOL     OW29806   3.996   2.032   5.601
 9636SOL    HW129807   3.983   1.947   5.551
 9636SOL    HW229808   3.948   2.027   5.689
 9637SOL     OW29809   2.280   1.375   6.235
 9637SOL    HW129810   2.197   1.377   6.179
 9637SOL    HW229811   2.257   1.349   6.328
 9638SOL     OW29812   6.733   3.756   6.973
 9638SOL    HW129813   6.763   3.850   6.962
 9638SOL    HW229814   6.728   3.734   0.046
 9639SOL     OW29815   3.790   1.554   2.440
 9639SOL    HW129816   3.814   1.592   2.529
 9639SOL    HW229817   3.690   1.548   2.432
 9640SOL     OW29818   2.203   2.823   3.541
 9640SOL    HW129819   2.265   2.789   3.470
 9640SOL    HW229820   2.223   2.919   3.560
 9641SOL     OW29821   3.850   6.422   0.876
 9641SOL    HW129822   3.764   6.372   0.862
 9641SOL    HW229823   3.842   6.479   0.958
 9642SOL     OW29824   3.347   6.705   4.528
 9642SOL    HW129825   3.359   6.802   4.506
 9642SOL    HW229826   3.332   6.653   4.444
 9643SOL     OW29827   5.411   5.604   4.488
 9643SOL    HW129828   5.319   5.583   4.518
 9643SOL    HW229829   5.457   5.520   4.458
 9644SOL     OW29830   1.144   4.345   6.178
 9644SOL    HW129831   1.094   4.269   6.136
 9644SOL    HW229832   1.095   4.377   6.258
 9645SOL     OW29833   2.786   5.438   3.578
 9645SOL    HW129834   2.860   5.503   3.593
 9645SOL    HW229835   2.699   5.481   3.599
 9646SOL     OW29836   3.091   4.768   1.772
 9646SOL    HW129837   3.189   4.749   1.766
 9646SOL    HW229838   3.044   4.688   1.809
 9647SOL     OW29839   6.517   5.584   2.097
 9647SOL    HW129840   6.496   5.679   2.074
 9647SOL    HW229841   6.483   5.563   2.189
 9648SOL     OW29842   4.287   1.451   0.237
 9648SOL    HW129843   4.270   1.524   0.303
 9648SOL    HW229844   4.383   1.453   0.209
 9649SOL     OW29845   2.827   6.546   7.020
 9649SOL    HW129846   2.866   6.480   0.061
 9649SOL    HW229847   2.793   6.497   6.940
 9650SOL     OW29848   6.159   5.333   2.135
 9650SOL    HW129849   6.218   5.287   2.200
 9650SOL    HW229850   6.109   5.406   2.181
 9651SOL     OW29851   0.188   1.099   6.319
 9651SOL    HW129852   0.236   1.080   6.405
 9651SOL    HW229853   0.197   1.196   6.297
 9652SOL     OW29854   2.304   4.293   0.883
 9652SOL    HW129855   2.343   4.225   0.821
 9652SOL    HW229856   2.241   4.352   0.832
 9653SOL     OW29857   4.142   5.399   4.498
 9653SOL    HW129858   4.209   5.378   4.569
 9653SOL    HW229859   4.189   5.414   4.411
 9654SOL     OW29860   3.246   2.910   1.238
 9654SOL    HW129861   3.202   2.950   1.158
 9654SOL    HW229862   3.187   2.923   1.318
 9655SOL     OW29863   0.227   1.129   0.409
 9655SOL    HW129864   0.132   1.119   0.440
 9655SOL    HW229865   0.246   1.226   0.393
 9656SOL     OW29866   2.690   1.351   1.038
 9656SOL    HW129867   2.642   1.295   1.106
 9656SOL    HW229868   2.759   1.407   1.083
 9657SOL     OW29869   5.411   0.238   3.624
 9657SOL    HW129870   5.312   0.237   3.611
 9657SOL    HW229871   5.457   0.227   3.536
 9658SOL     OW29872   6.226   2.045   3.390
 9658SOL    HW129873   6.270   1.980   3.452
 9658SOL    HW229874   6.288   2.063   3.313
 9659SOL     OW29875   6.756   4.556   0.397
 9659SOL    HW129876   6.770   4.484   0.328
 9659SOL    HW229877   6.672   4.606   0.376
 9660SOL     OW29878   0.571   5.381   0.089
 9660SOL    HW129879   0.580   5.284   0.113
 9660SOL    HW229880   0.496   5.392   0.024
 9661SOL     OW29881   4.452   5.761   1.692
 9661SOL    HW129882   4.494   5.847   1.720
 9661SOL    HW229883   4.391   5.776   1.615
 9662SOL     OW29884   6.070   2.765   4.892
 9662SOL    HW129885   6.149   2.707   4.871
 9662SOL    HW229886   5.990   2.734   4.841
 9663SOL     OW29887   1.145   5.726   3.807
 9663SOL    HW129888   1.130   5.726   3.905
 9663SOL    HW229889   1.161   5.632   3.775
 9664SOL     OW29890   5.508   6.730   2.823
 9664SOL    HW129891   5.409   6.736   2.831
 9664SOL    HW229892   5.551   6.783   2.896
 9665SOL     OW29893   5.176   5.495   5.352
 9665SOL    HW129894   5.268   5.468   5.321
 9665SOL    HW229895   5.114   5.418   5.341
 9666SOL     OW29896   5.747   4.547   2.104
 9666SOL    HW129897   5.797   4.477   2.053
 9666SOL    HW229898   5.681   4.592   2.043
 9667SOL     OW29899   3.924   3.004   4.032
 9667SOL    HW129900   3.920   3.101   4.010
 9667SOL    HW229901   4.018   2.979   4.056
 9668SOL     OW29902   6.442   1.300   6.339
 9668SOL    HW129903   6.489   1.384   6.310
 9668SOL    HW229904   6.372   1.323   6.407
 9669SOL     OW29905   0.714   1.188   0.909
 9669SOL    HW129906   0.648   1.263   0.913
 9669SOL    HW229907   0.799   1.216   0.954
 9670SOL     OW29908   5.047   5.084   6.402
 9670SOL    HW129909   5.091   5.153   6.459
 9670SOL    HW229910   4.957   5.117   6.374
 9671SOL     OW29911   0.708   5.007   6.339
 9671SOL    HW129912   0.667   4.917   6.329
 9671SOL    HW229913   0.790   5.014   6.281
 9672SOL     OW29914   1.858   6.882   4.388
 9672SOL    HW129915   1.852   6.861   4.485
 9672SOL    HW229916   1.923   6.957   4.373
 9673SOL     OW29917   5.522   4.457   6.801
 9673SOL    HW129918   5.563   4.431   6.713
 9673SOL    HW229919   5.485   4.375   6.846
 9674SOL     OW29920   2.859   6.143   3.081
 9674SOL    HW129921   2.934   6.201   3.113
 9674SOL    HW229922   2.817   6.097   3.159
 9675SOL     OW29923   5.896   1.389   1.226
 9675SOL    HW129924   5.875   1.351   1.316
 9675SOL    HW229925   5.946   1.321   1.172
 9676SOL     OW29926   1.614   3.375   5.681
 9676SOL    HW129927   1.693   3.338   5.633
 9676SOL    HW229928   1.532   3.323   5.656
 9677SOL     OW29929   2.910   4.715   6.297
 9677SOL    HW129930   2.928   4.646   6.367
 9677SOL    HW229931   2.843   4.780   6.332
 9678SOL     OW29932   3.038   3.961   2.740
 9678SOL    HW129933   3.060   3.996   2.831
 9678SOL    HW229934   2.999   3.869   2.748
 9679SOL     OW29935   1.325   1.406   1.811
 9679SOL    HW129936   1.372   1.433   1.727
 9679SOL    HW229937   1.327   1.482   1.876
 9680SOL     OW29938   6.129   0.012   3.560
 9680SOL    HW129939   6.157   6.950   3.603
 9680SOL    HW229940   6.209   0.060   3.525
 9681SOL     OW29941   2.926   0.971   1.651
 9681SOL    HW129942   3.010   0.979   1.597
 9681SOL    HW229943   2.849   0.956   1.589
 9682SOL     OW29944   5.411   5.192   3.453
 9682SOL    HW129945   5.387   5.228   3.543
 9682SOL    HW229946   5.470   5.257   3.405
 9683SOL     OW29947   3.290   5.291   0.838
 9683SOL    HW129948   3.322   5.292   0.744
 9683SOL    HW229949   3.305   5.200   0.878
 9684SOL     OW29950   0.218   2.860   5.087
 9684SOL    HW129951   0.161   2.919   5.030
 9684SOL    HW229952   0.301   2.909   5.114
 9685SOL     OW29953   2.428   2.807   1.071
 9685SOL    HW129954   2.341   2.835   1.030
 9685SOL    HW229955   2.475   2.888   1.106
 9686SOL     OW29956   6.264   2.055   0.677
 9686SOL    HW129957   6.245   1.958   0.693
 9686SOL    HW229958   6.178   2.106   0.683
 9687SOL     OW29959   2.297   0.661   3.415
 9687SOL    HW129960   2.290   0.688   3.511
 9687SOL    HW229961   2.274   0.564   3.405
 9688SOL     OW29962   6.395   2.563   3.721
 9688SOL    HW129963   6.453   2.521   3.652
 9688SOL    HW229964   6.350   2.493   3.775
 9689SOL     OW29965   1.528   6.395   0.821
 9689SOL    HW129966   1.598   6.415   0.889
 9689SOL    HW229967   1.501   6.480   0.775
 9690SOL     OW29968   5.831   5.351   6.766
 9690SOL    HW129969   5.768   5.361   6.689
 9690SOL    HW229970   5.893   5.429   6.769
 9691SOL     OW29971   2.785   4.655   1.523
 9691SOL    HW129972   2.812   4.615   1.436
 9691SOL    HW229973   2.738   4.586   1.579
 9692SOL     OW29974   2.133   4.986   2.746
 9692SOL    HW129975   2.094   4.898   2.773
 9692SOL    HW229976   2.089   5.019   2.662
 9693SOL     OW29977   6.652   5.007   1.847
 9693SOL    HW129978   6.654   4.948   1.928
 9693SOL    HW229979   6.557   5.025   1.821
 9694SOL     OW29980   2.406   1.132   6.168
 9694SOL    HW129981   2.371   1.062   6.230
 9694SOL    HW229982   2.353   1.216   6.181
 9695SOL     OW29983   6.593   4.076   1.011
 9695SOL    HW129984   6.672   4.024   0.977
 9695SOL    HW229985   6.509   4.036   0.975
 9696SOL     OW29986   4.912   2.199   1.070
 9696SOL    HW129987   4.853   2.213   1.150
 9696SOL    HW229988   4.895   2.109   1.030
 9697SOL     OW29989   6.979   5.291   6.867
 9697SOL    HW129990   6.999   5.195   6.888
 9697SOL    HW229991   6.884   5.299   6.838
 9698SOL     OW29992   5.781   0.906   5.544
 9698SOL    HW129993   5.830   0.956   5.616
 9698SOL    HW229994   5.752   0.817   5.579
 9699SOL     OW29995   0.286   4.615   6.353
 9699SOL    HW129996   0.191   4.590   6.333
 9699SOL    HW229997   0.293   4.644   6.449
 9700SOL     OW29998   4.176   5.590   5.635
 9700SOL    HW129999   4.255   5.560   5.688
 9700SOL    HW230000   4.120   5.511   5.609
 9701SOL     OW30001   3.514   5.379   4.743
 9701SOL    HW130002   3.590   5.314   4.741
 9701SOL    HW230003   3.449   5.356   4.670
 9702SOL     OW30004   5.905   0.610   6.558
 9702SOL    HW130005   5.966   0.684   6.589
 9702SOL    HW230006   5.950   0.522   6.575
 9703SOL     OW30007   3.466   5.604   4.009
 9703SOL    HW130008   3.556   5.646   3.997
 9703SOL    HW230009   3.434   5.568   3.921
 9704SOL     OW30010   2.986   1.030   2.500
 9704SOL    HW130011   3.049   1.101   2.530
 9704SOL    HW230012   2.896   1.070   2.484
 9705SOL     OW30013   5.342   5.368   0.927
 9705SOL    HW130014   5.322   5.457   0.968
 9705SOL    HW230015   5.397   5.314   0.990
 9706SOL     OW30016   0.351   2.548   1.038
 9706SOL    HW130017   0.339   2.453   1.064
 9706SOL    HW230018   0.378   2.554   0.942
 9707SOL     OW30019   6.258   4.207   1.840
 9707SOL    HW130020   6.258   4.173   1.746
 9707SOL    HW230021   6.303   4.141   1.900
 9708SOL     OW30022   1.702   2.744   3.027
 9708SOL    HW130023   1.605   2.734   3.048
 9708SOL    HW230024   1.736   2.658   2.988
 9709SOL     OW30025   0.021   5.638   3.458
 9709SOL    HW130026   0.105   5.589   3.481
 9709SOL    HW230027   0.002   5.628   3.361
 9710SOL     OW30028   0.518   1.821   2.645
 9710SOL    HW130029   0.495   1.810   2.742
 9710SOL    HW230030   0.448   1.877   2.600
 9711SOL     OW30031   1.670   3.437   6.003
 9711SOL    HW130032   1.707   3.530   5.998
 9711SOL    HW230033   1.693   3.388   5.919
 9712SOL     OW30034   5.229   3.658   4.510
 9712SOL    HW130035   5.254   3.656   4.607
 9712SOL    HW230036   5.173   3.578   4.489
 9713SOL     OW30037   0.578   5.131   3.119
 9713SOL    HW130038   0.586   5.229   3.134
 9713SOL    HW230039   0.491   5.111   3.074
 9714SOL     OW30040   1.991   0.984   2.031
 9714SOL    HW130041   1.984   0.980   2.130
 9714SOL    HW230042   2.085   1.008   2.005
 9715SOL     OW30043   6.851   5.411   5.356
 9715SOL    HW130044   6.838   5.338   5.288
 9715SOL    HW230045   6.935   5.461   5.334
 9716SOL     OW30046   4.098   2.644   6.889
 9716SOL    HW130047   4.142   2.568   6.938
 9716SOL    HW230048   4.037   2.607   6.819
 9717SOL     OW30049   5.745   5.941   5.604
 9717SOL    HW130050   5.709   5.936   5.698
 9717SOL    HW230051   5.716   6.027   5.562
 9718SOL     OW30052   4.551   3.261   1.676
 9718SOL    HW130053   4.544   3.198   1.753
 9718SOL    HW230054   4.624   3.231   1.615
 9719SOL     OW30055   0.962   2.396   6.936
 9719SOL    HW130056   0.931   2.460   6.867
 9719SOL    HW230057   1.007   2.446   7.010
 9720SOL     OW30058   0.648   5.526   1.700
 9720SOL    HW130059   0.717   5.453   1.703
 9720SOL    HW230060   0.609   5.539   1.791
 9721SOL     OW30061   0.954   2.488   1.746
 9721SOL    HW130062   1.027   2.502   1.814
 9721SOL    HW230063   0.908   2.401   1.764
 9722SOL     OW30064   0.482   6.677   3.571
 9722SOL    HW130065   0.543   6.688   3.649
 9722SOL    HW230066   0.526   6.713   3.489
 9723SOL     OW30067   1.724   5.988   2.868
 9723SOL    HW130068   1.662   6.064   2.887
 9723SOL    HW230069   1.752   5.991   2.772
 9724SOL     OW30070   3.134   2.989   0.993
 9724SOL    HW130071   3.046   2.962   0.954
 9724SOL    HW230072   3.207   2.936   0.951
 9725SOL     OW30073   4.249   3.677   6.140
 9725SOL    HW130074   4.275   3.672   6.237
 9725SOL    HW230075   4.205   3.765   6.122
 9726SOL     OW30076   4.368   6.812   4.453
 9726SOL    HW130077   4.332   6.748   4.521
 9726SOL    HW230078   4.440   6.867   4.495
 9727SOL     OW30079   1.305   3.536   5.455
 9727SOL    HW130080   1.321   3.473   5.531
 9727SOL    HW230081   1.287   3.483   5.372
 9728SOL     OW30082   0.694   6.762   6.388
 9728SOL    HW130083   0.624   6.701   6.426
 9728SOL    HW230084   0.692   6.849   6.438
 9729SOL     OW30085   0.944   4.443   2.807
 9729SOL    HW130086   0.914   4.386   2.730
 9729SOL    HW230087   1.016   4.506   2.776
 9730SOL     OW30088   0.569   3.533   2.304
 9730SOL    HW130089   0.662   3.494   2.305
 9730SOL    HW230090   0.540   3.547   2.210
 9731SOL     OW30091   4.327   4.644   0.756
 9731SOL    HW130092   4.369   4.678   0.672
 9731SOL    HW230093   4.229   4.632   0.740
 9732SOL     OW30094   5.590   6.101   2.726
 9732SOL    HW130095   5.548   6.018   2.690
 9732SOL    HW230096   5.689   6.090   2.730
 9733SOL     OW30097   6.065   5.182   4.906
 9733SOL    HW130098   5.972   5.218   4.896
 9733SOL    HW230099   6.130   5.247   4.868
 9734SOL     OW30100   5.270   1.873   3.931
 9734SOL    HW130101   5.300   1.777   3.924
 9734SOL    HW230102   5.177   1.876   3.967
 9735SOL     OW30103   1.569   4.415   2.663
 9735SOL    HW130104   1.627   4.378   2.736
 9735SOL    HW230105   1.622   4.418   2.577
 9736SOL     OW30106   5.553   1.463   5.937
 9736SOL    HW130107   5.603   1.441   5.853
 9736SOL    HW230108   5.500   1.383   5.967
 9737SOL     OW30109   4.786   3.000   4.787
 9737SOL    HW130110   4.810   3.070   4.855
 9737SOL    HW230111   4.722   2.935   4.828
 9738SOL     OW30112   1.368   6.638   3.234
 9738SOL    HW130113   1.419   6.722   3.218
 9738SOL    HW230114   1.271   6.660   3.248
 9739SOL     OW30115   0.401   4.789   2.015
 9739SOL    HW130116   0.487   4.750   2.047
 9739SOL    HW230117   0.326   4.756   2.072
 9740SOL     OW30118   5.884   3.182   3.051
 9740SOL    HW130119   5.978   3.213   3.048
 9740SOL    HW230120   5.866   3.138   3.139
 9741SOL     OW30121   4.683   1.208   2.407
 9741SOL    HW130122   4.713   1.278   2.472
 9741SOL    HW230123   4.637   1.252   2.330
 9742SOL     OW30124   4.546   0.150   3.334
 9742SOL    HW130125   4.548   0.051   3.353
 9742SOL    HW230126   4.583   0.168   3.243
 9743SOL     OW30127   1.993   1.990   5.187
 9743SOL    HW130128   1.958   2.071   5.140
 9743SOL    HW230129   2.092   1.998   5.197
 9744SOL     OW30130   0.694   0.204   3.025
 9744SOL    HW130131   0.651   0.289   2.993
 9744SOL    HW230132   0.632   0.158   3.089
 9745SOL     OW30133   0.212   2.396   6.180
 9745SOL    HW130134   0.114   2.405   6.200
 9745SOL    HW230135   0.223   2.363   6.086
 9746SOL     OW30136   5.837   1.506   5.484
 9746SOL    HW130137   5.787   1.525   5.568
 9746SOL    HW230138   5.916   1.567   5.477
 9747SOL     OW30139   1.435   1.117   1.797
 9747SOL    HW130140   1.406   1.209   1.823
 9747SOL    HW230141   1.502   1.084   1.864
 9748SOL     OW30142   1.391   0.183   4.813
 9748SOL    HW130143   1.488   0.166   4.796
 9748SOL    HW230144   1.336   0.121   4.757
 9749SOL     OW30145   2.173   2.335   5.446
 9749SOL    HW130146   2.211   2.272   5.513
 9749SOL    HW230147   2.245   2.366   5.384
 9750SOL     OW30148   5.684   5.047   4.226
 9750SOL    HW130149   5.587   5.031   4.247
 9750SOL    HW230150   5.691   5.104   4.145
 9751SOL     OW30151   2.567   2.146   1.279
 9751SOL    HW130152   2.585   2.199   1.196
 9751SOL    HW230153   2.469   2.146   1.297
 9752SOL     OW30154   4.400   0.650   6.566
 9752SOL    HW130155   4.478   0.616   6.618
 9752SOL    HW230156   4.386   0.747   6.586
 9753SOL     OW30157   6.575   6.234   4.837
 9753SOL    HW130158   6.552   6.162   4.771
 9753SOL    HW230159   6.518   6.314   4.820
 9754SOL     OW30160   1.268   1.598   6.892
 9754SOL    HW130161   1.240   1.612   6.986
 9754SOL    HW230162   1.225   1.667   6.833
 9755SOL     OW30163   4.332   3.225   5.293
 9755SOL    HW130164   4.403   3.296   5.291
 9755SOL    HW230165   4.375   3.137   5.313
 9756SOL     OW30166   6.048   3.076   0.308
 9756SOL    HW130167   6.114   3.148   0.328
 9756SOL    HW230168   6.062   2.999   0.370
 9757SOL     OW30169   4.886   3.328   3.393
 9757SOL    HW130170   4.918   3.309   3.486
 9757SOL    HW230171   4.800   3.378   3.397
 9758SOL     OW30172   1.494   6.567   6.325
 9758SOL    HW130173   1.472   6.619   6.408
 9758SOL    HW230174   1.410   6.546   6.276
 9759SOL     OW30175   2.081   6.686   1.170
 9759SOL    HW130176   2.123   6.638   1.093
 9759SOL    HW230177   2.145   6.754   1.206
 9760SOL     OW30178   4.795   3.724   5.347
 9760SOL    HW130179   4.755   3.680   5.266
 9760SOL    HW230180   4.846   3.656   5.400
 9761SOL     OW30181   5.995   6.118   2.047
 9761SOL    HW130182   5.943   6.189   2.094
 9761SOL    HW230183   6.089   6.149   2.032
 9762SOL     OW30184   2.834   2.163   4.482
 9762SOL    HW130185   2.790   2.083   4.523
 9762SOL    HW230186   2.888   2.210   4.552
 9763SOL     OW30187   4.665   1.990   1.982
 9763SOL    HW130188   4.752   1.942   1.967
 9763SOL    HW230189   4.603   1.931   2.033
 9764SOL     OW30190   1.129   2.052   3.341
 9764SOL    HW130191   1.188   2.131   3.355
 9764SOL    HW230192   1.062   2.072   3.270
 9765SOL     OW30193   6.525   2.130   4.589
 9765SOL    HW130194   6.581   2.185   4.651
 9765SOL    HW230195   6.577   2.051   4.558
 9766SOL     OW30196   2.541   0.186   2.922
 9766SOL    HW130197   2.635   0.195   2.888
 9766SOL    HW230198   2.483   0.148   2.850
 9767SOL     OW30199   5.473   2.020   4.817
 9767SOL    HW130200   5.506   1.966   4.894
 9767SOL    HW230201   5.548   2.074   4.779
 9768SOL     OW30202   5.217   2.292   2.140
 9768SOL    HW130203   5.232   2.224   2.212
 9768SOL    HW230204   5.136   2.346   2.162
 9769SOL     OW30205   1.679   1.403   2.033
 9769SOL    HW130206   1.650   1.337   1.964
 9769SOL    HW230207   1.747   1.465   1.993
 9770SOL     OW30208   5.794   6.496   6.330
 9770SOL    HW130209   5.857   6.427   6.366
 9770SOL    HW230210   5.842   6.556   6.267
 9771SOL     OW30211   4.319   4.427   1.349
 9771SOL    HW130212   4.297   4.330   1.343
 9771SOL    HW230213   4.386   4.442   1.422
 9772SOL     OW30214   0.634   6.537   1.746
 9772SOL    HW130215   0.666   6.621   1.791
 9772SOL    HW230216   0.535   6.531   1.753
 9773SOL     OW30217   5.414   6.097   3.794
 9773SOL    HW130218   5.391   6.119   3.889
 9773SOL    HW230219   5.349   6.028   3.760
 9774SOL     OW30220   5.886   5.535   2.772
 9774SOL    HW130221   5.878   5.591   2.689
 9774SOL    HW230222   5.830   5.453   2.762
 9775SOL     OW30223   2.122   2.024   4.079
 9775SOL    HW130224   2.164   2.067   4.159
 9775SOL    HW230225   2.169   2.054   3.997
 9776SOL     OW30226   0.015   6.113   4.981
 9776SOL    HW130227   6.978   6.177   5.026
 9776SOL    HW230228   7.006   6.019   4.996
 9777SOL     OW30229   5.522   5.171   6.325
 9777SOL    HW130230   5.539   5.144   6.231
 9777SOL    HW230231   5.472   5.099   6.373
 9778SOL     OW30232   5.726   0.338   3.663
 9778SOL    HW130233   5.717   0.376   3.571
 9778SOL    HW230234   5.637   0.341   3.709
 9779SOL     OW30235   2.726   1.948   4.619
 9779SOL    HW130236   2.668   1.993   4.687
 9779SOL    HW230237   2.689   1.857   4.598
 9780SOL     OW30238   2.396   1.942   0.926
 9780SOL    HW130239   2.399   2.038   0.954
 9780SOL    HW230240   2.338   1.891   0.989
 9781SOL     OW30241   1.972   4.356   4.134
 9781SOL    HW130242   1.892   4.415   4.130
 9781SOL    HW230243   2.050   4.403   4.091
 9782SOL     OW30244   6.904   0.223   1.088
 9782SOL    HW130245   6.902   0.321   1.068
 9782SOL    HW230246   6.858   0.206   1.175
 9783SOL     OW30247   6.315   1.409   1.966
 9783SOL    HW130248   6.325   1.495   2.017
 9783SOL    HW230249   6.396   1.353   1.980
 9784SOL     OW30250   4.941   1.366   3.461
 9784SOL    HW130251   4.932   1.424   3.542
 9784SOL    HW230252   4.941   1.423   3.379
 9785SOL     OW30253   6.943   3.290   3.706
 9785SOL    HW130254   6.858   3.238   3.719
 9785SOL    HW230255   6.932   3.381   3.745
 9786SOL     OW30256   0.948   5.050   5.723
 9786SOL    HW130257   0.953   5.110   5.804
 9786SOL    HW230258   1.039   5.041   5.683
 9787SOL     OW30259   5.198   4.196   1.919
 9787SOL    HW130260   5.292   4.164   1.906
 9787SOL    HW230261   5.134   4.122   1.896
 9788SOL     OW30262   0.327   0.465   3.830
 9788SOL    HW130263   0.292   0.550   3.869
 9788SOL    HW230264   0.286   0.451   3.740
 9789SOL     OW30265   2.144   5.533   6.442
 9789SOL    HW130266   2.205   5.524   6.521
 9789SOL    HW230267   2.049   5.520   6.471
 9790SOL     OW30268   5.636   2.800   4.913
 9790SOL    HW130269   5.708   2.824   4.978
 9790SOL    HW230270   5.610   2.881   4.860
 9791SOL     OW30271   0.938   0.826   2.359
 9791SOL    HW130272   0.878   0.794   2.286
 9791SOL    HW230273   1.021   0.866   2.319
 9792SOL     OW30274   4.746   5.307   2.068
 9792SOL    HW130275   4.738   5.397   2.027
 9792SOL    HW230276   4.841   5.275   2.063
 9793SOL     OW30277   5.129   5.766   2.609
 9793SOL    HW130278   5.039   5.790   2.574
 9793SOL    HW230279   5.130   5.773   2.708
 9794SOL     OW30280   5.586   3.441   6.558
 9794SOL    HW130281   5.522   3.515   6.579
 9794SOL    HW230282   5.537   3.366   6.513
 9795SOL     OW30283   1.153   2.759   3.930
 9795SOL    HW130284   1.088   2.830   3.905
 9795SOL    HW230285   1.209   2.735   3.850
 9796SOL     OW30286   3.147   4.124   1.001
 9796SOL    HW130287   3.168   4.197   1.067
 9796SOL    HW230288   3.080   4.157   0.935
 9797SOL     OW30289   4.347   3.948   0.129
 9797SOL    HW130290   4.319   3.890   0.052
 9797SOL    HW230291   4.295   3.923   0.210
 9798SOL     OW30292   2.737   0.879   0.846
 9798SOL    HW130293   2.664   0.948   0.846
 9798SOL    HW230294   2.698   0.790   0.868
 9799SOL     OW30295   3.574   3.477   2.679
 9799SOL    HW130296   3.564   3.385   2.714
 9799SOL    HW230297   3.670   3.504   2.683
 9800SOL     OW30298   3.910   6.078   6.202
 9800SOL    HW130299   3.909   6.000   6.139
 9800SOL    HW230300   3.943   6.048   6.291
 9801SOL     OW30301   3.898   5.286   6.933
 9801SOL    HW130302   3.978   5.334   6.897
 9801SOL    HW230303   3.858   5.338   7.008
 9802SOL     OW30304   0.046   3.304   2.136
 9802SOL    HW130305   0.111   3.259   2.196
 9802SOL    HW230306   0.011   3.239   2.069
 9803SOL     OW30307   6.446   0.586   6.753
 9803SOL    HW130308   6.451   0.635   6.665
 9803SOL    HW230309   6.512   0.511   6.752
 9804SOL     OW30310   0.360   5.038   3.780
 9804SOL    HW130311   0.431   5.108   3.785
 9804SOL    HW230312   0.333   5.010   3.872
 9805SOL     OW30313   1.360   5.355   6.916
 9805SOL    HW130314   1.453   5.338   6.884
 9805SOL    HW230315   1.347   5.453   6.932
 9806SOL     OW30316   0.762   2.340   1.851
 9806SOL    HW130317   0.813   2.289   1.919
 9806SOL    HW230318   0.689   2.282   1.814
 9807SOL     OW30319   3.149   1.664   6.695
 9807SOL    HW130320   3.194   1.751   6.715
 9807SOL    HW230321   3.138   1.654   6.596
 9808SOL     OW30322   5.997   0.642   5.781
 9808SOL    HW130323   5.909   0.616   5.742
 9808SOL    HW230324   6.061   0.565   5.776
 9809SOL     OW30325   0.950   1.462   5.999
 9809SOL    HW130326   0.945   1.431   5.904
 9809SOL    HW230327   0.990   1.390   6.056
 9810SOL     OW30328   2.549   1.985   3.147
 9810SOL    HW130329   2.598   1.918   3.202
 9810SOL    HW230330   2.611   2.059   3.122
 9811SOL     OW30331   6.415   6.175   3.676
 9811SOL    HW130332   6.346   6.103   3.688
 9811SOL    HW230333   6.384   6.259   3.720
 9812SOL     OW30334   3.916   1.829   6.541
 9812SOL    HW130335   3.980   1.849   6.615
 9812SOL    HW230336   3.841   1.896   6.542
 9813SOL     OW30337   6.601   5.448   0.069
 9813SOL    HW130338   6.563   5.481   0.155
 9813SOL    HW230339   6.555   5.363   0.044
 9814SOL     OW30340   6.710   0.480   6.328
 9814SOL    HW130341   6.780   0.413   6.352
 9814SOL    HW230342   6.752   0.554   6.274
 9815SOL     OW30343   6.838   2.576   1.161
 9815SOL    HW130344   6.879   2.650   1.108
 9815SOL    HW230345   6.902   2.547   1.232
 9816SOL     OW30346   6.290   0.785   6.294
 9816SOL    HW130347   6.306   0.713   6.361
 9816SOL    HW230348   6.377   0.831   6.272
 9817SOL     OW30349   3.034   5.317   1.680
 9817SOL    HW130350   3.029   5.220   1.702
 9817SOL    HW230351   2.982   5.369   1.748
 9818SOL     OW30352   1.820   1.622   3.183
 9818SOL    HW130353   1.770   1.699   3.223
 9818SOL    HW230354   1.918   1.636   3.197
 9819SOL     OW30355   5.765   4.259   4.716
 9819SOL    HW130356   5.800   4.183   4.770
 9819SOL    HW230357   5.802   4.345   4.751
 9820SOL     OW30358   2.907   2.179   6.572
 9820SOL    HW130359   2.919   2.244   6.646
 9820SOL    HW230360   2.994   2.134   6.552
 9821SOL     OW30361   4.594   2.085   1.529
 9821SOL    HW130362   4.628   2.006   1.581
 9821SOL    HW230363   4.520   2.057   1.469
 9822SOL     OW30364   4.494   5.742   4.433
 9822SOL    HW130365   4.487   5.697   4.522
 9822SOL    HW230366   4.496   5.841   4.445
 9823SOL     OW30367   1.525   0.676   2.408
 9823SOL    HW130368   1.519   0.615   2.329
 9823SOL    HW230369   1.485   0.631   2.488
 9824SOL     OW30370   2.708   5.934   5.807
 9824SOL    HW130371   2.756   5.895   5.729
 9824SOL    HW230372   2.614   5.958   5.780
 9825SOL     OW30373   5.347   6.227   5.185
 9825SOL    HW130374   5.308   6.172   5.111
 9825SOL    HW230375   5.273   6.265   5.241
 9826SOL     OW30376   3.681   6.960   5.814
 9826SOL    HW130377   3.714   6.902   5.889
 9826SOL    HW230378   3.581   6.963   5.815
 9827SOL     OW30379   1.995   5.489   2.475
 9827SOL    HW130380   1.992   5.541   2.560
 9827SOL    HW230381   1.976   5.550   2.398
 9828SOL     OW30382   3.682   2.068   4.840
 9828SOL    HW130383   3.621   2.104   4.911
 9828SOL    HW230384   3.774   2.057   4.878
 9829SOL     OW30385   5.113   6.202   5.693
 9829SOL    HW130386   5.122   6.289   5.740
 9829SOL    HW230387   5.132   6.127   5.756
 9830SOL     OW30388   6.005   1.381   2.391
 9830SOL    HW130389   6.026   1.375   2.488
 9830SOL    HW230390   5.906   1.372   2.377
 9831SOL     OW30391   6.851   4.346   2.167
 9831SOL    HW130392   6.824   4.348   2.071
 9831SOL    HW230393   6.945   4.312   2.174
 9832SOL     OW30394   5.116   4.652   4.429
 9832SOL    HW130395   5.121   4.574   4.366
 9832SOL    HW230396   5.209   4.679   4.454
 9833SOL     OW30397   3.532   3.996   3.443
 9833SOL    HW130398   3.444   4.034   3.469
 9833SOL    HW230399   3.532   3.897   3.458
 9834SOL     OW30400   2.406   5.562   5.875
 9834SOL    HW130401   2.446   5.616   5.949
 9834SOL    HW230402   2.443   5.469   5.878
 9835SOL     OW30403   3.606   4.076   4.642
 9835SOL    HW130404   3.640   4.000   4.698
 9835SOL    HW230405   3.536   4.126   4.692
 9836SOL     OW30406   1.334   3.791   6.529
 9836SOL    HW130407   1.425   3.832   6.527
 9836SOL    HW230408   1.276   3.836   6.461
 9837SOL     OW30409   5.649   2.114   1.743
 9837SOL    HW130410   5.550   2.110   1.758
 9837SOL    HW230411   5.680   2.209   1.751
 9838SOL     OW30412   1.174   6.003   1.262
 9838SOL    HW130413   1.244   5.949   1.310
 9838SOL    HW230414   1.099   6.023   1.324
 9839SOL     OW30415   4.661   1.188   3.715
 9839SOL    HW130416   4.646   1.184   3.814
 9839SOL    HW230417   4.666   1.095   3.678
 9840SOL     OW30418   5.060   1.429   6.844
 9840SOL    HW130419   5.032   1.485   6.922
 9840SOL    HW230420   4.998   1.446   6.767
 9841SOL     OW30421   0.216   5.347   3.438
 9841SOL    HW130422   0.298   5.342   3.495
 9841SOL    HW230423   0.136   5.359   3.496
 9842SOL     OW30424   3.803   2.969   0.436
 9842SOL    HW130425   3.745   2.902   0.389
 9842SOL    HW230426   3.793   2.957   0.535
 9843SOL     OW30427   6.529   0.040   1.437
 9843SOL    HW130428   6.576   0.095   1.368
 9843SOL    HW230429   6.596   0.003   1.501
 9844SOL     OW30430   5.425   0.391   4.554
 9844SOL    HW130431   5.358   0.353   4.618
 9844SOL    HW230432   5.471   0.317   4.505
 9845SOL     OW30433   1.123   2.165   2.696
 9845SOL    HW130434   1.163   2.237   2.752
 9845SOL    HW230435   1.100   2.202   2.606
 9846SOL     OW30436   5.284   1.261   1.113
 9846SOL    HW130437   5.322   1.342   1.158
 9846SOL    HW230438   5.353   1.189   1.111
 9847SOL     OW30439   3.673   2.913   1.525
 9847SOL    HW130440   3.769   2.940   1.526
 9847SOL    HW230441   3.662   2.831   1.469
 9848SOL     OW30442   3.052   3.862   5.533
 9848SOL    HW130443   3.069   3.961   5.536
 9848SOL    HW230444   3.112   3.821   5.464
 9849SOL     OW30445   1.324   0.829   6.471
 9849SOL    HW130446   1.290   0.911   6.426
 9849SOL    HW230447   1.298   0.748   6.418
 9850SOL     OW30448   0.153   0.570   4.388
 9850SOL    HW130449   0.189   0.477   4.380
 9850SOL    HW230450   0.186   0.625   4.311
 9851SOL     OW30451   3.439   5.256   4.490
 9851SOL    HW130452   3.433   5.243   4.392
 9851SOL    HW230453   3.385   5.187   4.537
 9852SOL     OW30454   0.917   1.397   6.425
 9852SOL    HW130455   0.820   1.374   6.438
 9852SOL    HW230456   0.940   1.477   6.480
 9853SOL     OW30457   0.006   4.026   4.622
 9853SOL    HW130458   0.102   3.997   4.617
 9853SOL    HW230459   7.008   4.046   4.718
 9854SOL     OW30460   0.860   5.881   6.197
 9854SOL    HW130461   0.918   5.841   6.126
 9854SOL    HW230462   0.838   5.975   6.172
 9855SOL     OW30463   1.045   3.497   0.525
 9855SOL    HW130464   0.985   3.519   0.602
 9855SOL    HW230465   1.105   3.421   0.550
 9856SOL     OW30466   6.148   5.154   3.763
 9856SOL    HW130467   6.242   5.185   3.775
 9856SOL    HW230468   6.136   5.064   3.804
 9857SOL     OW30469   5.124   2.689   3.153
 9857SOL    HW130470   5.089   2.672   3.061
 9857SOL    HW230471   5.132   2.787   3.168
 9858SOL     OW30472   0.921   6.748   2.232
 9858SOL    HW130473   0.977   6.768   2.152
 9858SOL    HW230474   0.923   6.650   2.251
 9859SOL     OW30475   6.715   4.764   5.185
 9859SOL    HW130476   6.768   4.682   5.209
 9859SOL    HW230477   6.646   4.780   5.255
 9860SOL     OW30478   1.972   2.420   5.262
 9860SOL    HW130479   1.947   2.337   5.212
 9860SOL    HW230480   2.040   2.398   5.331
 9861SOL     OW30481   2.747   1.306   4.021
 9861SOL    HW130482   2.743   1.212   3.986
 9861SOL    HW230483   2.827   1.352   3.984
 9862SOL     OW30484   2.680   4.677   1.121
 9862SOL    HW130485   2.625   4.600   1.089
 9862SOL    HW230486   2.632   4.724   1.196
 9863SOL     OW30487   3.209   5.728   0.687
 9863SOL    HW130488   3.294   5.726   0.636
 9863SOL    HW230489   3.183   5.635   0.714
 9864SOL     OW30490   2.713   6.416   5.186
 9864SOL    HW130491   2.792   6.374   5.141
 9864SOL    HW230492   2.656   6.344   5.227
 9865SOL     OW30493   0.665   6.893   5.151
 9865SOL    HW130494   0.745   6.953   5.145
 9865SOL    HW230495   0.692   6.799   5.129
 9866SOL     OW30496   6.044   4.298   4.616
 9866SOL    HW130497   6.139   4.328   4.610
 9866SOL    HW230498   5.994   4.329   4.535
 9867SOL     OW30499   5.203   2.115   2.342
 9867SOL    HW130500   5.205   2.034   2.284
 9867SOL    HW230501   5.169   2.090   2.432
 9868SOL     OW30502   1.265   4.645   3.688
 9868SOL    HW130503   1.325   4.584   3.740
 9868SOL    HW230504   1.308   4.668   3.601
 9869SOL     OW30505   0.417   2.592   0.771
 9869SOL    HW130506   0.410   2.492   0.775
 9869SOL    HW230507   0.467   2.618   0.688
 9870SOL     OW30508   3.575   1.788   1.717
 9870SOL    HW130509   3.627   1.704   1.701
 9870SOL    HW230510   3.638   1.861   1.745
 9871SOL     OW30511   0.086   3.284   5.339
 9871SOL    HW130512   0.120   3.234   5.418
 9871SOL    HW230513   0.047   3.221   5.273
 9872SOL     OW30514   2.415   5.569   5.018
 9872SOL    HW130515   2.483   5.640   4.999
 9872SOL    HW230516   2.361   5.552   4.935
 9873SOL     OW30517   1.769   2.081   5.870
 9873SOL    HW130518   1.686   2.028   5.851
 9873SOL    HW230519   1.789   2.078   5.968
 9874SOL     OW30520   0.664   2.923   4.689
 9874SOL    HW130521   0.595   2.850   4.680
 9874SOL    HW230522   0.633   2.989   4.757
 9875SOL     OW30523   6.914   6.356   0.825
 9875SOL    HW130524   6.921   6.437   0.767
 9875SOL    HW230525   6.940   6.380   0.919
 9876SOL     OW30526   3.094   0.151   3.530
 9876SOL    HW130527   3.104   0.188   3.438
 9876SOL    HW230528   3.116   0.223   3.597
 9877SOL     OW30529   0.227   4.543   4.526
 9877SOL    HW130530   0.327   4.556   4.529
 9877SOL    HW230531   0.184   4.628   4.495
 9878SOL     OW30532   1.780   3.164   7.020
 9878SOL    HW130533   1.874   3.187   0.021
 9878SOL    HW230534   1.747   3.090   0.055
 9879SOL     OW30535   1.590   4.374   6.166
 9879SOL    HW130536   1.646   4.455   6.151
 9879SOL    HW230537   1.517   4.372   6.099
 9880SOL     OW30538   2.203   0.965   0.429
 9880SOL    HW130539   2.173   0.939   0.338
 9880SOL    HW230540   2.300   0.989   0.426
 9881SOL     OW30541   5.033   0.661   4.453
 9881SOL    HW130542   4.953   0.641   4.509
 9881SOL    HW230543   5.055   0.582   4.396
 9882SOL     OW30544   3.805   2.955   4.798
 9882SOL    HW130545   3.774   2.963   4.703
 9882SOL    HW230546   3.810   2.858   4.823
 9883SOL     OW30547   1.571   6.357   1.603
 9883SOL    HW130548   1.510   6.333   1.679
 9883SOL    HW230549   1.664   6.329   1.625
 9884SOL     OW30550   1.723   3.001   6.811
 9884SOL    HW130551   1.631   3.006   6.772
 9884SOL    HW230552   1.738   3.079   6.872
 9885SOL     OW30553   6.766   3.354   3.227
 9885SOL    HW130554   6.840   3.298   3.189
 9885SOL    HW230555   6.795   3.392   3.315
 9886SOL     OW30556   5.400   6.254   1.407
 9886SOL    HW130557   5.392   6.338   1.353
 9886SOL    HW230558   5.455   6.187   1.358
 9887SOL     OW30559   3.785   6.291   0.376
 9887SOL    HW130560   3.856   6.306   0.444
 9887SOL    HW230561   3.698   6.328   0.409
 9888SOL     OW30562   5.575   5.808   2.219
 9888SOL    HW130563   5.529   5.721   2.199
 9888SOL    HW230564   5.660   5.812   2.167
 9889SOL     OW30565   0.324   5.075   3.013
 9889SOL    HW130566   0.292   4.987   2.978
 9889SOL    HW230567   0.289   5.089   3.105
 9890SOL     OW30568   6.534   3.306   0.662
 9890SOL    HW130569   6.464   3.351   0.607
 9890SOL    HW230570   6.619   3.357   0.658
 9891SOL     OW30571   4.943   5.095   0.887
 9891SOL    HW130572   4.858   5.110   0.835
 9891SOL    HW230573   4.947   5.159   0.963
 9892SOL     OW30574   2.126   5.587   3.737
 9892SOL    HW130575   2.208   5.546   3.775
 9892SOL    HW230576   2.047   5.565   3.794
 9893SOL     OW30577   5.697   5.334   2.756
 9893SOL    HW130578   5.703   5.265   2.827
 9893SOL    HW230579   5.652   5.295   2.675
 9894SOL     OW30580   3.725   2.223   5.829
 9894SOL    HW130581   3.648   2.236   5.891
 9894SOL    HW230582   3.779   2.144   5.859
 9895SOL     OW30583   5.199   2.424   6.382
 9895SOL    HW130584   5.264   2.371   6.437
 9895SOL    HW230585   5.163   2.366   6.308
 9896SOL     OW30586   3.610   3.393   0.829
 9896SOL    HW130587   3.703   3.358   0.817
 9896SOL    HW230588   3.550   3.318   0.860
 9897SOL     OW30589   4.895   1.468   2.484
 9897SOL    HW130590   4.950   1.387   2.462
 9897SOL    HW230591   4.933   1.547   2.437
 9898SOL     OW30592   0.780   5.275   5.584
 9898SOL    HW130593   0.814   5.214   5.657
 9898SOL    HW230594   0.756   5.221   5.504
 9899SOL     OW30595   5.033   4.828   2.323
 9899SOL    HW130596   5.109   4.773   2.354
 9899SOL    HW230597   4.954   4.815   2.384
 9900SOL     OW30598   1.324   1.987   3.795
 9900SOL    HW130599   1.238   1.946   3.763
 9900SOL    HW230600   1.309   2.032   3.883
 9901SOL     OW30601   2.191   2.149   6.362
 9901SOL    HW130602   2.288   2.172   6.354
 9901SOL    HW230603   2.158   2.178   6.452
 9902SOL     OW30604   3.422   3.539   0.987
 9902SOL    HW130605   3.398   3.621   0.935
 9902SOL    HW230606   3.498   3.492   0.943
 9903SOL     OW30607   4.443   2.049   2.832
 9903SOL    HW130608   4.437   1.950   2.841
 9903SOL    HW230609   4.484   2.072   2.744
 9904SOL     OW30610   6.721   2.751   0.484
 9904SOL    HW130611   6.796   2.719   0.426
 9904SOL    HW230612   6.749   2.747   0.580
 9905SOL     OW30613   1.240   6.161   6.242
 9905SOL    HW130614   1.244   6.238   6.306
 9905SOL    HW230615   1.209   6.079   6.291
 9906SOL     OW30616   1.942   2.732   6.582
 9906SOL    HW130617   1.919   2.829   6.594
 9906SOL    HW230618   1.973   2.717   6.489
 9907SOL     OW30619   2.451   6.126   3.022
 9907SOL    HW130620   2.487   6.216   3.049
 9907SOL    HW230621   2.369   6.139   2.966
 9908SOL     OW30622   0.697   3.157   6.585
 9908SOL    HW130623   0.763   3.133   6.514
 9908SOL    HW230624   0.604   3.144   6.550
 9909SOL     OW30625   3.025   1.867   2.823
 9909SOL    HW130626   3.014   1.777   2.781
 9909SOL    HW230627   3.047   1.934   2.752
 9910SOL     OW30628   6.901   4.660   0.893
 9910SOL    HW130629   6.861   4.628   0.807
 9910SOL    HW230630   6.968   4.593   0.925
 9911SOL     OW30631   4.418   4.545   3.249
 9911SOL    HW130632   4.475   4.597   3.184
 9911SOL    HW230633   4.443   4.571   3.342
 9912SOL     OW30634   4.678   1.007   2.196
 9912SOL    HW130635   4.592   1.038   2.155
 9912SOL    HW230636   4.685   1.042   2.289
 9913SOL     OW30637   5.414   2.934   2.568
 9913SOL    HW130638   5.467   3.017   2.554
 9913SOL    HW230639   5.469   2.854   2.544
 9914SOL     OW30640   1.875   0.305   5.391
 9914SOL    HW130641   1.845   0.238   5.459
 9914SOL    HW230642   1.796   0.351   5.352
 9915SOL     OW30643   5.162   3.253   3.988
 9915SOL    HW130644   5.193   3.237   4.082
 9915SOL    HW230645   5.240   3.273   3.929
 9916SOL     OW30646   2.127   3.207   2.423
 9916SOL    HW130647   2.039   3.176   2.458
 9916SOL    HW230648   2.129   3.195   2.323
 9917SOL     OW30649   3.153   3.753   5.261
 9917SOL    HW130650   3.072   3.704   5.228
 9917SOL    HW230651   3.220   3.761   5.187
 9918SOL     OW30652   1.908   1.348   5.664
 9918SOL    HW130653   1.954   1.338   5.575
 9918SOL    HW230654   1.973   1.383   5.731
 9919SOL     OW30655   1.343   6.232   2.263
 9919SOL    HW130656   1.273   6.301   2.282
 9919SOL    HW230657   1.338   6.205   2.168
 9920SOL     OW30658   3.870   6.977   1.640
 9920SOL    HW130659   3.828   0.024   1.584
 9920SOL    HW230660   3.821   6.970   1.727
 9921SOL     OW30661   6.198   0.017   3.117
 9921SOL    HW130662   6.146   0.021   3.203
 9921SOL    HW230663   6.155   0.078   3.050
 9922SOL     OW30664   4.067   4.721   1.005
 9922SOL    HW130665   3.971   4.694   0.996
 9922SOL    HW230666   4.114   4.659   1.068
 9923SOL     OW30667   6.697   2.235   6.125
 9923SOL    HW130668   6.752   2.217   6.044
 9923SOL    HW230669   6.609   2.187   6.117
 9924SOL     OW30670   6.342   1.320   2.689
 9924SOL    HW130671   6.339   1.403   2.633
 9924SOL    HW230672   6.331   1.345   2.786
 9925SOL     OW30673   2.538   3.627   5.798
 9925SOL    HW130674   2.633   3.658   5.800
 9925SOL    HW230675   2.488   3.677   5.727
 9926SOL     OW30676   1.152   1.204   0.958
 9926SOL    HW130677   1.210   1.216   0.877
 9926SOL    HW230678   1.203   1.154   1.028
 9927SOL     OW30679   0.730   1.910   2.353
 9927SOL    HW130680   0.682   1.905   2.441
 9927SOL    HW230681   0.762   2.003   2.338
 9928SOL     OW30682   0.522   4.618   1.610
 9928SOL    HW130683   0.509   4.624   1.511
 9928SOL    HW230684   0.486   4.700   1.653
 9929SOL     OW30685   3.315   4.325   5.810
 9929SOL    HW130686   3.268   4.240   5.830
 9929SOL    HW230687   3.297   4.391   5.884
 9930SOL     OW30688   0.460   0.511   6.546
 9930SOL    HW130689   0.488   0.499   6.451
 9930SOL    HW230690   0.395   0.440   6.572
 9931SOL     OW30691   1.438   6.401   4.841
 9931SOL    HW130692   1.347   6.434   4.816
 9931SOL    HW230693   1.503   6.477   4.841
 9932SOL     OW30694   1.479   1.779   0.539
 9932SOL    HW130695   1.389   1.757   0.501
 9932SOL    HW230696   1.469   1.848   0.611
 9933SOL     OW30697   2.937   0.855   3.232
 9933SOL    HW130698   2.954   0.938   3.179
 9933SOL    HW230699   2.900   0.784   3.172
 9934SOL     OW30700   5.848   1.565   6.514
 9934SOL    HW130701   5.761   1.599   6.478
 9934SOL    HW230702   5.873   1.480   6.467
 9935SOL     OW30703   2.816   2.241   0.196
 9935SOL    HW130704   2.738   2.191   0.233
 9935SOL    HW230705   2.847   2.196   0.111
 9936SOL     OW30706   5.151   5.315   5.773
 9936SOL    HW130707   5.189   5.309   5.865
 9936SOL    HW230708   5.186   5.396   5.727
 9937SOL     OW30709   0.309   0.205   2.773
 9937SOL    HW130710   0.271   0.184   2.682
 9937SOL    HW230711   0.241   0.253   2.827
 9938SOL     OW30712   6.705   1.280   4.902
 9938SOL    HW130713   6.611   1.282   4.936
 9938SOL    HW230714   6.709   1.225   4.819
 9939SOL     OW30715   2.111   4.002   1.156
 9939SOL    HW130716   2.059   4.068   1.102
 9939SOL    HW230717   2.204   3.996   1.120
 9940SOL     OW30718   0.510   0.125   3.214
 9940SOL    HW130719   0.521   0.202   3.276
 9940SOL    HW230720   0.468   0.048   3.263
 9941SOL     OW30721   4.008   5.072   5.610
 9941SOL    HW130722   4.007   5.171   5.600
 9941SOL    HW230723   3.943   5.045   5.682
 9942SOL     OW30724   4.733   4.660   3.503
 9942SOL    HW130725   4.697   4.569   3.521
 9942SOL    HW230726   4.658   4.725   3.494
 9943SOL     OW30727   1.877   3.836   0.397
 9943SOL    HW130728   1.877   3.936   0.405
 9943SOL    HW230729   1.800   3.808   0.339
 9944SOL     OW30730   1.721   4.963   0.013
 9944SOL    HW130731   1.784   4.935   6.965
 9944SOL    HW230732   1.686   4.881   0.060
 9945SOL     OW30733   6.027   4.078   0.281
 9945SOL    HW130734   6.085   4.071   0.362
 9945SOL    HW230735   5.967   3.997   0.275
 9946SOL     OW30736   5.665   0.739   2.966
 9946SOL    HW130737   5.617   0.728   3.053
 9946SOL    HW230738   5.764   0.734   2.983
 9947SOL     OW30739   1.158   2.416   4.335
 9947SOL    HW130740   1.257   2.405   4.332
 9947SOL    HW230741   1.122   2.421   4.242
 9948SOL     OW30742   6.361   0.250   3.481
 9948SOL    HW130743   6.426   0.325   3.467
 9948SOL    HW230744   6.409   0.163   3.475
 9949SOL     OW30745   6.497   4.187   4.963
 9949SOL    HW130746   6.443   4.151   4.887
 9949SOL    HW230747   6.480   4.286   4.971
 9950SOL     OW30748   6.265   5.117   6.188
 9950SOL    HW130749   6.328   5.062   6.133
 9950SOL    HW230750   6.305   5.133   6.278
 9951SOL     OW30751   0.847   3.091   2.805
 9951SOL    HW130752   0.812   3.070   2.714
 9951SOL    HW230753   0.921   3.157   2.797
 9952SOL     OW30754   0.765   4.136   1.742
 9952SOL    HW130755   0.722   4.193   1.812
 9952SOL    HW230756   0.820   4.194   1.682
 9953SOL     OW30757   6.165   2.745   3.777
 9953SOL    HW130758   6.255   2.719   3.743
 9953SOL    HW230759   6.109   2.663   3.792
 9954SOL     OW30760   2.687   1.655   5.878
 9954SOL    HW130761   2.726   1.641   5.787
 9954SOL    HW230762   2.758   1.639   5.947
 9955SOL     OW30763   4.525   3.306   1.019
 9955SOL    HW130764   4.584   3.246   1.073
 9955SOL    HW230765   4.573   3.332   0.934
 9956SOL     OW30766   1.426   4.470   3.036
 9956SOL    HW130767   1.375   4.533   2.978
 9956SOL    HW230768   1.421   4.378   2.998
 9957SOL     OW30769   5.416   6.683   1.521
 9957SOL    HW130770   5.495   6.682   1.459
 9957SOL    HW230771   5.421   6.764   1.579
 9958SOL     OW30772   4.393   4.814   5.886
 9958SOL    HW130773   4.339   4.752   5.942
 9958SOL    HW230774   4.338   4.895   5.864
 9959SOL     OW30775   4.381   4.094   1.095
 9959SOL    HW130776   4.430   4.014   1.130
 9959SOL    HW230777   4.338   4.142   1.171
 9960SOL     OW30778   6.660   6.568   0.933
 9960SOL    HW130779   6.685   6.516   1.015
 9960SOL    HW230780   6.577   6.529   0.893
 9961SOL     OW30781   1.878   4.185   1.983
 9961SOL    HW130782   1.919   4.096   1.965
 9961SOL    HW230783   1.928   4.255   1.931
 9962SOL     OW30784   3.142   5.582   2.347
 9962SOL    HW130785   3.200   5.524   2.404
 9962SOL    HW230786   3.125   5.537   2.259
 9963SOL     OW30787   2.160   1.537   0.345
 9963SOL    HW130788   2.077   1.542   0.400
 9963SOL    HW230789   2.223   1.470   0.385
 9964SOL     OW30790   4.537   4.579   5.446
 9964SOL    HW130791   4.555   4.532   5.533
 9964SOL    HW230792   4.599   4.545   5.376
 9965SOL     OW30793   2.856   6.243   4.987
 9965SOL    HW130794   2.916   6.163   4.997
 9965SOL    HW230795   2.902   6.312   4.931
 9966SOL     OW30796   2.874   4.773   2.174
 9966SOL    HW130797   2.939   4.771   2.250
 9966SOL    HW230798   2.912   4.725   2.096
 9967SOL     OW30799   6.189   6.746   2.808
 9967SOL    HW130800   6.192   6.816   2.737
 9967SOL    HW230801   6.280   6.708   2.821
 9968SOL     OW30802   4.325   6.048   0.341
 9968SOL    HW130803   4.408   5.995   0.324
 9968SOL    HW230804   4.253   6.021   0.277
 9969SOL     OW30805   0.713   4.329   4.638
 9969SOL    HW130806   0.808   4.302   4.655
 9969SOL    HW230807   0.662   4.329   4.724
 9970SOL     OW30808   5.602   5.334   2.012
 9970SOL    HW130809   5.655   5.308   2.092
 9970SOL    HW230810   5.665   5.358   1.937
 9971SOL     OW30811   1.205   3.152   1.949
 9971SOL    HW130812   1.107   3.132   1.952
 9971SOL    HW230813   1.221   3.244   1.985
 9972SOL     OW30814   3.360   3.749   0.833
 9972SOL    HW130815   3.315   3.734   0.745
 9972SOL    HW230816   3.433   3.817   0.823
 9973SOL     OW30817   4.391   1.717   4.537
 9973SOL    HW130818   4.293   1.697   4.543
 9973SOL    HW230819   4.406   1.814   4.556
 9974SOL     OW30820   6.562   2.353   3.562
 9974SOL    HW130821   6.529   2.283   3.626
 9974SOL    HW230822   6.640   2.317   3.511
 9975SOL     OW30823   1.156   5.195   6.880
 9975SOL    HW130824   1.170   5.167   6.785
 9975SOL    HW230825   1.237   5.244   6.912
 9976SOL     OW30826   1.388   5.160   5.759
 9976SOL    HW130827   1.372   5.193   5.852
 9976SOL    HW230828   1.480   5.121   5.753
 9977SOL     OW30829   5.240   5.233   4.718
 9977SOL    HW130830   5.219   5.140   4.688
 9977SOL    HW230831   5.301   5.229   4.797
 9978SOL     OW30832   0.382   1.873   6.082
 9978SOL    HW130833   0.478   1.854   6.100
 9978SOL    HW230834   0.338   1.906   6.166
 9979SOL     OW30835   5.013   3.443   6.068
 9979SOL    HW130836   4.925   3.489   6.082
 9979SOL    HW230837   5.081   3.509   6.037
 9980SOL     OW30838   1.572   0.700   0.251
 9980SOL    HW130839   1.502   0.766   0.279
 9980SOL    HW230840   1.528   0.618   0.215
 9981SOL     OW30841   1.485   2.680   1.167
 9981SOL    HW130842   1.572   2.638   1.145
 9981SOL    HW230843   1.500   2.773   1.200
 9982SOL     OW30844   2.401   1.019   4.712
 9982SOL    HW130845   2.378   0.947   4.777
 9982SOL    HW230846   2.418   1.104   4.762
 9983SOL     OW30847   6.379   2.827   2.280
 9983SOL    HW130848   6.462   2.772   2.266
 9983SOL    HW230849   6.303   2.786   2.230
 9984SOL     OW30850   0.550   6.133   1.275
 9984SOL    HW130851   0.502   6.188   1.206
 9984SOL    HW230852   0.615   6.190   1.325
 9985SOL     OW30853   3.050   5.181   0.347
 9985SOL    HW130854   3.075   5.088   0.322
 9985SOL    HW230855   3.132   5.238   0.349
 9986SOL     OW30856   4.869   4.427   1.016
 9986SOL    HW130857   4.815   4.511   1.012
 9986SOL    HW230858   4.939   4.429   0.944
 9987SOL     OW30859   5.603   3.549   1.623
 9987SOL    HW130860   5.627   3.452   1.618
 9987SOL    HW230861   5.507   3.560   1.595
 9988SOL     OW30862   6.525   5.825   3.959
 9988SOL    HW130863   6.561   5.781   4.041
 9988SOL    HW230864   6.442   5.778   3.929
 9989SOL     OW30865   6.248   3.444   1.767
 9989SOL    HW130866   6.303   3.404   1.841
 9989SOL    HW230867   6.307   3.501   1.709
 9990SOL     OW30868   0.190   6.325   3.207
 9990SOL    HW130869   0.195   6.307   3.306
 9990SOL    HW230870   0.190   6.238   3.158
 9991SOL     OW30871   1.446   3.865   3.683
 9991SOL    HW130872   1.456   3.964   3.686
 9991SOL    HW230873   1.442   3.829   3.777
 9992SOL     OW30874   3.311   3.914   1.082
 9992SOL    HW130875   3.293   3.836   1.023
 9992SOL    HW230876   3.279   3.998   1.037
 9993SOL     OW30877   3.285   5.975   3.591
 9993SOL    HW130878   3.282   5.888   3.640
 9993SOL    HW230879   3.269   6.050   3.656
 9994SOL     OW30880   0.204   3.841   3.498
 9994SOL    HW130881   0.291   3.880   3.527
 9994SOL    HW230882   0.130   3.903   3.521
 9995SOL     OW30883   3.032   0.911   4.112
 9995SOL    HW130884   3.113   0.947   4.158
 9995SOL    HW230885   3.012   0.966   4.031
 9996SOL     OW30886   2.849   4.299   0.358
 9996SOL    HW130887   2.855   4.276   0.261
 9996SOL    HW230888   2.936   4.340   0.388
 9997SOL     OW30889   5.551   1.629   3.666
 9997SOL    HW130890   5.497   1.562   3.614
 9997SOL    HW230891   5.494   1.709   3.686
 9998SOL     OW30892   5.080   4.025   2.437
 9998SOL    HW130893   5.060   3.966   2.359
 9998SOL    HW230894   5.074   3.973   2.522
 9999SOL     OW30895   0.868   0.045   4.073
 9999SOL    HW130896   0.964   0.066   4.088
 9999SOL    HW230897   0.811   0.099   4.135
10000SOL     OW30898   5.567   1.525   1.753
10000SOL    HW130899   5.555   1.445   1.695
10000SOL    HW230900   5.653   1.518   1.803
10001SOL     OW30901   3.451   6.370   2.491
10001SOL    HW130902   3.440   6.318   2.576
10001SOL    HW230903   3.379   6.345   2.427
10002SOL     OW30904   2.227   1.116   0.664
10002SOL    HW130905   2.319   1.083   0.684
10002SOL    HW230906   2.166   1.038   0.648
10003SOL     OW30907   2.985   1.675   2.450
10003SOL    HW130908   2.908   1.647   2.392
10003SOL    HW230909   3.059   1.710   2.393
10004SOL     OW30910   5.536   5.032   4.660
10004SOL    HW130911   5.540   5.125   4.697
10004SOL    HW230912   5.471   4.978   4.712
10005SOL     OW30913   2.863   5.633   3.342
10005SOL    HW130914   2.913   5.682   3.271
10005SOL    HW230915   2.767   5.659   3.340
10006SOL     OW30916   5.654   0.174   5.374
10006SOL    HW130917   5.689   0.183   5.467
10006SOL    HW230918   5.623   0.080   5.359
10007SOL     OW30919   0.445   3.765   4.914
10007SOL    HW130920   0.490   3.846   4.878
10007SOL    HW230921   0.418   3.706   4.839
10008SOL     OW30922   4.079   2.116   4.328
10008SOL    HW130923   4.109   2.189   4.266
10008SOL    HW230924   4.133   2.034   4.311
10009SOL     OW30925   1.749   4.061   1.603
10009SOL    HW130926   1.763   4.075   1.505
10009SOL    HW230927   1.816   3.995   1.637
10010SOL     OW30928   3.160   5.087   6.522
10010SOL    HW130929   3.182   5.069   6.426
10010SOL    HW230930   3.196   5.014   6.579
10011SOL     OW30931   0.109   4.408   7.014
10011SOL    HW130932   0.206   4.424   7.000
10011SOL    HW230933   0.061   4.495   7.018
10012SOL     OW30934   4.930   0.630   1.913
10012SOL    HW130935   4.898   0.628   2.008
10012SOL    HW230936   4.960   0.538   1.885
10013SOL     OW30937   0.910   4.776   4.663
10013SOL    HW130938   0.923   4.849   4.596
10013SOL    HW230939   0.940   4.689   4.623
10014SOL     OW30940   1.408   6.776   2.397
10014SOL    HW130941   1.318   6.749   2.432
10014SOL    HW230942   1.401   6.795   2.299
10015SOL     OW30943   3.603   5.175   6.969
10015SOL    HW130944   3.568   5.189   6.876
10015SOL    HW230945   3.695   5.213   6.976
10016SOL     OW30946   2.446   1.519   4.854
10016SOL    HW130947   2.544   1.531   4.871
10016SOL    HW230948   2.421   1.568   4.770
10017SOL     OW30949   2.384   1.695   2.560
10017SOL    HW130950   2.290   1.730   2.556
10017SOL    HW230951   2.389   1.606   2.514
10018SOL     OW30952   6.722   3.761   5.754
10018SOL    HW130953   6.626   3.775   5.780
10018SOL    HW230954   6.781   3.814   5.814
10019SOL     OW30955   0.362   1.370   3.263
10019SOL    HW130956   0.408   1.337   3.346
10019SOL    HW230957   0.309   1.295   3.223
10020SOL     OW30958   0.300   0.815   2.154
10020SOL    HW130959   0.308   0.716   2.143
10020SOL    HW230960   0.241   0.853   2.082
10021SOL     OW30961   0.936   3.065   2.121
10021SOL    HW130962   0.864   3.007   2.159
10021SOL    HW230963   0.925   3.070   2.022
10022SOL     OW30964   2.081   5.603   6.880
10022SOL    HW130965   2.076   5.702   6.894
10022SOL    HW230966   2.045   5.556   6.961
10023SOL     OW30967   2.834   5.866   5.537
10023SOL    HW130968   2.894   5.942   5.562
10023SOL    HW230969   2.802   5.878   5.443
10024SOL     OW30970   1.204   4.883   2.736
10024SOL    HW130971   1.263   4.916   2.662
10024SOL    HW230972   1.132   4.950   2.753
10025SOL     OW30973   1.895   3.050   2.141
10025SOL    HW130974   1.852   3.060   2.231
10025SOL    HW230975   1.960   3.124   2.126
10026SOL     OW30976   5.043   0.715   3.034
10026SOL    HW130977   5.022   0.812   3.046
10026SOL    HW230978   5.140   0.706   3.009
10027SOL     OW30979   0.825   2.814   4.946
10027SOL    HW130980   0.863   2.727   4.977
10027SOL    HW230981   0.844   2.826   4.848
10028SOL     OW30982   3.216   0.934   0.914
10028SOL    HW130983   3.164   0.870   0.971
10028SOL    HW230984   3.154   0.979   0.850
10029SOL     OW30985   0.432   3.453   3.903
10029SOL    HW130986   0.367   3.379   3.882
10029SOL    HW230987   0.515   3.440   3.848
10030SOL     OW30988   3.252   6.952   4.842
10030SOL    HW130989   3.192   6.964   4.921
10030SOL    HW230990   3.235   0.001   4.776
10031SOL     OW30991   4.421   4.968   4.712
10031SOL    HW130992   4.416   4.889   4.774
10031SOL    HW230993   4.329   5.006   4.701
10032SOL     OW30994   3.665   0.447   6.436
10032SOL    HW130995   3.753   0.403   6.414
10032SOL    HW230996   3.599   0.377   6.462
10033SOL     OW30997   4.128   1.633   4.898
10033SOL    HW130998   4.046   1.640   4.955
10033SOL    HW230999   4.127   1.706   4.829
10034SOL     OW31000   2.406   1.138   3.811
10034SOL    HW131001   2.319   1.183   3.832
10034SOL    HW231002   2.472   1.158   3.884
10035SOL     OW31003   5.510   3.905   1.064
10035SOL    HW131004   5.442   3.977   1.080
10035SOL    HW231005   5.599   3.937   1.095
10036SOL     OW31006   6.543   0.994   0.680
10036SOL    HW131007   6.598   1.001   0.763
10036SOL    HW231008   6.447   0.981   0.704
10037SOL     OW31009   6.605   6.833   6.780
10037SOL    HW131010   6.531   6.893   6.753
10037SOL    HW231011   6.640   6.784   6.699
10038SOL     OW31012   3.991   6.805   6.193
10038SOL    HW131013   4.068   6.834   6.250
10038SOL    HW231014   4.025   6.775   6.103
10039SOL     OW31015   5.199   6.405   5.399
10039SOL    HW131016   5.190   6.455   5.485
10039SOL    HW231017   5.149   6.318   5.407
10040SOL     OW31018   4.769   6.055   6.651
10040SOL    HW131019   4.779   6.144   6.695
10040SOL    HW231020   4.849   6.036   6.594
10041SOL     OW31021   5.907   5.425   5.554
10041SOL    HW131022   5.920   5.523   5.569
10041SOL    HW231023   5.843   5.389   5.621
10042SOL     OW31024   0.385   0.720   5.193
10042SOL    HW131025   0.345   0.688   5.279
10042SOL    HW231026   0.445   0.798   5.211
10043SOL     OW31027   0.613   0.068   3.486
10043SOL    HW131028   0.603   0.114   3.573
10043SOL    HW231029   0.706   0.080   3.451
10044SOL     OW31030   2.611   1.955   3.895
10044SOL    HW131031   2.694   2.006   3.920
10044SOL    HW231032   2.633   1.858   3.885
10045SOL     OW31033   4.999   0.313   4.030
10045SOL    HW131034   4.913   0.269   4.003
10045SOL    HW231035   5.066   0.243   4.054
10046SOL     OW31036   1.032   1.698   1.894
10046SOL    HW131037   0.997   1.786   1.926
10046SOL    HW231038   1.130   1.705   1.876
10047SOL     OW31039   6.229   3.163   5.035
10047SOL    HW131040   6.294   3.238   5.051
10047SOL    HW231041   6.279   3.080   5.010
10048SOL     OW31042   3.436   1.794   2.263
10048SOL    HW131043   3.511   1.744   2.307
10048SOL    HW231044   3.471   1.880   2.225
10049SOL     OW31045   0.719   0.729   6.398
10049SOL    HW131046   0.802   0.700   6.350
10049SOL    HW231047   0.719   0.829   6.405
10050SOL     OW31048   6.252   2.484   4.903
10050SOL    HW131049   6.302   2.420   4.961
10050SOL    HW231050   6.198   2.434   4.835
10051SOL     OW31051   6.465   2.584   4.770
10051SOL    HW131052   6.370   2.581   4.801
10051SOL    HW231053   6.512   2.500   4.796
10052SOL     OW31054   1.630   2.108   2.433
10052SOL    HW131055   1.627   2.174   2.508
10052SOL    HW231056   1.558   2.040   2.446
10053SOL     OW31057   3.696   5.152   2.028
10053SOL    HW131058   3.679   5.082   1.958
10053SOL    HW231059   3.705   5.241   1.984
10054SOL     OW31060   3.982   6.392   5.892
10054SOL    HW131061   3.911   6.359   5.955
10054SOL    HW231062   4.069   6.397   5.940
10055SOL     OW31063   5.951   2.528   5.261
10055SOL    HW131064   5.939   2.626   5.275
10055SOL    HW231065   5.941   2.506   5.164
10056SOL     OW31066   6.445   5.393   0.500
10056SOL    HW131067   6.495   5.463   0.550
10056SOL    HW231068   6.433   5.312   0.558
10057SOL     OW31069   3.663   0.903   4.302
10057SOL    HW131070   3.681   1.001   4.306
10057SOL    HW231071   3.711   0.857   4.377
10058SOL     OW31072   0.383   3.940   4.358
10058SOL    HW131073   0.433   3.951   4.272
10058SOL    HW231074   0.298   3.892   4.341
10059SOL     OW31075   5.135   6.508   0.652
10059SOL    HW131076   5.169   6.416   0.631
10059SOL    HW231077   5.194   6.551   0.720
10060SOL     OW31078   2.648   1.202   1.871
10060SOL    HW131079   2.629   1.296   1.902
10060SOL    HW231080   2.687   1.205   1.779
10061SOL     OW31081   4.914   1.207   4.298
10061SOL    HW131082   4.919   1.261   4.382
10061SOL    HW231083   4.832   1.150   4.299
10062SOL     OW31084   6.273   6.690   4.757
10062SOL    HW131085   6.198   6.688   4.823
10062SOL    HW231086   6.313   6.782   4.755
10063SOL     OW31087   1.613   1.841   3.116
10063SOL    HW131088   1.560   1.796   3.187
10063SOL    HW231089   1.597   1.795   3.028
10064SOL     OW31090   5.712   5.662   6.159
10064SOL    HW131091   5.678   5.744   6.114
10064SOL    HW231092   5.697   5.583   6.100
10065SOL     OW31093   2.404   0.716   1.994
10065SOL    HW131094   2.404   0.816   1.990
10065SOL    HW231095   2.353   0.686   2.075
10066SOL     OW31096   1.795   1.498   4.453
10066SOL    HW131097   1.846   1.582   4.473
10066SOL    HW231098   1.796   1.439   4.534
10067SOL     OW31099   5.570   4.132   5.508
10067SOL    HW131100   5.504   4.094   5.573
10067SOL    HW231101   5.584   4.229   5.529
10068SOL     OW31102   5.373   2.953   4.130
10068SOL    HW131103   5.313   2.878   4.104
10068SOL    HW231104   5.455   2.916   4.174
10069SOL     OW31105   1.894   5.575   3.889
10069SOL    HW131106   1.825   5.524   3.838
10069SOL    HW231107   1.873   5.673   3.883
10070SOL     OW31108   0.110   0.371   4.650
10070SOL    HW131109   0.160   0.458   4.647
10070SOL    HW231110   0.032   0.376   4.588
10071SOL     OW31111   5.117   5.217   3.801
10071SOL    HW131112   5.035   5.274   3.793
10071SOL    HW231113   5.191   5.259   3.749
10072SOL     OW31114   0.961   5.846   4.219
10072SOL    HW131115   1.001   5.929   4.181
10072SOL    HW231116   0.876   5.868   4.266
10073SOL     OW31117   6.587   3.942   4.306
10073SOL    HW131118   6.641   3.879   4.250
10073SOL    HW231119   6.594   4.035   4.268
10074SOL     OW31120   0.508   0.679   5.459
10074SOL    HW131121   0.578   0.726   5.406
10074SOL    HW231122   0.470   0.742   5.528
10075SOL     OW31123   1.440   2.458   2.437
10075SOL    HW131124   1.527   2.435   2.481
10075SOL    HW231125   1.377   2.495   2.505
10076SOL     OW31126   5.524   0.197   3.382
10076SOL    HW131127   5.586   0.124   3.354
10076SOL    HW231128   5.544   0.279   3.328
10077SOL     OW31129   3.424   2.121   6.600
10077SOL    HW131130   3.520   2.112   6.577
10077SOL    HW231131   3.396   2.045   6.659
10078SOL     OW31132   6.942   6.468   4.297
10078SOL    HW131133   6.924   6.373   4.269
10078SOL    HW231134   6.878   6.494   4.370
10079SOL     OW31135   1.156   3.596   2.026
10079SOL    HW131136   1.094   3.652   1.971
10079SOL    HW231137   1.170   3.639   2.115
10080SOL     OW31138   2.927   1.206   5.926
10080SOL    HW131139   2.864   1.201   5.848
10080SOL    HW231140   2.881   1.248   6.004
10081SOL     OW31141   0.254   0.559   6.876
10081SOL    HW131142   0.251   0.635   6.811
10081SOL    HW231143   0.303   0.588   6.958
10082SOL     OW31144   0.002   3.909   2.211
10082SOL    HW131145   0.090   3.869   2.184
10082SOL    HW231146   6.954   3.843   2.195
10083SOL     OW31147   5.308   0.907   2.984
10083SOL    HW131148   5.234   0.957   2.940
10083SOL    HW231149   5.378   0.885   2.916
10084SOL     OW31150   3.828   0.912   5.852
10084SOL    HW131151   3.791   0.821   5.835
10084SOL    HW231152   3.796   0.976   5.782
10085SOL     OW31153   0.252   5.966   2.081
10085SOL    HW131154   0.155   5.953   2.100
10085SOL    HW231155   0.264   6.021   1.998
10086SOL     OW31156   6.380   5.054   1.872
10086SOL    HW131157   6.396   5.143   1.914
10086SOL    HW231158   6.311   5.062   1.801
10087SOL     OW31159   0.546   6.947   4.063
10087SOL    HW131160   0.612   6.894   4.010
10087SOL    HW231161   0.471   6.888   4.092
10088SOL     OW31162   0.036   0.025   6.972
10088SOL    HW131163   0.053   0.006   0.044
10088SOL    HW231164   6.995   6.984   6.936
10089SOL     OW31165   2.491   2.631   3.115
10089SOL    HW131166   2.508   2.727   3.096
10089SOL    HW231167   2.455   2.586   3.033
10090SOL     OW31168   1.350   4.626   0.864
10090SOL    HW131169   1.358   4.622   0.963
10090SOL    HW231170   1.441   4.616   0.823
10091SOL     OW31171   1.270   3.070   5.005
10091SOL    HW131172   1.176   3.092   5.031
10091SOL    HW231173   1.279   2.971   4.995
10092SOL     OW31174   2.081   3.480   5.321
10092SOL    HW131175   2.093   3.570   5.277
10092SOL    HW231176   2.136   3.412   5.272
10093SOL     OW31177   0.757   4.363   5.035
10093SOL    HW131178   0.696   4.345   4.957
10093SOL    HW231179   0.850   4.332   5.012
10094SOL     OW31180   2.339   6.385   1.659
10094SOL    HW131181   2.415   6.401   1.597
10094SOL    HW231182   2.257   6.430   1.623
10095SOL     OW31183   6.321   2.149   5.765
10095SOL    HW131184   6.344   2.246   5.754
10095SOL    HW231185   6.382   2.095   5.707
10096SOL     OW31186   5.805   4.976   2.001
10096SOL    HW131187   5.874   4.997   2.070
10096SOL    HW231188   5.714   4.978   2.044
10097SOL     OW31189   0.931   1.129   6.973
10097SOL    HW131190   0.836   1.098   6.962
10097SOL    HW231191   0.980   1.067   0.009
10098SOL     OW31192   2.406   0.528   5.279
10098SOL    HW131193   2.313   0.559   5.260
10098SOL    HW231194   2.412   0.497   5.374
10099SOL     OW31195   0.007   5.028   6.905
10099SOL    HW131196   0.082   4.962   6.902
10099SOL    HW231197   6.945   4.979   6.915
10100SOL     OW31198   5.238   0.181   4.059
10100SOL    HW131199   5.325   0.207   4.017
10100SOL    HW231200   5.248   0.183   4.159
10101SOL     OW31201   5.672   4.221   1.731
10101SOL    HW131202   5.659   4.211   1.632
10101SOL    HW231203   5.723   4.305   1.749
10102SOL     OW31204   1.470   0.789   3.009
10102SOL    HW131205   1.485   0.842   3.092
10102SOL    HW231206   1.383   0.739   3.016
10103SOL     OW31207   2.547   1.557   5.566
10103SOL    HW131208   2.467   1.529   5.512
10103SOL    HW231209   2.591   1.635   5.522
10104SOL     OW31210   1.604   2.633   4.401
10104SOL    HW131211   1.686   2.677   4.363
10104SOL    HW231212   1.589   2.665   4.494
10105SOL     OW31213   0.768   1.106   0.223
10105SOL    HW131214   0.744   1.098   0.319
10105SOL    HW231215   0.842   1.174   0.212
10106SOL     OW31216   4.623   5.230   1.131
10106SOL    HW131217   4.712   5.221   1.175
10106SOL    HW231218   4.554   5.251   1.200
10107SOL     OW31219   0.357   1.468   0.194
10107SOL    HW131220   0.342   1.537   0.124
10107SOL    HW231221   0.440   1.417   0.172
10108SOL     OW31222   6.312   6.011   6.862
10108SOL    HW131223   6.332   5.922   6.823
10108SOL    HW231224   6.352   6.083   6.805
10109SOL     OW31225   3.685   6.580   1.634
10109SOL    HW131226   3.640   6.546   1.717
10109SOL    HW231227   3.630   6.654   1.594
10110SOL     OW31228   4.568   6.517   4.771
10110SOL    HW131229   4.553   6.614   4.790
10110SOL    HW231230   4.600   6.471   4.853
10111SOL     OW31231   6.009   2.930   3.920
10111SOL    HW131232   6.036   2.866   3.848
10111SOL    HW231233   5.912   2.918   3.941
10112SOL     OW31234   5.587   4.111   4.248
10112SOL    HW131235   5.627   4.201   4.263
10112SOL    HW231236   5.622   4.047   4.316
10113SOL     OW31237   4.330   0.780   5.734
10113SOL    HW131238   4.235   0.750   5.723
10113SOL    HW231239   4.372   0.730   5.810
10114SOL     OW31240   5.146   0.633   0.760
10114SOL    HW131241   5.135   0.573   0.839
10114SOL    HW231242   5.214   0.593   0.698
10115SOL     OW31243   3.285   2.186   3.702
10115SOL    HW131244   3.376   2.148   3.713
10115SOL    HW231245   3.258   2.180   3.606
10116SOL     OW31246   0.416   6.401   0.153
10116SOL    HW131247   0.479   6.476   0.134
10116SOL    HW231248   0.459   6.337   0.217
10117SOL     OW31249   6.957   6.982   5.206
10117SOL    HW131250   6.999   6.915   5.145
10117SOL    HW231251   6.869   7.011   5.170
10118SOL     OW31252   1.027   5.440   3.187
10118SOL    HW131253   1.116   5.454   3.144
10118SOL    HW231254   0.967   5.517   3.167
10119SOL     OW31255   0.565   6.765   4.595
10119SOL    HW131256   0.509   6.762   4.513
10119SOL    HW231257   0.536   6.692   4.658
10120SOL     OW31258   1.244   3.837   4.410
10120SOL    HW131259   1.254   3.934   4.433
10120SOL    HW231260   1.149   3.810   4.420
10121SOL     OW31261   6.285   4.826   6.015
10121SOL    HW131262   6.376   4.865   6.024
10121SOL    HW231263   6.277   4.746   6.074
10122SOL     OW31264   5.669   3.106   0.635
10122SOL    HW131265   5.749   3.047   0.634
10122SOL    HW231266   5.688   3.188   0.689
10123SOL     OW31267   6.840   6.895   0.152
10123SOL    HW131268   6.880   6.811   0.188
10123SOL    HW231269   6.854   6.969   0.217
10124SOL     OW31270   1.630   3.389   6.968
10124SOL    HW131271   1.695   3.317   6.993
10124SOL    HW231272   1.680   3.474   6.948
10125SOL     OW31273   1.391   0.614   2.654
10125SOL    HW131274   1.439   0.592   2.739
10125SOL    HW231275   1.294   0.628   2.673
10126SOL     OW31276   0.186   0.056   6.759
10126SOL    HW131277   0.181   0.154   6.740
10126SOL    HW231278   0.156   0.039   6.852
10127SOL     OW31279   2.455   5.013   5.811
10127SOL    HW131280   2.403   4.931   5.833
10127SOL    HW231281   2.550   4.990   5.794
10128SOL     OW31282   1.215   1.672   1.490
10128SOL    HW131283   1.129   1.696   1.535
10128SOL    HW231284   1.289   1.676   1.556
10129SOL     OW31285   5.149   2.745   4.104
10129SOL    HW131286   5.173   2.737   4.008
10129SOL    HW231287   5.145   2.654   4.146
10130SOL     OW31288   2.242   4.093   2.339
10130SOL    HW131289   2.204   4.122   2.427
10130SOL    HW231290   2.333   4.133   2.326
10131SOL     OW31291   0.345   0.644   3.137
10131SOL    HW131292   0.378   0.675   3.048
10131SOL    HW231293   0.381   0.704   3.209
10132SOL     OW31294   2.987   6.992   3.809
10132SOL    HW131295   2.957   7.017   3.718
10132SOL    HW231296   2.928   6.920   3.846
10133SOL     OW31297   4.906   6.192   1.678
10133SOL    HW131298   4.959   6.249   1.615
10133SOL    HW231299   4.836   6.142   1.627
10134SOL     OW31300   6.629   6.746   4.083
10134SOL    HW131301   6.675   6.659   4.065
10134SOL    HW231302   6.697   6.816   4.102
10135SOL     OW31303   5.096   3.278   3.207
10135SOL    HW131304   5.032   3.305   3.278
10135SOL    HW231305   5.188   3.306   3.233
10136SOL     OW31306   5.934   0.701   3.056
10136SOL    HW131307   5.935   0.773   3.125
10136SOL    HW231308   5.929   0.612   3.101
10137SOL     OW31309   5.792   4.202   3.944
10137SOL    HW131310   5.729   4.244   3.879
10137SOL    HW231311   5.753   4.116   3.978
10138SOL     OW31312   5.273   1.796   0.649
10138SOL    HW131313   5.325   1.874   0.614
10138SOL    HW231314   5.197   1.776   0.587
10139SOL     OW31315   3.641   4.123   3.217
10139SOL    HW131316   3.581   4.152   3.143
10139SOL    HW231317   3.591   4.062   3.278
10140SOL     OW31318   6.396   6.325   6.255
10140SOL    HW131319   6.379   6.231   6.225
10140SOL    HW231320   6.348   6.341   6.342
10141SOL     OW31321   3.288   1.404   4.160
10141SOL    HW131322   3.224   1.328   4.173
10141SOL    HW231323   3.236   1.489   4.147
10142SOL     OW31324   6.424   6.484   4.692
10142SOL    HW131325   6.374   6.562   4.729
10142SOL    HW231326   6.521   6.507   4.684
10143SOL     OW31327   4.510   0.728   0.545
10143SOL    HW131328   4.510   0.646   0.603
10143SOL    HW231329   4.470   0.804   0.595
10144SOL     OW31330   3.765   6.908   6.094
10144SOL    HW131331   3.845   6.870   6.139
10144SOL    HW231332   3.775   7.007   6.085
10145SOL     OW31333   3.243   5.676   5.540
10145SOL    HW131334   3.234   5.595   5.597
10145SOL    HW231335   3.338   5.685   5.509
10146SOL     OW31336   3.889   5.142   4.531
10146SOL    HW131337   3.901   5.134   4.432
10146SOL    HW231338   3.826   5.217   4.550
10147SOL     OW31339   5.702   4.589   4.743
10147SOL    HW131340   5.628   4.611   4.807
10147SOL    HW231341   5.670   4.520   4.678
10148SOL     OW31342   5.277   5.148   6.922
10148SOL    HW131343   5.269   5.089   7.002
10148SOL    HW231344   5.305   5.094   6.843
10149SOL     OW31345   5.662   1.865   1.283
10149SOL    HW131346   5.690   1.927   1.356
10149SOL    HW231347   5.694   1.901   1.195
10150SOL     OW31348   4.229   3.535   0.549
10150SOL    HW131349   4.241   3.443   0.586
10150SOL    HW231350   4.298   3.596   0.589
10151SOL     OW31351   0.953   6.692   0.206
10151SOL    HW131352   0.925   6.728   0.117
10151SOL    HW231353   1.052   6.673   0.204
10152SOL     OW31354   0.661   6.525   4.851
10152SOL    HW131355   0.730   6.506   4.781
10152SOL    HW231356   0.636   6.440   4.897
10153SOL     OW31357   4.920   6.264   3.884
10153SOL    HW131358   4.953   6.207   3.808
10153SOL    HW231359   4.826   6.239   3.906
10154SOL     OW31360   5.578   0.120   4.974
10154SOL    HW131361   5.551   0.074   5.059
10154SOL    HW231362   5.513   0.193   4.953
10155SOL     OW31363   3.415   2.181   5.667
10155SOL    HW131364   3.432   2.261   5.723
10155SOL    HW231365   3.392   2.209   5.574
10156SOL     OW31366   6.362   1.510   2.247
10156SOL    HW131367   6.280   1.566   2.254
10156SOL    HW231368   6.337   1.418   2.217
10157SOL     OW31369   5.960   2.488   6.208
10157SOL    HW131370   5.877   2.520   6.162
10157SOL    HW231371   5.937   2.454   6.299
10158SOL     OW31372   5.756   3.554   0.919
10158SOL    HW131373   5.788   3.550   1.014
10158SOL    HW231374   5.782   3.642   0.879
10159SOL     OW31375   2.618   3.098   6.279
10159SOL    HW131376   2.710   3.061   6.267
10159SOL    HW231377   2.559   3.066   6.206
10160SOL     OW31378   2.329   2.760   2.055
10160SOL    HW131379   2.389   2.751   1.975
10160SOL    HW231380   2.252   2.819   2.032
10161SOL     OW31381   3.273   3.190   6.321
10161SOL    HW131382   3.337   3.258   6.355
10161SOL    HW231383   3.251   3.210   6.225
10162SOL     OW31384   3.533   4.614   0.633
10162SOL    HW131385   3.612   4.634   0.574
10162SOL    HW231386   3.456   4.671   0.605
10163SOL     OW31387   5.460   5.173   5.851
10163SOL    HW131388   5.547   5.172   5.901
10163SOL    HW231389   5.470   5.229   5.769
10164SOL     OW31390   5.796   3.177   4.913
10164SOL    HW131391   5.794   3.230   4.998
10164SOL    HW231392   5.883   3.193   4.866
10165SOL     OW31393   0.597   2.025   3.510
10165SOL    HW131394   0.584   2.035   3.411
10165SOL    HW231395   0.689   1.991   3.528
10166SOL     OW31396   3.393   1.787   1.959
10166SOL    HW131397   3.395   1.867   1.901
10166SOL    HW231398   3.485   1.749   1.968
10167SOL     OW31399   2.960   2.733   6.805
10167SOL    HW131400   3.004   2.821   6.823
10167SOL    HW231401   2.876   2.747   6.753
10168SOL     OW31402   6.020   3.873   5.498
10168SOL    HW131403   6.048   3.877   5.402
10168SOL    HW231404   5.940   3.931   5.512
10169SOL     OW31405   6.372   4.265   3.476
10169SOL    HW131406   6.307   4.276   3.400
10169SOL    HW231407   6.329   4.297   3.561
10170SOL     OW31408   0.886   5.086   6.141
10170SOL    HW131409   0.965   5.040   6.100
10170SOL    HW231410   0.878   5.178   6.102
10171SOL     OW31411   6.601   3.251   5.828
10171SOL    HW131412   6.654   3.170   5.851
10171SOL    HW231413   6.620   3.324   5.894
10172SOL     OW31414   6.644   6.663   4.545
10172SOL    HW131415   6.554   6.682   4.506
10172SOL    HW231416   6.676   6.574   4.514
10173SOL     OW31417   0.758   2.535   1.110
10173SOL    HW131418   0.728   2.613   1.056
10173SOL    HW231419   0.839   2.560   1.163
10174SOL     OW31420   5.719   5.311   2.278
10174SOL    HW131421   5.810   5.278   2.303
10174SOL    HW231422   5.709   5.406   2.309
10175SOL     OW31423   5.696   1.747   4.197
10175SOL    HW131424   5.776   1.803   4.176
10175SOL    HW231425   5.645   1.788   4.273
10176SOL     OW31426   1.139   3.552   5.859
10176SOL    HW131427   1.235   3.535   5.881
10176SOL    HW231428   1.108   3.484   5.792
10177SOL     OW31429   2.391   0.682   0.323
10177SOL    HW131430   2.358   0.651   0.413
10177SOL    HW231431   2.482   0.722   0.333
10178SOL     OW31432   6.721   0.783   5.352
10178SOL    HW131433   6.641   0.728   5.332
10178SOL    HW231434   6.717   0.869   5.300
10179SOL     OW31435   0.591   1.496   6.322
10179SOL    HW131436   0.564   1.591   6.306
10179SOL    HW231437   0.519   1.448   6.372
10180SOL     OW31438   4.182   0.406   6.393
10180SOL    HW131439   4.253   0.361   6.446
10180SOL    HW231440   4.214   0.497   6.365
10181SOL     OW31441   5.461   2.567   1.800
10181SOL    HW131442   5.466   2.666   1.815
10181SOL    HW231443   5.367   2.542   1.778
10182SOL     OW31444   4.441   0.924   1.635
10182SOL    HW131445   4.524   0.887   1.594
10182SOL    HW231446   4.459   0.951   1.730
10183SOL     OW31447   6.920   2.033   6.256
10183SOL    HW131448   6.848   2.085   6.302
10183SOL    HW231449   6.896   2.018   6.161
10184SOL     OW31450   3.679   0.713   6.563
10184SOL    HW131451   3.694   0.698   6.660
10184SOL    HW231452   3.696   0.628   6.513
10185SOL     OW31453   5.917   5.982   1.808
10185SOL    HW131454   5.954   6.057   1.863
10185SOL    HW231455   5.991   5.920   1.783
10186SOL     OW31456   5.995   4.298   3.646
10186SOL    HW131457   5.942   4.338   3.720
10186SOL    HW231458   6.092   4.298   3.670
10187SOL     OW31459   0.404   3.049   0.757
10187SOL    HW131460   0.365   3.137   0.731
10187SOL    HW231461   0.433   3.000   0.675
10188SOL     OW31462   3.459   5.405   1.023
10188SOL    HW131463   3.408   5.363   0.947
10188SOL    HW231464   3.540   5.451   0.988
10189SOL     OW31465   0.951   0.672   6.232
10189SOL    HW131466   1.024   0.734   6.204
10189SOL    HW231467   0.946   0.595   6.169
10190SOL     OW31468   4.888   3.240   1.711
10190SOL    HW131469   4.824   3.172   1.675
10190SOL    HW231470   4.912   3.217   1.805
10191SOL     OW31471   5.292   5.212   5.373
10191SOL    HW131472   5.297   5.117   5.343
10191SOL    HW231473   5.314   5.272   5.296
10192SOL     OW31474   4.484   1.462   5.671
10192SOL    HW131475   4.541   1.380   5.669
10192SOL    HW231476   4.534   1.536   5.718
10193SOL     OW31477   4.101   3.293   1.909
10193SOL    HW131478   4.108   3.196   1.883
10193SOL    HW231479   4.056   3.300   1.998
10194SOL     OW31480   5.798   5.570   4.914
10194SOL    HW131481   5.772   5.648   4.856
10194SOL    HW231482   5.773   5.590   5.009
10195SOL     OW31483   6.271   5.238   0.875
10195SOL    HW131484   6.173   5.246   0.852
10195SOL    HW231485   6.319   5.319   0.842
10196SOL     OW31486   4.389   1.933   4.238
10196SOL    HW131487   4.486   1.912   4.253
10196SOL    HW231488   4.347   1.960   4.325
10197SOL     OW31489   6.264   1.979   5.400
10197SOL    HW131490   6.180   2.032   5.406
10197SOL    HW231491   6.243   1.886   5.370
10198SOL     OW31492   3.109   0.376   2.079
10198SOL    HW131493   3.151   0.425   2.156
10198SOL    HW231494   3.065   0.293   2.112
10199SOL     OW31495   2.545   2.522   6.984
10199SOL    HW131496   2.504   2.535   0.050
10199SOL    HW231497   2.635   2.565   6.981
10200SOL     OW31498   5.156   2.053   0.313
10200SOL    HW131499   5.239   2.070   0.366
10200SOL    HW231500   5.101   1.982   0.358
10201SOL     OW31501   1.522   4.314   1.003
10201SOL    HW131502   1.475   4.226   1.002
10201SOL    HW231503   1.613   4.303   0.964
10202SOL     OW31504   3.865   3.368   0.706
10202SOL    HW131505   3.947   3.424   0.710
10202SOL    HW231506   3.802   3.405   0.637
10203SOL     OW31507   6.141   3.401   3.621
10203SOL    HW131508   6.217   3.466   3.630
10203SOL    HW231509   6.176   3.308   3.631
10204SOL     OW31510   4.956   6.533   0.235
10204SOL    HW131511   4.923   6.466   0.302
10204SOL    HW231512   5.052   6.515   0.215
10205SOL     OW31513   2.095   0.918   1.662
10205SOL    HW131514   2.033   0.872   1.726
10205SOL    HW231515   2.149   0.849   1.614
10206SOL     OW31516   0.395   0.964   0.230
10206SOL    HW131517   0.381   1.059   0.258
10206SOL    HW231518   0.471   0.925   0.282
10207SOL     OW31519   1.351   2.297   6.725
10207SOL    HW131520   1.393   2.231   6.663
10207SOL    HW231521   1.299   2.364   6.672
10208SOL     OW31522   5.600   4.270   3.506
10208SOL    HW131523   5.597   4.174   3.480
10208SOL    HW231524   5.693   4.305   3.491
10209SOL     OW31525   0.333   0.252   6.953
10209SOL    HW131526   0.427   0.225   6.931
10209SOL    HW231527   0.334   0.344   6.994
10210SOL     OW31528   4.586   6.551   2.113
10210SOL    HW131529   4.568   6.480   2.046
10210SOL    HW231530   4.522   6.541   2.190
10211SOL     OW31531   4.187   6.289   4.493
10211SOL    HW131532   4.138   6.203   4.487
10211SOL    HW231533   4.184   6.336   4.404
10212SOL     OW31534   0.870   0.239   5.176
10212SOL    HW131535   0.897   0.147   5.150
10212SOL    HW231536   0.873   0.248   5.276
10213SOL     OW31537   5.445   2.852   0.721
10213SOL    HW131538   5.351   2.884   0.725
10213SOL    HW231539   5.447   2.752   0.724
10214SOL     OW31540   1.305   1.758   2.157
10214SOL    HW131541   1.279   1.734   2.251
10214SOL    HW231542   1.381   1.823   2.159
10215SOL     OW31543   3.999   3.542   3.504
10215SOL    HW131544   3.938   3.520   3.581
10215SOL    HW231545   3.946   3.585   3.431
10216SOL     OW31546   0.341   0.940   0.821
10216SOL    HW131547   0.294   1.013   0.870
10216SOL    HW231548   0.318   0.944   0.724
10217SOL     OW31549   3.171   1.882   3.341
10217SOL    HW131550   3.242   1.815   3.359
10217SOL    HW231551   3.166   1.900   3.243
10218SOL     OW31552   1.555   1.541   1.669
10218SOL    HW131553   1.560   1.613   1.600
10218SOL    HW231554   1.631   1.551   1.733
10219SOL     OW31555   0.006   2.734   2.945
10219SOL    HW131556   0.059   2.724   2.861
10219SOL    HW231557   6.942   2.775   2.924
10220SOL     OW31558   4.445   2.181   1.081
10220SOL    HW131559   4.502   2.236   1.141
10220SOL    HW231560   4.369   2.143   1.133
10221SOL     OW31561   0.810   5.021   3.074
10221SOL    HW131562   0.874   5.097   3.064
10221SOL    HW231563   0.718   5.057   3.091
10222SOL     OW31564   2.939   3.253   6.345
10222SOL    HW131565   2.948   3.162   6.386
10222SOL    HW231566   2.982   3.254   6.255
10223SOL     OW31567   0.567   4.694   1.344
10223SOL    HW131568   0.588   4.708   1.247
10223SOL    HW231569   0.590   4.777   1.395
10224SOL     OW31570   6.701   3.176   3.781
10224SOL    HW131571   6.652   3.260   3.807
10224SOL    HW231572   6.723   3.123   3.863
10225SOL     OW31573   1.740   4.868   5.698
10225SOL    HW131574   1.646   4.874   5.731
10225SOL    HW231575   1.762   4.772   5.677
10226SOL     OW31576   2.761   0.680   6.815
10226SOL    HW131577   2.836   0.613   6.812
10226SOL    HW231578   2.686   0.650   6.756
10227SOL     OW31579   5.088   4.664   0.623
10227SOL    HW131580   5.093   4.715   0.537
10227SOL    HW231581   5.076   4.567   0.604
10228SOL     OW31582   6.873   6.970   1.887
10228SOL    HW131583   6.880   6.978   1.987
10228SOL    HW231584   6.946   7.023   1.844
10229SOL     OW31585   1.067   2.583   4.806
10229SOL    HW131586   1.022   2.561   4.893
10229SOL    HW231587   1.027   2.665   4.767
10230SOL     OW31588   5.730   5.816   3.026
10230SOL    HW131589   5.660   5.751   3.056
10230SOL    HW231590   5.785   5.774   2.955
10231SOL     OW31591   0.381   5.609   5.241
10231SOL    HW131592   0.395   5.643   5.148
10231SOL    HW231593   0.448   5.537   5.261
10232SOL     OW31594   2.706   1.404   3.508
10232SOL    HW131595   2.790   1.350   3.515
10232SOL    HW231596   2.629   1.349   3.540
10233SOL     OW31597   3.793   4.091   4.995
10233SOL    HW131598   3.744   4.046   4.921
10233SOL    HW231599   3.744   4.174   5.022
10234SOL     OW31600   6.370   1.531   1.452
10234SOL    HW131601   6.354   1.535   1.550
10234SOL    HW231602   6.464   1.558   1.432
10235SOL     OW31603   1.937   2.659   2.041
10235SOL    HW131604   1.868   2.724   2.010
10235SOL    HW231605   1.983   2.694   2.123
10236SOL     OW31606   2.812   6.700   0.287
10236SOL    HW131607   2.880   6.653   0.343
10236SOL    HW231608   2.857   6.766   0.227
10237SOL     OW31609   6.902   2.886   6.870
10237SOL    HW131610   6.860   2.931   6.791
10237SOL    HW231611   6.833   2.874   6.942
10238SOL     OW31612   4.276   4.164   1.356
10238SOL    HW131613   4.194   4.107   1.353
10238SOL    HW231614   4.339   4.129   1.425
10239SOL     OW31615   1.198   2.651   4.517
10239SOL    HW131616   1.170   2.584   4.448
10239SOL    HW231617   1.161   2.624   4.606
10240SOL     OW31618   2.014   5.712   2.295
10240SOL    HW131619   2.084   5.690   2.227
10240SOL    HW231620   1.925   5.721   2.250
10241SOL     OW31621   5.680   0.729   2.133
10241SOL    HW131622   5.644   0.636   2.141
10241SOL    HW231623   5.617   0.794   2.175
10242SOL     OW31624   6.582   1.478   1.001
10242SOL    HW131625   6.627   1.503   0.915
10242SOL    HW231626   6.603   1.547   1.070
10243SOL     OW31627   2.415   4.137   1.766
10243SOL    HW131628   2.381   4.126   1.673
10243SOL    HW231629   2.459   4.226   1.775
10244SOL     OW31630   2.591   4.096   0.461
10244SOL    HW131631   2.648   4.154   0.402
10244SOL    HW231632   2.644   4.018   0.493
10245SOL     OW31633   3.954   3.742   1.224
10245SOL    HW131634   3.862   3.709   1.204
10245SOL    HW231635   4.018   3.707   1.156
10246SOL     OW31636   3.166   4.118   4.185
10246SOL    HW131637   3.148   4.090   4.280
10246SOL    HW231638   3.163   4.217   4.178
10247SOL     OW31639   6.756   3.889   6.312
10247SOL    HW131640   6.722   3.967   6.260
10247SOL    HW231641   6.855   3.895   6.322
10248SOL     OW31642   1.065   7.010   3.178
10248SOL    HW131643   1.152   7.007   3.228
10248SOL    HW231644   1.057   0.072   3.130
10249SOL     OW31645   2.965   6.000   6.624
10249SOL    HW131646   2.924   5.914   6.594
10249SOL    HW231647   3.058   6.007   6.587
10250SOL     OW31648   6.536   3.558   1.055
10250SOL    HW131649   6.468   3.494   1.092
10250SOL    HW231650   6.523   3.566   0.956
10251SOL     OW31651   2.212   1.708   4.384
10251SOL    HW131652   2.239   1.770   4.310
10251SOL    HW231653   2.188   1.619   4.345
10252SOL     OW31654   4.143   3.477   6.009
10252SOL    HW131655   4.200   3.543   6.058
10252SOL    HW231656   4.182   3.460   5.919
10253SOL     OW31657   2.764   6.133   0.679
10253SOL    HW131658   2.793   6.228   0.679
10253SOL    HW231659   2.834   6.077   0.634
10254SOL     OW31660   4.832   1.859   5.373
10254SOL    HW131661   4.734   1.848   5.358
10254SOL    HW231662   4.882   1.821   5.295
10255SOL     OW31663   2.673   0.009   0.559
10255SOL    HW131664   2.649   7.003   0.651
10255SOL    HW231665   2.723   0.096   0.565
10256SOL     OW31666   4.000   1.291   2.401
10256SOL    HW131667   4.046   1.206   2.376
10256SOL    HW231668   4.027   1.319   2.493
10257SOL     OW31669   1.419   5.604   3.936
10257SOL    HW131670   1.425   5.659   3.853
10257SOL    HW231671   1.413   5.507   3.912
10258SOL     OW31672   3.859   1.999   2.970
10258SOL    HW131673   3.927   2.027   3.038
10258SOL    HW231674   3.844   1.900   2.977
10259SOL     OW31675   0.572   4.190   3.332
10259SOL    HW131676   0.617   4.183   3.421
10259SOL    HW231677   0.591   4.108   3.278
10260SOL     OW31678   0.376   1.674   3.267
10260SOL    HW131679   0.283   1.699   3.241
10260SOL    HW231680   0.387   1.575   3.260
10261SOL     OW31681   6.887   4.961   0.677
10261SOL    HW131682   6.797   4.967   0.720
10261SOL    HW231683   6.888   4.884   0.614
10262SOL     OW31684   3.371   6.396   6.488
10262SOL    HW131685   3.427   6.472   6.454
10262SOL    HW231686   3.425   6.312   6.488
10263SOL     OW31687   5.713   0.360   0.602
10263SOL    HW131688   5.621   0.373   0.639
10263SOL    HW231689   5.774   0.331   0.675
10264SOL     OW31690   6.697   5.735   6.624
10264SOL    HW131691   6.688   5.829   6.659
10264SOL    HW231692   6.765   5.686   6.677
10265SOL     OW31693   3.885   2.416   0.118
10265SOL    HW131694   3.851   2.439   0.027
10265SOL    HW231695   3.909   2.500   0.167
10266SOL     OW31696   3.851   2.990   3.327
10266SOL    HW131697   3.898   3.007   3.240
10266SOL    HW231698   3.758   2.959   3.308
10267SOL     OW31699   4.993   1.056   0.788
10267SOL    HW131700   5.002   1.111   0.871
10267SOL    HW231701   4.901   1.018   0.783
10268SOL     OW31702   6.170   6.368   2.081
10268SOL    HW131703   6.227   6.446   2.110
10268SOL    HW231704   6.074   6.389   2.098
10269SOL     OW31705   0.787   3.075   5.430
10269SOL    HW131706   0.759   3.171   5.423
10269SOL    HW231707   0.887   3.071   5.436
10270SOL     OW31708   3.196   5.338   2.479
10270SOL    HW131709   3.154   5.323   2.389
10270SOL    HW231710   3.125   5.343   2.549
10271SOL     OW31711   3.540   2.523   0.318
10271SOL    HW131712   3.479   2.499   0.243
10271SOL    HW231713   3.490   2.576   0.387
10272SOL     OW31714   0.911   0.933   4.732
10272SOL    HW131715   0.952   1.024   4.728
10272SOL    HW231716   0.845   0.923   4.657
10273SOL     OW31717   3.149   5.526   3.363
10273SOL    HW131718   3.075   5.570   3.414
10273SOL    HW231719   3.111   5.461   3.298
10274SOL     OW31720   0.957   4.754   5.770
10274SOL    HW131721   1.009   4.828   5.812
10274SOL    HW231722   0.865   4.751   5.809
10275SOL     OW31723   0.485   0.327   2.423
10275SOL    HW131724   0.386   0.344   2.423
10275SOL    HW231725   0.502   0.232   2.450
10276SOL     OW31726   4.921   6.122   5.537
10276SOL    HW131727   5.000   6.156   5.588
10276SOL    HW231728   4.870   6.057   5.593
10277SOL     OW31729   1.919   6.250   4.814
10277SOL    HW131730   2.011   6.223   4.786
10277SOL    HW231731   1.875   6.175   4.863
10278SOL     OW31732   0.800   1.340   3.656
10278SOL    HW131733   0.872   1.406   3.677
10278SOL    HW231734   0.842   1.253   3.629
10279SOL     OW31735   1.791   4.891   4.520
10279SOL    HW131736   1.705   4.879   4.570
10279SOL    HW231737   1.866   4.851   4.573
10280SOL     OW31738   6.470   3.010   6.496
10280SOL    HW131739   6.515   3.092   6.531
10280SOL    HW231740   6.519   2.929   6.528
10281SOL     OW31741   6.139   1.912   3.949
10281SOL    HW131742   6.093   1.988   3.904
10281SOL    HW231743   6.200   1.947   4.020
10282SOL     OW31744   5.618   3.066   3.687
10282SOL    HW131745   5.646   3.110   3.602
10282SOL    HW231746   5.632   3.129   3.764
10283SOL     OW31747   1.255   3.317   1.333
10283SOL    HW131748   1.319   3.294   1.406
10283SOL    HW231749   1.198   3.394   1.362
10284SOL     OW31750   5.810   1.586   4.996
10284SOL    HW131751   5.759   1.610   4.914
10284SOL    HW231752   5.771   1.635   5.074
10285SOL     OW31753   4.679   6.398   3.040
10285SOL    HW131754   4.697   6.305   3.073
10285SOL    HW231755   4.678   6.461   3.118
10286SOL     OW31756   3.864   0.549   3.864
10286SOL    HW131757   3.912   0.589   3.942
10286SOL    HW231758   3.931   0.520   3.795
10287SOL     OW31759   2.867   5.449   1.857
10287SOL    HW131760   2.796   5.419   1.920
10287SOL    HW231761   2.831   5.522   1.799
10288SOL     OW31762   4.327   6.577   3.444
10288SOL    HW131763   4.272   6.495   3.428
10288SOL    HW231764   4.266   6.653   3.471
10289SOL     OW31765   3.045   6.538   0.436
10289SOL    HW131766   3.109   6.462   0.447
10289SOL    HW231767   3.077   6.617   0.488
10290SOL     OW31768   3.087   3.191   2.728
10290SOL    HW131769   3.059   3.177   2.823
10290SOL    HW231770   3.048   3.277   2.695
10291SOL     OW31771   3.585   1.868   2.994
10291SOL    HW131772   3.613   1.928   2.919
10291SOL    HW231773   3.591   1.773   2.964
10292SOL     OW31774   0.854   2.106   5.164
10292SOL    HW131775   0.944   2.064   5.154
10292SOL    HW231776   0.801   2.055   5.232
10293SOL     OW31777   1.076   3.222   3.054
10293SOL    HW131778   1.018   3.182   3.125
10293SOL    HW231779   1.172   3.220   3.083
10294SOL     OW31780   4.659   1.558   3.130
10294SOL    HW131781   4.663   1.571   3.031
10294SOL    HW231782   4.572   1.592   3.165
10295SOL     OW31783   0.967   3.020   5.734
10295SOL    HW131784   0.943   3.056   5.825
10295SOL    HW231785   0.903   3.055   5.666
10296SOL     OW31786   5.314   1.412   6.278
10296SOL    HW131787   5.385   1.477   6.251
10296SOL    HW231788   5.270   1.443   6.362
10297SOL     OW31789   1.693   1.003   6.530
10297SOL    HW131790   1.593   1.007   6.542
10297SOL    HW231791   1.725   1.087   6.488
10298SOL     OW31792   2.547   4.478   0.990
10298SOL    HW131793   2.508   4.390   1.017
10298SOL    HW231794   2.620   4.463   0.923
10299SOL     OW31795   3.898   5.077   2.786
10299SOL    HW131796   3.900   5.102   2.689
10299SOL    HW231797   3.805   5.087   2.820
10300SOL     OW31798   1.144   4.334   1.806
10300SOL    HW131799   1.225   4.299   1.854
10300SOL    HW231800   1.115   4.268   1.737
10301SOL     OW31801   4.557   2.043   5.445
10301SOL    HW131802   4.498   1.986   5.502
10301SOL    HW231803   4.564   2.004   5.353
10302SOL     OW31804   2.692   6.466   4.517
10302SOL    HW131805   2.785   6.430   4.508
10302SOL    HW231806   2.645   6.460   4.429
10303SOL     OW31807   1.312   6.058   3.799
10303SOL    HW131808   1.323   5.972   3.748
10303SOL    HW231809   1.399   6.106   3.802
10304SOL     OW31810   5.972   0.234   1.465
10304SOL    HW131811   5.992   0.199   1.373
10304SOL    HW231812   5.912   0.314   1.458
10305SOL     OW31813   1.716   4.040   6.003
10305SOL    HW131814   1.629   4.003   5.971
10305SOL    HW231815   1.706   4.076   6.096
10306SOL     OW31816   5.104   5.669   0.476
10306SOL    HW131817   5.023   5.612   0.493
10306SOL    HW231818   5.074   5.763   0.457
10307SOL     OW31819   3.110   1.629   5.150
10307SOL    HW131820   3.019   1.623   5.190
10307SOL    HW231821   3.105   1.676   5.061
10308SOL     OW31822   1.986   4.171   2.834
10308SOL    HW131823   2.062   4.210   2.887
10308SOL    HW231824   1.941   4.100   2.888
10309SOL     OW31825   0.353   2.102   0.318
10309SOL    HW131826   0.295   2.141   0.246
10309SOL    HW231827   0.448   2.102   0.288
10310SOL     OW31828   3.180   3.949   0.090
10310SOL    HW131829   3.221   3.884   0.154
10310SOL    HW231830   3.243   3.965   0.014
10311SOL     OW31831   6.837   5.578   0.429
10311SOL    HW131832   6.821   5.578   0.330
10311SOL    HW231833   6.894   5.500   0.454
10312SOL     OW31834   4.077   6.666   2.538
10312SOL    HW131835   4.036   6.583   2.575
10312SOL    HW231836   4.159   6.690   2.591
10313SOL     OW31837   3.822   5.757   2.159
10313SOL    HW131838   3.908   5.778   2.205
10313SOL    HW231839   3.806   5.658   2.161
10314SOL     OW31840   6.785   0.476   0.511
10314SOL    HW131841   6.693   0.502   0.484
10314SOL    HW231842   6.845   0.476   0.431
10315SOL     OW31843   5.959   6.076   4.718
10315SOL    HW131844   6.043   6.021   4.716
10315SOL    HW231845   5.983   6.172   4.733
10316SOL     OW31846   6.344   2.420   5.734
10316SOL    HW131847   6.289   2.488   5.783
10316SOL    HW231848   6.435   2.457   5.717
10317SOL     OW31849   4.136   5.970   6.731
10317SOL    HW131850   4.161   5.879   6.762
10317SOL    HW231851   4.041   5.990   6.758
10318SOL     OW31852   4.740   0.089   6.684
10318SOL    HW131853   4.772   0.173   6.728
10318SOL    HW231854   4.703   0.027   6.753
10319SOL     OW31855   0.582   3.463   5.386
10319SOL    HW131856   0.509   3.409   5.426
10319SOL    HW231857   0.579   3.456   5.286
10320SOL     OW31858   0.839   6.458   2.285
10320SOL    HW131859   0.878   6.367   2.270
10320SOL    HW231860   0.748   6.449   2.325
10321SOL     OW31861   5.379   2.132   1.781
10321SOL    HW131862   5.297   2.114   1.835
10321SOL    HW231863   5.359   2.206   1.715
10322SOL     OW31864   4.619   5.300   5.005
10322SOL    HW131865   4.534   5.347   4.984
10322SOL    HW231866   4.602   5.230   5.075
10323SOL     OW31867   6.123   4.576   5.306
10323SOL    HW131868   6.083   4.567   5.397
10323SOL    HW231869   6.060   4.539   5.238
10324SOL     OW31870   3.494   3.118   2.067
10324SOL    HW131871   3.413   3.096   2.011
10324SOL    HW231872   3.523   3.036   2.116
10325SOL     OW31873   6.222   4.458   1.911
10325SOL    HW131874   6.295   4.461   1.978
10325SOL    HW231875   6.212   4.364   1.876
10326SOL     OW31876   5.045   4.614   6.525
10326SOL    HW131877   5.135   4.579   6.551
10326SOL    HW231878   5.031   4.599   6.427
10327SOL     OW31879   2.559   2.396   0.717
10327SOL    HW131880   2.485   2.410   0.782
10327SOL    HW231881   2.537   2.442   0.631
10328SOL     OW31882   6.316   2.722   0.468
10328SOL    HW131883   6.276   2.657   0.402
10328SOL    HW231884   6.414   2.727   0.453
10329SOL     OW31885   2.494   1.213   3.563
10329SOL    HW131886   2.478   1.142   3.494
10329SOL    HW231887   2.466   1.178   3.653
10330SOL     OW31888   4.113   1.508   2.231
10330SOL    HW131889   4.062   1.463   2.304
10330SOL    HW231890   4.094   1.464   2.144
10331SOL     OW31891   6.624   6.931   6.143
10331SOL    HW131892   6.541   6.876   6.130
10331SOL    HW231893   6.612   6.991   6.223
10332SOL     OW31894   0.071   0.444   0.769
10332SOL    HW131895   0.017   0.524   0.745
10332SOL    HW231896   0.125   0.463   0.851
10333SOL     OW31897   0.511   4.403   5.395
10333SOL    HW131898   0.509   4.425   5.493
10333SOL    HW231899   0.429   4.439   5.351
10334SOL     OW31900   3.482   0.840   4.898
10334SOL    HW131901   3.451   0.911   4.835
10334SOL    HW231902   3.526   0.881   4.977
10335SOL     OW31903   2.711   4.375   6.865
10335SOL    HW131904   2.618   4.340   6.879
10335SOL    HW231905   2.767   4.353   6.945
10336SOL     OW31906   6.333   0.097   1.625
10336SOL    HW131907   6.401   0.078   1.555
10336SOL    HW231908   6.347   0.036   1.703
10337SOL     OW31909   0.185   6.370   6.491
10337SOL    HW131910   0.178   6.331   6.582
10337SOL    HW231911   0.098   6.412   6.465
10338SOL     OW31912   2.185   6.559   2.084
10338SOL    HW131913   2.160   6.640   2.136
10338SOL    HW231914   2.284   6.546   2.086
10339SOL     OW31915   4.847   3.928   6.406
10339SOL    HW131916   4.791   3.893   6.331
10339SOL    HW231917   4.890   4.014   6.379
10340SOL     OW31918   1.496   3.488   0.680
10340SOL    HW131919   1.528   3.464   0.588
10340SOL    HW231920   1.559   3.556   0.719
10341SOL     OW31921   2.134   3.228   2.142
10341SOL    HW131922   2.153   3.320   2.106
10341SOL    HW231923   2.193   3.161   2.097
10342SOL     OW31924   1.854   6.831   4.103
10342SOL    HW131925   1.888   6.925   4.100
10342SOL    HW231926   1.871   6.792   4.194
10343SOL     OW31927   3.380   5.288   6.557
10343SOL    HW131928   3.449   5.216   6.557
10343SOL    HW231929   3.300   5.258   6.505
10344SOL     OW31930   4.235   3.116   0.320
10344SOL    HW131931   4.154   3.164   0.353
10344SOL    HW231932   4.219   3.017   0.325
10345SOL     OW31933   1.871   1.565   6.175
10345SOL    HW131934   1.771   1.565   6.176
10345SOL    HW231935   1.905   1.645   6.225
10346SOL     OW31936   0.459   5.355   1.492
10346SOL    HW131937   0.412   5.434   1.531
10346SOL    HW231938   0.553   5.352   1.525
10347SOL     OW31939   3.942   1.408   3.274
10347SOL    HW131940   4.031   1.403   3.228
10347SOL    HW231941   3.874   1.356   3.222
10348SOL     OW31942   6.404   2.585   0.013
10348SOL    HW131943   6.360   2.640   6.966
10348SOL    HW231944   6.435   2.645   0.086
10349SOL     OW31945   1.140   0.780   0.282
10349SOL    HW131946   1.091   0.724   0.348
10349SOL    HW231947   1.120   0.748   0.189
10350SOL     OW31948   2.962   5.891   4.805
10350SOL    HW131949   2.965   5.943   4.890
10350SOL    HW231950   3.013   5.806   4.815
10351SOL     OW31951   4.280   4.899   6.382
10351SOL    HW131952   4.256   4.806   6.352
10351SOL    HW231953   4.212   4.932   6.447
10352SOL     OW31954   3.518   1.366   6.500
10352SOL    HW131955   3.511   1.268   6.518
10352SOL    HW231956   3.453   1.392   6.428
10353SOL     OW31957   6.697   3.280   5.489
10353SOL    HW131958   6.630   3.262   5.561
10353SOL    HW231959   6.669   3.234   5.405
10354SOL     OW31960   5.419   2.539   2.487
10354SOL    HW131961   5.470   2.621   2.461
10354SOL    HW231962   5.328   2.541   2.445
10355SOL     OW31963   2.380   6.751   1.755
10355SOL    HW131964   2.385   6.753   1.854
10355SOL    HW231965   2.462   6.705   1.718
10356SOL     OW31966   0.460   4.777   4.675
10356SOL    HW131967   0.421   4.852   4.622
10356SOL    HW231968   0.506   4.713   4.614
10357SOL     OW31969   1.351   2.878   6.245
10357SOL    HW131970   1.400   2.854   6.160
10357SOL    HW231971   1.400   2.951   6.292
10358SOL     OW31972   6.776   3.618   3.044
10358SOL    HW131973   6.692   3.668   3.064
10358SOL    HW231974   6.754   3.527   3.009
10359SOL     OW31975   0.641   2.091   1.281
10359SOL    HW131976   0.709   2.080   1.353
10359SOL    HW231977   0.606   2.001   1.254
10360SOL     OW31978   4.625   4.336   3.128
10360SOL    HW131979   4.536   4.373   3.155
10360SOL    HW231980   4.697   4.387   3.175
10361SOL     OW31981   2.584   6.042   3.345
10361SOL    HW131982   2.659   6.089   3.391
10361SOL    HW231983   2.497   6.075   3.381
10362SOL     OW31984   0.699   4.941   4.775
10362SOL    HW131985   0.616   4.901   4.736
10362SOL    HW231986   0.777   4.883   4.755
10363SOL     OW31987   4.626   1.371   2.151
10363SOL    HW131988   4.568   1.436   2.102
10363SOL    HW231989   4.720   1.405   2.153
10364SOL     OW31990   3.497   2.971   1.131
10364SOL    HW131991   3.409   2.946   1.171
10364SOL    HW231992   3.570   2.925   1.181
10365SOL     OW31993   4.072   5.073   6.485
10365SOL    HW131994   4.002   5.022   6.435
10365SOL    HW231995   4.056   5.171   6.474
10366SOL     OW31996   2.727   0.575   4.088
10366SOL    HW131997   2.738   0.619   4.177
10366SOL    HW231998   2.690   0.483   4.100
10367SOL     OW31999   6.297   2.463   2.164
10367SOL    HW132000   6.275   2.368   2.143
10367SOL    HW232001   6.346   2.469   2.251
10368SOL     OW32002   1.956   1.968   1.404
10368SOL    HW132003   1.916   1.963   1.496
10368SOL    HW232004   1.977   1.876   1.372
10369SOL     OW32005   4.411   0.597   5.929
10369SOL    HW132006   4.434   0.512   5.881
10369SOL    HW232007   4.496   0.642   5.958
10370SOL     OW32008   4.938   1.695   5.199
10370SOL    HW132009   4.974   1.685   5.107
10370SOL    HW232010   5.006   1.667   5.266
10371SOL     OW32011   3.580   5.864   4.882
10371SOL    HW132012   3.594   5.781   4.935
10371SOL    HW232013   3.491   5.861   4.837
10372SOL     OW32014   1.591   1.538   6.115
10372SOL    HW132015   1.641   1.487   6.044
10372SOL    HW232016   1.534   1.475   6.168
10373SOL     OW32017   2.163   6.442   4.911
10373SOL    HW132018   2.158   6.534   4.872
10373SOL    HW232019   2.213   6.382   4.849
10374SOL     OW32020   3.550   1.133   3.020
10374SOL    HW132021   3.505   1.204   2.966
10374SOL    HW232022   3.591   1.173   3.102
10375SOL     OW32023   4.018   1.866   6.791
10375SOL    HW132024   4.094   1.895   6.848
10375SOL    HW232025   4.011   1.766   6.793
10376SOL     OW32026   1.045   6.125   3.749
10376SOL    HW132027   1.057   6.215   3.707
10376SOL    HW232028   1.132   6.095   3.788
10377SOL     OW32029   6.594   0.898   3.939
10377SOL    HW132030   6.585   0.859   4.030
10377SOL    HW232031   6.640   0.833   3.879
10378SOL     OW32032   6.422   0.871   5.691
10378SOL    HW132033   6.371   0.812   5.628
10378SOL    HW232034   6.510   0.828   5.713
10379SOL     OW32035   4.358   0.330   4.917
10379SOL    HW132036   4.439   0.336   4.859
10379SOL    HW232037   4.376   0.375   5.004
10380SOL     OW32038   6.502   1.414   3.115
10380SOL    HW132039   6.493   1.503   3.160
10380SOL    HW232040   6.428   1.354   3.145
10381SOL     OW32041   4.588   5.505   6.155
10381SOL    HW132042   4.649   5.507   6.076
10381SOL    HW232043   4.642   5.521   6.238
10382SOL     OW32044   2.694   4.887   6.016
10382SOL    HW132045   2.695   4.912   5.919
10382SOL    HW232046   2.616   4.930   6.061
10383SOL     OW32047   1.170   3.256   0.629
10383SOL    HW132048   1.133   3.163   0.636
10383SOL    HW232049   1.172   3.298   0.719
10384SOL     OW32050   0.627   0.143   0.649
10384SOL    HW132051   0.547   0.086   0.671
10384SOL    HW232052   0.656   0.192   0.731
10385SOL     OW32053   4.750   6.971   6.341
10385SOL    HW132054   4.734   6.934   6.249
10385SOL    HW232055   4.845   6.956   6.367
10386SOL     OW32056   6.994   3.770   5.335
10386SOL    HW132057   6.957   3.832   5.404
10386SOL    HW232058   6.928   3.758   5.262
10387SOL     OW32059   3.566   1.801   2.699
10387SOL    HW132060   3.484   1.757   2.662
10387SOL    HW232061   3.550   1.900   2.706
10388SOL     OW32062   0.813   5.765   3.440
10388SOL    HW132063   0.743   5.751   3.510
10388SOL    HW232064   0.895   5.805   3.482
10389SOL     OW32065   0.497   5.899   2.207
10389SOL    HW132066   0.487   5.822   2.270
10389SOL    HW232067   0.407   5.924   2.170
10390SOL     OW32068   1.445   3.781   2.234
10390SOL    HW132069   1.490   3.811   2.317
10390SOL    HW232070   1.510   3.733   2.175
10391SOL     OW32071   1.318   5.567   5.843
10391SOL    HW132072   1.382   5.512   5.790
10391SOL    HW232073   1.332   5.664   5.824
10392SOL     OW32074   6.406   4.164   0.521
10392SOL    HW132075   6.420   4.091   0.454
10392SOL    HW232076   6.374   4.124   0.607
10393SOL     OW32077   0.853   1.742   3.022
10393SOL    HW132078   0.909   1.665   2.991
10393SOL    HW232079   0.826   1.727   3.117
10394SOL     OW32080   2.941   6.771   6.133
10394SOL    HW132081   2.989   6.780   6.046
10394SOL    HW232082   2.854   6.820   6.128
10395SOL     OW32083   6.737   0.940   4.486
10395SOL    HW132084   6.758   1.000   4.409
10395SOL    HW232085   6.808   0.871   4.495
10396SOL     OW32086   1.027   0.834   3.603
10396SOL    HW132087   1.123   0.809   3.599
10396SOL    HW232088   0.971   0.760   3.564
10397SOL     OW32089   3.682   1.348   3.965
10397SOL    HW132090   3.623   1.366   3.887
10397SOL    HW232091   3.666   1.254   3.998
10398SOL     OW32092   6.134   2.375   7.013
10398SOL    HW132093   6.134   2.474   7.000
10398SOL    HW232094   6.145   2.329   6.925
10399SOL     OW32095   4.376   1.632   5.474
10399SOL    HW132096   4.411   1.548   5.515
10399SOL    HW232097   4.414   1.711   5.523
10400SOL     OW32098   3.268   5.757   2.629
10400SOL    HW132099   3.268   5.661   2.656
10400SOL    HW232100   3.249   5.765   2.532
10401SOL     OW32101   6.573   6.336   1.816
10401SOL    HW132102   6.492   6.317   1.760
10401SOL    HW232103   6.547   6.393   1.894
10402SOL     OW32104   0.296   2.756   5.683
10402SOL    HW132105   0.331   2.848   5.699
10402SOL    HW232106   0.365   2.702   5.634
10403SOL     OW32107   5.238   1.277   2.448
10403SOL    HW132108   5.182   1.229   2.516
10403SOL    HW232109   5.298   1.211   2.402
10404SOL     OW32110   0.993   6.534   3.866
10404SOL    HW132111   1.068   6.477   3.901
10404SOL    HW232112   0.906   6.499   3.901
10405SOL     OW32113   1.847   5.276   5.265
10405SOL    HW132114   1.790   5.328   5.201
10405SOL    HW232115   1.934   5.254   5.221
10406SOL     OW32116   1.538   4.481   5.178
10406SOL    HW132117   1.516   4.527   5.264
10406SOL    HW232118   1.548   4.383   5.195
10407SOL     OW32119   1.417   0.616   6.097
10407SOL    HW132120   1.496   0.609   6.036
10407SOL    HW232121   1.369   0.701   6.080
10408SOL     OW32122   4.811   5.911   2.921
10408SOL    HW132123   4.793   5.854   3.001
10408SOL    HW232124   4.788   5.861   2.837
10409SOL     OW32125   0.219   4.505   1.387
10409SOL    HW132126   0.304   4.482   1.340
10409SOL    HW232127   0.169   4.573   1.334
10410SOL     OW32128   5.119   0.955   1.315
10410SOL    HW132129   5.106   0.892   1.238
10410SOL    HW232130   5.181   0.914   1.382
10411SOL     OW32131   2.399   4.748   4.199
10411SOL    HW132132   2.443   4.677   4.254
10411SOL    HW232133   2.455   4.768   4.119
10412SOL     OW32134   0.941   1.596   6.605
10412SOL    HW132135   0.992   1.594   6.691
10412SOL    HW232136   0.857   1.648   6.617
10413SOL     OW32137   1.096   1.932   0.865
10413SOL    HW132138   1.060   2.013   0.912
10413SOL    HW232139   1.137   1.960   0.778
10414SOL     OW32140   5.149   6.116   6.697
10414SOL    HW132141   5.220   6.119   6.626
10414SOL    HW232142   5.108   6.206   6.707
10415SOL     OW32143   1.132   5.472   3.691
10415SOL    HW132144   1.038   5.437   3.688
10415SOL    HW232145   1.162   5.495   3.598
10416SOL     OW32146   6.277   1.712   5.624
10416SOL    HW132147   6.330   1.797   5.625
10416SOL    HW232148   6.194   1.725   5.678
10417SOL     OW32149   4.200   4.917   3.330
10417SOL    HW132150   4.213   4.853   3.254
10417SOL    HW232151   4.180   4.866   3.413
10418SOL     OW32152   6.764   4.076   6.082
10418SOL    HW132153   6.810   4.162   6.104
10418SOL    HW232154   6.688   4.094   6.020
10419SOL     OW32155   3.480   1.251   5.524
10419SOL    HW132156   3.554   1.223   5.463
10419SOL    HW232157   3.512   1.325   5.583
10420SOL     OW32158   6.650   3.001   2.387
10420SOL    HW132159   6.624   2.945   2.466
10420SOL    HW232160   6.568   3.038   2.343
10421SOL     OW32161   1.072   4.496   4.079
10421SOL    HW132162   1.023   4.426   4.130
10421SOL    HW232163   1.010   4.571   4.056
10422SOL     OW32164   6.293   4.363   5.576
10422SOL    HW132165   6.295   4.458   5.607
10422SOL    HW232166   6.320   4.359   5.480
10423SOL     OW32167   3.506   4.971   4.335
10423SOL    HW132168   3.510   4.961   4.434
10423SOL    HW232169   3.522   5.067   4.311
10424SOL     OW32170   3.984   0.920   0.256
10424SOL    HW132171   3.990   0.895   0.353
10424SOL    HW232172   3.888   0.913   0.227
10425SOL     OW32173   1.278   0.008   1.231
10425SOL    HW132174   1.192   0.053   1.253
10425SOL    HW232175   1.264   6.933   1.229
10426SOL     OW32176   5.125   2.945   5.552
10426SOL    HW132177   5.182   2.978   5.627
10426SOL    HW232178   5.129   3.011   5.476
10427SOL     OW32179   5.116   5.904   5.116
10427SOL    HW132180   5.079   5.832   5.174
10427SOL    HW232181   5.165   5.862   5.039
10428SOL     OW32182   1.586   1.731   3.368
10428SOL    HW132183   1.570   1.737   3.466
10428SOL    HW232184   1.591   1.635   3.340
10429SOL     OW32185   1.193   3.419   2.429
10429SOL    HW132186   1.287   3.453   2.438
10429SOL    HW232187   1.186   3.360   2.349
10430SOL     OW32188   3.649   6.015   3.874
10430SOL    HW132189   3.686   6.098   3.916
10430SOL    HW232190   3.666   6.017   3.775
10431SOL     OW32191   2.398   2.001   4.350
10431SOL    HW132192   2.351   2.016   4.437
10431SOL    HW232193   2.440   1.911   4.350
10432SOL     OW32194   0.138   0.026   5.394
10432SOL    HW132195   0.066   0.012   5.326
10432SOL    HW232196   0.117   6.998   5.477
10433SOL     OW32197   2.153   0.256   1.567
10433SOL    HW132198   2.198   0.338   1.532
10433SOL    HW232199   2.084   0.282   1.635
10434SOL     OW32200   5.055   0.655   5.766
10434SOL    HW132201   5.143   0.623   5.802
10434SOL    HW232202   5.044   0.625   5.672
10435SOL     OW32203   1.002   2.289   6.652
10435SOL    HW132204   0.906   2.271   6.672
10435SOL    HW232205   1.024   2.384   6.672
10436SOL     OW32206   0.349   4.005   5.579
10436SOL    HW132207   0.414   4.033   5.508
10436SOL    HW232208   0.354   3.906   5.592
10437SOL     OW32209   5.011   5.657   5.224
10437SOL    HW132210   4.967   5.582   5.174
10437SOL    HW232211   5.081   5.619   5.284
10438SOL     OW32212   6.885   6.228   6.855
10438SOL    HW132213   6.889   6.187   6.947
10438SOL    HW232214   6.940   6.311   6.854
10439SOL     OW32215   6.734   0.480   4.234
10439SOL    HW132216   6.665   0.462   4.164
10439SOL    HW232217   6.802   0.543   4.198
10440SOL     OW32218   0.154   1.272   0.111
10440SOL    HW132219   0.228   1.324   0.154
10440SOL    HW232220   0.152   1.292   0.013
10441SOL     OW32221   3.433   1.553   1.526
10441SOL    HW132222   3.399   1.640   1.563
10441SOL    HW232223   3.429   1.555   1.427
10442SOL     OW32224   3.086   0.656   5.259
10442SOL    HW132225   3.029   0.738   5.269
10442SOL    HW232226   3.176   0.673   5.299
10443SOL     OW32227   0.392   2.004   3.265
10443SOL    HW132228   0.413   1.907   3.256
10443SOL    HW232229   0.407   2.050   3.177
10444SOL     OW32230   3.372   5.202   3.649
10444SOL    HW132231   3.327   5.200   3.738
10444SOL    HW232232   3.409   5.111   3.628
10445SOL     OW32233   0.797   3.994   2.248
10445SOL    HW132234   0.874   3.941   2.283
10445SOL    HW232235   0.718   3.934   2.237
10446SOL     OW32236   1.933   3.881   5.282
10446SOL    HW132237   1.880   3.966   5.289
10446SOL    HW232238   1.911   3.821   5.359
10447SOL     OW32239   6.126   2.503   3.348
10447SOL    HW132240   6.084   2.454   3.271
10447SOL    HW232241   6.221   2.525   3.326
10448SOL     OW32242   2.961   0.425   3.700
10448SOL    HW132243   2.939   0.519   3.674
10448SOL    HW232244   2.892   0.363   3.664
10449SOL     OW32245   3.508   5.838   7.009
10449SOL    HW132246   3.565   5.889   0.049
10449SOL    HW232247   3.540   5.744   7.003
10450SOL     OW32248   6.180   0.250   6.215
10450SOL    HW132249   6.250   0.319   6.231
10450SOL    HW232250   6.093   0.295   6.192
10451SOL     OW32251   1.704   0.940   4.256
10451SOL    HW132252   1.704   0.851   4.302
10451SOL    HW232253   1.619   0.989   4.278
10452SOL     OW32254   6.326   3.053   3.014
10452SOL    HW132255   6.256   2.986   2.992
10452SOL    HW232256   6.365   3.033   3.104
10453SOL     OW32257   4.436   6.313   3.159
10453SOL    HW132258   4.358   6.373   3.175
10453SOL    HW232259   4.500   6.318   3.236
10454SOL     OW32260   6.786   1.566   0.018
10454SOL    HW132261   6.693   1.576   7.007
10454SOL    HW232262   6.843   1.520   6.974
10455SOL     OW32263   6.007   6.573   4.215
10455SOL    HW132264   6.078   6.508   4.243
10455SOL    HW232265   6.050   6.658   4.184
10456SOL     OW32266   6.788   5.587   0.150
10456SOL    HW132267   6.723   5.524   0.109
10456SOL    HW232268   6.816   5.656   0.083
10457SOL     OW32269   4.167   3.317   6.916
10457SOL    HW132270   4.233   3.297   6.989
10457SOL    HW232271   4.087   3.259   6.926
10458SOL     OW32272   6.937   6.970   6.150
10458SOL    HW132273   6.838   6.963   6.134
10458SOL    HW232274   6.953   7.019   6.235
10459SOL     OW32275   6.947   5.266   0.812
10459SOL    HW132276   6.848   5.267   0.825
10459SOL    HW232277   6.971   5.191   0.750
10460SOL     OW32278   6.846   4.260   1.465
10460SOL    HW132279   6.851   4.357   1.441
10460SOL    HW232280   6.892   4.206   1.394
10461SOL     OW32281   6.256   5.097   5.440
10461SOL    HW132282   6.352   5.112   5.416
10461SOL    HW232283   6.230   5.004   5.416
10462SOL     OW32284   5.155   1.811   1.641
10462SOL    HW132285   5.222   1.829   1.568
10462SOL    HW232286   5.191   1.741   1.702
10463SOL     OW32287   4.474   2.359   6.241
10463SOL    HW132288   4.574   2.366   6.245
10463SOL    HW232289   4.437   2.439   6.194
10464SOL     OW32290   5.384   5.107   2.625
10464SOL    HW132291   5.376   5.160   2.710
10464SOL    HW232292   5.467   5.135   2.576
10465SOL     OW32293   5.379   4.206   2.303
10465SOL    HW132294   5.382   4.156   2.389
10465SOL    HW232295   5.459   4.182   2.248
10466SOL     OW32296   5.495   4.396   5.872
10466SOL    HW132297   5.457   4.372   5.783
10466SOL    HW232298   5.451   4.479   5.906
10467SOL     OW32299   2.018   2.460   7.003
10467SOL    HW132300   1.950   2.495   6.939
10467SOL    HW232301   2.110   2.486   6.973
10468SOL     OW32302   3.023   4.836   3.908
10468SOL    HW132303   2.974   4.922   3.891
10468SOL    HW232304   3.082   4.815   3.830
10469SOL     OW32305   5.472   2.580   5.540
10469SOL    HW132306   5.384   2.608   5.502
10469SOL    HW232307   5.510   2.506   5.484
10470SOL     OW32308   2.190   1.875   3.775
10470SOL    HW132309   2.211   1.964   3.814
10470SOL    HW232310   2.139   1.887   3.690
10471SOL     OW32311   2.305   1.061   6.919
10471SOL    HW132312   2.398   1.028   6.905
10471SOL    HW232313   2.291   1.145   6.866
10472SOL     OW32314   3.321   5.057   0.986
10472SOL    HW132315   3.286   5.123   1.053
10472SOL    HW232316   3.297   4.965   1.014
10473SOL     OW32317   5.496   5.895   6.613
10473SOL    HW132318   5.496   5.797   6.633
10473SOL    HW232319   5.475   5.910   6.516
10474SOL     OW32320   5.085   1.049   4.136
10474SOL    HW132321   5.029   1.118   4.181
10474SOL    HW232322   5.141   1.001   4.203
10475SOL     OW32323   2.493   6.338   1.860
10475SOL    HW132324   2.430   6.348   1.783
10475SOL    HW232325   2.579   6.299   1.829
10476SOL     OW32326   4.444   6.134   6.321
10476SOL    HW132327   4.450   6.204   6.250
10476SOL    HW232328   4.457   6.176   6.410
10477SOL     OW32329   0.195   6.043   4.175
10477SOL    HW132330   0.255   6.088   4.109
10477SOL    HW232331   0.249   6.009   4.252
10478SOL     OW32332   6.476   6.906   0.090
10478SOL    HW132333   6.382   6.915   0.122
10478SOL    HW232334   6.479   6.922   7.016
10479SOL     OW32335   6.715   3.107   2.109
10479SOL    HW132336   6.620   3.076   2.112
10479SOL    HW232337   6.737   3.154   2.195
10480SOL     OW32338   1.730   0.393   2.564
10480SOL    HW132339   1.695   0.396   2.471
10480SOL    HW232340   1.760   0.485   2.591
10481SOL     OW32341   0.641   6.561   3.031
10481SOL    HW132342   0.700   6.585   3.109
10481SOL    HW232343   0.575   6.635   3.016
10482SOL     OW32344   6.345   4.508   4.669
10482SOL    HW132345   6.251   4.531   4.696
10482SOL    HW232346   6.363   4.412   4.691
10483SOL     OW32347   5.498   5.201   0.311
10483SOL    HW132348   5.563   5.238   0.377
10483SOL    HW232349   5.417   5.259   0.307
10484SOL     OW32350   5.033   1.154   1.033
10484SOL    HW132351   5.046   1.088   1.106
10484SOL    HW232352   5.086   1.237   1.053
10485SOL     OW32353   4.004   4.611   6.496
10485SOL    HW132354   4.073   4.665   6.544
10485SOL    HW232355   4.049   4.552   6.429
10486SOL     OW32356   6.782   2.446   0.556
10486SOL    HW132357   6.696   2.468   0.603
10486SOL    HW232358   6.768   2.451   0.457
10487SOL     OW32359   5.799   6.667   2.285
10487SOL    HW132360   5.726   6.720   2.329
10487SOL    HW232361   5.876   6.658   2.349
10488SOL     OW32362   2.486   3.479   6.858
10488SOL    HW132363   2.460   3.572   6.832
10488SOL    HW232364   2.445   3.457   6.947
10489SOL     OW32365   0.400   6.766   5.989
10489SOL    HW132366   0.371   6.673   5.965
10489SOL    HW232367   0.329   6.809   6.045
10490SOL     OW32368   6.267   1.560   2.580
10490SOL    HW132369   6.327   1.632   2.614
10490SOL    HW232370   6.190   1.601   2.531
10491SOL     OW32371   1.607   3.345   6.518
10491SOL    HW132372   1.675   3.310   6.583
10491SOL    HW232373   1.647   3.419   6.464
10492SOL     OW32374   5.166   3.755   5.709
10492SOL    HW132375   5.173   3.723   5.615
10492SOL    HW232376   5.071   3.778   5.729
10493SOL     OW32377   3.513   0.712   1.567
10493SOL    HW132378   3.491   0.685   1.660
10493SOL    HW232379   3.476   0.803   1.548
10494SOL     OW32380   5.660   2.566   5.151
10494SOL    HW132381   5.682   2.483   5.202
10494SOL    HW232382   5.717   2.641   5.184
10495SOL     OW32383   1.523   6.934   0.971
10495SOL    HW132384   1.603   6.918   0.914
10495SOL    HW232385   1.548   6.996   1.046
10496SOL     OW32386   0.284   6.790   0.586
10496SOL    HW132387   0.340   6.759   0.509
10496SOL    HW232388   0.261   6.711   0.644
10497SOL     OW32389   1.837   7.018   1.406
10497SOL    HW132390   1.744   6.999   1.376
10497SOL    HW232391   1.859   6.962   1.486
10498SOL     OW32392   2.634   6.898   0.802
10498SOL    HW132393   2.621   6.807   0.762
10498SOL    HW232394   2.731   6.912   0.822
10499SOL     OW32395   2.772   6.702   2.436
10499SOL    HW132396   2.853   6.655   2.469
10499SOL    HW232397   2.701   6.701   2.507
10500SOL     OW32398   0.446   0.884   5.618
10500SOL    HW132399   0.418   0.899   5.713
10500SOL    HW232400   0.372   0.915   5.557
10501SOL     OW32401   1.748   5.398   3.296
10501SOL    HW132402   1.825   5.443   3.341
10501SOL    HW232403   1.709   5.459   3.226
10502SOL     OW32404   3.324   6.641   1.165
10502SOL    HW132405   3.280   6.712   1.221
10502SOL    HW232406   3.330   6.673   1.070
10503SOL     OW32407   4.416   2.842   0.550
10503SOL    HW132408   4.452   2.755   0.584
10503SOL    HW232409   4.352   2.880   0.617
10504SOL     OW32410   2.136   2.771   0.664
10504SOL    HW132411   2.225   2.725   0.667
10504SOL    HW232412   2.084   2.736   0.586
10505SOL     OW32413   6.054   6.144   0.488
10505SOL    HW132414   5.991   6.204   0.538
10505SOL    HW232415   6.148   6.171   0.507
10506SOL     OW32416   1.120   4.890   6.355
10506SOL    HW132417   1.172   4.973   6.337
10506SOL    HW232418   1.060   4.905   6.434
10507SOL     OW32419   1.896   6.398   0.447
10507SOL    HW132420   1.851   6.334   0.384
10507SOL    HW232421   1.867   6.378   0.541
10508SOL     OW32422   5.913   5.841   4.381
10508SOL    HW132423   5.827   5.892   4.370
10508SOL    HW232424   5.915   5.799   4.471
10509SOL     OW32425   0.658   6.905   6.139
10509SOL    HW132426   0.677   6.839   6.212
10509SOL    HW232427   0.729   6.899   6.069
10510SOL     OW32428   5.736   4.905   5.653
10510SOL    HW132429   5.729   4.969   5.576
10510SOL    HW232430   5.829   4.905   5.688
10511SOL     OW32431   4.616   2.830   0.813
10511SOL    HW132432   4.592   2.850   0.908
10511SOL    HW232433   4.537   2.847   0.754
10512SOL     OW32434   3.791   0.973   6.553
10512SOL    HW132435   3.758   0.879   6.540
10512SOL    HW232436   3.875   0.985   6.500
10513SOL     OW32437   6.983   2.436   5.928
10513SOL    HW132438   0.019   2.486   5.866
10513SOL    HW232439   6.953   2.497   6.002
10514SOL     OW32440   6.802   3.718   0.226
10514SOL    HW132441   6.899   3.746   0.228
10514SOL    HW232442   6.791   3.635   0.280
10515SOL     OW32443   5.857   2.972   3.254
10515SOL    HW132444   5.933   2.914   3.285
10515SOL    HW232445   5.778   2.958   3.315
10516SOL     OW32446   5.061   1.124   6.526
10516SOL    HW132447   5.138   1.167   6.574
10516SOL    HW232448   5.014   1.193   6.472
10517SOL     OW32449   0.774   2.172   2.340
10517SOL    HW132450   0.730   2.262   2.338
10517SOL    HW232451   0.870   2.182   2.365
10518SOL     OW32452   1.250   4.786   0.388
10518SOL    HW132453   1.237   4.745   0.478
10518SOL    HW232454   1.178   4.755   0.327
10519SOL     OW32455   3.093   2.458   5.745
10519SOL    HW132456   3.086   2.531   5.813
10519SOL    HW232457   3.139   2.493   5.664
10520SOL     OW32458   2.447   2.785   6.781
10520SOL    HW132459   2.463   2.762   6.877
10520SOL    HW232460   2.352   2.813   6.768
10521SOL     OW32461   6.278   5.681   0.981
10521SOL    HW132462   6.331   5.765   0.974
10521SOL    HW232463   6.207   5.681   0.911
10522SOL     OW32464   6.377   0.450   0.623
10522SOL    HW132465   6.424   0.362   0.614
10522SOL    HW232466   6.279   0.434   0.633
10523SOL     OW32467   0.244   6.259   4.453
10523SOL    HW132468   0.176   6.310   4.505
10523SOL    HW232469   0.287   6.319   4.386
10524SOL     OW32470   1.747   1.065   4.842
10524SOL    HW132471   1.835   1.018   4.832
10524SOL    HW232472   1.737   1.133   4.770
10525SOL     OW32473   2.991   6.717   5.549
10525SOL    HW132474   3.067   6.653   5.543
10525SOL    HW232475   2.918   6.689   5.486
10526SOL     OW32476   0.583   0.461   2.948
10526SOL    HW132477   0.495   0.507   2.933
10526SOL    HW232478   0.657   0.521   2.919
10527SOL     OW32479   1.305   2.728   3.693
10527SOL    HW132480   1.381   2.794   3.693
10527SOL    HW232481   1.337   2.641   3.654
10528SOL     OW32482   1.294   3.939   5.344
10528SOL    HW132483   1.298   3.980   5.435
10528SOL    HW232484   1.349   3.856   5.342
10529SOL     OW32485   1.102   5.669   2.978
10529SOL    HW132486   1.137   5.575   2.976
10529SOL    HW232487   1.032   5.678   3.049
10530SOL     OW32488   1.909   1.140   5.955
10530SOL    HW132489   1.921   1.142   5.856
10530SOL    HW232490   1.966   1.068   5.995
10531SOL     OW32491   1.565   3.307   4.550
10531SOL    HW132492   1.595   3.222   4.593
10531SOL    HW232493   1.586   3.304   4.453
10532SOL     OW32494   2.447   3.018   0.774
10532SOL    HW132495   2.455   3.103   0.825
10532SOL    HW232496   2.353   3.006   0.742
10533SOL     OW32497   3.151   1.607   4.057
10533SOL    HW132498   3.102   1.612   4.144
10533SOL    HW232499   3.153   1.698   4.015
10534SOL     OW32500   0.119   5.820   0.722
10534SOL    HW132501   0.204   5.805   0.773
10534SOL    HW232502   0.126   5.778   0.632
10535SOL     OW32503   0.330   2.619   2.513
10535SOL    HW132504   0.364   2.712   2.529
10535SOL    HW232505   0.392   2.571   2.451
10536SOL     OW32506   3.847   0.343   3.084
10536SOL    HW132507   3.863   0.442   3.094
10536SOL    HW232508   3.759   0.319   3.124
10537SOL     OW32509   3.383   5.304   2.951
10537SOL    HW132510   3.303   5.255   2.916
10537SOL    HW232511   3.397   5.281   3.047
10538SOL     OW32512   4.689   2.874   6.424
10538SOL    HW132513   4.677   2.777   6.443
10538SOL    HW232514   4.654   2.895   6.333
10539SOL     OW32515   0.906   4.121   6.380
10539SOL    HW132516   0.905   4.166   6.291
10539SOL    HW232517   0.820   4.073   6.394
10540SOL     OW32518   1.838   0.726   5.525
10540SOL    HW132519   1.811   0.723   5.429
10540SOL    HW232520   1.768   0.773   5.579
10541SOL     OW32521   3.486   3.771   1.845
10541SOL    HW132522   3.580   3.791   1.816
10541SOL    HW232523   3.437   3.857   1.859
10542SOL     OW32524   7.004   1.802   0.586
10542SOL    HW132525   0.021   1.878   0.537
10542SOL    HW232526   6.921   1.773   0.539
10543SOL     OW32527   0.386   1.000   5.168
10543SOL    HW132528   0.342   0.974   5.082
10543SOL    HW232529   0.396   1.099   5.171
10544SOL     OW32530   2.016   0.949   2.658
10544SOL    HW132531   1.993   0.936   2.755
10544SOL    HW232532   2.046   0.863   2.619
10545SOL     OW32533   6.530   0.209   2.660
10545SOL    HW132534   6.432   0.216   2.644
10545SOL    HW232535   6.574   0.297   2.641
10546SOL     OW32536   0.983   0.535   5.602
10546SOL    HW132537   0.961   0.485   5.686
10546SOL    HW232538   1.014   0.470   5.532
10547SOL     OW32539   4.414   1.444   2.304
10547SOL    HW132540   4.465   1.397   2.232
10547SOL    HW232541   4.320   1.460   2.274
10548SOL     OW32542   5.127   3.964   5.029
10548SOL    HW132543   5.147   4.062   5.026
10548SOL    HW232544   5.038   3.947   4.986
10549SOL     OW32545   6.640   0.454   2.607
10549SOL    HW132546   6.660   0.486   2.514
10549SOL    HW232547   6.725   0.428   2.653
10550SOL     OW32548   4.175   6.359   4.175
10550SOL    HW132549   4.081   6.388   4.157
10550SOL    HW232550   4.224   6.432   4.221
10551SOL     OW32551   1.394   2.514   5.066
10551SOL    HW132552   1.375   2.439   5.002
10551SOL    HW232553   1.459   2.577   5.024
10552SOL     OW32554   3.660   1.834   5.341
10552SOL    HW132555   3.568   1.870   5.358
10552SOL    HW232556   3.711   1.900   5.285
10553SOL     OW32557   1.230   4.946   1.701
10553SOL    HW132558   1.217   5.008   1.623
10553SOL    HW232559   1.180   4.862   1.685
10554SOL     OW32560   5.322   4.965   6.666
10554SOL    HW132561   5.331   4.988   6.570
10554SOL    HW232562   5.389   4.893   6.689
10555SOL     OW32563   3.007   1.836   1.287
10555SOL    HW132564   2.966   1.925   1.307
10555SOL    HW232565   2.987   1.811   1.192
10556SOL     OW32566   1.630   3.092   5.424
10556SOL    HW132567   1.577   3.044   5.494
10556SOL    HW232568   1.666   3.025   5.359
10557SOL     OW32569   0.948   2.557   3.421
10557SOL    HW132570   0.913   2.604   3.501
10557SOL    HW232571   0.979   2.624   3.353
10558SOL     OW32572   4.090   0.097   5.073
10558SOL    HW132573   4.123   0.048   4.992
10558SOL    HW232574   4.100   0.195   5.058
10559SOL     OW32575   3.920   1.038   0.882
10559SOL    HW132576   3.925   1.101   0.805
10559SOL    HW232577   3.924   1.089   0.968
10560SOL     OW32578   2.221   5.542   4.522
10560SOL    HW132579   2.245   5.535   4.619
10560SOL    HW232580   2.125   5.517   4.509
10561SOL     OW32581   2.524   4.964   0.204
10561SOL    HW132582   2.585   4.887   0.183
10561SOL    HW232583   2.448   4.964   0.140
10562SOL     OW32584   5.109   6.794   0.374
10562SOL    HW132585   5.115   6.853   0.294
10562SOL    HW232586   5.189   6.734   0.376
10563SOL     OW32587   1.866   1.148   4.135
10563SOL    HW132588   1.818   1.087   4.198
10563SOL    HW232589   1.874   1.103   4.046
10564SOL     OW32590   6.038   0.191   2.164
10564SOL    HW132591   6.122   0.196   2.110
10564SOL    HW232592   6.005   0.283   2.182
10565SOL     OW32593   0.552   0.328   5.845
10565SOL    HW132594   0.515   0.413   5.810
10565SOL    HW232595   0.626   0.296   5.786
10566SOL     OW32596   4.305   3.512   6.793
10566SOL    HW132597   4.392   3.479   6.757
10566SOL    HW232598   4.265   3.442   6.852
10567SOL     OW32599   2.176   2.991   4.013
10567SOL    HW132600   2.085   2.995   3.970
10567SOL    HW232601   2.175   2.922   4.085
10568SOL     OW32602   5.867   1.296   1.480
10568SOL    HW132603   5.779   1.320   1.521
10568SOL    HW232604   5.888   1.200   1.499
10569SOL     OW32605   6.482   3.232   1.786
10569SOL    HW132606   6.437   3.210   1.873
10569SOL    HW232607   6.543   3.311   1.800
10570SOL     OW32608   1.894   5.057   2.544
10570SOL    HW132609   1.796   5.039   2.539
10570SOL    HW232610   1.944   4.976   2.512
10571SOL     OW32611   6.521   5.355   4.169
10571SOL    HW132612   6.601   5.404   4.135
10571SOL    HW232613   6.491   5.289   4.100
10572SOL     OW32614   5.934   3.498   3.209
10572SOL    HW132615   6.011   3.437   3.192
10572SOL    HW232616   5.892   3.523   3.122
10573SOL     OW32617   5.499   6.026   3.323
10573SOL    HW132618   5.587   6.037   3.369
10573SOL    HW232619   5.512   6.036   3.224
10574SOL     OW32620   1.906   2.034   3.800
10574SOL    HW132621   1.809   2.027   3.823
10574SOL    HW232622   1.958   1.967   3.853
10575SOL     OW32623   0.400   0.940   3.782
10575SOL    HW132624   0.372   0.901   3.870
10575SOL    HW232625   0.336   1.012   3.755
10576SOL     OW32626   1.307   6.641   5.411
10576SOL    HW132627   1.307   6.658   5.509
10576SOL    HW232628   1.288   6.544   5.394
10577SOL     OW32629   1.201   2.907   6.623
10577SOL    HW132630   1.216   2.834   6.557
10577SOL    HW232631   1.114   2.892   6.670
10578SOL     OW32632   6.646   0.114   3.858
10578SOL    HW132633   6.566   0.055   3.841
10578SOL    HW232634   6.729   0.058   3.858
10579SOL     OW32635   4.028   1.861   0.168
10579SOL    HW132636   4.009   1.777   0.117
10579SOL    HW232637   3.955   1.876   0.236
10580SOL     OW32638   6.804   0.100   0.318
10580SOL    HW132639   6.716   0.148   0.314
10580SOL    HW232640   6.870   0.155   0.369
10581SOL     OW32641   5.843   6.922   2.730
10581SOL    HW132642   5.844   6.986   2.807
10581SOL    HW232643   5.833   6.829   2.765
10582SOL     OW32644   3.879   4.519   6.244
10582SOL    HW132645   3.932   4.448   6.198
10582SOL    HW232646   3.916   4.609   6.219
10583SOL     OW32647   4.125   1.282   5.881
10583SOL    HW132648   4.136   1.184   5.900
10583SOL    HW232649   4.213   1.321   5.855
10584SOL     OW32650   5.828   6.685   1.126
10584SOL    HW132651   5.765   6.681   1.049
10584SOL    HW232652   5.780   6.723   1.206
10585SOL     OW32653   1.353   3.282   5.588
10585SOL    HW132654   1.335   3.188   5.618
10585SOL    HW232655   1.410   3.281   5.506
10586SOL     OW32656   1.405   5.798   5.760
10586SOL    HW132657   1.459   5.859   5.818
10586SOL    HW232658   1.467   5.737   5.710
10587SOL     OW32659   5.946   3.580   0.278
10587SOL    HW132660   6.027   3.597   0.222
10587SOL    HW232661   5.923   3.662   0.329
10588SOL     OW32662   1.267   4.035   2.386
10588SOL    HW132663   1.355   4.011   2.346
10588SOL    HW232664   1.233   4.119   2.342
10589SOL     OW32665   5.469   1.126   4.372
10589SOL    HW132666   5.499   1.141   4.466
10589SOL    HW232667   5.517   1.189   4.311
10590SOL     OW32668   1.400   0.311   2.040
10590SOL    HW132669   1.337   0.347   2.109
10590SOL    HW232670   1.420   0.383   1.974
10591SOL     OW32671   1.365   1.719   5.531
10591SOL    HW132672   1.331   1.652   5.597
10591SOL    HW232673   1.457   1.693   5.502
10592SOL     OW32674   5.010   2.430   0.585
10592SOL    HW132675   4.929   2.488   0.574
10592SOL    HW232676   4.981   2.341   0.620
10593SOL     OW32677   3.148   5.671   1.062
10593SOL    HW132678   3.243   5.651   1.086
10593SOL    HW232679   3.101   5.710   1.141
10594SOL     OW32680   5.840   1.805   3.641
10594SOL    HW132681   5.893   1.728   3.678
10594SOL    HW232682   5.814   1.785   3.547
10595SOL     OW32683   3.177   0.435   5.820
10595SOL    HW132684   3.207   0.392   5.735
10595SOL    HW232685   3.078   0.448   5.818
10596SOL     OW32686   4.321   7.006   1.695
10596SOL    HW132687   4.341   0.079   1.704
10596SOL    HW232688   4.291   6.970   1.783
10597SOL     OW32689   2.763   0.859   4.172
10597SOL    HW132690   2.829   0.931   4.195
10597SOL    HW232691   2.785   0.821   4.082
10598SOL     OW32692   2.956   2.277   6.911
10598SOL    HW132693   3.037   2.253   6.857
10598SOL    HW232694   2.900   2.196   6.927
10599SOL     OW32695   5.648   1.612   0.391
10599SOL    HW132696   5.552   1.586   0.391
10599SOL    HW232697   5.680   1.625   0.485
10600SOL     OW32698   2.249   3.126   0.195
10600SOL    HW132699   2.303   3.092   0.273
10600SOL    HW232700   2.307   3.131   0.114
10601SOL     OW32701   2.340   5.276   6.211
10601SOL    HW132702   2.332   5.178   6.192
10601SOL    HW232703   2.387   5.289   6.298
10602SOL     OW32704   5.061   1.696   2.313
10602SOL    HW132705   5.086   1.788   2.282
10602SOL    HW232706   5.143   1.650   2.349
10603SOL     OW32707   2.049   6.141   2.994
10603SOL    HW132708   1.983   6.214   2.974
10603SOL    HW232709   2.074   6.144   3.090
10604SOL     OW32710   5.663   4.364   4.319
10604SOL    HW132711   5.606   4.416   4.255
10604SOL    HW232712   5.759   4.386   4.302
10605SOL     OW32713   0.886   5.236   6.980
10605SOL    HW132714   0.979   5.223   6.946
10605SOL    HW232715   0.855   5.152   0.001
10606SOL     OW32716   6.255   0.740   1.797
10606SOL    HW132717   6.182   0.682   1.761
10606SOL    HW232718   6.215   0.811   1.856
10607SOL     OW32719   3.944   3.504   5.646
10607SOL    HW132720   3.951   3.443   5.567
10607SOL    HW232721   3.870   3.569   5.633
10608SOL     OW32722   5.884   1.985   4.935
10608SOL    HW132723   5.913   1.980   5.030
10608SOL    HW232724   5.791   2.023   4.930
10609SOL     OW32725   3.373   5.599   1.477
10609SOL    HW132726   3.375   5.691   1.517
10609SOL    HW232727   3.417   5.601   1.387
10610SOL     OW32728   1.006   4.198   0.059
10610SOL    HW132729   0.972   4.290   0.076
10610SOL    HW232730   0.929   4.138   0.035
10611SOL     OW32731   5.610   3.042   0.073
10611SOL    HW132732   5.641   3.112   0.138
10611SOL    HW232733   5.524   3.003   0.105
10612SOL     OW32734   2.425   6.334   5.821
10612SOL    HW132735   2.416   6.425   5.780
10612SOL    HW232736   2.521   6.317   5.843
10613SOL     OW32737   0.139   6.814   6.095
10613SOL    HW132738   0.091   6.901   6.110
10613SOL    HW232739   0.073   6.745   6.065
10614SOL     OW32740   0.074   1.533   4.011
10614SOL    HW132741   0.019   1.450   4.017
10614SOL    HW232742   0.020   1.612   4.040
10615SOL     OW32743   4.136   5.755   5.430
10615SOL    HW132744   4.157   5.699   5.511
10615SOL    HW232745   4.163   5.850   5.448
10616SOL     OW32746   3.311   6.592   0.044
10616SOL    HW132747   3.402   6.550   0.039
10616SOL    HW232748   3.247   6.538   7.015
10617SOL     OW32749   1.994   2.294   0.690
10617SOL    HW132750   2.076   2.256   0.648
10617SOL    HW232751   1.928   2.317   0.618
10618SOL     OW32752   5.892   3.120   0.023
10618SOL    HW132753   5.796   3.108   0.045
10618SOL    HW232754   5.944   3.135   0.107
10619SOL     OW32755   0.436   3.875   2.263
10619SOL    HW132756   0.510   3.837   2.206
10619SOL    HW232757   0.433   3.826   2.350
10620SOL     OW32758   0.779   5.577   5.619
10620SOL    HW132759   0.762   5.483   5.592
10620SOL    HW232760   0.843   5.619   5.555
10621SOL     OW32761   1.242   6.011   0.271
10621SOL    HW132762   1.303   6.071   0.321
10621SOL    HW232763   1.194   6.062   0.200
10622SOL     OW32764   4.470   0.893   1.961
10622SOL    HW132765   4.504   0.987   1.967
10622SOL    HW232766   4.377   0.889   1.998
10623SOL     OW32767   5.640   2.833   4.192
10623SOL    HW132768   5.709   2.867   4.257
10623SOL    HW232769   5.671   2.747   4.153
10624SOL     OW32770   0.830   1.024   5.148
10624SOL    HW132771   0.803   1.116   5.177
10624SOL    HW232772   0.870   1.028   5.057
10625SOL     OW32773   0.414   4.211   6.751
10625SOL    HW132774   0.510   4.233   6.729
10625SOL    HW232775   0.383   4.136   6.692
10626SOL     OW32776   1.107   2.478   1.517
10626SOL    HW132777   1.124   2.540   1.440
10626SOL    HW232778   1.055   2.527   1.588
10627SOL     OW32779   5.880   6.060   2.996
10627SOL    HW132780   5.902   6.068   2.898
10627SOL    HW232781   5.834   5.973   3.012
10628SOL     OW32782   5.489   5.276   5.593
10628SOL    HW132783   5.514   5.359   5.544
10628SOL    HW232784   5.413   5.230   5.547
10629SOL     OW32785   2.535   4.536   5.380
10629SOL    HW132786   2.476   4.615   5.364
10629SOL    HW232787   2.487   4.452   5.354
10630SOL     OW32788   6.402   0.593   3.470
10630SOL    HW132789   6.316   0.586   3.521
10630SOL    HW232790   6.411   0.685   3.432
10631SOL     OW32791   1.113   6.080   4.600
10631SOL    HW132792   1.115   6.065   4.699
10631SOL    HW232793   1.193   6.038   4.558
10632SOL     OW32794   6.140   2.299   4.319
10632SOL    HW132795   6.115   2.370   4.384
10632SOL    HW232796   6.059   2.244   4.297
10633SOL     OW32797   2.615   4.137   1.020
10633SOL    HW132798   2.681   4.067   1.047
10633SOL    HW232799   2.523   4.107   1.045
10634SOL     OW32800   2.885   5.426   0.017
10634SOL    HW132801   2.866   5.510   0.067
10634SOL    HW232802   2.909   5.449   6.947
10635SOL     OW32803   2.896   0.899   1.102
10635SOL    HW132804   2.829   0.872   1.171
10635SOL    HW232805   2.852   0.904   1.012
10636SOL     OW32806   0.996   1.942   1.987
10636SOL    HW132807   0.935   2.018   2.009
10636SOL    HW232808   1.076   1.976   1.939
10637SOL     OW32809   3.518   3.923   5.425
10637SOL    HW132810   3.489   3.969   5.509
10637SOL    HW232811   3.598   3.970   5.387
10638SOL     OW32812   0.229   6.612   2.917
10638SOL    HW132813   0.195   6.597   3.010
10638SOL    HW232814   0.329   6.618   2.918
10639SOL     OW32815   0.703   1.788   3.839
10639SOL    HW132816   0.700   1.759   3.744
10639SOL    HW232817   0.777   1.855   3.851
10640SOL     OW32818   4.370   0.154   6.983
10640SOL    HW132819   4.431   0.079   6.955
10640SOL    HW232820   4.375   0.227   6.916
10641SOL     OW32821   4.470   1.746   0.048
10641SOL    HW132822   4.414   1.795   0.115
10641SOL    HW232823   4.412   1.715   6.996
10642SOL     OW32824   0.676   2.760   1.653
10642SOL    HW132825   0.739   2.816   1.599
10642SOL    HW232826   0.699   2.664   1.643
10643SOL     OW32827   2.601   4.034   6.143
10643SOL    HW132828   2.628   4.130   6.145
10643SOL    HW232829   2.679   3.977   6.168
10644SOL     OW32830   4.679   1.748   3.913
10644SOL    HW132831   4.585   1.732   3.942
10644SOL    HW232832   4.682   1.824   3.848
10645SOL     OW32833   0.780   1.225   4.158
10645SOL    HW132834   0.811   1.293   4.224
10645SOL    HW232835   0.852   1.157   4.144
10646SOL     OW32836   0.695   1.931   6.025
10646SOL    HW132837   0.753   1.855   6.054
10646SOL    HW232838   0.699   2.004   6.093
10647SOL     OW32839   5.676   5.309   6.536
10647SOL    HW132840   5.685   5.397   6.489
10647SOL    HW232841   5.619   5.248   6.480
10648SOL     OW32842   5.456   3.700   6.466
10648SOL    HW132843   5.364   3.736   6.482
10648SOL    HW232844   5.461   3.664   6.373
10649SOL     OW32845   0.016   4.347   4.373
10649SOL    HW132846   0.042   4.285   4.299
10649SOL    HW232847   0.060   4.436   4.358
10650SOL     OW32848   1.332   6.471   3.868
10650SOL    HW132849   1.376   6.425   3.791
10650SOL    HW232850   1.291   6.403   3.929
10651SOL     OW32851   4.300   6.760   5.536
10651SOL    HW132852   4.311   6.743   5.634
10651SOL    HW232853   4.217   6.714   5.503
10652SOL     OW32854   3.303   0.314   6.386
10652SOL    HW132855   3.364   0.343   6.459
10652SOL    HW232856   3.240   0.244   6.420
10653SOL     OW32857   5.157   4.339   4.683
10653SOL    HW132858   5.227   4.286   4.635
10653SOL    HW232859   5.071   4.333   4.633
10654SOL     OW32860   3.131   6.941   1.633
10654SOL    HW132861   3.210   6.885   1.655
10654SOL    HW232862   3.064   6.887   1.583
10655SOL     OW32863   3.034   5.300   2.234
10655SOL    HW132864   2.953   5.357   2.225
10655SOL    HW232865   3.110   5.341   2.182
10656SOL     OW32866   6.500   2.324   6.999
10656SOL    HW132867   6.462   2.415   6.980
10656SOL    HW232868   6.498   2.307   0.072
10657SOL     OW32869   6.100   6.591   0.765
10657SOL    HW132870   6.090   6.540   0.851
10657SOL    HW232871   6.197   6.604   0.746
10658SOL     OW32872   0.559   4.343   4.861
10658SOL    HW132873   0.491   4.280   4.823
10658SOL    HW232874   0.514   4.408   4.923
10659SOL     OW32875   6.119   6.955   0.952
10659SOL    HW132876   6.161   6.882   1.006
10659SOL    HW232877   6.181   0.009   0.948
10660SOL     OW32878   5.045   3.944   6.124
10660SOL    HW132879   4.966   3.939   6.062
10660SOL    HW232880   5.030   4.016   6.191
10661SOL     OW32881   7.012   6.759   2.730
10661SOL    HW132882   0.013   6.662   2.736
10661SOL    HW232883   0.009   6.804   2.817
10662SOL     OW32884   6.438   1.012   1.225
10662SOL    HW132885   6.406   0.922   1.196
10662SOL    HW232886   6.469   1.064   1.145
10663SOL     OW32887   1.233   0.716   1.358
10663SOL    HW132888   1.239   0.641   1.423
10663SOL    HW232889   1.306   0.782   1.376
10664SOL     OW32890   1.945   3.903   6.490
10664SOL    HW132891   1.942   3.865   6.397
10664SOL    HW232892   1.896   3.990   6.493
10665SOL     OW32893   1.353   1.189   0.008
10665SOL    HW132894   1.325   1.240   6.951
10665SOL    HW232895   1.350   1.091   7.013
10666SOL     OW32896   4.002   4.705   0.287
10666SOL    HW132897   4.072   4.756   0.236
10666SOL    HW232898   3.911   4.735   0.258
10667SOL     OW32899   3.897   2.004   5.868
10667SOL    HW132900   3.927   1.915   5.836
10667SOL    HW232901   3.840   1.992   5.950
10668SOL     OW32902   1.083   2.241   6.048
10668SOL    HW132903   1.061   2.146   6.070
10668SOL    HW232904   1.018   2.276   5.981
10669SOL     OW32905   0.639   0.086   1.037
10669SOL    HW132906   0.678   0.164   0.988
10669SOL    HW232907   0.560   0.117   1.090
10670SOL     OW32908   5.325   4.576   6.021
10670SOL    HW132909   5.301   4.495   6.074
10670SOL    HW232910   5.271   4.654   6.052
10671SOL     OW32911   2.143   3.492   2.775
10671SOL    HW132912   2.135   3.489   2.675
10671SOL    HW232913   2.118   3.402   2.812
10672SOL     OW32914   0.107   3.133   0.736
10672SOL    HW132915   0.153   3.098   0.817
10672SOL    HW232916   0.043   3.064   0.701
10673SOL     OW32917   2.876   2.659   5.596
10673SOL    HW132918   2.942   2.587   5.618
10673SOL    HW232919   2.855   2.711   5.679
10674SOL     OW32920   3.871   3.660   0.885
10674SOL    HW132921   3.881   3.690   0.790
10674SOL    HW232922   3.943   3.594   0.907
10675SOL     OW32923   0.333   0.467   5.457
10675SOL    HW132924   0.259   0.511   5.407
10675SOL    HW232925   0.419   0.515   5.438
10676SOL     OW32926   5.853   0.461   6.339
10676SOL    HW132927   5.847   0.523   6.416
10676SOL    HW232928   5.903   0.505   6.264
10677SOL     OW32929   0.670   0.501   2.325
10677SOL    HW132930   0.627   0.585   2.357
10677SOL    HW232931   0.599   0.435   2.300
10678SOL     OW32932   3.055   5.910   2.726
10678SOL    HW132933   3.119   5.834   2.708
10678SOL    HW232934   3.019   5.901   2.818
10679SOL     OW32935   5.807   5.315   4.798
10679SOL    HW132936   5.754   5.326   4.714
10679SOL    HW232937   5.824   5.404   4.839
10680SOL     OW32938   1.923   3.230   2.614
10680SOL    HW132939   1.856   3.303   2.601
10680SOL    HW232940   1.976   3.247   2.697
10681SOL     OW32941   6.420   4.212   6.700
10681SOL    HW132942   6.342   4.152   6.717
10681SOL    HW232943   6.501   4.176   6.748
10682SOL     OW32944   1.585   1.300   3.500
10682SOL    HW132945   1.678   1.333   3.516
10682SOL    HW232946   1.551   1.337   3.413
10683SOL     OW32947   2.251   2.295   4.154
10683SOL    HW132948   2.327   2.289   4.089
10683SOL    HW232949   2.169   2.325   4.106
10684SOL     OW32950   5.432   4.277   0.920
10684SOL    HW132951   5.381   4.283   1.006
10684SOL    HW232952   5.395   4.202   0.865
10685SOL     OW32953   0.676   3.808   3.488
10685SOL    HW132954   0.776   3.811   3.488
10685SOL    HW232955   0.643   3.821   3.582
10686SOL     OW32956   3.777   5.970   0.034
10686SOL    HW132957   3.763   5.929   0.124
10686SOL    HW232958   3.818   5.903   6.997
10687SOL     OW32959   6.737   5.192   2.122
10687SOL    HW132960   6.727   5.092   2.120
10687SOL    HW232961   6.831   5.215   2.148
10688SOL     OW32962   6.419   4.567   2.414
10688SOL    HW132963   6.478   4.519   2.351
10688SOL    HW232964   6.458   4.563   2.506
10689SOL     OW32965   6.896   0.060   2.748
10689SOL    HW132966   6.890   0.153   2.783
10689SOL    HW232967   6.807   0.016   2.754
10690SOL     OW32968   4.618   5.476   2.982
10690SOL    HW132969   4.532   5.461   2.934
10690SOL    HW232970   4.610   5.555   3.042
10691SOL     OW32971   6.818   0.986   1.770
10691SOL    HW132972   6.880   1.039   1.828
10691SOL    HW232973   6.729   1.031   1.767
10692SOL     OW32974   3.037   5.971   3.803
10692SOL    HW132975   3.097   5.894   3.824
10692SOL    HW232976   3.067   6.052   3.853
10693SOL     OW32977   1.087   1.179   0.640
10693SOL    HW132978   1.173   1.128   0.634
10693SOL    HW232979   1.013   1.117   0.663
10694SOL     OW32980   3.590   6.302   0.912
10694SOL    HW132981   3.522   6.343   0.851
10694SOL    HW232982   3.554   6.302   1.006
10695SOL     OW32983   0.445   2.979   3.988
10695SOL    HW132984   0.392   3.007   4.068
10695SOL    HW232985   0.384   2.951   3.915
10696SOL     OW32986   6.957   6.162   1.505
10696SOL    HW132987   6.967   6.261   1.499
10696SOL    HW232988   0.006   6.117   1.454
10697SOL     OW32989   0.455   6.400   3.249
10697SOL    HW132990   0.361   6.418   3.218
10697SOL    HW232991   0.488   6.315   3.208
10698SOL     OW32992   2.749   6.907   3.174
10698SOL    HW132993   2.785   6.834   3.233
10698SOL    HW232994   2.702   6.974   3.230
10699SOL     OW32995   4.447   1.715   3.165
10699SOL    HW132996   4.351   1.695   3.183
10699SOL    HW232997   4.456   1.760   3.076
10700SOL     OW32998   0.582   6.778   0.726
10700SOL    HW132999   0.676   6.749   0.705
10700SOL    HW233000   0.518   6.705   0.705
10701SOL     OW33001   4.196   5.724   6.818
10701SOL    HW133002   4.274   5.714   6.756
10701SOL    HW233003   4.217   5.678   6.905
10702SOL     OW33004   5.606   2.425   0.512
10702SOL    HW133005   5.530   2.365   0.483
10702SOL    HW233006   5.679   2.369   0.550
10703SOL     OW33007   3.720   4.113   3.571
10703SOL    HW133008   3.787   4.140   3.502
10703SOL    HW233009   3.644   4.064   3.527
10704SOL     OW33010   5.013   6.659   1.800
10704SOL    HW133011   5.078   6.661   1.876
10704SOL    HW233012   4.920   6.653   1.835
10705SOL     OW33013   1.395   4.205   6.588
10705SOL    HW133014   1.367   4.108   6.591
10705SOL    HW233015   1.398   4.235   6.493
10706SOL     OW33016   4.272   0.571   2.098
10706SOL    HW133017   4.255   0.487   2.151
10706SOL    HW233018   4.348   0.555   2.035
10707SOL     OW33019   6.993   0.102   5.872
10707SOL    HW133020   6.908   0.086   5.921
10707SOL    HW233021   0.032   0.026   5.889
10708SOL     OW33022   4.945   1.133   1.451
10708SOL    HW133023   5.026   1.184   1.481
10708SOL    HW233024   4.973   1.056   1.393
10709SOL     OW33025   6.684   0.354   5.016
10709SOL    HW133026   6.737   0.297   5.079
10709SOL    HW233027   6.735   0.438   4.996
10710SOL     OW33028   6.319   5.681   3.890
10710SOL    HW133029   6.319   5.596   3.943
10710SOL    HW233030   6.282   5.664   3.799
10711SOL     OW33031   1.841   0.365   3.960
10711SOL    HW133032   1.832   0.361   3.860
10711SOL    HW233033   1.770   0.425   3.997
10712SOL     OW33034   3.652   1.338   5.139
10712SOL    HW133035   3.697   1.331   5.050
10712SOL    HW233036   3.654   1.433   5.169
10713SOL     OW33037   2.302   5.826   1.873
10713SOL    HW133038   2.234   5.794   1.939
10713SOL    HW233039   2.346   5.909   1.907
10714SOL     OW33040   0.216   4.668   5.182
10714SOL    HW133041   0.270   4.657   5.099
10714SOL    HW233042   0.158   4.749   5.174
10715SOL     OW33043   4.664   2.327   4.274
10715SOL    HW133044   4.760   2.317   4.248
10715SOL    HW233045   4.606   2.279   4.208
10716SOL     OW33046   6.707   1.176   4.640
10716SOL    HW133047   6.739   1.088   4.605
10716SOL    HW233048   6.621   1.200   4.595
10717SOL     OW33049   6.422   1.006   2.134
10717SOL    HW133050   6.466   0.921   2.106
10717SOL    HW233051   6.454   1.081   2.077
10718SOL     OW33052   6.611   5.108   6.853
10718SOL    HW133053   6.559   5.118   6.937
10718SOL    HW233054   6.686   5.043   6.868
10719SOL     OW33055   5.397   1.103   1.707
10719SOL    HW133056   5.431   1.072   1.796
10719SOL    HW233057   5.297   1.109   1.711
10720SOL     OW33058   6.555   3.735   6.390
10720SOL    HW133059   6.563   3.654   6.449
10720SOL    HW233060   6.646   3.772   6.372
10721SOL     OW33061   5.842   2.447   4.617
10721SOL    HW133062   5.796   2.480   4.699
10721SOL    HW233063   5.785   2.378   4.572
10722SOL     OW33064   6.432   3.793   0.487
10722SOL    HW133065   6.373   3.857   0.536
10722SOL    HW233066   6.381   3.709   0.468
10723SOL     OW33067   5.644   4.377   6.528
10723SOL    HW133068   5.638   4.475   6.509
10723SOL    HW233069   5.740   4.350   6.534
10724SOL     OW33070   4.227   6.432   6.068
10724SOL    HW133071   4.310   6.397   6.111
10724SOL    HW233072   4.178   6.490   6.132
10725SOL     OW33073   0.617   6.166   4.318
10725SOL    HW133074   0.660   6.207   4.399
10725SOL    HW233075   0.670   6.086   4.289
10726SOL     OW33076   5.865   0.413   4.841
10726SOL    HW133077   5.782   0.466   4.823
10726SOL    HW233078   5.940   0.448   4.785
10727SOL     OW33079   2.174   5.351   5.276
10727SOL    HW133080   2.222   5.436   5.297
10727SOL    HW233081   2.102   5.336   5.344
10728SOL     OW33082   4.842   6.868   3.276
10728SOL    HW133083   4.908   6.930   3.317
10728SOL    HW233084   4.750   6.905   3.287
10729SOL     OW33085   6.095   2.488   2.973
10729SOL    HW133086   6.001   2.520   2.959
10729SOL    HW233087   6.097   2.418   3.044
10730SOL     OW33088   2.438   6.451   2.100
10730SOL    HW133089   2.377   6.383   2.140
10730SOL    HW233090   2.455   6.427   2.004
10731SOL     OW33091   3.334   5.917   0.256
10731SOL    HW133092   3.434   5.915   0.253
10731SOL    HW233093   3.301   6.003   0.217
10732SOL     OW33094   5.213   6.114   2.405
10732SOL    HW133095   5.251   6.024   2.381
10732SOL    HW233096   5.191   6.116   2.502
10733SOL     OW33097   6.095   1.513   6.320
10733SOL    HW133098   6.097   1.522   6.221
10733SOL    HW233099   6.028   1.444   6.346
10734SOL     OW33100   1.455   0.424   6.599
10734SOL    HW133101   1.470   0.508   6.547
10734SOL    HW233102   1.536   0.405   6.655
10735SOL     OW33103   0.870   5.050   2.123
10735SOL    HW133104   0.841   4.975   2.182
10735SOL    HW233105   0.957   5.026   2.079
10736SOL     OW33106   0.182   1.146   3.746
10736SOL    HW133107   0.175   1.166   3.648
10736SOL    HW233108   0.215   1.227   3.794
10737SOL     OW33109   0.427   1.872   1.287
10737SOL    HW133110   0.478   1.834   1.210
10737SOL    HW233111   0.350   1.812   1.308
10738SOL     OW33112   3.032   0.727   2.823
10738SOL    HW133113   2.938   0.694   2.826
10738SOL    HW233114   3.033   0.821   2.789
10739SOL     OW33115   5.882   1.777   2.267
10739SOL    HW133116   5.804   1.737   2.219
10739SOL    HW233117   5.946   1.817   2.201
10740SOL     OW33118   1.747   6.843   6.250
10740SOL    HW133119   1.767   6.898   6.168
10740SOL    HW233120   1.818   6.775   6.262
10741SOL     OW33121   1.611   2.994   3.023
10741SOL    HW133122   1.529   2.983   2.967
10741SOL    HW233123   1.658   2.906   3.032
10742SOL     OW33124   6.257   5.488   2.490
10742SOL    HW133125   6.336   5.528   2.443
10742SOL    HW233126   6.243   5.535   2.577
10743SOL     OW33127   3.263   1.462   5.496
10743SOL    HW133128   3.332   1.410   5.446
10743SOL    HW233129   3.300   1.550   5.523
10744SOL     OW33130   3.079   0.421   1.261
10744SOL    HW133131   3.156   0.358   1.264
10744SOL    HW233132   3.040   0.431   1.353
10745SOL     OW33133   2.067   4.418   1.090
10745SOL    HW133134   2.154   4.388   1.128
10745SOL    HW233135   2.030   4.346   1.031
10746SOL     OW33136   2.374   6.380   0.369
10746SOL    HW133137   2.454   6.409   0.318
10746SOL    HW233138   2.397   6.373   0.466
10747SOL     OW33139   6.330   2.791   4.251
10747SOL    HW133140   6.230   2.797   4.254
10747SOL    HW233141   6.369   2.835   4.332
10748SOL     OW33142   4.269   5.148   1.055
10748SOL    HW133143   4.327   5.191   1.125
10748SOL    HW233144   4.220   5.218   1.004
10749SOL     OW33145   6.346   4.596   2.704
10749SOL    HW133146   6.257   4.639   2.723
10749SOL    HW233147   6.387   4.567   2.791
10750SOL     OW33148   4.918   3.195   3.903
10750SOL    HW133149   5.012   3.180   3.932
10750SOL    HW233150   4.855   3.164   3.974
10751SOL     OW33151   1.460   3.514   5.060
10751SOL    HW133152   1.477   3.423   5.022
10751SOL    HW233153   1.449   3.580   4.985
10752SOL     OW33154   6.244   5.315   6.880
10752SOL    HW133155   6.241   5.390   6.814
10752SOL    HW233156   6.181   5.334   6.955
10753SOL     OW33157   5.109   6.521   4.134
10753SOL    HW133158   5.033   6.540   4.072
10753SOL    HW233159   5.150   6.433   4.111
10754SOL     OW33160   0.703   3.316   1.826
10754SOL    HW133161   0.785   3.355   1.869
10754SOL    HW233162   0.642   3.282   1.897
10755SOL     OW33163   6.898   2.765   1.394
10755SOL    HW133164   6.967   2.693   1.381
10755SOL    HW233165   6.807   2.728   1.378
10756SOL     OW33166   6.514   2.141   0.535
10756SOL    HW133167   6.611   2.119   0.528
10756SOL    HW233168   6.476   2.102   0.619
10757SOL     OW33169   6.712   3.874   0.446
10757SOL    HW133170   6.641   3.816   0.486
10757SOL    HW233171   6.727   3.849   0.350
10758SOL     OW33172   0.770   6.090   6.429
10758SOL    HW133173   0.779   6.170   6.370
10758SOL    HW233174   0.855   6.037   6.427
10759SOL     OW33175   1.660   1.915   6.298
10759SOL    HW133176   1.607   1.991   6.336
10759SOL    HW233177   1.756   1.942   6.290
10760SOL     OW33178   0.800   6.345   0.319
10760SOL    HW133179   0.874   6.381   0.375
10760SOL    HW233180   0.810   6.246   0.308
10761SOL     OW33181   0.742   2.094   6.277
10761SOL    HW133182   0.786   2.179   6.306
10761SOL    HW233183   0.805   2.018   6.287
10762SOL     OW33184   4.056   0.661   5.759
10762SOL    HW133185   3.996   0.605   5.702
10762SOL    HW233186   4.015   0.674   5.849
10763SOL     OW33187   5.972   0.534   3.389
10763SOL    HW133188   5.897   0.468   3.393
10763SOL    HW233189   6.059   0.487   3.406
10764SOL     OW33190   4.791   1.089   4.916
10764SOL    HW133191   4.839   1.177   4.916
10764SOL    HW233192   4.784   1.055   5.010
10765SOL     OW33193   6.249   2.257   2.517
10765SOL    HW133194   6.164   2.238   2.468
10765SOL    HW233195   6.229   2.282   2.611
10766SOL     OW33196   1.113   4.912   0.629
10766SOL    HW133197   1.082   4.939   0.720
10766SOL    HW233198   1.165   4.827   0.636
10767SOL     OW33199   1.328   6.035   0.864
10767SOL    HW133200   1.343   6.100   0.938
10767SOL    HW233201   1.264   5.964   0.894
10768SOL     OW33202   5.714   5.316   0.168
10768SOL    HW133203   5.758   5.281   0.085
10768SOL    HW233204   5.667   5.241   0.214
10769SOL     OW33205   2.777   4.183   5.414
10769SOL    HW133206   2.824   4.103   5.377
10769SOL    HW233207   2.685   4.190   5.375
10770SOL     OW33208   5.595   6.799   4.673
10770SOL    HW133209   5.546   6.785   4.588
10770SOL    HW233210   5.667   6.729   4.682
10771SOL     OW33211   4.841   0.222   5.718
10771SOL    HW133212   4.797   0.308   5.746
10771SOL    HW233213   4.926   0.243   5.670
10772SOL     OW33214   5.237   5.912   3.688
10772SOL    HW133215   5.188   5.842   3.741
10772SOL    HW233216   5.293   5.867   3.618
10773SOL     OW33217   0.156   3.923   0.643
10773SOL    HW133218   0.059   3.932   0.621
10773SOL    HW233219   0.210   3.933   0.560
10774SOL     OW33220   1.521   2.404   0.774
10774SOL    HW133221   1.423   2.426   0.771
10774SOL    HW233222   1.545   2.347   0.696
10775SOL     OW33223   2.146   4.482   0.784
10775SOL    HW133224   2.112   4.525   0.868
10775SOL    HW233225   2.108   4.530   0.705
10776SOL     OW33226   0.143   0.739   2.728
10776SOL    HW133227   0.066   0.803   2.718
10776SOL    HW233228   0.169   0.704   2.639
10777SOL     OW33229   2.892   0.697   3.674
10777SOL    HW133230   2.818   0.713   3.740
10777SOL    HW233231   2.889   0.765   3.602
10778SOL     OW33232   6.485   6.509   4.233
10778SOL    HW133233   6.515   6.448   4.306
10778SOL    HW233234   6.471   6.601   4.269
10779SOL     OW33235   5.574   5.017   3.348
10779SOL    HW133236   5.513   5.061   3.414
10779SOL    HW233237   5.669   5.026   3.379
10780SOL     OW33238   0.648   6.006   4.596
10780SOL    HW133239   0.567   5.953   4.620
10780SOL    HW233240   0.719   5.992   4.665
10781SOL     OW33241   5.888   2.404   4.958
10781SOL    HW133242   5.850   2.364   5.041
10781SOL    HW233243   5.947   2.338   4.913
10782SOL     OW33244   0.661   3.304   5.138
10782SOL    HW133245   0.706   3.232   5.085
10782SOL    HW233246   0.565   3.281   5.149
10783SOL     OW33247   1.239   2.586   2.571
10783SOL    HW133248   1.250   2.632   2.483
10783SOL    HW233249   1.151   2.539   2.573
10784SOL     OW33250   2.892   6.014   2.553
10784SOL    HW133251   2.805   6.014   2.602
10784SOL    HW233252   2.963   5.976   2.611
10785SOL     OW33253   1.717   5.247   1.552
10785SOL    HW133254   1.729   5.154   1.518
10785SOL    HW233255   1.780   5.309   1.504
10786SOL     OW33256   4.449   1.863   2.131
10786SOL    HW133257   4.404   1.867   2.220
10786SOL    HW233258   4.387   1.824   2.064
10787SOL     OW33259   3.139   1.284   3.765
10787SOL    HW133260   3.167   1.263   3.671
10787SOL    HW233261   3.220   1.306   3.819
10788SOL     OW33262   0.394   4.336   0.229
10788SOL    HW133263   0.439   4.248   0.244
10788SOL    HW233264   0.384   4.353   0.131
10789SOL     OW33265   6.566   1.277   6.911
10789SOL    HW133266   6.571   1.368   6.869
10789SOL    HW233267   6.546   1.287   7.008
10790SOL     OW33268   0.559   2.434   4.846
10790SOL    HW133269   0.651   2.412   4.880
10790SOL    HW233270   0.563   2.517   4.791
10791SOL     OW33271   1.837   1.541   2.555
10791SOL    HW133272   1.826   1.488   2.639
10791SOL    HW233273   1.821   1.481   2.476
10792SOL     OW33274   3.599   2.388   1.243
10792SOL    HW133275   3.506   2.393   1.208
10792SOL    HW233276   3.613   2.461   1.310
10793SOL     OW33277   5.268   1.622   4.699
10793SOL    HW133278   5.295   1.527   4.713
10793SOL    HW233279   5.283   1.674   4.782
10794SOL     OW33280   4.482   2.916   1.628
10794SOL    HW133281   4.530   2.937   1.713
10794SOL    HW233282   4.425   2.993   1.601
10795SOL     OW33283   7.002   3.955   2.940
10795SOL    HW133284   0.049   3.953   2.870
10795SOL    HW233285   6.922   4.003   2.905
10796SOL     OW33286   6.539   6.572   6.960
10796SOL    HW133287   6.584   6.636   6.899
10796SOL    HW233288   6.544   6.480   6.922
10797SOL     OW33289   4.127   2.876   0.428
10797SOL    HW133290   4.197   2.805   0.414
10797SOL    HW233291   4.036   2.836   0.415
10798SOL     OW33292   3.079   6.809   6.402
10798SOL    HW133293   3.037   6.820   6.312
10798SOL    HW233294   3.171   6.769   6.391
10799SOL     OW33295   3.060   1.402   2.476
10799SOL    HW133296   3.030   1.363   2.389
10799SOL    HW233297   3.043   1.500   2.477
10800SOL     OW33298   1.213   0.096   6.841
10800SOL    HW133299   1.142   0.033   6.872
10800SOL    HW233300   1.208   0.108   6.742
10801SOL     OW33301   1.704   5.783   6.083
10801SOL    HW133302   1.693   5.716   6.010
10801SOL    HW233303   1.726   5.872   6.043
10802SOL     OW33304   1.400   3.986   3.971
10802SOL    HW133305   1.429   3.894   3.944
10802SOL    HW233306   1.322   4.014   3.915
10803SOL     OW33307   6.221   4.834   5.384
10803SOL    HW133308   6.233   4.809   5.480
10803SOL    HW233309   6.179   4.758   5.335
10804SOL     OW33310   6.027   4.399   1.693
10804SOL    HW133311   6.015   4.302   1.670
10804SOL    HW233312   6.074   4.445   1.618
10805SOL     OW33313   4.050   6.522   0.716
10805SOL    HW133314   3.979   6.495   0.780
10805SOL    HW233315   4.053   6.458   0.639
10806SOL     OW33316   5.630   3.817   0.840
10806SOL    HW133317   5.587   3.728   0.824
10806SOL    HW233318   5.590   3.860   0.921
10807SOL     OW33319   3.443   5.743   3.100
10807SOL    HW133320   3.434   5.823   3.040
10807SOL    HW233321   3.535   5.706   3.094
10808SOL     OW33322   0.250   2.912   6.158
10808SOL    HW133323   0.281   2.940   6.249
10808SOL    HW233324   0.300   2.964   6.089
10809SOL     OW33325   2.995   0.650   4.051
10809SOL    HW133326   2.988   0.748   4.069
10809SOL    HW233327   2.905   0.615   4.025
10810SOL     OW33328   6.955   1.741   5.239
10810SOL    HW133329   6.885   1.810   5.222
10810SOL    HW233330   6.996   1.712   5.152
10811SOL     OW33331   4.108   5.337   5.540
10811SOL    HW133332   4.200   5.318   5.573
10811SOL    HW233333   4.111   5.352   5.441
10812SOL     OW33334   6.491   2.896   2.637
10812SOL    HW133335   6.484   2.848   2.725
10812SOL    HW233336   6.474   2.993   2.651
10813SOL     OW33337   2.907   6.142   2.149
10813SOL    HW133338   2.951   6.209   2.089
10813SOL    HW233339   2.956   6.137   2.235
10814SOL     OW33340   1.721   0.054   5.042
10814SOL    HW133341   1.706   0.073   5.139
10814SOL    HW233342   1.748   6.984   5.030
10815SOL     OW33343   5.305   4.066   2.968
10815SOL    HW133344   5.342   3.992   2.911
10815SOL    HW233345   5.324   4.154   2.925
10816SOL     OW33346   1.597   0.949   2.330
10816SOL    HW133347   1.602   1.033   2.385
10816SOL    HW233348   1.557   0.876   2.385
10817SOL     OW33349   5.012   0.604   2.760
10817SOL    HW133350   4.955   0.645   2.832
10817SOL    HW233351   5.104   0.587   2.796
10818SOL     OW33352   5.617   2.799   6.608
10818SOL    HW133353   5.598   2.851   6.691
10818SOL    HW233354   5.679   2.723   6.629
10819SOL     OW33355   0.578   4.686   6.387
10819SOL    HW133356   0.543   4.631   6.463
10819SOL    HW233357   0.514   4.760   6.367
10820SOL     OW33358   6.978   6.525   3.574
10820SOL    HW133359   0.043   6.535   3.530
10820SOL    HW233360   6.955   6.428   3.581
10821SOL     OW33361   6.733   0.482   1.945
10821SOL    HW133362   6.744   0.413   2.017
10821SOL    HW233363   6.739   0.438   1.856
10822SOL     OW33364   1.306   3.859   2.612
10822SOL    HW133365   1.257   3.774   2.597
10822SOL    HW233366   1.276   3.927   2.545
10823SOL     OW33367   2.195   5.987   1.064
10823SOL    HW133368   2.230   6.059   1.003
10823SOL    HW233369   2.255   5.907   1.058
10824SOL     OW33370   4.940   0.928   2.655
10824SOL    HW133371   5.033   0.901   2.680
10824SOL    HW233372   4.944   1.005   2.591
10825SOL     OW33373   3.361   1.169   0.959
10825SOL    HW133374   3.448   1.186   0.914
10825SOL    HW233375   3.325   1.080   0.931
10826SOL     OW33376   0.241   3.790   2.089
10826SOL    HW133377   0.286   3.746   2.011
10826SOL    HW233378   0.311   3.828   2.150
10827SOL     OW33379   0.004   3.405   4.414
10827SOL    HW133380   7.023   3.393   4.315
10827SOL    HW233381   6.974   3.334   4.459
10828SOL     OW33382   1.125   6.082   0.039
10828SOL    HW133383   1.110   5.988   0.009
10828SOL    HW233384   1.042   6.135   0.027
10829SOL     OW33385   3.046   4.032   2.015
10829SOL    HW133386   2.997   3.948   2.040
10829SOL    HW233387   3.030   4.102   2.086
10830SOL     OW33388   5.366   3.142   4.644
10830SOL    HW133389   5.288   3.107   4.592
10830SOL    HW233390   5.333   3.205   4.714
10831SOL     OW33391   5.548   1.059   2.625
10831SOL    HW133392   5.609   1.046   2.547
10831SOL    HW233393   5.546   0.976   2.680
10832SOL     OW33394   0.940   2.086   0.321
10832SOL    HW133395   0.991   2.104   0.237
10832SOL    HW233396   0.968   2.152   0.391
10833SOL     OW33397   2.559   0.878   4.367
10833SOL    HW133398   2.645   0.854   4.322
10833SOL    HW233399   2.576   0.898   4.464
10834SOL     OW33400   0.742   1.795   5.743
10834SOL    HW133401   0.835   1.769   5.719
10834SOL    HW233402   0.737   1.815   5.841
10835SOL     OW33403   5.948   2.059   2.191
10835SOL    HW133404   5.863   2.053   2.245
10835SOL    HW233405   5.944   2.140   2.133
10836SOL     OW33406   0.916   1.870   6.317
10836SOL    HW133407   0.941   1.860   6.221
10836SOL    HW233408   0.886   1.782   6.353
10837SOL     OW33409   0.140   4.528   0.347
10837SOL    HW133410   0.107   4.507   0.439
10837SOL    HW233411   0.180   4.447   0.306
10838SOL     OW33412   5.494   6.748   6.718
10838SOL    HW133413   5.434   6.797   6.782
10838SOL    HW233414   5.566   6.701   6.769
10839SOL     OW33415   2.260   1.745   6.912
10839SOL    HW133416   2.346   1.795   6.906
10839SOL    HW233417   2.270   1.671   6.979
10840SOL     OW33418   3.619   5.316   1.565
10840SOL    HW133419   3.576   5.384   1.624
10840SOL    HW233420   3.605   5.341   1.469
10841SOL     OW33421   3.965   5.829   6.015
10841SOL    HW133422   4.015   5.823   5.929
10841SOL    HW233423   3.890   5.763   6.014
10842SOL     OW33424   6.503   3.120   0.857
10842SOL    HW133425   6.404   3.124   0.851
10842SOL    HW233426   6.543   3.189   0.797
10843SOL     OW33427   0.675   1.709   2.146
10843SOL    HW133428   0.754   1.647   2.145
10843SOL    HW233429   0.688   1.778   2.217
10844SOL     OW33430   5.634   6.847   3.025
10844SOL    HW133431   5.680   6.933   3.001
10844SOL    HW233432   5.636   6.835   3.124
10845SOL     OW33433   1.196   1.097   1.354
10845SOL    HW133434   1.097   1.096   1.339
10845SOL    HW233435   1.216   1.084   1.451
10846SOL     OW33436   4.120   2.238   1.029
10846SOL    HW133437   4.147   2.249   0.933
10846SOL    HW233438   4.027   2.274   1.042
10847SOL     OW33439   3.508   2.358   5.957
10847SOL    HW133440   3.497   2.438   6.016
10847SOL    HW233441   3.418   2.326   5.926
10848SOL     OW33442   1.932   0.551   0.432
10848SOL    HW133443   1.921   0.532   0.335
10848SOL    HW233444   1.955   0.647   0.446
10849SOL     OW33445   2.881   5.049   4.724
10849SOL    HW133446   2.906   5.141   4.752
10849SOL    HW233447   2.917   4.983   4.790
10850SOL     OW33448   5.611   0.029   0.101
10850SOL    HW133449   5.670   6.998   0.043
10850SOL    HW233450   5.605   7.013   0.191
10851SOL     OW33451   2.979   2.565   6.448
10851SOL    HW133452   2.913   2.566   6.373
10851SOL    HW233453   2.940   2.615   6.526
10852SOL     OW33454   0.265   0.849   6.790
10852SOL    HW133455   0.258   0.929   6.850
10852SOL    HW233456   0.204   0.860   6.712
10853SOL     OW33457   3.038   1.513   4.304
10853SOL    HW133458   3.053   1.415   4.295
10853SOL    HW233459   2.953   1.529   4.354
10854SOL     OW33460   6.859   6.864   6.910
10854SOL    HW133461   6.772   6.866   6.860
10854SOL    HW233462   6.841   6.876   7.008
10855SOL     OW33463   1.750   6.340   2.122
10855SOL    HW133464   1.699   6.303   2.200
10855SOL    HW233465   1.846   6.311   2.129
10856SOL     OW33466   5.918   6.691   6.867
10856SOL    HW133467   5.977   6.714   6.945
10856SOL    HW233468   5.950   6.605   6.826
10857SOL     OW33469   6.429   1.426   3.476
10857SOL    HW133470   6.472   1.356   3.534
10857SOL    HW233471   6.333   1.402   3.460
10858SOL     OW33472   1.221   3.074   0.287
10858SOL    HW133473   1.271   3.134   0.349
10858SOL    HW233474   1.270   3.067   0.200
10859SOL     OW33475   0.812   4.773   3.334
10859SOL    HW133476   0.835   4.773   3.237
10859SOL    HW233477   0.770   4.860   3.358
10860SOL     OW33478   6.481   1.638   0.151
10860SOL    HW133479   6.470   1.539   0.147
10860SOL    HW233480   6.510   1.672   0.062
10861SOL     OW33481   2.906   2.710   1.654
10861SOL    HW133482   2.997   2.720   1.692
10861SOL    HW233483   2.908   2.729   1.556
10862SOL     OW33484   3.246   2.303   5.879
10862SOL    HW133485   3.206   2.383   5.835
10862SOL    HW233486   3.225   2.222   5.825
10863SOL     OW33487   2.509   0.864   3.196
10863SOL    HW133488   2.587   0.907   3.152
10863SOL    HW233489   2.541   0.806   3.271
10864SOL     OW33490   2.496   4.415   1.793
10864SOL    HW133491   2.482   4.480   1.868
10864SOL    HW233492   2.591   4.420   1.762
10865SOL     OW33493   5.120   2.930   3.237
10865SOL    HW133494   5.175   2.940   3.319
10865SOL    HW233495   5.103   3.020   3.196
10866SOL     OW33496   6.793   3.986   2.048
10866SOL    HW133497   6.807   3.887   2.057
10866SOL    HW233498   6.882   4.032   2.052
10867SOL     OW33499   3.200   2.271   0.369
10867SOL    HW133500   3.270   2.267   0.440
10867SOL    HW233501   3.244   2.285   0.280
10868SOL     OW33502   1.041   2.335   3.636
10868SOL    HW133503   1.036   2.434   3.621
10868SOL    HW233504   1.133   2.302   3.615
10869NA      NA33505   0.288   1.840   5.881
10870NA      NA33506   4.417   4.596   5.244
10871NA      NA33507   1.558   5.413   2.653
10872NA      NA33508   5.134   4.242   3.352
10873NA      NA33509   4.340   2.315   5.167
10874NA      NA33510   2.473   5.091   0.919
10875NA      NA33511   1.100   5.301   0.296
10876NA      NA33512   3.528   3.957   1.164
10877NA      NA33513   4.327   4.755   0.967
10878NA      NA33514   3.340   0.987   6.605
10879NA      NA33515   5.743   5.829   1.862
10880NA      NA33516   1.353   6.815   5.243
10881NA      NA33517   4.533   5.179   2.020
10882NA      NA33518   3.096   3.166   6.855
   7.02459   7.02459   7.02459
