Generated by trjconv : CNT in water t= 396.00000
33518
    1C        C    1   2.846   2.769   4.750
    1C        C    2   2.905   2.727   4.871
    1C        C    3   2.849   2.779   4.988
    1C        C    4   2.851   2.776   4.262
    1C        C    5   2.902   2.730   4.385
    1C        C    6   2.845   2.770   4.508
    1C        C    7   3.015   2.640   4.626
    1C        C    8   2.900   2.721   4.629
    1C        C    9   3.078   2.606   4.748
    1C        C   10   3.013   2.636   4.870
    1C        C   11   3.185   2.499   4.979
    1C        C   12   3.061   2.563   4.980
    1C        C   13   2.846   2.765   3.775
    1C        C   14   2.902   2.722   3.897
    1C        C   15   2.853   2.778   4.018
    1C        C   16   3.023   2.652   4.140
    1C        C   17   2.908   2.734   4.140
    1C        C   18   3.085   2.621   4.263
    1C        C   19   3.020   2.652   4.384
    1C        C   20   3.214   2.562   4.506
    1C        C   21   3.080   2.607   4.504
    1C        C   22   3.283   2.542   4.627
    1C        C   23   3.211   2.556   4.748
    1C        C   24   3.415   2.486   4.867
    1C        C   25   3.273   2.508   4.867
    1C        C   26   3.493   2.479   4.984
    1C        C   27   2.850   2.767   3.285
    1C        C   28   2.905   2.725   3.408
    1C        C   29   2.851   2.770   3.531
    1C        C   30   3.022   2.645   3.651
    1C        C   31   2.905   2.724   3.653
    1C        C   32   3.082   2.608   3.773
    1C        C   33   3.018   2.642   3.895
    1C        C   34   3.213   2.559   4.017
    1C        C   35   3.084   2.616   4.017
    1C        C   36   3.280   2.538   4.139
    1C        C   37   3.214   2.562   4.261
    1C        C   38   3.419   2.514   4.383
    1C        C   39   3.280   2.538   4.383
    1C        C   40   3.489   2.500   4.505
    1C        C   41   3.420   2.511   4.627
    1C        C   42   3.633   2.487   4.748
    1C        C   43   3.491   2.487   4.747
    1C        C   44   3.707   2.490   4.868
    1C        C   45   3.632   2.480   4.986
    1C        C   46   2.840   2.756   2.796
    1C        C   47   2.893   2.711   2.919
    1C        C   48   2.840   2.761   3.040
    1C        C   49   3.020   2.646   3.163
    1C        C   50   2.900   2.722   3.161
    1C        C   51   3.085   2.613   3.283
    1C        C   52   3.022   2.647   3.406
    1C        C   53   3.211   2.553   3.528
    1C        C   54   3.082   2.609   3.528
    1C        C   55   3.280   2.533   3.650
    1C        C   56   3.215   2.558   3.773
    1C        C   57   3.421   2.512   3.896
    1C        C   58   3.282   2.538   3.895
    1C        C   59   3.491   2.508   4.019
    1C        C   60   3.420   2.516   4.140
    1C        C   61   3.632   2.504   4.262
    1C        C   62   3.491   2.506   4.262
    1C        C   63   3.703   2.509   4.385
    1C        C   64   3.631   2.503   4.506
    1C        C   65   3.838   2.551   4.625
    1C        C   66   3.703   2.511   4.627
    1C        C   67   3.909   2.563   4.747
    1C        C   68   3.844   2.523   4.866
    1C        C   69   4.054   2.588   4.980
    1C        C   70   3.925   2.533   4.980
    1C        C   71   2.822   2.733   2.310
    1C        C   72   2.882   2.693   2.431
    1C        C   73   2.833   2.749   2.551
    1C        C   74   3.012   2.634   2.675
    1C        C   75   2.894   2.711   2.673
    1C        C   76   3.077   2.603   2.797
    1C        C   77   3.013   2.636   2.918
    1C        C   78   3.209   2.553   3.039
    1C        C   79   3.078   2.607   3.040
    1C        C   80   3.279   2.533   3.160
    1C        C   81   3.215   2.557   3.283
    1C        C   82   3.420   2.506   3.405
    1C        C   83   3.282   2.537   3.406
    1C        C   84   3.489   2.497   3.528
    1C        C   85   3.419   2.508   3.650
    1C        C   86   3.630   2.505   3.772
    1C        C   87   3.489   2.503   3.773
    1C        C   88   3.698   2.514   3.895
    1C        C   89   3.633   2.505   4.020
    1C        C   90   3.841   2.550   4.140
    1C        C   91   3.705   2.513   4.141
    1C        C   92   3.909   2.573   4.261
    1C        C   93   3.839   2.544   4.380
    1C        C   94   4.030   2.638   4.503
    1C        C   95   3.905   2.572   4.502
    1C        C   96   4.091   2.676   4.624
    1C        C   97   4.035   2.628   4.745
    1C        C   98   4.189   2.772   4.864
    1C        C   99   4.106   2.656   4.865
    1C        C  100   4.217   2.845   4.980
    1C        C  101   2.831   2.737   2.072
    1C        C  102   2.992   2.594   2.193
    1C        C  103   2.875   2.678   2.190
    1C        C  104   3.064   2.575   2.314
    1C        C  105   3.005   2.622   2.433
    1C        C  106   3.201   2.536   2.553
    1C        C  107   3.071   2.592   2.554
    1C        C  108   3.274   2.523   2.673
    1C        C  109   3.206   2.546   2.795
    1C        C  110   3.416   2.507   2.914
    1C        C  111   3.276   2.531   2.917
    1C        C  112   3.485   2.495   3.037
    1C        C  113   3.417   2.503   3.160
    1C        C  114   3.630   2.501   3.282
    1C        C  115   3.489   2.495   3.282
    1C        C  116   3.698   2.510   3.405
    1C        C  117   3.630   2.501   3.529
    1C        C  118   3.838   2.547   3.648
    1C        C  119   3.701   2.513   3.650
    1C        C  120   3.903   2.573   3.772
    1C        C  121   3.835   2.551   3.894
    1C        C  122   4.031   2.632   4.015
    1C        C  123   3.904   2.571   4.015
    1C        C  124   4.093   2.672   4.136
    1C        C  125   4.034   2.639   4.261
    1C        C  126   4.201   2.768   4.379
    1C        C  127   4.096   2.674   4.383
    1C        C  128   4.245   2.824   4.501
    1C        C  129   4.196   2.770   4.622
    1C        C  130   4.332   2.935   4.744
    1C        C  131   4.245   2.823   4.743
    1C        C  132   4.364   3.002   4.864
    1C        C  133   4.287   2.965   4.975
    1C        C  134   3.170   2.469   2.083
    1C        C  135   3.038   2.514   2.084
    1C        C  136   3.259   2.481   2.191
    1C        C  137   3.196   2.520   2.311
    1C        C  138   3.406   2.482   2.430
    1C        C  139   3.267   2.505   2.432
    1C        C  140   3.483   2.485   2.548
    1C        C  141   3.412   2.495   2.670
    1C        C  142   3.626   2.499   2.792
    1C        C  143   3.485   2.498   2.791
    1C        C  144   3.695   2.509   2.915
    1C        C  145   3.626   2.503   3.038
    1C        C  146   3.835   2.545   3.156
    1C        C  147   3.699   2.505   3.159
    1C        C  148   3.900   2.571   3.279
    1C        C  149   3.835   2.544   3.402
    1C        C  150   4.030   2.627   3.525
    1C        C  151   3.903   2.565   3.524
    1C        C  152   4.084   2.673   3.647
    1C        C  153   4.026   2.642   3.772
    1C        C  154   4.199   2.765   3.892
    1C        C  155   4.088   2.678   3.894
    1C        C  156   4.256   2.809   4.014
    1C        C  157   4.206   2.757   4.135
    1C        C  158   4.342   2.923   4.256
    1C        C  159   4.255   2.811   4.256
    1C        C  160   4.379   2.987   4.376
    1C        C  161   4.336   2.933   4.499
    1C        C  162   4.433   3.121   4.616
    1C        C  163   4.370   2.994   4.621
    1C        C  164   4.465   3.188   4.736
    1C        C  165   4.436   3.123   4.858
    1C        C  166   4.513   3.323   4.973
    1C        C  167   4.470   3.191   4.976
    1C        C  168   3.478   2.444   2.078
    1C        C  169   3.398   2.460   2.192
    1C        C  170   3.619   2.469   2.307
    1C        C  171   3.477   2.462   2.309
    1C        C  172   3.695   2.488   2.424
    1C        C  173   3.624   2.490   2.547
    1C        C  174   3.832   2.536   2.667
    1C        C  175   3.694   2.504   2.668
    1C        C  176   3.897   2.563   2.789
    1C        C  177   3.832   2.541   2.913
    1C        C  178   4.030   2.625   3.033
    1C        C  179   3.902   2.565   3.034
    1C        C  180   4.088   2.663   3.156
    1C        C  181   4.029   2.629   3.279
    1C        C  182   4.195   2.757   3.402
    1C        C  183   4.090   2.663   3.402
    1C        C  184   4.246   2.810   3.522
    1C        C  185   4.196   2.759   3.644
    1C        C  186   4.342   2.912   3.767
    1C        C  187   4.247   2.807   3.766
    1C        C  188   4.382   2.974   3.887
    1C        C  189   4.347   2.917   4.011
    1C        C  190   4.451   3.103   4.127
    1C        C  191   4.384   2.979   4.133
    1C        C  192   4.474   3.174   4.248
    1C        C  193   4.443   3.113   4.372
    1C        C  194   4.509   3.317   4.489
    1C        C  195   4.466   3.182   4.493
    1C        C  196   4.527   3.388   4.611
    1C        C  197   4.513   3.322   4.735
    1C        C  198   4.560   3.535   4.850
    1C        C  199   4.534   3.395   4.855
    1C        C  200   4.583   3.623   4.961
    1C        C  201   3.616   2.420   2.071
    1C        C  202   3.826   2.513   2.184
    1C        C  203   3.691   2.467   2.184
    1C        C  204   3.902   2.535   2.303
    1C        C  205   3.834   2.515   2.425
    1C        C  206   4.024   2.618   2.547
    1C        C  207   3.902   2.547   2.544
    1C        C  208   4.088   2.657   2.667
    1C        C  209   4.026   2.621   2.789
    1C        C  210   4.200   2.748   2.909
    1C        C  211   4.087   2.664   2.909
    1C        C  212   4.252   2.795   3.032
    1C        C  213   4.200   2.750   3.155
    1C        C  214   4.335   2.912   3.276
    1C        C  215   4.248   2.800   3.278
    1C        C  216   4.372   2.974   3.397
    1C        C  217   4.333   2.921   3.522
    1C        C  218   4.439   3.102   3.640
    1C        C  219   4.378   2.974   3.645
    1C        C  220   4.463   3.169   3.762
    1C        C  221   4.443   3.102   3.884
    1C        C  222   4.506   3.307   4.003
    1C        C  223   4.475   3.169   4.005
    1C        C  224   4.513   3.382   4.122
    1C        C  225   4.505   3.311   4.245
    1C        C  226   4.519   3.525   4.370
    1C        C  227   4.517   3.384   4.365
    1C        C  228   4.522   3.599   4.489
    1C        C  229   4.536   3.529   4.611
    1C        C  230   4.509   3.745   4.730
    1C        C  231   4.541   3.606   4.729
    1C        C  232   4.505   3.822   4.849
    1C        C  233   4.546   3.758   4.966
    1C        C  234   4.018   2.612   2.065
    1C        C  235   3.895   2.547   2.067
    1C        C  236   4.081   2.655   2.183
    1C        C  237   4.021   2.613   2.303
    1C        C  238   4.200   2.734   2.420
    1C        C  239   4.082   2.655   2.424
    1C        C  240   4.253   2.784   2.541
    1C        C  241   4.196   2.747   2.665
    1C        C  242   4.335   2.910   2.785
    1C        C  243   4.245   2.801   2.786
    1C        C  244   4.376   2.965   2.909
    1C        C  245   4.338   2.907   3.032
    1C        C  246   4.442   3.093   3.152
    1C        C  247   4.379   2.966   3.153
    1C        C  248   4.461   3.162   3.273
    1C        C  249   4.436   3.100   3.398
    1C        C  250   4.498   3.306   3.515
    1C        C  251   4.461   3.170   3.518
    1C        C  252   4.504   3.375   3.638
    1C        C  253   4.495   3.307   3.762
    1C        C  254   4.523   3.520   3.878
    1C        C  255   4.516   3.379   3.882
    1C        C  256   4.515   3.591   4.000
    1C        C  257   4.515   3.523   4.124
    1C        C  258   4.491   3.733   4.245
    1C        C  259   4.513   3.594   4.246
    1C        C  260   4.472   3.804   4.365
    1C        C  261   4.495   3.738   4.488
    1C        C  262   4.429   3.942   4.606
    1C        C  263   4.476   3.809   4.609
    1C        C  264   4.404   4.011   4.726
    1C        C  265   4.438   3.946   4.847
    1C        C  266   4.327   4.136   4.960
    1C        C  267   4.402   4.019   4.961
    1C        C  268   4.267   2.778   2.065
    1C        C  269   4.196   2.737   2.179
    1C        C  270   4.348   2.890   2.302
    1C        C  271   4.254   2.783   2.299
    1C        C  272   4.380   2.956   2.423
    1C        C  273   4.341   2.894   2.544
    1C        C  274   4.446   3.087   2.663
    1C        C  275   4.377   2.964   2.661
    1C        C  276   4.475   3.153   2.785
    1C        C  277   4.443   3.090   2.907
    1C        C  278   4.503   3.294   3.027
    1C        C  279   4.470   3.157   3.029
    1C        C  280   4.510   3.366   3.148
    1C        C  281   4.497   3.299   3.272
    1C        C  282   4.516   3.514   3.392
    1C        C  283   4.513   3.372   3.391
    1C        C  284   4.515   3.586   3.513
    1C        C  285   4.514   3.516   3.636
    1C        C  286   4.487   3.728   3.754
    1C        C  287   4.517   3.590   3.756
    1C        C  288   4.472   3.796   3.877
    1C        C  289   4.493   3.731   4.001
    1C        C  290   4.437   3.936   4.120
    1C        C  291   4.485   3.803   4.122
    1C        C  292   4.399   4.003   4.239
    1C        C  293   4.424   3.937   4.362
    1C        C  294   4.328   4.127   4.480
    1C        C  295   4.399   4.005   4.483
    1C        C  296   4.291   4.189   4.601
    1C        C  297   4.333   4.134   4.724
    1C        C  298   4.201   4.315   4.842
    1C        C  299   4.285   4.199   4.842
    1C        C  300   4.167   4.402   4.951
    1C        C  301   4.359   2.882   2.065
    1C        C  302   4.475   3.068   2.179
    1C        C  303   4.402   2.945   2.183
    1C        C  304   4.485   3.143   2.300
    1C        C  305   4.445   3.082   2.421
    1C        C  306   4.517   3.285   2.537
    1C        C  307   4.480   3.148   2.540
    1C        C  308   4.520   3.357   2.658
    1C        C  309   4.507   3.290   2.782
    1C        C  310   4.514   3.503   2.903
    1C        C  311   4.517   3.361   2.904
    1C        C  312   4.514   3.576   3.023
    1C        C  313   4.516   3.507   3.147
    1C        C  314   4.486   3.720   3.265
    1C        C  315   4.513   3.581   3.268
    1C        C  316   4.472   3.792   3.386
    1C        C  317   4.494   3.726   3.508
    1C        C  318   4.430   3.929   3.630
    1C        C  319   4.474   3.795   3.630
    1C        C  320   4.398   3.992   3.753
    1C        C  321   4.425   3.929   3.876
    1C        C  322   4.325   4.115   3.993
    1C        C  323   4.400   3.996   3.998
    1C        C  324   4.285   4.178   4.114
    1C        C  325   4.332   4.127   4.237
    1C        C  326   4.191   4.287   4.355
    1C        C  327   4.290   4.187   4.357
    1C        C  328   4.138   4.335   4.477
    1C        C  329   4.196   4.293   4.599
    1C        C  330   4.027   4.432   4.715
    1C        C  331   4.145   4.352   4.717
    1C        C  332   3.972   4.493   4.830
    1C        C  333   4.050   4.479   4.946
    1C        C  334   4.547   3.270   2.064
    1C        C  335   4.535   3.130   2.065
    1C        C  336   4.535   3.353   2.175
    1C        C  337   4.512   3.282   2.295
    1C        C  338   4.517   3.497   2.414
    1C        C  339   4.517   3.356   2.415
    1C        C  340   4.521   3.569   2.536
    1C        C  341   4.525   3.498   2.658
    1C        C  342   4.495   3.710   2.776
    1C        C  343   4.516   3.571   2.779
    1C        C  344   4.482   3.784   2.896
    1C        C  345   4.498   3.716   3.019
    1C        C  346   4.427   3.918   3.141
    1C        C  347   4.471   3.783   3.140
    1C        C  348   4.399   3.986   3.262
    1C        C  349   4.429   3.927   3.387
    1C        C  350   4.329   4.115   3.507
    1C        C  351   4.402   3.994   3.508
    1C        C  352   4.286   4.177   3.626
    1C        C  353   4.327   4.114   3.746
    1C        C  354   4.187   4.271   3.869
    1C        C  355   4.285   4.169   3.869
    1C        C  356   4.128   4.319   3.988
    1C        C  357   4.181   4.274   4.111
    1C        C  358   4.016   4.406   4.232
    1C        C  359   4.133   4.327   4.233
    1C        C  360   3.956   4.446   4.354
    1C        C  361   4.023   4.418   4.475
    1C        C  362   3.833   4.521   4.594
    1C        C  363   3.963   4.465   4.594
    1C        C  364   3.767   4.551   4.715
    1C        C  365   3.840   4.544   4.835
    1C        C  366   3.632   4.593   4.951
    1C        C  367   3.770   4.574   4.953
    1C        C  368   4.518   3.573   2.057
    1C        C  369   4.531   3.495   2.172
    1C        C  370   4.503   3.709   2.291
    1C        C  371   4.515   3.568   2.292
    1C        C  372   4.484   3.779   2.412
    1C        C  373   4.498   3.708   2.533
    1C        C  374   4.428   3.912   2.652
    1C        C  375   4.475   3.779   2.654
    1C        C  376   4.399   3.978   2.774
    1C        C  377   4.433   3.916   2.896
    1C        C  378   4.326   4.101   3.017
    1C        C  379   4.397   3.979   3.017
    1C        C  380   4.282   4.161   3.137
    1C        C  381   4.324   4.105   3.259
    1C        C  382   4.180   4.259   3.379
    1C        C  383   4.283   4.162   3.382
    1C        C  384   4.126   4.307   3.500
    1C        C  385   4.179   4.269   3.626
    1C        C  386   4.013   4.398   3.746
    1C        C  387   4.129   4.318   3.749
    1C        C  388   3.948   4.434   3.866
    1C        C  389   4.010   4.396   3.987
    1C        C  390   3.822   4.490   4.111
    1C        C  391   3.952   4.435   4.110
    1C        C  392   3.753   4.514   4.232
    1C        C  393   3.827   4.503   4.352
    1C        C  394   3.620   4.552   4.477
    1C        C  395   3.759   4.528   4.474
    1C        C  396   3.549   4.565   4.598
    1C        C  397   3.626   4.567   4.717
    1C        C  398   3.413   4.551   4.838
    1C        C  399   3.553   4.572   4.837
    1C        C  400   3.343   4.519   4.955
    1C        C  401   4.511   3.711   2.052
    1C        C  402   4.461   3.920   2.168
    1C        C  403   4.495   3.783   2.171
    1C        C  404   4.418   3.981   2.288
    1C        C  405   4.441   3.914   2.410
    1C        C  406   4.326   4.096   2.529
    1C        C  407   4.404   3.979   2.530
    1C        C  408   4.283   4.156   2.649
    1C        C  409   4.322   4.097   2.771
    1C        C  410   4.180   4.253   2.889
    1C        C  411   4.281   4.153   2.894
    1C        C  412   4.127   4.301   3.010
    1C        C  413   4.181   4.261   3.135
    1C        C  414   4.005   4.379   3.254
    1C        C  415   4.124   4.303   3.257
    1C        C  416   3.945   4.414   3.377
    1C        C  417   4.010   4.388   3.500
    1C        C  418   3.819   4.476   3.620
    1C        C  419   3.951   4.426   3.622
    1C        C  420   3.753   4.496   3.743
    1C        C  421   3.816   4.485   3.868
    1C        C  422   3.611   4.536   3.989
    1C        C  423   3.750   4.508   3.991
    1C        C  424   3.543   4.546   4.112
    1C        C  425   3.614   4.536   4.234
    1C        C  426   3.404   4.545   4.357
    1C        C  427   3.545   4.551   4.357
    1C        C  428   3.335   4.547   4.480
    1C        C  429   3.408   4.558   4.600
    1C        C  430   3.195   4.529   4.721
    1C        C  431   3.335   4.551   4.721
    1C        C  432   3.126   4.501   4.842
    1C        C  433   3.207   4.489   4.955
    1C        C  434   4.385   4.125   2.055
    1C        C  435   4.450   4.001   2.055
    1C        C  436   4.306   4.167   2.167
    1C        C  437   4.341   4.101   2.288
    1C        C  438   4.188   4.256   2.403
    1C        C  439   4.286   4.154   2.406
    1C        C  440   4.132   4.306   2.523
    1C        C  441   4.187   4.260   2.645
    1C        C  442   4.011   4.380   2.768
    1C        C  443   4.129   4.303   2.767
    1C        C  444   3.948   4.416   2.889
    1C        C  445   4.009   4.377   3.011
    1C        C  446   3.815   4.469   3.132
    1C        C  447   3.946   4.416   3.131
    1C        C  448   3.748   4.488   3.255
    1C        C  449   3.817   4.473   3.378
    1C        C  450   3.609   4.521   3.499
    1C        C  451   3.748   4.497   3.499
    1C        C  452   3.543   4.536   3.624
    1C        C  453   3.615   4.528   3.745
    1C        C  454   3.401   4.540   3.868
    1C        C  455   3.542   4.534   3.866
    1C        C  456   3.330   4.536   3.990
    1C        C  457   3.402   4.543   4.112
    1C        C  458   3.196   4.506   4.239
    1C        C  459   3.334   4.537   4.235
    1C        C  460   3.130   4.482   4.362
    1C        C  461   3.198   4.509   4.482
    1C        C  462   3.000   4.431   4.605
    1C        C  463   3.126   4.494   4.603
    1C        C  464   2.934   4.401   4.726
    1C        C  465   2.995   4.442   4.847
    1C        C  466   2.800   4.344   4.960
    1C        C  467   2.910   4.431   4.961
    1C        C  468   4.128   4.291   2.044
    1C        C  469   4.196   4.258   2.162
    1C        C  470   4.013   4.378   2.279
    1C        C  471   4.133   4.301   2.282
    1C        C  472   3.948   4.406   2.401
    1C        C  473   4.015   4.385   2.524
    1C        C  474   3.818   4.463   2.643
    1C        C  475   3.951   4.417   2.645
    1C        C  476   3.750   4.484   2.765
    1C        C  477   3.815   4.464   2.889
    1C        C  478   3.607   4.509   3.014
    1C        C  479   3.746   4.484   3.010
    1C        C  480   3.537   4.521   3.136
    1C        C  481   3.609   4.513   3.257
    1C        C  482   3.396   4.529   3.379
    1C        C  483   3.538   4.530   3.378
    1C        C  484   3.329   4.524   3.503
    1C        C  485   3.402   4.536   3.624
    1C        C  486   3.193   4.498   3.751
    1C        C  487   3.331   4.531   3.746
    1C        C  488   3.124   4.478   3.872
    1C        C  489   3.193   4.500   3.993
    1C        C  490   3.004   4.415   4.120
    1C        C  491   3.129   4.479   4.117
    1C        C  492   2.942   4.382   4.243
    1C        C  493   3.001   4.425   4.364
    1C        C  494   2.827   4.301   4.483
    1C        C  495   2.936   4.391   4.485
    1C        C  496   2.777   4.253   4.606
    1C        C  497   2.820   4.315   4.725
    1C        C  498   2.666   4.169   4.847
    1C        C  499   2.756   4.277   4.845
    1C        C  500   2.608   4.114   4.963
    1C        C  501   4.010   4.363   2.040
    1C        C  502   3.820   4.466   2.155
    1C        C  503   3.950   4.411   2.157
    1C        C  504   3.750   4.480   2.277
    1C        C  505   3.815   4.454   2.399
    1C        C  506   3.610   4.504   2.525
    1C        C  507   3.748   4.476   2.521
    1C        C  508   3.538   4.511   2.647
    1C        C  509   3.610   4.506   2.769
    1C        C  510   3.398   4.524   2.889
    1C        C  511   3.539   4.517   2.890
    1C        C  512   3.326   4.520   3.011
    1C        C  513   3.396   4.529   3.133
    1C        C  514   3.189   4.492   3.259
    1C        C  515   3.327   4.525   3.257
    1C        C  516   3.124   4.467   3.382
    1C        C  517   3.191   4.492   3.504
    1C        C  518   3.000   4.413   3.628
    1C        C  519   3.128   4.473   3.628
    1C        C  520   2.939   4.375   3.749
    1C        C  521   2.999   4.412   3.872
    1C        C  522   2.837   4.286   3.995
    1C        C  523   2.946   4.374   3.997
    1C        C  524   2.782   4.244   4.119
    1C        C  525   2.829   4.297   4.240
    1C        C  526   2.694   4.134   4.368
    1C        C  527   2.779   4.247   4.362
    1C        C  528   2.651   4.078   4.490
    1C        C  529   2.685   4.146   4.610
    1C        C  530   2.588   3.959   4.736
    1C        C  531   2.638   4.093   4.732
    1C        C  532   2.538   3.901   4.856
    1C        C  533   2.535   3.994   4.965
    1C        C  534   3.619   4.555   2.045
    1C        C  535   3.753   4.514   2.042
    1C        C  536   3.538   4.530   2.160
    1C        C  537   3.609   4.502   2.279
    1C        C  538   3.399   4.511   2.401
    1C        C  539   3.540   4.509   2.402
    1C        C  540   3.328   4.508   2.523
    1C        C  541   3.397   4.512   2.646
    1C        C  542   3.187   4.482   2.768
    1C        C  543   3.325   4.511   2.768
    1C        C  544   3.124   4.461   2.892
    1C        C  545   3.189   4.489   3.014
    1C        C  546   2.993   4.410   3.137
    1C        C  547   3.122   4.470   3.137
    1C        C  548   2.935   4.372   3.259
    1C        C  549   2.997   4.406   3.382
    1C        C  550   2.834   4.278   3.505
    1C        C  551   2.940   4.372   3.506
    1C        C  552   2.782   4.231   3.628
    1C        C  553   2.830   4.285   3.749
    1C        C  554   2.698   4.124   3.875
    1C        C  555   2.785   4.235   3.874
    1C        C  556   2.662   4.066   3.998
    1C        C  557   2.699   4.130   4.119
    1C        C  558   2.604   3.945   4.248
    1C        C  559   2.663   4.074   4.244
    1C        C  560   2.572   3.881   4.370
    1C        C  561   2.595   3.949   4.492
    1C        C  562   2.538   3.749   4.618
    1C        C  563   2.569   3.887   4.616
    1C        C  564   2.513   3.682   4.739
    1C        C  565   2.524   3.759   4.859
    1C        C  566   2.521   3.544   4.982
    1C        C  567   2.521   3.683   4.977
    1C        C  568   3.328   4.480   2.040
    1C        C  569   3.397   4.507   2.158
    1C        C  570   3.186   4.478   2.282
    1C        C  571   3.325   4.507   2.281
    1C        C  572   3.120   4.455   2.405
    1C        C  573   3.190   4.479   2.525
    1C        C  574   2.992   4.399   2.649
    1C        C  575   3.118   4.463   2.646
    1C        C  576   2.931   4.364   2.772
    1C        C  577   2.994   4.404   2.891
    1C        C  578   2.825   4.282   3.017
    1C        C  579   2.931   4.375   3.015
    1C        C  580   2.775   4.230   3.139
    1C        C  581   2.827   4.281   3.260
    1C        C  582   2.699   4.114   3.384
    1C        C  583   2.783   4.227   3.384
    1C        C  584   2.661   4.055   3.507
    1C        C  585   2.699   4.117   3.628
    1C        C  586   2.598   3.937   3.759
    1C        C  587   2.662   4.062   3.753
    1C        C  588   2.570   3.873   3.882
    1C        C  589   2.599   3.939   4.004
    1C        C  590   2.542   3.739   4.127
    1C        C  591   2.580   3.875   4.128
    1C        C  592   2.531   3.673   4.252
    1C        C  593   2.540   3.744   4.374
    1C        C  594   2.516   3.536   4.500
    1C        C  595   2.525   3.677   4.497
    1C        C  596   2.517   3.466   4.623
    1C        C  597   2.510   3.540   4.743
    1C        C  598   2.524   3.328   4.863
    1C        C  599   2.517   3.469   4.864
    1C        C  600   2.523   3.249   4.979
    1C        C  601   3.197   4.438   2.045
    1C        C  602   2.985   4.393   2.159
    1C        C  603   3.119   4.445   2.161
    1C        C  604   2.928   4.359   2.285
    1C        C  605   2.991   4.398   2.405
    1C        C  606   2.824   4.271   2.530
    1C        C  607   2.928   4.366   2.527
    1C        C  608   2.770   4.223   2.652
    1C        C  609   2.820   4.276   2.772
    1C        C  610   2.687   4.117   2.898
    1C        C  611   2.775   4.228   2.897
    1C        C  612   2.652   4.056   3.021
    1C        C  613   2.691   4.116   3.142
    1C        C  614   2.592   3.927   3.267
    1C        C  615   2.658   4.052   3.264
    1C        C  616   2.569   3.863   3.391
    1C        C  617   2.597   3.929   3.513
    1C        C  618   2.540   3.730   3.639
    1C        C  619   2.573   3.867   3.638
    1C        C  620   2.523   3.662   3.762
    1C        C  621   2.533   3.737   3.882
    1C        C  622   2.511   3.529   4.014
    1C        C  623   2.524   3.669   4.005
    1C        C  624   2.514   3.458   4.137
    1C        C  625   2.524   3.532   4.256
    1C        C  626   2.543   3.323   4.381
    1C        C  627   2.521   3.462   4.379
    1C        C  628   2.560   3.255   4.504
    1C        C  629   2.543   3.327   4.624
    1C        C  630   2.598   3.121   4.744
    1C        C  631   2.552   3.256   4.745
    1C        C  632   2.619   3.050   4.866
    1C        C  633   2.559   3.114   4.979
    1C        C  634   2.786   4.311   2.057
    1C        C  635   2.897   4.396   2.047
    1C        C  636   2.751   4.235   2.169
    1C        C  637   2.812   4.276   2.290
    1C        C  638   2.676   4.112   2.411
    1C        C  639   2.766   4.221   2.412
    1C        C  640   2.638   4.053   2.533
    1C        C  641   2.678   4.116   2.653
    1C        C  642   2.588   3.927   2.779
    1C        C  643   2.646   4.056   2.777
    1C        C  644   2.567   3.859   2.901
    1C        C  645   2.596   3.926   3.022
    1C        C  646   2.529   3.725   3.149
    1C        C  647   2.567   3.861   3.145
    1C        C  648   2.519   3.655   3.271
    1C        C  649   2.533   3.727   3.392
    1C        C  650   2.516   3.520   3.520
    1C        C  651   2.522   3.661   3.517
    1C        C  652   2.520   3.452   3.644
    1C        C  653   2.517   3.521   3.767
    1C        C  654   2.542   3.318   3.892
    1C        C  655   2.515   3.457   3.893
    1C        C  656   2.558   3.250   4.015
    1C        C  657   2.537   3.318   4.137
    1C        C  658   2.607   3.120   4.260
    1C        C  659   2.553   3.251   4.260
    1C        C  660   2.632   3.053   4.382
    1C        C  661   2.601   3.120   4.503
    1C        C  662   2.708   2.935   4.628
    1C        C  663   2.634   3.055   4.624
    1C        C  664   2.749   2.874   4.748
    1C        C  665   2.700   2.932   4.868
    1C        C  666   2.743   2.870   4.985
    1C        C  667   2.688   4.026   2.058
    1C        C  668   2.682   4.112   2.169
    1C        C  669   2.591   3.916   2.293
    1C        C  670   2.648   4.046   2.289
    1C        C  671   2.559   3.852   2.415
    1C        C  672   2.584   3.922   2.535
    1C        C  673   2.527   3.721   2.661
    1C        C  674   2.564   3.857   2.659
    1C        C  675   2.513   3.651   2.783
    1C        C  676   2.532   3.722   2.904
    1C        C  677   2.508   3.514   3.031
    1C        C  678   2.520   3.654   3.027
    1C        C  679   2.514   3.443   3.153
    1C        C  680   2.511   3.514   3.275
    1C        C  681   2.532   3.307   3.402
    1C        C  682   2.511   3.447   3.400
    1C        C  683   2.553   3.242   3.526
    1C        C  684   2.542   3.312   3.649
    1C        C  685   2.605   3.112   3.773
    1C        C  686   2.561   3.246   3.772
    1C        C  687   2.634   3.048   3.896
    1C        C  688   2.602   3.116   4.016
    1C        C  689   2.712   2.935   4.142
    1C        C  690   2.636   3.054   4.139
    1C        C  691   2.751   2.877   4.264
    1C        C  692   2.711   2.936   4.386
    1C        C  693   2.755   2.878   4.507
    1C        C  694   2.640   3.895   2.059
    1C        C  695   2.536   3.706   2.176
    1C        C  696   2.580   3.840   2.174
    1C        C  697   2.511   3.640   2.298
    1C        C  698   2.523   3.716   2.417
    1C        C  699   2.496   3.508   2.542
    1C        C  700   2.511   3.649   2.541
    1C        C  701   2.502   3.439   2.665
    1C        C  702   2.503   3.510   2.787
    1C        C  703   2.528   3.302   2.912
    1C        C  704   2.503   3.441   2.910
    1C        C  705   2.549   3.236   3.035
    1C        C  706   2.533   3.303   3.158
    1C        C  707   2.598   3.104   3.280
    1C        C  708   2.549   3.236   3.281
    1C        C  709   2.634   3.046   3.404
    1C        C  710   2.606   3.111   3.526
    1C        C  711   2.714   2.933   3.651
    1C        C  712   2.635   3.050   3.650
    1C        C  713   2.756   2.875   3.772
    1C        C  714   2.716   2.934   3.894
    1C        C  715   2.755   2.880   4.019
    1C        C  716   2.449   3.498   2.064
    1C        C  717   2.496   3.630   2.065
    1C        C  718   2.471   3.424   2.184
    1C        C  719   2.487   3.500   2.303
    1C        C  720   2.517   3.290   2.426
    1C        C  721   2.492   3.429   2.425
    1C        C  722   2.539   3.224   2.549
    1C        C  723   2.531   3.300   2.668
    1C        C  724   2.596   3.100   2.792
    1C        C  725   2.547   3.232   2.791
    1C        C  726   2.621   3.036   2.916
    1C        C  727   2.591   3.101   3.037
    1C        C  728   2.707   2.921   3.164
    1C        C  729   2.627   3.037   3.158
    1C        C  730   2.750   2.866   3.287
    1C        C  731   2.704   2.924   3.408
    1C        C  732   2.757   2.875   3.529
    1C        C  733   2.488   3.197   2.074
    1C        C  734   2.487   3.282   2.185
    1C        C  735   2.579   3.085   2.307
    1C        C  736   2.521   3.215   2.306
    1C        C  737   2.611   3.021   2.428
    1C        C  738   2.586   3.091   2.548
    1C        C  739   2.701   2.914   2.673
    1C        C  740   2.625   3.033   2.670
    1C        C  741   2.746   2.862   2.796
    1C        C  742   2.698   2.917   2.916
    1C        C  743   2.742   2.863   3.039
    1C        C  744   2.553   3.074   2.074
    1C        C  745   2.688   2.898   2.186
    1C        C  746   2.605   3.013   2.188
    1C        C  747   2.732   2.843   2.308
    1C        C  748   2.683   2.899   2.429
    1C        C  749   2.733   2.849   2.551
    1C        C  750   2.744   2.845   2.069
    1C        C  751   3.656   2.324   1.965
    1C        O  752   3.692   2.204   1.975
    1C        O  753   3.677   2.368   1.834
    1C        C  754   4.602   3.049   1.962
    1C        O  755   4.572   3.061   1.840
    1C        O  756   4.739   3.021   1.971
    1C        C  757   4.457   4.230   1.978
    1C        O  758   4.559   4.290   2.021
    1C        O  759   4.435   4.218   1.841
    1C        C  760   3.573   4.652   1.943
    1C        O  761   3.577   4.772   1.980
    1C        O  762   3.610   4.639   1.809
    1C        C  763   2.880   4.513   1.958
    1C        O  764   2.928   4.516   1.841
    1C        O  765   2.808   4.631   1.978
    1C        C  766   2.322   3.488   1.988
    1C        O  767   2.315   3.498   1.863
    1C        O  768   2.200   3.486   2.057
    1C        C  769   4.701   3.589   5.045
    1C        O  770   4.689   3.552   5.165
    1C        O  771   4.836   3.594   5.008
    1C        C  772   4.263   4.444   5.055
    1C        O  773   4.292   4.380   5.159
    1C        O  774   4.338   4.562   5.046
    1C        C  775   4.152   2.512   5.061
    1C        O  776   4.171   2.395   5.018
    1C        O  777   4.139   2.506   5.200
    1C        C  778   2.900   4.553   5.044
    1C        O  779   2.827   4.651   5.010
    1C        O  780   2.959   4.571   5.170
    1C        C  781   2.458   3.039   5.058
    1C        O  782   2.340   3.009   5.030
    1C        O  783   2.491   2.968   5.173
    1C        C  784   2.427   4.008   5.065
    1C        O  785   2.312   4.049   5.034
    1C        O  786   2.447   3.983   5.201
    1C        C  787   2.936   2.437   2.010
    1C        O  788   2.903   2.463   1.891
    1C        O  789   2.883   2.315   2.052
    1C        C  790   3.179   2.376   5.062
    1C        O  791   3.151   2.265   5.010
    1C        O  792   3.150   2.355   5.197
    1C        H  793   4.310   3.000   5.073
    1C        H  794   4.175   2.812   5.072
    1C        H  795   4.496   3.136   5.064
    1C        H  796   4.531   3.372   5.067
    1C        H  797   4.517   3.789   5.064
    1C        H  798   4.456   4.001   5.051
    1C        H  799   4.280   4.158   5.054
    1C        H  800   4.038   4.559   5.015
    1C        H  801   3.808   4.531   5.043
    1C        H  802   3.590   4.627   5.043
    1C        H  803   3.398   4.497   5.045
    1C        H  804   3.177   4.426   5.036
    1C        H  805   3.880   2.519   5.076
    1C        H  806   3.678   2.440   5.074
    1C        H  807   2.993   2.540   5.059
    1C        H  808   3.442   2.481   5.078
    1C        H  809   2.867   2.727   5.079
    1C        H  810   2.722   2.916   5.079
    1C        H  811   2.458   3.284   5.057
    1C        H  812   2.510   3.499   5.079
    1C        H  813   2.546   3.735   5.067
    1C        H  814   2.650   4.142   5.057
    1C        H  815   2.725   4.352   5.035
    1C        H  816   2.741   2.903   1.978
    1C        H  817   2.867   2.696   1.979
    1C        H  818   3.214   2.445   1.988
    1C        H  819   3.429   2.443   1.983
    1C        H  820   3.841   2.552   1.975
    1C        H  821   4.076   2.606   1.975
    1C        H  822   4.219   2.769   1.970
    1C        H  823   4.390   2.922   1.971
    1C        H  824   4.552   3.318   1.968
    1C        H  825   4.484   3.527   1.966
    1C        H  826   4.548   3.763   1.966
    1C        H  827   3.766   4.450   1.957
    1C        H  828   3.971   4.399   1.946
    1C        H  829   4.185   4.292   1.953
    1C        H  830   4.487   3.971   1.959
    1C        H  831   2.649   3.831   1.974
    1C        H  832   2.673   4.075   1.964
    1C        H  833   2.707   4.318   1.984
    1C        H  834   3.380   4.460   1.948
    1C        H  835   3.162   4.389   1.957
    1C        H  836   2.547   3.011   1.987
    1C        H  837   2.404   3.206   2.007
    1C        H  838   2.473   3.688   1.978
    2V3OU   H29  839   2.815   3.546   4.673
    2V3OU   C27  840   2.796   3.505   4.775
    2V3OU   H27  841   2.742   3.579   4.839
    2V3OU   H28  842   2.740   3.408   4.772
    2V3OU   O11  843   2.915   3.484   4.853
    2V3OU   C15  844   2.925   3.398   4.960
    2V3OU   C13  845   3.055   3.380   5.012
    2V3OU   C14  846   3.077   3.273   5.100
    2V3OU   C16  847   2.975   3.189   5.144
    2V3OU    H6  848   2.998   3.100   5.204
    2V3OU   C12  849   3.215   3.227   5.127
    2V3OU    O2  850   3.239   3.135   5.208
    2V3OU   C10  851   3.326   3.304   5.069
    2V3OU    C8  852   3.458   3.266   5.095
    2V3OU   O10  853   3.494   3.160   5.173
    2V3OU   H26  854   3.409   3.116   5.190
    2V3OU    C6  855   3.565   3.353   5.059
    2V3OU    C5  856   3.537   3.471   4.990
    2V3OU    C4  857   3.702   3.294   5.054
    2V3OU    H4  858   3.722   3.228   5.143
    2V3OU    H5  859   3.708   3.220   4.969
    2V3OU    C2  860   3.816   3.396   5.046
    2V3OU    O6  861   3.810   3.482   5.160
    2V3OU   H21  862   3.776   3.566   5.124
    2V3OU    C3  863   3.785   3.496   4.935
    2V3OU    H2  864   3.865   3.575   4.934
    2V3OU    H3  865   3.782   3.444   4.836
    2V3OU   C25  866   3.953   3.331   5.026
    2V3OU    O7  867   4.000   3.305   4.916
    2V3OU   C26  868   4.029   3.289   5.151
    2V3OU   H22  869   4.057   3.385   5.200
    2V3OU   H23  870   4.124   3.237   5.122
    2V3OU    O8  871   3.954   3.205   5.237
    2V3OU   H24  872   3.938   3.270   5.307
    2V3OU    C1  873   3.648   3.562   4.948
    2V3OU    H1  874   3.627   3.618   4.853
    2V3OU    O3  875   3.658   3.656   5.055
    2V3OU   C19  876   3.621   3.794   5.049
    2V3OU    H9  877   3.524   3.802   4.992
    2V3OU    O4  878   3.716   3.853   4.963
    2V3OU   C20  879   3.850   3.874   5.009
    2V3OU   H10  880   3.894   3.771   5.023
    2V3OU   C24  881   3.614   3.858   5.188
    2V3OU   H16  882   3.545   3.792   5.247
    2V3OU   H17  883   3.573   3.962   5.189
    2V3OU   C23  884   3.755   3.873   5.244
    2V3OU   H15  885   3.795   3.767   5.256
    2V3OU    N1  886   3.740   3.951   5.365
    2V3OU   H19  887   3.819   3.929   5.421
    2V3OU   H20  888   3.655   3.940   5.417
    2V3OU   C21  889   3.848   3.949   5.143
    2V3OU   H11  890   3.952   3.929   5.183
    2V3OU    O5  891   3.823   4.088   5.132
    2V3OU   H18  892   3.779   4.102   5.217
    2V3OU   C22  893   3.916   3.950   4.895
    2V3OU   H12  894   3.865   4.049   4.883
    2V3OU   H13  895   3.906   3.893   4.799
    2V3OU   H14  896   4.023   3.970   4.922
    2V3OU   C11  897   3.162   3.478   4.987
    2V3OU    O1  898   3.140   3.591   4.939
    2V3OU    C9  899   3.301   3.430   5.009
    2V3OU    C7  900   3.403   3.510   4.960
    2V3OU    O9  901   3.384   3.619   4.877
    2V3OU   H25  902   3.289   3.633   4.862
    2V3OU   C17  903   2.825   3.317   5.016
    2V3OU    H7  904   2.723   3.356   5.017
    2V3OU   C18  905   2.844   3.209   5.102
    2V3OU    H8  906   2.763   3.151   5.148
    3SOL     OW  907   3.332   4.143   4.965
    3SOL    HW1  908   3.233   4.137   4.950
    3SOL    HW2  909   3.351   4.215   5.032
    4SOL     OW  910   0.078   0.345   0.283
    4SOL    HW1  911   0.010   0.337   0.211
    4SOL    HW2  912   0.083   0.259   0.334
    5SOL     OW  913   4.435   0.982   1.379
    5SOL    HW1  914   4.526   0.960   1.413
    5SOL    HW2  915   4.369   0.915   1.414
    6SOL     OW  916   5.787   1.240   3.648
    6SOL    HW1  917   5.741   1.215   3.563
    6SOL    HW2  918   5.883   1.213   3.642
    7SOL     OW  919   0.819   4.278   5.349
    7SOL    HW1  920   0.728   4.294   5.311
    7SOL    HW2  921   0.888   4.320   5.290
    8SOL     OW  922   2.272   2.407   5.444
    8SOL    HW1  923   2.206   2.354   5.498
    8SOL    HW2  924   2.239   2.501   5.435
    9SOL     OW  925   6.212   1.329   6.591
    9SOL    HW1  926   6.287   1.330   6.525
    9SOL    HW2  927   6.189   1.423   6.616
   10SOL     OW  928   4.765   4.619   2.585
   10SOL    HW1  929   4.695   4.551   2.564
   10SOL    HW2  930   4.809   4.650   2.501
   11SOL     OW  931   2.271   1.294   0.108
   11SOL    HW1  932   2.347   1.258   0.163
   11SOL    HW2  933   2.306   1.352   0.035
   12SOL     OW  934   2.689   4.804   3.196
   12SOL    HW1  935   2.632   4.787   3.276
   12SOL    HW2  936   2.648   4.878   3.142
   13SOL     OW  937   4.618   6.099   2.324
   13SOL    HW1  938   4.668   6.013   2.314
   13SOL    HW2  939   4.598   6.137   2.234
   14SOL     OW  940   4.939   4.685   5.411
   14SOL    HW1  941   4.880   4.701   5.491
   14SOL    HW2  942   4.892   4.623   5.348
   15SOL     OW  943   0.665   5.769   5.683
   15SOL    HW1  944   0.663   5.846   5.746
   15SOL    HW2  945   0.734   5.703   5.714
   16SOL     OW  946   6.368   2.590   5.778
   16SOL    HW1  947   6.271   2.614   5.767
   16SOL    HW2  948   6.385   2.563   5.873
   17SOL     OW  949   6.327   0.359   6.135
   17SOL    HW1  950   6.301   0.407   6.051
   17SOL    HW2  951   6.341   0.262   6.115
   18SOL     OW  952   3.165   0.367   4.988
   18SOL    HW1  953   3.210   0.350   4.901
   18SOL    HW2  954   3.068   0.343   4.980
   19SOL     OW  955   0.738   1.600   3.227
   19SOL    HW1  956   0.785   1.685   3.203
   19SOL    HW2  957   0.801   1.539   3.275
   20SOL     OW  958   5.781   2.662   5.533
   20SOL    HW1  959   5.732   2.729   5.476
   20SOL    HW2  960   5.876   2.689   5.543
   21SOL     OW  961   3.616   6.217   3.027
   21SOL    HW1  962   3.663   6.170   3.102
   21SOL    HW2  963   3.616   6.157   2.947
   22SOL     OW  964   2.261   6.663   4.964
   22SOL    HW1  965   2.213   6.751   4.965
   22SOL    HW2  966   2.331   6.664   4.892
   23SOL     OW  967   5.440   4.203   1.735
   23SOL    HW1  968   5.404   4.169   1.822
   23SOL    HW2  969   5.383   4.168   1.660
   24SOL     OW  970   4.086   0.488   1.524
   24SOL    HW1  971   4.008   0.537   1.563
   24SOL    HW2  972   4.128   0.543   1.452
   25SOL     OW  973   2.802   6.706   3.477
   25SOL    HW1  974   2.900   6.716   3.458
   25SOL    HW2  975   2.750   6.761   3.411
   26SOL     OW  976   1.414   2.287   6.625
   26SOL    HW1  977   1.344   2.317   6.561
   26SOL    HW2  978   1.383   2.204   6.672
   27SOL     OW  979   6.179   1.144   2.510
   27SOL    HW1  980   6.166   1.241   2.528
   27SOL    HW2  981   6.253   1.108   2.569
   28SOL     OW  982   1.838   0.845   4.785
   28SOL    HW1  983   1.827   0.802   4.874
   28SOL    HW2  984   1.865   0.776   4.717
   29SOL     OW  985   0.028   0.840   0.415
   29SOL    HW1  986   6.991   0.915   0.420
   29SOL    HW2  987   7.019   0.767   0.357
   30SOL     OW  988   4.076   0.620   4.658
   30SOL    HW1  989   4.002   0.578   4.711
   30SOL    HW2  990   4.043   0.643   4.567
   31SOL     OW  991   0.341   2.737   5.151
   31SOL    HW1  992   0.349   2.642   5.184
   31SOL    HW2  993   0.350   2.739   5.052
   32SOL     OW  994   1.525   0.869   1.187
   32SOL    HW1  995   1.483   0.947   1.141
   32SOL    HW2  996   1.454   0.813   1.230
   33SOL     OW  997   0.286   3.895   6.652
   33SOL    HW1  998   0.260   3.990   6.666
   33SOL    HW2  999   0.225   3.835   6.703
   34SOL     OW 1000   2.106   5.810   5.419
   34SOL    HW1 1001   2.088   5.836   5.514
   34SOL    HW2 1002   2.023   5.819   5.365
   35SOL     OW 1003   3.747   3.259   6.989
   35SOL    HW1 1004   3.668   3.276   6.931
   35SOL    HW2 1005   3.789   3.346   7.016
   36SOL     OW 1006   5.061   0.894   4.095
   36SOL    HW1 1007   5.054   0.797   4.071
   36SOL    HW2 1008   5.131   0.937   4.038
   37SOL     OW 1009   2.027   1.488   3.591
   37SOL    HW1 1010   2.076   1.423   3.649
   37SOL    HW2 1011   2.088   1.563   3.565
   38SOL     OW 1012   1.384   5.535   2.398
   38SOL    HW1 1013   1.355   5.620   2.354
   38SOL    HW2 1014   1.414   5.470   2.329
   39SOL     OW 1015   5.803   4.999   6.462
   39SOL    HW1 1016   5.777   4.917   6.412
   39SOL    HW2 1017   5.720   5.048   6.490
   40SOL     OW 1018   3.077   0.471   6.395
   40SOL    HW1 1019   3.115   0.383   6.424
   40SOL    HW2 1020   3.150   0.528   6.356
   41SOL     OW 1021   5.682   4.228   2.022
   41SOL    HW1 1022   5.715   4.219   1.928
   41SOL    HW2 1023   5.583   4.215   2.024
   42SOL     OW 1024   2.839   5.754   5.231
   42SOL    HW1 1025   2.855   5.656   5.243
   42SOL    HW2 1026   2.927   5.801   5.223
   43SOL     OW 1027   5.035   0.085   5.394
   43SOL    HW1 1028   5.132   0.110   5.393
   43SOL    HW2 1029   5.020   0.011   5.459
   44SOL     OW 1030   5.568   3.072   4.914
   44SOL    HW1 1031   5.554   2.973   4.921
   44SOL    HW2 1032   5.489   3.120   4.953
   45SOL     OW 1033   3.890   5.562   0.560
   45SOL    HW1 1034   3.819   5.632   0.548
   45SOL    HW2 1035   3.855   5.488   0.618
   46SOL     OW 1036   0.201   3.006   4.553
   46SOL    HW1 1037   0.300   3.017   4.557
   46SOL    HW2 1038   0.167   2.978   4.643
   47SOL     OW 1039   5.335   3.279   1.851
   47SOL    HW1 1040   5.419   3.240   1.815
   47SOL    HW2 1041   5.343   3.291   1.950
   48SOL     OW 1042   6.889   3.516   6.852
   48SOL    HW1 1043   6.797   3.546   6.827
   48SOL    HW2 1044   6.938   3.591   6.895
   49SOL     OW 1045   5.100   3.140   0.448
   49SOL    HW1 1046   5.147   3.060   0.485
   49SOL    HW2 1047   5.005   3.116   0.428
   50SOL     OW 1048   6.171   2.023   6.502
   50SOL    HW1 1049   6.194   1.934   6.461
   50SOL    HW2 1050   6.135   2.084   6.431
   51SOL     OW 1051   1.743   4.309   3.627
   51SOL    HW1 1052   1.734   4.372   3.550
   51SOL    HW2 1053   1.660   4.313   3.683
   52SOL     OW 1054   5.412   2.888   1.634
   52SOL    HW1 1055   5.338   2.954   1.620
   52SOL    HW2 1056   5.377   2.795   1.625
   53SOL     OW 1057   4.611   0.478   3.279
   53SOL    HW1 1058   4.546   0.549   3.308
   53SOL    HW2 1059   4.580   0.389   3.313
   54SOL     OW 1060   5.753   5.951   0.211
   54SOL    HW1 1061   5.742   5.859   0.249
   54SOL    HW2 1062   5.758   6.018   0.286
   55SOL     OW 1063   2.081   2.543   6.393
   55SOL    HW1 1064   2.072   2.639   6.367
   55SOL    HW2 1065   2.138   2.495   6.326
   56SOL     OW 1066   1.491   2.019   0.028
   56SOL    HW1 1067   1.586   2.012   7.026
   56SOL    HW2 1068   1.453   1.928   0.039
   57SOL     OW 1069   3.849   0.894   0.298
   57SOL    HW1 1070   3.948   0.885   0.294
   57SOL    HW2 1071   3.823   0.989   0.280
   58SOL     OW 1072   0.916   0.612   6.221
   58SOL    HW1 1073   0.895   0.546   6.150
   58SOL    HW2 1074   1.013   0.637   6.216
   59SOL     OW 1075   6.226   3.426   6.487
   59SOL    HW1 1076   6.289   3.381   6.550
   59SOL    HW2 1077   6.239   3.390   6.395
   60SOL     OW 1078   5.360   0.738   3.330
   60SOL    HW1 1079   5.441   0.680   3.316
   60SOL    HW2 1080   5.342   0.790   3.247
   61SOL     OW 1081   0.253   1.420   4.799
   61SOL    HW1 1082   0.262   1.347   4.731
   61SOL    HW2 1083   0.182   1.484   4.769
   62SOL     OW 1084   0.388   1.578   2.284
   62SOL    HW1 1085   0.424   1.636   2.210
   62SOL    HW2 1086   0.434   1.601   2.370
   63SOL     OW 1087   3.924   6.556   4.151
   63SOL    HW1 1088   3.904   6.490   4.079
   63SOL    HW2 1089   3.994   6.620   4.119
   64SOL     OW 1090   1.642   4.158   6.810
   64SOL    HW1 1091   1.725   4.131   6.761
   64SOL    HW2 1092   1.665   4.176   6.906
   65SOL     OW 1093   0.624   0.466   5.350
   65SOL    HW1 1094   0.549   0.454   5.416
   65SOL    HW2 1095   0.594   0.526   5.276
   66SOL     OW 1096   3.835   6.804   1.888
   66SOL    HW1 1097   3.789   6.735   1.942
   66SOL    HW2 1098   3.795   6.894   1.907
   67SOL     OW 1099   0.423   2.175   0.819
   67SOL    HW1 1100   0.381   2.211   0.902
   67SOL    HW2 1101   0.468   2.088   0.838
   68SOL     OW 1102   0.034   2.695   5.679
   68SOL    HW1 1103   0.059   2.692   5.775
   68SOL    HW2 1104   0.043   2.788   5.644
   69SOL     OW 1105   1.310   5.513   5.944
   69SOL    HW1 1106   1.373   5.436   5.956
   69SOL    HW2 1107   1.235   5.485   5.884
   70SOL     OW 1108   5.372   3.649   4.694
   70SOL    HW1 1109   5.341   3.556   4.674
   70SOL    HW2 1110   5.293   3.709   4.705
   71SOL     OW 1111   4.530   2.000   4.707
   71SOL    HW1 1112   4.433   2.009   4.730
   71SOL    HW2 1113   4.565   2.090   4.679
   72SOL     OW 1114   6.865   0.243   3.816
   72SOL    HW1 1115   6.951   0.202   3.785
   72SOL    HW2 1116   6.884   0.310   3.887
   73SOL     OW 1117   2.780   0.533   0.886
   73SOL    HW1 1118   2.878   0.552   0.879
   73SOL    HW2 1119   2.765   0.452   0.943
   74SOL     OW 1120   2.115   1.345   6.449
   74SOL    HW1 1121   2.098   1.296   6.534
   74SOL    HW2 1122   2.161   1.284   6.384
   75SOL     OW 1123   4.105   1.244   0.988
   75SOL    HW1 1124   4.106   1.161   1.044
   75SOL    HW2 1125   4.155   1.317   1.035
   76SOL     OW 1126   3.161   4.463   5.301
   76SOL    HW1 1127   3.136   4.475   5.397
   76SOL    HW2 1128   3.089   4.502   5.242
   77SOL     OW 1129   2.051   5.166   4.548
   77SOL    HW1 1130   2.149   5.155   4.532
   77SOL    HW2 1131   2.002   5.161   4.461
   78SOL     OW 1132   4.282   1.422   1.110
   78SOL    HW1 1133   4.272   1.507   1.161
   78SOL    HW2 1134   4.341   1.359   1.160
   79SOL     OW 1135   1.999   4.807   1.747
   79SOL    HW1 1136   2.010   4.713   1.717
   79SOL    HW2 1137   2.085   4.857   1.731
   80SOL     OW 1138   4.988   2.116   5.134
   80SOL    HW1 1139   4.947   2.084   5.048
   80SOL    HW2 1140   4.983   2.216   5.137
   81SOL     OW 1141   2.594   6.265   1.181
   81SOL    HW1 1142   2.515   6.226   1.134
   81SOL    HW2 1143   2.653   6.192   1.215
   82SOL     OW 1144   1.119   5.806   1.739
   82SOL    HW1 1145   1.122   5.765   1.830
   82SOL    HW2 1146   1.024   5.826   1.715
   83SOL     OW 1147   5.704   2.052   5.925
   83SOL    HW1 1148   5.793   2.005   5.932
   83SOL    HW2 1149   5.656   2.045   6.012
   84SOL     OW 1150   6.390   3.206   3.534
   84SOL    HW1 1151   6.305   3.189   3.484
   84SOL    HW2 1152   6.468   3.196   3.472
   85SOL     OW 1153   1.789   0.163   4.126
   85SOL    HW1 1154   1.844   0.079   4.135
   85SOL    HW2 1155   1.694   0.138   4.108
   86SOL     OW 1156   5.781   1.658   6.164
   86SOL    HW1 1157   5.840   1.628   6.089
   86SOL    HW2 1158   5.837   1.705   6.233
   87SOL     OW 1159   4.367   4.597   6.417
   87SOL    HW1 1160   4.268   4.582   6.418
   87SOL    HW2 1161   4.395   4.637   6.504
   88SOL     OW 1162   2.697   3.117   5.855
   88SOL    HW1 1163   2.666   3.096   5.947
   88SOL    HW2 1164   2.682   3.214   5.835
   89SOL     OW 1165   3.066   3.077   2.738
   89SOL    HW1 1166   3.139   3.009   2.733
   89SOL    HW2 1167   3.070   3.135   2.656
   90SOL     OW 1168   4.840   3.452   2.792
   90SOL    HW1 1169   4.847   3.549   2.814
   90SOL    HW2 1170   4.885   3.434   2.705
   91SOL     OW 1171   5.828   5.437   5.802
   91SOL    HW1 1172   5.796   5.386   5.882
   91SOL    HW2 1173   5.906   5.389   5.761
   92SOL     OW 1174   5.211   4.685   6.941
   92SOL    HW1 1175   5.300   4.641   6.956
   92SOL    HW2 1176   5.138   4.623   6.968
   93SOL     OW 1177   2.967   2.853   0.972
   93SOL    HW1 1178   2.962   2.765   1.018
   93SOL    HW2 1179   2.909   2.919   1.019
   94SOL     OW 1180   3.232   0.406   5.704
   94SOL    HW1 1181   3.135   0.420   5.721
   94SOL    HW2 1182   3.284   0.487   5.733
   95SOL     OW 1183   0.107   0.510   4.224
   95SOL    HW1 1184   0.069   0.453   4.296
   95SOL    HW2 1185   0.193   0.470   4.191
   96SOL     OW 1186   4.986   4.968   6.435
   96SOL    HW1 1187   4.898   5.009   6.414
   96SOL    HW2 1188   5.032   5.021   6.507
   97SOL     OW 1189   2.208   5.100   5.507
   97SOL    HW1 1190   2.195   5.022   5.444
   97SOL    HW2 1191   2.303   5.104   5.536
   98SOL     OW 1192   1.002   3.079   2.310
   98SOL    HW1 1193   1.078   3.068   2.374
   98SOL    HW2 1194   1.027   3.040   2.221
   99SOL     OW 1195   3.794   3.260   3.896
   99SOL    HW1 1196   3.742   3.183   3.860
   99SOL    HW2 1197   3.878   3.226   3.940
  100SOL     OW 1198   6.958   6.731   4.153
  100SOL    HW1 1199   6.990   6.685   4.235
  100SOL    HW2 1200   6.882   6.680   4.113
  101SOL     OW 1201   0.997   4.274   2.858
  101SOL    HW1 1202   1.013   4.369   2.887
  101SOL    HW2 1203   0.962   4.273   2.765
  102SOL     OW 1204   2.851   6.345   1.678
  102SOL    HW1 1205   2.824   6.328   1.583
  102SOL    HW2 1206   2.775   6.389   1.727
  103SOL     OW 1207   2.008   1.387   2.369
  103SOL    HW1 1208   1.965   1.472   2.399
  103SOL    HW2 1209   2.073   1.406   2.296
  104SOL     OW 1210   1.584   4.256   1.889
  104SOL    HW1 1211   1.519   4.279   1.962
  104SOL    HW2 1212   1.597   4.157   1.885
  105SOL     OW 1213   5.068   1.848   6.622
  105SOL    HW1 1214   5.077   1.856   6.523
  105SOL    HW2 1215   5.107   1.761   6.652
  106SOL     OW 1216   5.336   5.320   1.895
  106SOL    HW1 1217   5.302   5.241   1.947
  106SOL    HW2 1218   5.395   5.376   1.954
  107SOL     OW 1219   6.374   1.653   0.374
  107SOL    HW1 1220   6.455   1.595   0.360
  107SOL    HW2 1221   6.306   1.633   0.304
  108SOL     OW 1222   1.777   0.554   4.893
  108SOL    HW1 1223   1.761   0.571   4.990
  108SOL    HW2 1224   1.863   0.504   4.882
  109SOL     OW 1225   3.470   1.143   3.410
  109SOL    HW1 1226   3.456   1.240   3.424
  109SOL    HW2 1227   3.431   1.091   3.486
  110SOL     OW 1228   2.881   4.637   5.713
  110SOL    HW1 1229   2.814   4.563   5.724
  110SOL    HW2 1230   2.963   4.616   5.766
  111SOL     OW 1231   5.674   1.574   2.429
  111SOL    HW1 1232   5.627   1.584   2.517
  111SOL    HW2 1233   5.637   1.640   2.364
  112SOL     OW 1234   4.032   0.250   6.688
  112SOL    HW1 1235   4.046   0.152   6.682
  112SOL    HW2 1236   3.985   0.282   6.606
  113SOL     OW 1237   6.362   5.549   2.507
  113SOL    HW1 1238   6.423   5.609   2.455
  113SOL    HW2 1239   6.410   5.464   2.529
  114SOL     OW 1240   1.470   4.065   4.211
  114SOL    HW1 1241   1.507   4.037   4.123
  114SOL    HW2 1242   1.535   4.041   4.284
  115SOL     OW 1243   6.404   0.857   3.545
  115SOL    HW1 1244   6.419   0.942   3.494
  115SOL    HW2 1245   6.309   0.854   3.576
  116SOL     OW 1246   1.142   5.530   0.992
  116SOL    HW1 1247   1.171   5.522   0.897
  116SOL    HW2 1248   1.094   5.616   1.005
  117SOL     OW 1249   2.510   1.900   0.084
  117SOL    HW1 1250   2.540   1.989   0.118
  117SOL    HW2 1251   2.574   1.829   0.115
  118SOL     OW 1252   1.130   1.624   3.945
  118SOL    HW1 1253   1.106   1.710   3.899
  118SOL    HW2 1254   1.228   1.608   3.938
  119SOL     OW 1255   0.237   0.132   6.512
  119SOL    HW1 1256   0.291   0.211   6.539
  119SOL    HW2 1257   0.268   0.052   6.563
  120SOL     OW 1258   4.636   1.092   5.142
  120SOL    HW1 1259   4.732   1.071   5.121
  120SOL    HW2 1260   4.633   1.166   5.210
  121SOL     OW 1261   0.909   3.300   6.395
  121SOL    HW1 1262   0.909   3.292   6.494
  121SOL    HW2 1263   0.933   3.212   6.354
  122SOL     OW 1264   1.042   4.103   6.849
  122SOL    HW1 1265   1.109   4.034   6.821
  122SOL    HW2 1266   1.046   4.181   6.786
  123SOL     OW 1267   0.967   1.130   1.607
  123SOL    HW1 1268   1.033   1.155   1.536
  123SOL    HW2 1269   0.947   1.032   1.601
  124SOL     OW 1270   3.148   2.172   0.931
  124SOL    HW1 1271   3.063   2.208   0.970
  124SOL    HW2 1272   3.164   2.080   0.965
  125SOL     OW 1273   3.341   2.773   6.643
  125SOL    HW1 1274   3.278   2.819   6.581
  125SOL    HW2 1275   3.428   2.757   6.596
  126SOL     OW 1276   4.001   3.072   3.771
  126SOL    HW1 1277   3.948   3.023   3.702
  126SOL    HW2 1278   3.960   3.060   3.861
  127SOL     OW 1279   0.479   6.068   6.160
  127SOL    HW1 1280   0.421   6.042   6.083
  127SOL    HW2 1281   0.570   6.027   6.149
  128SOL     OW 1282   4.529   3.722   1.374
  128SOL    HW1 1283   4.557   3.798   1.316
  128SOL    HW2 1284   4.566   3.734   1.466
  129SOL     OW 1285   2.076   6.105   1.036
  129SOL    HW1 1286   2.110   6.105   0.941
  129SOL    HW2 1287   2.031   6.192   1.055
  130SOL     OW 1288   5.470   2.137   4.443
  130SOL    HW1 1289   5.375   2.125   4.472
  130SOL    HW2 1290   5.487   2.083   4.361
  131SOL     OW 1291   0.673   2.338   3.808
  131SOL    HW1 1292   0.580   2.303   3.804
  131SOL    HW2 1293   0.724   2.292   3.881
  132SOL     OW 1294   3.553   4.079   2.060
  132SOL    HW1 1295   3.498   4.090   2.143
  132SOL    HW2 1296   3.495   4.043   1.987
  133SOL     OW 1297   5.181   6.404   4.982
  133SOL    HW1 1298   5.205   6.337   4.911
  133SOL    HW2 1299   5.178   6.358   5.071
  134SOL     OW 1300   5.825   1.484   2.185
  134SOL    HW1 1301   5.924   1.479   2.175
  134SOL    HW2 1302   5.800   1.467   2.281
  135SOL     OW 1303   4.874   3.546   4.213
  135SOL    HW1 1304   4.881   3.595   4.300
  135SOL    HW2 1305   4.862   3.612   4.139
  136SOL     OW 1306   2.300   6.935   4.456
  136SOL    HW1 1307   2.374   6.989   4.497
  136SOL    HW2 1308   2.340   6.857   4.408
  137SOL     OW 1309   3.315   2.089   4.884
  137SOL    HW1 1310   3.265   2.161   4.933
  137SOL    HW2 1311   3.251   2.033   4.831
  138SOL     OW 1312   0.662   5.365   4.991
  138SOL    HW1 1313   0.675   5.298   5.063
  138SOL    HW2 1314   0.571   5.354   4.951
  139SOL     OW 1315   1.988   6.234   6.420
  139SOL    HW1 1316   2.082   6.252   6.449
  139SOL    HW2 1317   1.960   6.302   6.352
  140SOL     OW 1318   2.294   1.087   3.043
  140SOL    HW1 1319   2.259   1.181   3.049
  140SOL    HW2 1320   2.372   1.085   2.981
  141SOL     OW 1321   6.656   4.168   0.489
  141SOL    HW1 1322   6.590   4.184   0.562
  141SOL    HW2 1323   6.608   4.165   0.401
  142SOL     OW 1324   1.191   4.233   1.605
  142SOL    HW1 1325   1.173   4.135   1.600
  142SOL    HW2 1326   1.142   4.280   1.531
  143SOL     OW 1327   5.565   0.028   1.798
  143SOL    HW1 1328   5.568   0.023   1.698
  143SOL    HW2 1329   5.578   6.965   1.837
  144SOL     OW 1330   2.878   4.741   3.424
  144SOL    HW1 1331   2.781   4.722   3.439
  144SOL    HW2 1332   2.917   4.784   3.505
  145SOL     OW 1333   6.862   4.466   2.505
  145SOL    HW1 1334   6.907   4.491   2.591
  145SOL    HW2 1335   6.813   4.546   2.469
  146SOL     OW 1336   5.965   1.923   5.941
  146SOL    HW1 1337   6.046   1.904   5.885
  146SOL    HW2 1338   5.920   1.836   5.964
  147SOL     OW 1339   5.234   1.599   5.803
  147SOL    HW1 1340   5.161   1.553   5.751
  147SOL    HW2 1341   5.312   1.614   5.743
  148SOL     OW 1342   1.535   4.487   1.283
  148SOL    HW1 1343   1.467   4.415   1.267
  148SOL    HW2 1344   1.606   4.452   1.344
  149SOL     OW 1345   2.596   2.231   5.345
  149SOL    HW1 1346   2.628   2.319   5.379
  149SOL    HW2 1347   2.520   2.245   5.282
  150SOL     OW 1348   4.433   1.118   5.499
  150SOL    HW1 1349   4.439   1.193   5.434
  150SOL    HW2 1350   4.520   1.070   5.504
  151SOL     OW 1351   4.175   1.998   0.968
  151SOL    HW1 1352   4.110   1.998   1.044
  151SOL    HW2 1353   4.193   2.092   0.939
  152SOL     OW 1354   1.154   1.072   0.367
  152SOL    HW1 1355   1.111   1.161   0.382
  152SOL    HW2 1356   1.242   1.070   0.415
  153SOL     OW 1357   2.781   1.189   3.872
  153SOL    HW1 1358   2.866   1.174   3.923
  153SOL    HW2 1359   2.765   1.288   3.864
  154SOL     OW 1360   6.141   1.866   1.481
  154SOL    HW1 1361   6.190   1.945   1.443
  154SOL    HW2 1362   6.145   1.870   1.581
  155SOL     OW 1363   0.455   0.031   1.891
  155SOL    HW1 1364   0.436   0.083   1.975
  155SOL    HW2 1365   0.448   0.092   1.812
  156SOL     OW 1366   4.562   1.011   0.493
  156SOL    HW1 1367   4.477   0.957   0.486
  156SOL    HW2 1368   4.617   0.995   0.411
  157SOL     OW 1369   5.038   4.104   0.592
  157SOL    HW1 1370   4.980   4.031   0.626
  157SOL    HW2 1371   5.042   4.178   0.660
  158SOL     OW 1372   1.038   3.062   2.707
  158SOL    HW1 1373   0.964   3.054   2.774
  158SOL    HW2 1374   1.063   3.159   2.697
  159SOL     OW 1375   5.222   5.514   0.201
  159SOL    HW1 1376   5.150   5.509   0.271
  159SOL    HW2 1377   5.304   5.468   0.235
  160SOL     OW 1378   5.952   0.024   0.706
  160SOL    HW1 1379   5.866   0.075   0.702
  160SOL    HW2 1380   6.026   0.081   0.669
  161SOL     OW 1381   1.103   0.012   0.534
  161SOL    HW1 1382   1.098   6.950   0.492
  161SOL    HW2 1383   1.195   0.050   0.520
  162SOL     OW 1384   2.485   6.175   6.877
  162SOL    HW1 1385   2.492   6.257   6.820
  162SOL    HW2 1386   2.492   6.201   6.973
  163SOL     OW 1387   6.646   4.112   3.551
  163SOL    HW1 1388   6.602   4.198   3.524
  163SOL    HW2 1389   6.576   4.040   3.558
  164SOL     OW 1390   1.733   1.730   2.911
  164SOL    HW1 1391   1.696   1.820   2.936
  164SOL    HW2 1392   1.806   1.705   2.974
  165SOL     OW 1393   0.928   5.654   2.385
  165SOL    HW1 1394   0.877   5.632   2.301
  165SOL    HW2 1395   1.000   5.720   2.363
  166SOL     OW 1396   6.063   3.823   2.289
  166SOL    HW1 1397   5.981   3.863   2.249
  166SOL    HW2 1398   6.120   3.783   2.217
  167SOL     OW 1399   5.234   1.838   0.504
  167SOL    HW1 1400   5.330   1.824   0.530
  167SOL    HW2 1401   5.209   1.773   0.433
  168SOL     OW 1402   4.906   3.697   2.309
  168SOL    HW1 1403   4.998   3.726   2.282
  168SOL    HW2 1404   4.839   3.760   2.269
  169SOL     OW 1405   6.246   2.469   1.268
  169SOL    HW1 1406   6.192   2.423   1.197
  169SOL    HW2 1407   6.342   2.473   1.240
  170SOL     OW 1408   0.937   5.154   2.334
  170SOL    HW1 1409   0.911   5.099   2.413
  170SOL    HW2 1410   1.036   5.150   2.321
  171SOL     OW 1411   2.873   3.746   0.794
  171SOL    HW1 1412   2.797   3.686   0.769
  171SOL    HW2 1413   2.960   3.698   0.778
  172SOL     OW 1414   6.037   2.006   2.063
  172SOL    HW1 1415   5.994   2.041   1.979
  172SOL    HW2 1416   6.113   2.065   2.088
  173SOL     OW 1417   6.813   1.889   5.428
  173SOL    HW1 1418   6.800   1.975   5.379
  173SOL    HW2 1419   6.842   1.909   5.522
  174SOL     OW 1420   5.792   5.717   5.235
  174SOL    HW1 1421   5.815   5.671   5.150
  174SOL    HW2 1422   5.846   5.801   5.243
  175SOL     OW 1423   1.445   0.560   0.607
  175SOL    HW1 1424   1.438   0.645   0.553
  175SOL    HW2 1425   1.515   0.501   0.567
  176SOL     OW 1426   5.245   4.664   2.437
  176SOL    HW1 1427   5.237   4.566   2.418
  176SOL    HW2 1428   5.162   4.711   2.405
  177SOL     OW 1429   5.734   2.151   4.212
  177SOL    HW1 1430   5.761   2.245   4.190
  177SOL    HW2 1431   5.640   2.136   4.180
  178SOL     OW 1432   2.262   6.370   5.000
  178SOL    HW1 1433   2.257   6.470   4.989
  178SOL    HW2 1434   2.280   6.348   5.096
  179SOL     OW 1435   4.330   5.321   0.613
  179SOL    HW1 1436   4.323   5.417   0.588
  179SOL    HW2 1437   4.242   5.276   0.601
  180SOL     OW 1438   3.935   0.522   1.092
  180SOL    HW1 1439   3.842   0.558   1.084
  180SOL    HW2 1440   3.981   0.526   1.004
  181SOL     OW 1441   3.198   2.412   5.466
  181SOL    HW1 1442   3.275   2.376   5.518
  181SOL    HW2 1443   3.192   2.366   5.378
  182SOL     OW 1444   5.448   2.513   0.196
  182SOL    HW1 1445   5.436   2.612   0.186
  182SOL    HW2 1446   5.472   2.491   0.290
  183SOL     OW 1447   3.597   1.470   4.601
  183SOL    HW1 1448   3.658   1.464   4.522
  183SOL    HW2 1449   3.620   1.552   4.654
  184SOL     OW 1450   0.144   6.445   3.243
  184SOL    HW1 1451   0.106   6.507   3.312
  184SOL    HW2 1452   0.076   6.431   3.171
  185SOL     OW 1453   0.585   1.994   4.044
  185SOL    HW1 1454   0.486   1.981   4.042
  185SOL    HW2 1455   0.620   1.961   4.132
  186SOL     OW 1456   5.179   5.366   4.056
  186SOL    HW1 1457   5.266   5.340   4.013
  186SOL    HW2 1458   5.109   5.298   4.032
  187SOL     OW 1459   3.903   5.555   2.774
  187SOL    HW1 1460   3.922   5.580   2.869
  187SOL    HW2 1461   3.852   5.629   2.730
  188SOL     OW 1462   2.250   2.512   2.665
  188SOL    HW1 1463   2.248   2.587   2.598
  188SOL    HW2 1464   2.301   2.435   2.627
  189SOL     OW 1465   6.244   5.496   6.611
  189SOL    HW1 1466   6.157   5.449   6.599
  189SOL    HW2 1467   6.254   5.522   6.707
  190SOL     OW 1468   6.254   5.750   0.714
  190SOL    HW1 1469   6.305   5.817   0.662
  190SOL    HW2 1470   6.164   5.736   0.672
  191SOL     OW 1471   6.102   0.911   6.404
  191SOL    HW1 1472   6.088   1.009   6.394
  191SOL    HW2 1473   6.097   0.868   6.314
  192SOL     OW 1474   0.091   4.995   1.156
  192SOL    HW1 1475   0.067   5.075   1.212
  192SOL    HW2 1476   0.184   4.967   1.178
  193SOL     OW 1477   3.241   4.939   6.530
  193SOL    HW1 1478   3.271   4.855   6.484
  193SOL    HW2 1479   3.275   4.940   6.624
  194SOL     OW 1480   3.993   6.480   2.021
  194SOL    HW1 1481   4.072   6.422   2.035
  194SOL    HW2 1482   4.019   6.559   1.965
  195SOL     OW 1483   3.256   0.978   1.717
  195SOL    HW1 1484   3.179   0.989   1.653
  195SOL    HW2 1485   3.292   1.068   1.741
  196SOL     OW 1486   2.392   0.942   6.347
  196SOL    HW1 1487   2.423   0.889   6.426
  196SOL    HW2 1488   2.303   0.982   6.367
  197SOL     OW 1489   2.635   5.612   0.042
  197SOL    HW1 1490   2.671   5.677   7.003
  197SOL    HW2 1491   2.543   5.582   0.014
  198SOL     OW 1492   4.271   5.960   0.363
  198SOL    HW1 1493   4.321   5.970   0.449
  198SOL    HW2 1494   4.195   5.896   0.375
  199SOL     OW 1495   5.485   6.909   2.542
  199SOL    HW1 1496   5.406   6.868   2.496
  199SOL    HW2 1497   5.471   7.007   2.551
  200SOL     OW 1498   1.131   4.001   2.258
  200SOL    HW1 1499   1.120   3.901   2.258
  200SOL    HW2 1500   1.209   4.026   2.201
  201SOL     OW 1501   2.875   1.014   6.858
  201SOL    HW1 1502   2.821   1.097   6.856
  201SOL    HW2 1503   2.963   1.032   6.903
  202SOL     OW 1504   4.617   0.083   3.858
  202SOL    HW1 1505   4.579   0.111   3.769
  202SOL    HW2 1506   4.617   0.160   3.921
  203SOL     OW 1507   5.097   3.438   6.485
  203SOL    HW1 1508   5.155   3.476   6.413
  203SOL    HW2 1509   5.079   3.342   6.466
  204SOL     OW 1510   2.013   0.114   0.461
  204SOL    HW1 1511   2.031   0.115   0.559
  204SOL    HW2 1512   2.035   0.203   0.421
  205SOL     OW 1513   6.177   1.365   1.048
  205SOL    HW1 1514   6.268   1.350   1.009
  205SOL    HW2 1515   6.186   1.404   1.139
  206SOL     OW 1516   0.767   4.467   1.350
  206SOL    HW1 1517   0.668   4.452   1.358
  206SOL    HW2 1518   0.784   4.550   1.297
  207SOL     OW 1519   4.495   0.550   5.872
  207SOL    HW1 1520   4.595   0.547   5.872
  207SOL    HW2 1521   4.462   0.559   5.966
  208SOL     OW 1522   5.240   5.248   5.891
  208SOL    HW1 1523   5.324   5.226   5.842
  208SOL    HW2 1524   5.222   5.178   5.960
  209SOL     OW 1525   0.181   6.336   6.052
  209SOL    HW1 1526   0.125   6.254   6.053
  209SOL    HW2 1527   0.254   6.326   5.985
  210SOL     OW 1528   3.921   2.142   2.137
  210SOL    HW1 1529   3.881   2.084   2.208
  210SOL    HW2 1530   3.851   2.170   2.072
  211SOL     OW 1531   0.756   1.050   1.348
  211SOL    HW1 1532   0.689   1.095   1.407
  211SOL    HW2 1533   0.821   0.999   1.405
  212SOL     OW 1534   0.623   4.490   3.447
  212SOL    HW1 1535   0.678   4.541   3.514
  212SOL    HW2 1536   0.677   4.414   3.410
  213SOL     OW 1537   5.237   1.258   0.287
  213SOL    HW1 1538   5.229   1.199   0.207
  213SOL    HW2 1539   5.200   1.211   0.367
  214SOL     OW 1540   0.896   6.401   3.247
  214SOL    HW1 1541   0.923   6.334   3.317
  214SOL    HW2 1542   0.823   6.459   3.284
  215SOL     OW 1543   3.774   3.521   1.705
  215SOL    HW1 1544   3.682   3.483   1.690
  215SOL    HW2 1545   3.838   3.448   1.726
  216SOL     OW 1546   1.071   0.302   4.697
  216SOL    HW1 1547   1.140   0.238   4.662
  216SOL    HW2 1548   0.989   0.297   4.641
  217SOL     OW 1549   1.819   2.587   3.928
  217SOL    HW1 1550   1.794   2.509   3.985
  217SOL    HW2 1551   1.865   2.656   3.984
  218SOL     OW 1552   1.131   2.580   4.531
  218SOL    HW1 1553   1.217   2.578   4.584
  218SOL    HW2 1554   1.068   2.644   4.574
  219SOL     OW 1555   3.632   3.940   0.706
  219SOL    HW1 1556   3.600   3.894   0.623
  219SOL    HW2 1557   3.555   3.983   0.752
  220SOL     OW 1558   2.812   5.591   6.803
  220SOL    HW1 1559   2.909   5.581   6.781
  220SOL    HW2 1560   2.776   5.503   6.836
  221SOL     OW 1561   5.195   2.923   4.036
  221SOL    HW1 1562   5.240   2.979   3.967
  221SOL    HW2 1563   5.262   2.863   4.079
  222SOL     OW 1564   1.534   5.573   5.290
  222SOL    HW1 1565   1.569   5.664   5.312
  222SOL    HW2 1566   1.574   5.506   5.353
  223SOL     OW 1567   6.823   3.438   2.107
  223SOL    HW1 1568   6.825   3.538   2.107
  223SOL    HW2 1569   6.844   3.404   2.015
  224SOL     OW 1570   2.628   2.410   2.050
  224SOL    HW1 1571   2.728   2.415   2.058
  224SOL    HW2 1572   2.600   2.446   1.961
  225SOL     OW 1573   5.549   0.752   0.123
  225SOL    HW1 1574   5.585   0.829   0.176
  225SOL    HW2 1575   5.584   0.667   0.161
  226SOL     OW 1576   1.380   6.373   0.606
  226SOL    HW1 1577   1.372   6.347   0.702
  226SOL    HW2 1578   1.352   6.296   0.548
  227SOL     OW 1579   1.910   3.772   3.561
  227SOL    HW1 1580   1.978   3.846   3.556
  227SOL    HW2 1581   1.956   3.687   3.589
  228SOL     OW 1582   3.764   6.980   4.244
  228SOL    HW1 1583   3.761   6.954   4.340
  228SOL    HW2 1584   3.760   0.051   4.235
  229SOL     OW 1585   6.363   5.488   1.742
  229SOL    HW1 1586   6.296   5.556   1.714
  229SOL    HW2 1587   6.371   5.488   1.842
  230SOL     OW 1588   2.099   4.017   4.882
  230SOL    HW1 1589   2.019   4.063   4.920
  230SOL    HW2 1590   2.172   4.015   4.950
  231SOL     OW 1591   6.911   2.648   6.457
  231SOL    HW1 1592   6.876   2.637   6.550
  231SOL    HW2 1593   6.836   2.636   6.391
  232SOL     OW 1594   1.736   3.657   6.518
  232SOL    HW1 1595   1.646   3.632   6.483
  232SOL    HW2 1596   1.799   3.673   6.441
  233SOL     OW 1597   2.439   1.342   5.537
  233SOL    HW1 1598   2.505   1.332   5.612
  233SOL    HW2 1599   2.388   1.427   5.549
  234SOL     OW 1600   2.963   4.869   0.072
  234SOL    HW1 1601   3.056   4.838   0.050
  234SOL    HW2 1602   2.912   4.883   7.015
  235SOL     OW 1603   3.439   3.042   3.986
  235SOL    HW1 1604   3.493   3.048   4.069
  235SOL    HW2 1605   3.356   3.098   3.995
  236SOL     OW 1606   6.762   2.727   5.516
  236SOL    HW1 1607   6.776   2.644   5.461
  236SOL    HW2 1608   6.850   2.774   5.527
  237SOL     OW 1609   6.758   6.867   1.578
  237SOL    HW1 1610   6.808   6.790   1.537
  237SOL    HW2 1611   6.820   6.945   1.587
  238SOL     OW 1612   5.764   3.301   1.971
  238SOL    HW1 1613   5.729   3.391   1.999
  238SOL    HW2 1614   5.736   3.232   2.038
  239SOL     OW 1615   6.993   5.626   6.704
  239SOL    HW1 1616   6.991   5.600   6.608
  239SOL    HW2 1617   0.050   5.675   6.725
  240SOL     OW 1618   0.701   3.663   6.643
  240SOL    HW1 1619   0.714   3.573   6.683
  240SOL    HW2 1620   0.714   3.658   6.544
  241SOL     OW 1621   0.141   1.003   3.650
  241SOL    HW1 1622   0.233   1.040   3.666
  241SOL    HW2 1623   0.077   1.043   3.716
  242SOL     OW 1624   1.391   3.918   4.679
  242SOL    HW1 1625   1.394   3.846   4.609
  242SOL    HW2 1626   1.448   3.892   4.756
  243SOL     OW 1627   5.441   0.318   6.014
  243SOL    HW1 1628   5.354   0.300   6.059
  243SOL    HW2 1629   5.516   0.302   6.079
  244SOL     OW 1630   5.501   2.153   5.180
  244SOL    HW1 1631   5.547   2.084   5.236
  244SOL    HW2 1632   5.402   2.143   5.191
  245SOL     OW 1633   6.591   2.350   4.984
  245SOL    HW1 1634   6.650   2.270   4.998
  245SOL    HW2 1635   6.639   2.417   4.927
  246SOL     OW 1636   4.870   3.666   3.250
  246SOL    HW1 1637   4.868   3.569   3.225
  246SOL    HW2 1638   4.866   3.675   3.349
  247SOL     OW 1639   2.194   1.297   3.744
  247SOL    HW1 1640   2.229   1.210   3.781
  247SOL    HW2 1641   2.119   1.329   3.802
  248SOL     OW 1642   4.892   2.054   4.402
  248SOL    HW1 1643   4.934   2.086   4.487
  248SOL    HW2 1644   4.907   2.122   4.330
  249SOL     OW 1645   3.434   6.454   4.576
  249SOL    HW1 1646   3.374   6.387   4.620
  249SOL    HW2 1647   3.525   6.415   4.564
  250SOL     OW 1648   5.047   2.950   5.303
  250SOL    HW1 1649   5.004   2.864   5.274
  250SOL    HW2 1650   5.025   2.968   5.399
  251SOL     OW 1651   4.837   3.089   6.422
  251SOL    HW1 1652   4.760   3.075   6.360
  251SOL    HW2 1653   4.805   3.084   6.517
  252SOL     OW 1654   6.290   1.189   6.138
  252SOL    HW1 1655   6.354   1.225   6.070
  252SOL    HW2 1656   6.222   1.259   6.160
  253SOL     OW 1657   2.519   3.204   0.572
  253SOL    HW1 1658   2.590   3.257   0.619
  253SOL    HW2 1659   2.434   3.257   0.568
  254SOL     OW 1660   6.443   3.267   4.498
  254SOL    HW1 1661   6.494   3.311   4.424
  254SOL    HW2 1662   6.353   3.310   4.507
  255SOL     OW 1663   2.968   2.255   3.411
  255SOL    HW1 1664   3.052   2.201   3.413
  255SOL    HW2 1665   2.934   2.268   3.504
  256SOL     OW 1666   6.094   5.186   7.018
  256SOL    HW1 1667   6.116   5.128   6.939
  256SOL    HW2 1668   6.177   5.226   0.026
  257SOL     OW 1669   3.036   5.595   5.919
  257SOL    HW1 1670   3.132   5.585   5.892
  257SOL    HW2 1671   2.987   5.648   5.849
  258SOL     OW 1672   4.917   4.307   3.906
  258SOL    HW1 1673   4.863   4.323   3.989
  258SOL    HW2 1674   4.972   4.225   3.917
  259SOL     OW 1675   1.304   3.331   2.568
  259SOL    HW1 1676   1.322   3.277   2.486
  259SOL    HW2 1677   1.222   3.386   2.554
  260SOL     OW 1678   5.448   0.361   6.683
  260SOL    HW1 1679   5.422   0.311   6.600
  260SOL    HW2 1680   5.515   0.432   6.659
  261SOL     OW 1681   0.739   4.168   2.076
  261SOL    HW1 1682   0.813   4.124   2.025
  261SOL    HW2 1683   0.742   4.266   2.062
  262SOL     OW 1684   1.234   3.247   2.002
  262SOL    HW1 1685   1.334   3.243   2.007
  262SOL    HW2 1686   1.199   3.300   2.079
  263SOL     OW 1687   0.950   2.231   4.699
  263SOL    HW1 1688   0.935   2.132   4.693
  263SOL    HW2 1689   0.989   2.264   4.613
  264SOL     OW 1690   1.240   4.182   5.933
  264SOL    HW1 1691   1.143   4.162   5.940
  264SOL    HW2 1692   1.291   4.123   5.997
  265SOL     OW 1693   5.106   4.504   3.880
  265SOL    HW1 1694   5.050   4.424   3.904
  265SOL    HW2 1695   5.201   4.476   3.871
  266SOL     OW 1696   3.969   1.802   0.621
  266SOL    HW1 1697   3.882   1.799   0.572
  266SOL    HW2 1698   4.031   1.734   0.581
  267SOL     OW 1699   1.868   2.436   6.102
  267SOL    HW1 1700   1.966   2.427   6.117
  267SOL    HW2 1701   1.850   2.512   6.040
  268SOL     OW 1702   4.475   4.515   4.587
  268SOL    HW1 1703   4.456   4.593   4.647
  268SOL    HW2 1704   4.481   4.432   4.641
  269SOL     OW 1705   1.429   1.967   6.465
  269SOL    HW1 1706   1.505   2.012   6.418
  269SOL    HW2 1707   1.463   1.921   6.547
  270SOL     OW 1708   5.303   0.590   2.335
  270SOL    HW1 1709   5.355   0.675   2.319
  270SOL    HW2 1710   5.205   0.610   2.331
  271SOL     OW 1711   1.649   0.379   0.475
  271SOL    HW1 1712   1.639   0.350   0.380
  271SOL    HW2 1713   1.682   0.303   0.531
  272SOL     OW 1714   3.944   5.457   3.243
  272SOL    HW1 1715   3.873   5.387   3.233
  272SOL    HW2 1716   4.033   5.416   3.227
  273SOL     OW 1717   1.920   5.996   4.812
  273SOL    HW1 1718   1.931   6.061   4.737
  273SOL    HW2 1719   1.875   5.914   4.780
  274SOL     OW 1720   6.094   2.607   2.539
  274SOL    HW1 1721   6.142   2.530   2.581
  274SOL    HW2 1722   6.161   2.677   2.514
  275SOL     OW 1723   6.825   6.694   5.857
  275SOL    HW1 1724   6.911   6.745   5.862
  275SOL    HW2 1725   6.844   6.597   5.841
  276SOL     OW 1726   6.411   5.887   3.615
  276SOL    HW1 1727   6.485   5.933   3.565
  276SOL    HW2 1728   6.448   5.847   3.699
  277SOL     OW 1729   3.383   1.907   5.287
  277SOL    HW1 1730   3.441   1.894   5.368
  277SOL    HW2 1731   3.345   1.999   5.289
  278SOL     OW 1732   5.354   3.871   2.333
  278SOL    HW1 1733   5.403   3.786   2.351
  278SOL    HW2 1734   5.272   3.852   2.280
  279SOL     OW 1735   0.204   2.798   2.836
  279SOL    HW1 1736   0.207   2.804   2.736
  279SOL    HW2 1737   0.252   2.715   2.866
  280SOL     OW 1738   5.391   6.858   3.859
  280SOL    HW1 1739   5.347   6.935   3.906
  280SOL    HW2 1740   5.436   6.800   3.927
  281SOL     OW 1741   4.779   5.897   3.983
  281SOL    HW1 1742   4.810   5.929   3.894
  281SOL    HW2 1743   4.858   5.868   4.038
  282SOL     OW 1744   4.411   2.310   6.748
  282SOL    HW1 1745   4.453   2.328   6.659
  282SOL    HW2 1746   4.439   2.381   6.813
  283SOL     OW 1747   6.196   0.841   4.929
  283SOL    HW1 1748   6.258   0.789   4.989
  283SOL    HW2 1749   6.200   0.938   4.954
  284SOL     OW 1750   6.860   4.952   5.330
  284SOL    HW1 1751   6.786   4.994   5.277
  284SOL    HW2 1752   6.891   5.016   5.400
  285SOL     OW 1753   4.393   0.431   6.626
  285SOL    HW1 1754   4.426   0.519   6.661
  285SOL    HW2 1755   4.361   0.375   6.701
  286SOL     OW 1756   3.687   5.132   4.431
  286SOL    HW1 1757   3.596   5.174   4.424
  286SOL    HW2 1758   3.686   5.042   4.389
  287SOL     OW 1759   2.698   6.456   5.656
  287SOL    HW1 1760   2.771   6.461   5.588
  287SOL    HW2 1761   2.713   6.527   5.725
  288SOL     OW 1762   3.606   0.926   0.579
  288SOL    HW1 1763   3.535   0.893   0.640
  288SOL    HW2 1764   3.564   0.965   0.497
  289SOL     OW 1765   0.416   6.678   4.738
  289SOL    HW1 1766   0.447   6.695   4.644
  289SOL    HW2 1767   0.388   6.765   4.780
  290SOL     OW 1768   4.089   0.936   3.903
  290SOL    HW1 1769   4.002   0.926   3.951
  290SOL    HW2 1770   4.160   0.967   3.966
  291SOL     OW 1771   4.879   0.756   4.442
  291SOL    HW1 1772   4.890   0.847   4.401
  291SOL    HW2 1773   4.931   0.689   4.388
  292SOL     OW 1774   3.368   0.217   3.748
  292SOL    HW1 1775   3.387   0.122   3.772
  292SOL    HW2 1776   3.455   0.267   3.739
  293SOL     OW 1777   6.113   6.237   2.799
  293SOL    HW1 1778   6.125   6.232   2.898
  293SOL    HW2 1779   6.184   6.295   2.759
  294SOL     OW 1780   5.633   0.677   5.436
  294SOL    HW1 1781   5.592   0.765   5.458
  294SOL    HW2 1782   5.695   0.687   5.359
  295SOL     OW 1783   1.609   2.037   4.880
  295SOL    HW1 1784   1.704   2.011   4.898
  295SOL    HW2 1785   1.558   2.035   4.966
  296SOL     OW 1786   6.496   1.001   1.718
  296SOL    HW1 1787   6.572   1.047   1.763
  296SOL    HW2 1788   6.488   0.908   1.752
  297SOL     OW 1789   5.609   4.111   3.412
  297SOL    HW1 1790   5.596   4.157   3.501
  297SOL    HW2 1791   5.527   4.124   3.356
  298SOL     OW 1792   3.919   0.698   0.469
  298SOL    HW1 1793   3.992   0.730   0.530
  298SOL    HW2 1794   3.881   0.776   0.419
  299SOL     OW 1795   3.197   1.586   6.694
  299SOL    HW1 1796   3.172   1.681   6.715
  299SOL    HW2 1797   3.243   1.583   6.605
  300SOL     OW 1798   3.754   1.205   2.580
  300SOL    HW1 1799   3.780   1.299   2.560
  300SOL    HW2 1800   3.665   1.185   2.539
  301SOL     OW 1801   5.663   5.783   2.049
  301SOL    HW1 1802   5.722   5.826   2.117
  301SOL    HW2 1803   5.686   5.687   2.040
  302SOL     OW 1804   6.860   6.179   1.356
  302SOL    HW1 1805   6.881   6.202   1.452
  302SOL    HW2 1806   6.921   6.231   1.296
  303SOL     OW 1807   6.566   5.669   2.306
  303SOL    HW1 1808   6.513   5.690   2.224
  303SOL    HW2 1809   6.595   5.574   2.305
  304SOL     OW 1810   1.104   0.220   4.964
  304SOL    HW1 1811   1.065   0.127   4.961
  304SOL    HW2 1812   1.086   0.266   4.877
  305SOL     OW 1813   1.674   2.836   1.653
  305SOL    HW1 1814   1.755   2.872   1.606
  305SOL    HW2 1815   1.639   2.758   1.602
  306SOL     OW 1816   6.786   0.491   3.478
  306SOL    HW1 1817   6.747   0.560   3.418
  306SOL    HW2 1818   6.823   0.416   3.423
  307SOL     OW 1819   3.129   3.376   1.672
  307SOL    HW1 1820   3.084   3.355   1.759
  307SOL    HW2 1821   3.211   3.319   1.663
  308SOL     OW 1822   5.258   0.561   4.191
  308SOL    HW1 1823   5.219   0.615   4.116
  308SOL    HW2 1824   5.266   0.465   4.162
  309SOL     OW 1825   0.423   6.754   6.897
  309SOL    HW1 1826   0.323   6.746   6.906
  309SOL    HW2 1827   0.453   6.841   6.936
  310SOL     OW 1828   5.193   5.834   4.719
  310SOL    HW1 1829   5.134   5.846   4.638
  310SOL    HW2 1830   5.145   5.777   4.786
  311SOL     OW 1831   1.854   5.376   3.186
  311SOL    HW1 1832   1.912   5.306   3.145
  311SOL    HW2 1833   1.887   5.467   3.159
  312SOL     OW 1834   4.655   2.299   3.411
  312SOL    HW1 1835   4.749   2.308   3.376
  312SOL    HW2 1836   4.657   2.259   3.503
  313SOL     OW 1837   3.491   3.626   3.109
  313SOL    HW1 1838   3.418   3.655   3.171
  313SOL    HW2 1839   3.514   3.530   3.126
  314SOL     OW 1840   1.845   6.530   5.248
  314SOL    HW1 1841   1.826   6.436   5.222
  314SOL    HW2 1842   1.937   6.555   5.218
  315SOL     OW 1843   6.433   1.113   3.403
  315SOL    HW1 1844   6.394   1.185   3.460
  315SOL    HW2 1845   6.364   1.078   3.341
  316SOL     OW 1846   3.990   1.788   5.813
  316SOL    HW1 1847   4.062   1.725   5.843
  316SOL    HW2 1848   3.916   1.789   5.881
  317SOL     OW 1849   1.233   1.807   1.314
  317SOL    HW1 1850   1.262   1.760   1.231
  317SOL    HW2 1851   1.234   1.743   1.391
  318SOL     OW 1852   6.936   0.752   5.814
  318SOL    HW1 1853   7.022   0.803   5.813
  318SOL    HW2 1854   6.956   0.654   5.818
  319SOL     OW 1855   0.845   2.114   3.064
  319SOL    HW1 1856   0.864   2.056   2.985
  319SOL    HW2 1857   0.767   2.173   3.044
  320SOL     OW 1858   5.843   1.993   7.022
  320SOL    HW1 1859   5.798   1.904   7.026
  320SOL    HW2 1860   5.826   2.035   6.933
  321SOL     OW 1861   3.769   3.133   0.780
  321SOL    HW1 1862   3.842   3.188   0.820
  321SOL    HW2 1863   3.698   3.194   0.744
  322SOL     OW 1864   4.182   3.812   6.867
  322SOL    HW1 1865   4.266   3.795   6.816
  322SOL    HW2 1866   4.165   3.910   6.872
  323SOL     OW 1867   0.465   2.457   3.211
  323SOL    HW1 1868   0.454   2.390   3.285
  323SOL    HW2 1869   0.501   2.543   3.248
  324SOL     OW 1870   1.807   0.320   3.175
  324SOL    HW1 1871   1.758   0.232   3.170
  324SOL    HW2 1872   1.747   0.389   3.216
  325SOL     OW 1873   1.217   3.704   2.400
  325SOL    HW1 1874   1.136   3.728   2.454
  325SOL    HW2 1875   1.194   3.704   2.303
  326SOL     OW 1876   1.992   5.563   6.240
  326SOL    HW1 1877   1.912   5.620   6.259
  326SOL    HW2 1878   2.034   5.535   6.326
  327SOL     OW 1879   3.709   5.603   3.125
  327SOL    HW1 1880   3.806   5.598   3.102
  327SOL    HW2 1881   3.655   5.560   3.053
  328SOL     OW 1882   1.676   4.021   1.665
  328SOL    HW1 1883   1.600   4.032   1.600
  328SOL    HW2 1884   1.744   4.093   1.649
  329SOL     OW 1885   3.051   3.811   1.692
  329SOL    HW1 1886   3.045   3.911   1.684
  329SOL    HW2 1887   2.965   3.770   1.662
  330SOL     OW 1888   4.135   5.318   0.351
  330SOL    HW1 1889   4.125   5.238   0.410
  330SOL    HW2 1890   4.049   5.336   0.304
  331SOL     OW 1891   4.993   5.291   0.968
  331SOL    HW1 1892   4.923   5.286   0.897
  331SOL    HW2 1893   5.011   5.387   0.991
  332SOL     OW 1894   5.510   1.950   3.738
  332SOL    HW1 1895   5.593   1.925   3.689
  332SOL    HW2 1896   5.533   2.010   3.815
  333SOL     OW 1897   3.967   0.654   5.206
  333SOL    HW1 1898   4.045   0.610   5.162
  333SOL    HW2 1899   3.951   0.743   5.163
  334SOL     OW 1900   4.011   3.119   2.834
  334SOL    HW1 1901   3.938   3.134   2.767
  334SOL    HW2 1902   3.999   3.182   2.911
  335SOL     OW 1903   3.755   6.788   0.360
  335SOL    HW1 1904   3.814   6.793   0.441
  335SOL    HW2 1905   3.665   6.753   0.386
  336SOL     OW 1906   2.785   1.056   3.619
  336SOL    HW1 1907   2.785   1.116   3.699
  336SOL    HW2 1908   2.847   1.093   3.549
  337SOL     OW 1909   1.538   1.464   5.777
  337SOL    HW1 1910   1.463   1.405   5.807
  337SOL    HW2 1911   1.509   1.519   5.699
  338SOL     OW 1912   4.096   3.463   1.509
  338SOL    HW1 1913   4.142   3.549   1.486
  338SOL    HW2 1914   4.162   3.389   1.510
  339SOL     OW 1915   3.917   4.872   4.596
  339SOL    HW1 1916   3.861   4.824   4.664
  339SOL    HW2 1917   4.003   4.900   4.638
  340SOL     OW 1918   5.142   2.786   4.876
  340SOL    HW1 1919   5.086   2.801   4.795
  340SOL    HW2 1920   5.163   2.875   4.918
  341SOL     OW 1921   5.766   5.881   4.244
  341SOL    HW1 1922   5.672   5.897   4.273
  341SOL    HW2 1923   5.817   5.966   4.246
  342SOL     OW 1924   4.796   3.348   0.483
  342SOL    HW1 1925   4.697   3.353   0.475
  342SOL    HW2 1926   4.823   3.375   0.576
  343SOL     OW 1927   0.738   5.848   2.613
  343SOL    HW1 1928   0.714   5.754   2.589
  343SOL    HW2 1929   0.705   5.909   2.541
  344SOL     OW 1930   1.128   1.588   1.550
  344SOL    HW1 1931   1.122   1.569   1.649
  344SOL    HW2 1932   1.039   1.569   1.508
  345SOL     OW 1933   7.027   2.430   4.242
  345SOL    HW1 1934   0.081   2.483   4.260
  345SOL    HW2 1935   6.985   2.404   4.329
  346SOL     OW 1936   1.772   0.308   2.625
  346SOL    HW1 1937   1.717   0.377   2.577
  346SOL    HW2 1938   1.769   0.327   2.724
  347SOL     OW 1939   2.378   5.868   0.347
  347SOL    HW1 1940   2.444   5.821   0.290
  347SOL    HW2 1941   2.337   5.944   0.296
  348SOL     OW 1942   4.894   4.921   2.645
  348SOL    HW1 1943   4.986   4.956   2.626
  348SOL    HW2 1944   4.900   4.845   2.709
  349SOL     OW 1945   6.807   4.189   1.339
  349SOL    HW1 1946   6.794   4.090   1.329
  349SOL    HW2 1947   6.841   4.227   1.252
  350SOL     OW 1948   3.517   3.126   0.063
  350SOL    HW1 1949   3.446   3.090   0.001
  350SOL    HW2 1950   3.605   3.125   0.016
  351SOL     OW 1951   3.333   3.989   0.248
  351SOL    HW1 1952   3.246   3.953   0.213
  351SOL    HW2 1953   3.329   3.993   0.348
  352SOL     OW 1954   4.329   5.997   3.864
  352SOL    HW1 1955   4.351   5.909   3.908
  352SOL    HW2 1956   4.230   6.012   3.868
  353SOL     OW 1957   3.312   6.955   6.017
  353SOL    HW1 1958   3.411   6.965   6.020
  353SOL    HW2 1959   3.269   0.003   6.066
  354SOL     OW 1960   5.972   2.856   1.239
  354SOL    HW1 1961   6.043   2.910   1.192
  354SOL    HW2 1962   6.015   2.789   1.299
  355SOL     OW 1963   2.146   3.198   2.608
  355SOL    HW1 1964   2.146   3.289   2.650
  355SOL    HW2 1965   2.110   3.131   2.673
  356SOL     OW 1966   1.816   0.755   5.094
  356SOL    HW1 1967   1.867   0.828   5.139
  356SOL    HW2 1968   1.718   0.773   5.100
  357SOL     OW 1969   6.827   6.211   4.238
  357SOL    HW1 1970   6.748   6.264   4.267
  357SOL    HW2 1971   6.910   6.251   4.277
  358SOL     OW 1972   4.730   5.825   1.231
  358SOL    HW1 1973   4.747   5.790   1.323
  358SOL    HW2 1974   4.651   5.778   1.192
  359SOL     OW 1975   3.522   0.903   2.203
  359SOL    HW1 1976   3.497   0.867   2.293
  359SOL    HW2 1977   3.439   0.931   2.154
  360SOL     OW 1978   1.206   4.696   4.561
  360SOL    HW1 1979   1.297   4.737   4.565
  360SOL    HW2 1980   1.211   4.611   4.507
  361SOL     OW 1981   6.477   6.309   2.836
  361SOL    HW1 1982   6.487   6.400   2.878
  361SOL    HW2 1983   6.441   6.245   2.904
  362SOL     OW 1984   3.850   4.099   0.592
  362SOL    HW1 1985   3.778   4.034   0.616
  362SOL    HW2 1986   3.845   4.178   0.653
  363SOL     OW 1987   6.285   4.821   2.653
  363SOL    HW1 1988   6.340   4.744   2.685
  363SOL    HW2 1989   6.344   4.901   2.642
  364SOL     OW 1990   0.472   4.691   6.882
  364SOL    HW1 1991   0.454   4.599   6.847
  364SOL    HW2 1992   0.536   4.686   6.959
  365SOL     OW 1993   3.466   0.452   1.771
  365SOL    HW1 1994   3.461   0.523   1.701
  365SOL    HW2 1995   3.390   0.463   1.835
  366SOL     OW 1996   5.968   3.401   6.740
  366SOL    HW1 1997   5.909   3.429   6.815
  366SOL    HW2 1998   6.054   3.366   6.777
  367SOL     OW 1999   5.240   2.417   6.137
  367SOL    HW1 2000   5.306   2.458   6.201
  367SOL    HW2 2001   5.287   2.389   6.054
  368SOL     OW 2002   6.821   2.176   5.984
  368SOL    HW1 2003   6.854   2.113   6.054
  368SOL    HW2 2004   6.888   2.180   5.909
  369SOL     OW 2005   5.912   3.937   2.894
  369SOL    HW1 2006   5.839   4.004   2.910
  369SOL    HW2 2007   5.994   3.966   2.942
  370SOL     OW 2008   1.826   2.091   4.111
  370SOL    HW1 2009   1.808   2.017   4.176
  370SOL    HW2 2010   1.915   2.132   4.131
  371SOL     OW 2011   2.015   4.260   6.931
  371SOL    HW1 2012   2.050   4.354   6.939
  371SOL    HW2 2013   2.000   4.223   7.023
  372SOL     OW 2014   1.896   6.988   4.968
  372SOL    HW1 2015   1.931   0.046   5.005
  372SOL    HW2 2016   1.809   6.966   5.012
  373SOL     OW 2017   5.954   6.774   5.320
  373SOL    HW1 2018   6.029   6.805   5.378
  373SOL    HW2 2019   5.931   6.846   5.254
  374SOL     OW 2020   2.114   1.613   2.539
  374SOL    HW1 2021   2.169   1.654   2.466
  374SOL    HW2 2022   2.148   1.645   2.627
  375SOL     OW 2023   0.587   5.378   5.383
  375SOL    HW1 2024   0.589   5.477   5.375
  375SOL    HW2 2025   0.493   5.345   5.370
  376SOL     OW 2026   2.165   0.914   4.984
  376SOL    HW1 2027   2.187   0.968   5.066
  376SOL    HW2 2028   2.100   0.842   5.009
  377SOL     OW 2029   1.903   2.298   0.178
  377SOL    HW1 2030   1.976   2.322   0.115
  377SOL    HW2 2031   1.914   2.204   0.209
  378SOL     OW 2032   3.590   1.314   6.662
  378SOL    HW1 2033   3.532   1.392   6.686
  378SOL    HW2 2034   3.544   1.258   6.593
  379SOL     OW 2035   5.791   2.457   0.068
  379SOL    HW1 2036   5.722   2.453   7.024
  379SOL    HW2 2037   5.796   2.550   0.105
  380SOL     OW 2038   3.203   1.588   1.298
  380SOL    HW1 2039   3.177   1.512   1.238
  380SOL    HW2 2040   3.275   1.642   1.253
  381SOL     OW 2041   2.226   4.006   4.645
  381SOL    HW1 2042   2.193   4.032   4.736
  381SOL    HW2 2043   2.283   4.078   4.608
  382SOL     OW 2044   6.316   0.417   0.215
  382SOL    HW1 2045   6.292   0.320   0.212
  382SOL    HW2 2046   6.415   0.427   0.226
  383SOL     OW 2047   4.537   3.117   0.389
  383SOL    HW1 2048   4.578   3.193   0.339
  383SOL    HW2 2049   4.442   3.106   0.360
  384SOL     OW 2050   0.173   3.673   4.047
  384SOL    HW1 2051   0.258   3.675   4.100
  384SOL    HW2 2052   0.145   3.578   4.033
  385SOL     OW 2053   3.608   5.905   6.187
  385SOL    HW1 2054   3.624   5.820   6.237
  385SOL    HW2 2055   3.527   5.895   6.129
  386SOL     OW 2056   3.976   0.451   4.155
  386SOL    HW1 2057   4.012   0.497   4.236
  386SOL    HW2 2058   3.915   0.512   4.106
  387SOL     OW 2059   1.238   5.689   2.599
  387SOL    HW1 2060   1.238   5.594   2.568
  387SOL    HW2 2061   1.158   5.704   2.659
  388SOL     OW 2062   1.955   2.475   6.886
  388SOL    HW1 2063   1.911   2.559   6.855
  388SOL    HW2 2064   2.008   2.435   6.811
  389SOL     OW 2065   3.784   3.150   2.692
  389SOL    HW1 2066   3.821   3.069   2.647
  389SOL    HW2 2067   3.730   3.203   2.627
  390SOL     OW 2068   2.851   0.799   3.662
  390SOL    HW1 2069   2.848   0.778   3.760
  390SOL    HW2 2070   2.829   0.896   3.648
  391SOL     OW 2071   2.037   2.832   6.344
  391SOL    HW1 2072   1.962   2.823   6.409
  391SOL    HW2 2073   2.124   2.835   6.394
  392SOL     OW 2074   1.906   5.458   1.352
  392SOL    HW1 2075   1.901   5.438   1.254
  392SOL    HW2 2076   1.898   5.557   1.367
  393SOL     OW 2077   6.789   4.166   5.789
  393SOL    HW1 2078   6.689   4.159   5.797
  393SOL    HW2 2079   6.826   4.208   5.872
  394SOL     OW 2080   0.212   6.893   0.131
  394SOL    HW1 2081   0.216   6.957   0.055
  394SOL    HW2 2082   0.117   6.863   0.144
  395SOL     OW 2083   4.700   4.262   2.447
  395SOL    HW1 2084   4.738   4.170   2.435
  395SOL    HW2 2085   4.709   4.314   2.362
  396SOL     OW 2086   4.035   3.845   2.601
  396SOL    HW1 2087   4.086   3.794   2.532
  396SOL    HW2 2088   4.070   3.823   2.692
  397SOL     OW 2089   4.297   3.370   5.981
  397SOL    HW1 2090   4.285   3.286   6.035
  397SOL    HW2 2091   4.214   3.390   5.930
  398SOL     OW 2092   0.909   5.988   1.644
  398SOL    HW1 2093   0.956   6.042   1.574
  398SOL    HW2 2094   0.839   5.931   1.601
  399SOL     OW 2095   5.532   5.841   2.851
  399SOL    HW1 2096   5.483   5.928   2.856
  399SOL    HW2 2097   5.623   5.855   2.813
  400SOL     OW 2098   7.014   0.667   6.151
  400SOL    HW1 2099   0.065   0.705   6.103
  400SOL    HW2 2100   6.934   0.725   6.136
  401SOL     OW 2101   4.714   0.911   6.112
  401SOL    HW1 2102   4.811   0.887   6.112
  401SOL    HW2 2103   4.691   0.958   6.027
  402SOL     OW 2104   6.236   6.525   2.760
  402SOL    HW1 2105   6.271   6.540   2.668
  402SOL    HW2 2106   6.140   6.551   2.764
  403SOL     OW 2107   4.081   2.422   6.194
  403SOL    HW1 2108   4.044   2.412   6.101
  403SOL    HW2 2109   4.125   2.336   6.221
  404SOL     OW 2110   1.374   6.735   3.864
  404SOL    HW1 2111   1.274   6.735   3.853
  404SOL    HW2 2112   1.399   6.681   3.944
  405SOL     OW 2113   2.108   3.110   1.212
  405SOL    HW1 2114   2.178   3.145   1.274
  405SOL    HW2 2115   2.076   3.022   1.245
  406SOL     OW 2116   1.369   2.809   3.857
  406SOL    HW1 2117   1.279   2.768   3.842
  406SOL    HW2 2118   1.440   2.743   3.834
  407SOL     OW 2119   2.430   0.560   3.850
  407SOL    HW1 2120   2.457   0.558   3.754
  407SOL    HW2 2121   2.353   0.498   3.865
  408SOL     OW 2122   1.090   1.036   3.188
  408SOL    HW1 2123   1.170   1.005   3.136
  408SOL    HW2 2124   1.113   1.038   3.286
  409SOL     OW 2125   5.786   3.041   2.110
  409SOL    HW1 2126   5.770   2.943   2.105
  409SOL    HW2 2127   5.782   3.070   2.206
  410SOL     OW 2128   2.176   0.431   6.812
  410SOL    HW1 2129   2.271   0.433   6.843
  410SOL    HW2 2130   2.173   0.443   6.713
  411SOL     OW 2131   6.059   6.516   6.697
  411SOL    HW1 2132   6.013   6.493   6.611
  411SOL    HW2 2133   6.147   6.559   6.677
  412SOL     OW 2134   4.863   0.305   3.430
  412SOL    HW1 2135   4.889   0.210   3.448
  412SOL    HW2 2136   4.791   0.308   3.362
  413SOL     OW 2137   4.987   4.542   1.406
  413SOL    HW1 2138   4.954   4.504   1.320
  413SOL    HW2 2139   5.064   4.488   1.440
  414SOL     OW 2140   3.733   5.248   3.122
  414SOL    HW1 2141   3.826   5.210   3.117
  414SOL    HW2 2142   3.681   5.221   3.041
  415SOL     OW 2143   1.301   6.085   0.478
  415SOL    HW1 2144   1.342   6.107   0.389
  415SOL    HW2 2145   1.292   5.985   0.486
  416SOL     OW 2146   4.722   5.593   4.881
  416SOL    HW1 2147   4.640   5.640   4.849
  416SOL    HW2 2148   4.700   5.537   4.961
  417SOL     OW 2149   2.561   6.446   0.462
  417SOL    HW1 2150   2.565   6.352   0.497
  417SOL    HW2 2151   2.615   6.506   0.520
  418SOL     OW 2152   4.851   6.069   1.137
  418SOL    HW1 2153   4.819   5.978   1.163
  418SOL    HW2 2154   4.832   6.084   1.039
  419SOL     OW 2155   1.204   0.398   1.584
  419SOL    HW1 2156   1.142   0.414   1.508
  419SOL    HW2 2157   1.287   0.354   1.551
  420SOL     OW 2158   6.359   3.493   1.254
  420SOL    HW1 2159   6.346   3.497   1.353
  420SOL    HW2 2160   6.271   3.477   1.209
  421SOL     OW 2161   0.725   5.227   6.476
  421SOL    HW1 2162   0.773   5.215   6.389
  421SOL    HW2 2163   0.636   5.269   6.459
  422SOL     OW 2164   6.250   5.432   0.894
  422SOL    HW1 2165   6.254   5.394   0.987
  422SOL    HW2 2166   6.186   5.508   0.892
  423SOL     OW 2167   6.938   2.805   0.155
  423SOL    HW1 2168   6.881   2.723   0.151
  423SOL    HW2 2169   6.914   2.866   0.079
  424SOL     OW 2170   2.702   3.967   0.887
  424SOL    HW1 2171   2.655   3.979   0.975
  424SOL    HW2 2172   2.768   3.892   0.895
  425SOL     OW 2173   5.366   1.158   2.227
  425SOL    HW1 2174   5.273   1.183   2.253
  425SOL    HW2 2175   5.414   1.121   2.307
  426SOL     OW 2176   5.226   2.445   4.707
  426SOL    HW1 2177   5.279   2.361   4.700
  426SOL    HW2 2178   5.259   2.499   4.785
  427SOL     OW 2179   5.625   5.159   2.344
  427SOL    HW1 2180   5.623   5.104   2.427
  427SOL    HW2 2181   5.603   5.254   2.366
  428SOL     OW 2182   4.698   6.965   4.753
  428SOL    HW1 2183   4.730   6.952   4.847
  428SOL    HW2 2184   4.670   0.033   4.741
  429SOL     OW 2185   2.259   4.926   1.673
  429SOL    HW1 2186   2.292   5.015   1.641
  429SOL    HW2 2187   2.307   4.853   1.625
  430SOL     OW 2188   0.656   6.994   4.629
  430SOL    HW1 2189   0.689   6.973   4.721
  430SOL    HW2 2190   0.734   6.993   4.565
  431SOL     OW 2191   3.602   0.212   0.514
  431SOL    HW1 2192   3.626   0.116   0.521
  431SOL    HW2 2193   3.644   0.252   0.432
  432SOL     OW 2194   6.884   2.598   1.903
  432SOL    HW1 2195   6.885   2.520   1.966
  432SOL    HW2 2196   6.892   2.565   1.809
  433SOL     OW 2197   2.803   6.161   3.577
  433SOL    HW1 2198   2.729   6.207   3.529
  433SOL    HW2 2199   2.887   6.215   3.569
  434SOL     OW 2200   4.712   5.305   1.612
  434SOL    HW1 2201   4.678   5.396   1.590
  434SOL    HW2 2202   4.649   5.236   1.577
  435SOL     OW 2203   3.789   2.375   5.295
  435SOL    HW1 2204   3.752   2.407   5.382
  435SOL    HW2 2205   3.888   2.367   5.302
  436SOL     OW 2206   2.884   6.387   1.360
  436SOL    HW1 2207   2.788   6.389   1.388
  436SOL    HW2 2208   2.928   6.474   1.384
  437SOL     OW 2209   0.812   0.050   6.714
  437SOL    HW1 2210   0.750   0.126   6.737
  437SOL    HW2 2211   0.899   0.087   6.680
  438SOL     OW 2212   1.803   3.158   2.055
  438SOL    HW1 2213   1.886   3.140   2.108
  438SOL    HW2 2214   1.823   3.222   1.981
  439SOL     OW 2215   6.158   4.413   3.459
  439SOL    HW1 2216   6.092   4.340   3.477
  439SOL    HW2 2217   6.185   4.456   3.545
  440SOL     OW 2218   1.138   1.978   4.543
  440SOL    HW1 2219   1.217   2.036   4.525
  440SOL    HW2 2220   1.076   1.979   4.464
  441SOL     OW 2221   0.770   1.901   3.473
  441SOL    HW1 2222   0.689   1.930   3.523
  441SOL    HW2 2223   0.849   1.954   3.506
  442SOL     OW 2224   2.130   5.072   6.952
  442SOL    HW1 2225   2.088   5.061   0.014
  442SOL    HW2 2226   2.177   4.987   6.927
  443SOL     OW 2227   0.880   4.117   5.070
  443SOL    HW1 2228   0.884   4.216   5.075
  443SOL    HW2 2229   0.901   4.087   4.977
  444SOL     OW 2230   5.370   2.340   5.895
  444SOL    HW1 2231   5.385   2.263   5.834
  444SOL    HW2 2232   5.338   2.419   5.842
  445SOL     OW 2233   1.706   5.253   3.597
  445SOL    HW1 2234   1.693   5.283   3.692
  445SOL    HW2 2235   1.687   5.329   3.535
  446SOL     OW 2236   4.175   5.263   3.341
  446SOL    HW1 2237   4.257   5.213   3.369
  446SOL    HW2 2238   4.094   5.221   3.382
  447SOL     OW 2239   0.378   3.114   0.091
  447SOL    HW1 2240   0.351   3.109   7.023
  447SOL    HW2 2241   0.304   3.081   0.149
  448SOL     OW 2242   2.931   0.323   4.812
  448SOL    HW1 2243   2.871   0.314   4.891
  448SOL    HW2 2244   2.915   0.411   4.768
  449SOL     OW 2245   4.103   0.551   5.450
  449SOL    HW1 2246   4.113   0.561   5.549
  449SOL    HW2 2247   4.041   0.620   5.415
  450SOL     OW 2248   1.110   5.564   3.625
  450SOL    HW1 2249   1.163   5.494   3.576
  450SOL    HW2 2250   1.116   5.547   3.723
  451SOL     OW 2251   2.005   2.094   3.261
  451SOL    HW1 2252   2.015   2.081   3.360
  451SOL    HW2 2253   2.041   2.014   3.212
  452SOL     OW 2254   6.410   5.785   1.111
  452SOL    HW1 2255   6.435   5.693   1.143
  452SOL    HW2 2256   6.317   5.783   1.074
  453SOL     OW 2257   3.120   0.131   4.628
  453SOL    HW1 2258   3.078   0.133   4.538
  453SOL    HW2 2259   3.061   0.180   4.693
  454SOL     OW 2260   0.220   5.245   6.394
  454SOL    HW1 2261   0.136   5.260   6.341
  454SOL    HW2 2262   0.211   5.290   6.483
  455SOL     OW 2263   0.073   1.484   3.862
  455SOL    HW1 2264   0.017   1.436   3.930
  455SOL    HW2 2265   0.147   1.424   3.832
  456SOL     OW 2266   4.968   5.246   4.378
  456SOL    HW1 2267   4.921   5.288   4.456
  456SOL    HW2 2268   5.051   5.298   4.357
  457SOL     OW 2269   1.931   3.334   3.190
  457SOL    HW1 2270   1.997   3.293   3.252
  457SOL    HW2 2271   1.975   3.356   3.103
  458SOL     OW 2272   4.790   6.139   4.473
  458SOL    HW1 2273   4.801   6.075   4.397
  458SOL    HW2 2274   4.694   6.144   4.499
  459SOL     OW 2275   1.791   6.717   3.942
  459SOL    HW1 2276   1.782   6.761   4.031
  459SOL    HW2 2277   1.723   6.755   3.879
  460SOL     OW 2278   1.284   0.541   2.906
  460SOL    HW1 2279   1.306   0.580   2.996
  460SOL    HW2 2280   1.260   0.445   2.917
  461SOL     OW 2281   5.930   6.925   4.789
  461SOL    HW1 2282   6.029   6.909   4.793
  461SOL    HW2 2283   5.883   6.839   4.768
  462SOL     OW 2284   4.199   2.534   5.941
  462SOL    HW1 2285   4.147   2.605   5.988
  462SOL    HW2 2286   4.138   2.459   5.916
  463SOL     OW 2287   6.372   5.642   3.481
  463SOL    HW1 2288   6.368   5.729   3.531
  463SOL    HW2 2289   6.416   5.657   3.393
  464SOL     OW 2290   2.561   1.966   6.509
  464SOL    HW1 2291   2.538   1.963   6.607
  464SOL    HW2 2292   2.652   1.927   6.495
  465SOL     OW 2293   1.181   2.702   4.296
  465SOL    HW1 2294   1.155   2.647   4.376
  465SOL    HW2 2295   1.276   2.732   4.305
  466SOL     OW 2296   0.664   4.889   3.015
  466SOL    HW1 2297   0.669   4.945   3.099
  466SOL    HW2 2298   0.644   4.795   3.039
  467SOL     OW 2299   1.185   0.680   6.196
  467SOL    HW1 2300   1.182   0.693   6.097
  467SOL    HW2 2301   1.257   0.615   6.219
  468SOL     OW 2302   3.134   6.347   6.707
  468SOL    HW1 2303   3.047   6.331   6.661
  468SOL    HW2 2304   3.165   6.263   6.750
  469SOL     OW 2305   2.756   4.756   0.522
  469SOL    HW1 2306   2.785   4.749   0.427
  469SOL    HW2 2307   2.833   4.786   0.578
  470SOL     OW 2308   3.925   0.451   2.696
  470SOL    HW1 2309   3.901   0.431   2.791
  470SOL    HW2 2310   3.850   0.424   2.636
  471SOL     OW 2311   1.769   2.380   4.126
  471SOL    HW1 2312   1.779   2.283   4.103
  471SOL    HW2 2313   1.799   2.395   4.220
  472SOL     OW 2314   5.222   4.407   6.848
  472SOL    HW1 2315   5.250   4.355   6.928
  472SOL    HW2 2316   5.203   4.345   6.772
  473SOL     OW 2317   0.677   3.415   1.895
  473SOL    HW1 2318   0.731   3.405   1.979
  473SOL    HW2 2319   0.583   3.387   1.912
  474SOL     OW 2320   5.114   4.795   3.964
  474SOL    HW1 2321   5.100   4.698   3.944
  474SOL    HW2 2322   5.127   4.845   3.879
  475SOL     OW 2323   5.542   1.258   6.062
  475SOL    HW1 2324   5.523   1.328   5.993
  475SOL    HW2 2325   5.470   1.260   6.131
  476SOL     OW 2326   0.164   3.973   2.202
  476SOL    HW1 2327   0.144   4.066   2.234
  476SOL    HW2 2328   0.220   3.926   2.269
  477SOL     OW 2329   1.783   4.897   5.109
  477SOL    HW1 2330   1.847   4.856   5.044
  477SOL    HW2 2331   1.696   4.850   5.104
  478SOL     OW 2332   3.187   0.014   2.855
  478SOL    HW1 2333   3.130   0.085   2.814
  478SOL    HW2 2334   3.205   6.970   2.788
  479SOL     OW 2335   4.564   2.087   6.811
  479SOL    HW1 2336   4.507   2.168   6.793
  479SOL    HW2 2337   4.546   2.053   6.903
  480SOL     OW 2338   2.271   1.069   6.993
  480SOL    HW1 2339   2.239   1.156   0.002
  480SOL    HW2 2340   2.344   1.086   6.926
  481SOL     OW 2341   1.902   0.643   6.983
  481SOL    HW1 2342   1.925   0.599   6.896
  481SOL    HW2 2343   1.877   0.738   6.967
  482SOL     OW 2344   4.560   4.651   3.283
  482SOL    HW1 2345   4.466   4.646   3.249
  482SOL    HW2 2346   4.623   4.642   3.206
  483SOL     OW 2347   6.576   1.856   2.427
  483SOL    HW1 2348   6.534   1.808   2.504
  483SOL    HW2 2349   6.660   1.809   2.400
  484SOL     OW 2350   1.223   2.832   4.966
  484SOL    HW1 2351   1.237   2.799   5.059
  484SOL    HW2 2352   1.126   2.826   4.942
  485SOL     OW 2353   4.206   5.397   2.479
  485SOL    HW1 2354   4.302   5.370   2.486
  485SOL    HW2 2355   4.185   5.420   2.384
  486SOL     OW 2356   0.104   1.552   1.205
  486SOL    HW1 2357   0.166   1.489   1.157
  486SOL    HW2 2358   0.047   1.600   1.138
  487SOL     OW 2359   0.973   1.871   0.507
  487SOL    HW1 2360   0.974   1.818   0.422
  487SOL    HW2 2361   0.942   1.964   0.489
  488SOL     OW 2362   0.679   1.427   1.285
  488SOL    HW1 2363   0.692   1.383   1.196
  488SOL    HW2 2364   0.667   1.357   1.355
  489SOL     OW 2365   3.741   6.543   6.241
  489SOL    HW1 2366   3.662   6.482   6.241
  489SOL    HW2 2367   3.720   6.625   6.188
  490SOL     OW 2368   6.925   5.553   3.276
  490SOL    HW1 2369   7.013   5.534   3.232
  490SOL    HW2 2370   6.933   5.537   3.374
  491SOL     OW 2371   6.786   3.024   2.171
  491SOL    HW1 2372   6.837   2.939   2.159
  491SOL    HW2 2373   6.691   3.003   2.197
  492SOL     OW 2374   2.709   0.071   4.807
  492SOL    HW1 2375   2.637   0.032   4.750
  492SOL    HW2 2376   2.731   0.163   4.774
  493SOL     OW 2377   5.657   6.438   5.617
  493SOL    HW1 2378   5.650   6.497   5.536
  493SOL    HW2 2379   5.567   6.428   5.658
  494SOL     OW 2380   0.022   0.562   6.394
  494SOL    HW1 2381   0.041   0.650   6.438
  494SOL    HW2 2382   0.008   0.577   6.296
  495SOL     OW 2383   4.657   5.763   3.027
  495SOL    HW1 2384   4.749   5.769   3.065
  495SOL    HW2 2385   4.595   5.723   3.095
  496SOL     OW 2386   5.171   3.707   2.665
  496SOL    HW1 2387   5.226   3.651   2.603
  496SOL    HW2 2388   5.158   3.658   2.752
  497SOL     OW 2389   3.551   0.928   5.231
  497SOL    HW1 2390   3.507   0.913   5.143
  497SOL    HW2 2391   3.644   0.962   5.217
  498SOL     OW 2392   1.665   4.331   1.575
  498SOL    HW1 2393   1.584   4.274   1.589
  498SOL    HW2 2394   1.637   4.424   1.553
  499SOL     OW 2395   2.947   0.393   4.243
  499SOL    HW1 2396   2.972   0.380   4.147
  499SOL    HW2 2397   2.958   0.489   4.267
  500SOL     OW 2398   0.950   3.323   2.789
  500SOL    HW1 2399   0.998   3.351   2.873
  500SOL    HW2 2400   0.854   3.351   2.795
  501SOL     OW 2401   2.684   6.680   0.027
  501SOL    HW1 2402   2.780   6.709   0.024
  501SOL    HW2 2403   2.657   6.641   6.967
  502SOL     OW 2404   6.757   4.417   6.622
  502SOL    HW1 2405   6.737   4.328   6.582
  502SOL    HW2 2406   6.686   4.441   6.688
  503SOL     OW 2407   5.474   6.038   6.311
  503SOL    HW1 2408   5.475   5.965   6.243
  503SOL    HW2 2409   5.384   6.040   6.356
  504SOL     OW 2410   2.165   5.014   3.415
  504SOL    HW1 2411   2.079   5.063   3.431
  504SOL    HW2 2412   2.145   4.924   3.374
  505SOL     OW 2413   3.746   6.174   4.658
  505SOL    HW1 2414   3.716   6.085   4.691
  505SOL    HW2 2415   3.681   6.209   4.591
  506SOL     OW 2416   1.718   5.387   4.799
  506SOL    HW1 2417   1.818   5.386   4.799
  506SOL    HW2 2418   1.684   5.318   4.863
  507SOL     OW 2419   2.963   0.734   3.437
  507SOL    HW1 2420   2.961   0.812   3.375
  507SOL    HW2 2421   2.907   0.754   3.517
  508SOL     OW 2422   6.313   3.340   2.518
  508SOL    HW1 2423   6.347   3.270   2.456
  508SOL    HW2 2424   6.361   3.427   2.502
  509SOL     OW 2425   3.429   1.374   1.392
  509SOL    HW1 2426   3.342   1.416   1.366
  509SOL    HW2 2427   3.504   1.432   1.363
  510SOL     OW 2428   7.002   4.989   6.230
  510SOL    HW1 2429   6.918   4.996   6.176
  510SOL    HW2 2430   0.013   4.898   6.218
  511SOL     OW 2431   0.236   0.624   6.597
  511SOL    HW1 2432   0.260   0.695   6.663
  511SOL    HW2 2433   0.253   0.534   6.636
  512SOL     OW 2434   0.182   3.070   0.245
  512SOL    HW1 2435   0.088   3.043   0.224
  512SOL    HW2 2436   0.181   3.156   0.296
  513SOL     OW 2437   5.762   6.002   3.215
  513SOL    HW1 2438   5.788   6.081   3.270
  513SOL    HW2 2439   5.727   5.930   3.274
  514SOL     OW 2440   0.071   2.810   3.973
  514SOL    HW1 2441   0.054   2.863   4.056
  514SOL    HW2 2442   0.159   2.837   3.934
  515SOL     OW 2443   2.030   0.767   6.295
  515SOL    HW1 2444   2.045   0.778   6.393
  515SOL    HW2 2445   1.942   0.806   6.270
  516SOL     OW 2446   2.693   4.548   1.729
  516SOL    HW1 2447   2.769   4.554   1.794
  516SOL    HW2 2448   2.610   4.520   1.778
  517SOL     OW 2449   4.898   5.608   2.168
  517SOL    HW1 2450   4.891   5.509   2.181
  517SOL    HW2 2451   4.869   5.655   2.252
  518SOL     OW 2452   2.222   2.608   2.421
  518SOL    HW1 2453   2.163   2.572   2.349
  518SOL    HW2 2454   2.302   2.653   2.380
  519SOL     OW 2455   0.891   0.913   4.642
  519SOL    HW1 2456   0.913   1.000   4.597
  519SOL    HW2 2457   0.863   0.846   4.574
  520SOL     OW 2458   6.106   4.642   0.217
  520SOL    HW1 2459   6.048   4.720   0.239
  520SOL    HW2 2460   6.177   4.632   0.287
  521SOL     OW 2461   6.526   3.351   6.542
  521SOL    HW1 2462   6.511   3.337   6.640
  521SOL    HW2 2463   6.554   3.445   6.526
  522SOL     OW 2464   3.460   3.849   5.525
  522SOL    HW1 2465   3.410   3.791   5.589
  522SOL    HW2 2466   3.396   3.891   5.461
  523SOL     OW 2467   0.890   4.569   1.848
  523SOL    HW1 2468   0.928   4.582   1.756
  523SOL    HW2 2469   0.818   4.636   1.863
  524SOL     OW 2470   1.682   0.878   6.671
  524SOL    HW1 2471   1.606   0.929   6.631
  524SOL    HW2 2472   1.653   0.784   6.691
  525SOL     OW 2473   2.617   3.848   6.429
  525SOL    HW1 2474   2.520   3.870   6.421
  525SOL    HW2 2475   2.627   3.751   6.454
  526SOL     OW 2476   3.790   0.073   3.928
  526SOL    HW1 2477   3.778   0.118   4.017
  526SOL    HW2 2478   3.808   0.142   3.858
  527SOL     OW 2479   6.486   3.140   6.158
  527SOL    HW1 2480   6.504   3.046   6.187
  527SOL    HW2 2481   6.448   3.140   6.066
  528SOL     OW 2482   0.891   1.290   3.764
  528SOL    HW1 2483   0.988   1.286   3.788
  528SOL    HW2 2484   0.881   1.286   3.664
  529SOL     OW 2485   0.680   6.264   4.807
  529SOL    HW1 2486   0.611   6.271   4.879
  529SOL    HW2 2487   0.682   6.348   4.754
  530SOL     OW 2488   2.685   3.004   5.339
  530SOL    HW1 2489   2.623   2.980   5.264
  530SOL    HW2 2490   2.685   3.103   5.352
  531SOL     OW 2491   0.278   0.601   1.730
  531SOL    HW1 2492   0.358   0.542   1.736
  531SOL    HW2 2493   0.308   0.696   1.720
  532SOL     OW 2494   1.310   2.151   6.874
  532SOL    HW1 2495   1.376   2.113   6.939
  532SOL    HW2 2496   1.300   2.249   6.891
  533SOL     OW 2497   3.817   6.380   3.935
  533SOL    HW1 2498   3.827   6.289   3.896
  533SOL    HW2 2499   3.721   6.406   3.938
  534SOL     OW 2500   5.429   5.182   3.533
  534SOL    HW1 2501   5.338   5.218   3.515
  534SOL    HW2 2502   5.422   5.100   3.590
  535SOL     OW 2503   0.365   3.612   4.816
  535SOL    HW1 2504   0.402   3.704   4.806
  535SOL    HW2 2505   0.407   3.552   4.749
  536SOL     OW 2506   0.200   4.800   2.018
  536SOL    HW1 2507   0.283   4.744   2.024
  536SOL    HW2 2508   0.122   4.748   2.051
  537SOL     OW 2509   1.722   6.410   3.707
  537SOL    HW1 2510   1.745   6.444   3.798
  537SOL    HW2 2511   1.655   6.336   3.715
  538SOL     OW 2512   1.809   4.036   3.649
  538SOL    HW1 2513   1.794   4.036   3.551
  538SOL    HW2 2514   1.791   4.127   3.686
  539SOL     OW 2515   0.914   6.146   0.256
  539SOL    HW1 2516   0.863   6.149   0.171
  539SOL    HW2 2517   1.001   6.098   0.242
  540SOL     OW 2518   6.708   1.168   1.806
  540SOL    HW1 2519   6.788   1.118   1.838
  540SOL    HW2 2520   6.670   1.221   1.881
  541SOL     OW 2521   2.993   6.358   4.020
  541SOL    HW1 2522   2.923   6.415   3.977
  541SOL    HW2 2523   3.011   6.278   3.962
  542SOL     OW 2524   6.698   0.272   0.040
  542SOL    HW1 2525   6.683   0.365   0.005
  542SOL    HW2 2526   6.614   0.238   0.082
  543SOL     OW 2527   1.362   5.161   5.089
  543SOL    HW1 2528   1.425   5.118   5.154
  543SOL    HW2 2529   1.306   5.229   5.136
  544SOL     OW 2530   2.181   4.561   0.994
  544SOL    HW1 2531   2.087   4.543   1.023
  544SOL    HW2 2532   2.186   4.649   0.948
  545SOL     OW 2533   3.322   0.853   3.528
  545SOL    HW1 2534   3.393   0.847   3.599
  545SOL    HW2 2535   3.346   0.794   3.451
  546SOL     OW 2536   1.695   3.154   0.114
  546SOL    HW1 2537   1.671   3.231   0.055
  546SOL    HW2 2538   1.618   3.090   0.119
  547SOL     OW 2539   3.075   1.071   6.447
  547SOL    HW1 2540   3.095   0.991   6.504
  547SOL    HW2 2541   3.079   1.045   6.351
  548SOL     OW 2542   3.835   2.923   2.969
  548SOL    HW1 2543   3.903   2.989   2.937
  548SOL    HW2 2544   3.854   2.833   2.928
  549SOL     OW 2545   4.550   3.104   1.327
  549SOL    HW1 2546   4.530   3.070   1.419
  549SOL    HW2 2547   4.579   3.199   1.332
  550SOL     OW 2548   6.494   4.313   3.509
  550SOL    HW1 2549   6.417   4.281   3.564
  550SOL    HW2 2550   6.506   4.411   3.524
  551SOL     OW 2551   0.402   1.149   1.077
  551SOL    HW1 2552   0.486   1.195   1.046
  551SOL    HW2 2553   0.401   1.148   1.177
  552SOL     OW 2554   4.455   5.485   0.847
  552SOL    HW1 2555   4.555   5.490   0.842
  552SOL    HW2 2556   4.420   5.432   0.770
  553SOL     OW 2557   2.107   7.002   1.847
  553SOL    HW1 2558   2.036   7.000   1.917
  553SOL    HW2 2559   2.195   6.976   1.888
  554SOL     OW 2560   4.880   6.130   5.970
  554SOL    HW1 2561   4.793   6.127   6.019
  554SOL    HW2 2562   4.947   6.072   6.017
  555SOL     OW 2563   2.028   5.186   4.267
  555SOL    HW1 2564   2.113   5.140   4.239
  555SOL    HW2 2565   2.028   5.279   4.231
  556SOL     OW 2566   5.863   2.442   3.834
  556SOL    HW1 2567   5.787   2.404   3.782
  556SOL    HW2 2568   5.853   2.542   3.839
  557SOL     OW 2569   0.665   5.515   6.887
  557SOL    HW1 2570   0.647   5.453   6.962
  557SOL    HW2 2571   0.709   5.466   6.812
  558SOL     OW 2572   3.440   4.118   4.378
  558SOL    HW1 2573   3.345   4.129   4.409
  558SOL    HW2 2574   3.501   4.160   4.445
  559SOL     OW 2575   5.969   6.502   0.053
  559SOL    HW1 2576   5.914   6.524   7.000
  559SOL    HW2 2577   5.955   6.406   0.077
  560SOL     OW 2578   3.619   6.203   0.478
  560SOL    HW1 2579   3.599   6.121   0.424
  560SOL    HW2 2580   3.554   6.276   0.454
  561SOL     OW 2581   6.681   0.508   6.931
  561SOL    HW1 2582   6.673   0.542   6.838
  561SOL    HW2 2583   6.709   0.583   6.992
  562SOL     OW 2584   4.704   0.109   6.601
  562SOL    HW1 2585   4.740   0.175   6.668
  562SOL    HW2 2586   4.641   0.156   6.539
  563SOL     OW 2587   2.616   0.471   3.332
  563SOL    HW1 2588   2.697   0.417   3.313
  563SOL    HW2 2589   2.633   0.533   3.408
  564SOL     OW 2590   2.358   2.086   6.152
  564SOL    HW1 2591   2.321   2.012   6.096
  564SOL    HW2 2592   2.352   2.172   6.101
  565SOL     OW 2593   4.299   3.249   5.623
  565SOL    HW1 2594   4.242   3.319   5.667
  565SOL    HW2 2595   4.246   3.204   5.551
  566SOL     OW 2596   5.787   3.772   3.613
  566SOL    HW1 2597   5.827   3.833   3.545
  566SOL    HW2 2598   5.757   3.825   3.692
  567SOL     OW 2599   2.906   3.492   3.078
  567SOL    HW1 2600   2.918   3.539   3.166
  567SOL    HW2 2601   2.905   3.394   3.092
  568SOL     OW 2602   3.349   2.382   1.262
  568SOL    HW1 2603   3.336   2.283   1.256
  568SOL    HW2 2604   3.364   2.419   1.170
  569SOL     OW 2605   2.008   3.248   0.485
  569SOL    HW1 2606   2.002   3.344   0.512
  569SOL    HW2 2607   1.933   3.197   0.526
  570SOL     OW 2608   2.397   6.488   5.595
  570SOL    HW1 2609   2.494   6.468   5.602
  570SOL    HW2 2610   2.349   6.451   5.675
  571SOL     OW 2611   3.676   0.010   3.027
  571SOL    HW1 2612   3.621   0.078   2.979
  571SOL    HW2 2613   3.661   6.948   2.987
  572SOL     OW 2614   2.797   4.893   5.862
  572SOL    HW1 2615   2.748   4.810   5.889
  572SOL    HW2 2616   2.889   4.868   5.829
  573SOL     OW 2617   4.070   1.965   5.391
  573SOL    HW1 2618   4.061   2.060   5.420
  573SOL    HW2 2619   3.993   1.912   5.427
  574SOL     OW 2620   2.314   2.289   3.398
  574SOL    HW1 2621   2.355   2.198   3.408
  574SOL    HW2 2622   2.263   2.292   3.311
  575SOL     OW 2623   6.148   4.035   5.903
  575SOL    HW1 2624   6.097   4.066   5.822
  575SOL    HW2 2625   6.095   3.964   5.949
  576SOL     OW 2626   1.567   1.974   2.201
  576SOL    HW1 2627   1.517   1.998   2.284
  576SOL    HW2 2628   1.645   2.036   2.190
  577SOL     OW 2629   2.640   0.731   3.102
  577SOL    HW1 2630   2.573   0.731   3.028
  577SOL    HW2 2631   2.643   0.641   3.144
  578SOL     OW 2632   6.655   3.251   3.351
  578SOL    HW1 2633   6.605   3.209   3.276
  578SOL    HW2 2634   6.729   3.307   3.314
  579SOL     OW 2635   3.374   2.115   1.164
  579SOL    HW1 2636   3.427   2.185   1.115
  579SOL    HW2 2637   3.315   2.068   1.099
  580SOL     OW 2638   0.681   4.616   6.556
  580SOL    HW1 2639   0.754   4.614   6.625
  580SOL    HW2 2640   0.623   4.697   6.571
  581SOL     OW 2641   3.321   3.411   2.631
  581SOL    HW1 2642   3.322   3.443   2.725
  581SOL    HW2 2643   3.378   3.329   2.624
  582SOL     OW 2644   5.566   4.769   2.739
  582SOL    HW1 2645   5.526   4.818   2.816
  582SOL    HW2 2646   5.536   4.673   2.740
  583SOL     OW 2647   2.933   5.132   6.857
  583SOL    HW1 2648   2.910   5.037   6.835
  583SOL    HW2 2649   2.852   5.189   6.847
  584SOL     OW 2650   1.213   5.692   5.567
  584SOL    HW1 2651   1.127   5.645   5.548
  584SOL    HW2 2652   1.283   5.625   5.593
  585SOL     OW 2653   6.508   3.012   5.822
  585SOL    HW1 2654   6.419   3.056   5.825
  585SOL    HW2 2655   6.501   2.925   5.772
  586SOL     OW 2656   3.101   0.059   0.100
  586SOL    HW1 2657   3.196   0.042   0.125
  586SOL    HW2 2658   3.087   0.157   0.088
  587SOL     OW 2659   2.045   2.117   5.443
  587SOL    HW1 2660   2.065   2.175   5.522
  587SOL    HW2 2661   1.963   2.150   5.396
  588SOL     OW 2662   3.270   6.097   0.913
  588SOL    HW1 2663   3.193   6.074   0.971
  588SOL    HW2 2664   3.317   6.013   0.886
  589SOL     OW 2665   3.775   5.197   2.012
  589SOL    HW1 2666   3.694   5.146   1.986
  589SOL    HW2 2667   3.834   5.211   1.932
  590SOL     OW 2668   6.242   2.816   1.651
  590SOL    HW1 2669   6.207   2.881   1.719
  590SOL    HW2 2670   6.338   2.837   1.632
  591SOL     OW 2671   3.749   6.847   3.839
  591SOL    HW1 2672   3.794   6.933   3.865
  591SOL    HW2 2673   3.758   6.781   3.914
  592SOL     OW 2674   4.099   6.992   0.860
  592SOL    HW1 2675   4.157   6.944   0.795
  592SOL    HW2 2676   4.154   0.024   0.917
  593SOL     OW 2677   4.551   2.048   3.616
  593SOL    HW1 2678   4.497   2.076   3.537
  593SOL    HW2 2679   4.511   1.966   3.657
  594SOL     OW 2680   4.193   2.896   6.482
  594SOL    HW1 2681   4.279   2.860   6.447
  594SOL    HW2 2682   4.186   2.878   6.580
  595SOL     OW 2683   4.751   6.504   3.817
  595SOL    HW1 2684   4.655   6.481   3.799
  595SOL    HW2 2685   4.763   6.522   3.914
  596SOL     OW 2686   1.243   3.665   1.221
  596SOL    HW1 2687   1.170   3.634   1.159
  596SOL    HW2 2688   1.304   3.727   1.171
  597SOL     OW 2689   4.550   0.266   5.972
  597SOL    HW1 2690   4.621   0.272   6.041
  597SOL    HW2 2691   4.512   0.356   5.954
  598SOL     OW 2692   3.598   4.148   0.314
  598SOL    HW1 2693   3.503   4.118   0.318
  598SOL    HW2 2694   3.658   4.069   0.325
  599SOL     OW 2695   0.418   0.340   3.014
  599SOL    HW1 2696   0.419   0.328   2.915
  599SOL    HW2 2697   0.501   0.386   3.044
  600SOL     OW 2698   0.874   6.961   0.985
  600SOL    HW1 2699   0.781   6.968   1.023
  600SOL    HW2 2700   0.934   6.919   1.052
  601SOL     OW 2701   2.946   5.938   3.614
  601SOL    HW1 2702   2.889   6.020   3.611
  601SOL    HW2 2703   2.900   5.867   3.667
  602SOL     OW 2704   0.954   1.750   0.273
  602SOL    HW1 2705   1.010   1.759   0.190
  602SOL    HW2 2706   0.991   1.677   0.330
  603SOL     OW 2707   4.066   1.935   3.844
  603SOL    HW1 2708   4.055   1.840   3.817
  603SOL    HW2 2709   4.081   1.941   3.942
  604SOL     OW 2710   0.397   3.224   1.161
  604SOL    HW1 2711   0.430   3.147   1.215
  604SOL    HW2 2712   0.439   3.309   1.194
  605SOL     OW 2713   6.577   5.279   2.878
  605SOL    HW1 2714   6.549   5.273   2.974
  605SOL    HW2 2715   6.627   5.364   2.863
  606SOL     OW 2716   4.971   0.787   5.580
  606SOL    HW1 2717   4.924   0.771   5.493
  606SOL    HW2 2718   5.066   0.757   5.572
  607SOL     OW 2719   5.577   0.634   4.720
  607SOL    HW1 2720   5.506   0.676   4.662
  607SOL    HW2 2721   5.626   0.706   4.769
  608SOL     OW 2722   3.369   6.890   0.552
  608SOL    HW1 2723   3.349   6.921   0.645
  608SOL    HW2 2724   3.457   6.926   0.523
  609SOL     OW 2725   3.465   3.364   4.319
  609SOL    HW1 2726   3.528   3.361   4.241
  609SOL    HW2 2727   3.373   3.384   4.286
  610SOL     OW 2728   5.640   2.330   3.193
  610SOL    HW1 2729   5.613   2.240   3.159
  610SOL    HW2 2730   5.680   2.384   3.119
  611SOL     OW 2731   0.899   0.556   6.985
  611SOL    HW1 2732   0.859   0.606   6.909
  611SOL    HW2 2733   0.843   0.475   7.006
  612SOL     OW 2734   3.282   5.782   6.091
  612SOL    HW1 2735   3.318   5.721   6.020
  612SOL    HW2 2736   3.198   5.826   6.057
  613SOL     OW 2737   4.746   0.555   5.611
  613SOL    HW1 2738   4.769   0.542   5.707
  613SOL    HW2 2739   4.784   0.481   5.557
  614SOL     OW 2740   5.534   4.608   1.131
  614SOL    HW1 2741   5.625   4.575   1.154
  614SOL    HW2 2742   5.530   4.707   1.142
  615SOL     OW 2743   1.170   0.649   0.204
  615SOL    HW1 2744   1.184   0.578   0.136
  615SOL    HW2 2745   1.131   0.730   0.160
  616SOL     OW 2746   6.126   1.945   3.596
  616SOL    HW1 2747   6.139   2.024   3.655
  616SOL    HW2 2748   6.155   1.862   3.643
  617SOL     OW 2749   0.587   3.956   6.838
  617SOL    HW1 2750   0.505   3.987   6.886
  617SOL    HW2 2751   0.571   3.958   6.740
  618SOL     OW 2752   5.773   3.551   0.767
  618SOL    HW1 2753   5.854   3.572   0.712
  618SOL    HW2 2754   5.708   3.627   0.761
  619SOL     OW 2755   3.718   6.767   6.587
  619SOL    HW1 2756   3.767   6.839   6.537
  619SOL    HW2 2757   3.636   6.806   6.629
  620SOL     OW 2758   5.480   2.981   1.345
  620SOL    HW1 2759   5.575   2.982   1.314
  620SOL    HW2 2760   5.440   2.891   1.326
  621SOL     OW 2761   2.409   0.326   5.148
  621SOL    HW1 2762   2.374   0.289   5.062
  621SOL    HW2 2763   2.482   0.266   5.182
  622SOL     OW 2764   0.799   2.261   5.199
  622SOL    HW1 2765   0.726   2.307   5.251
  622SOL    HW2 2766   0.883   2.314   5.206
  623SOL     OW 2767   6.501   6.845   5.076
  623SOL    HW1 2768   6.483   6.942   5.087
  623SOL    HW2 2769   6.483   6.817   4.982
  624SOL     OW 2770   6.840   1.315   6.999
  624SOL    HW1 2771   6.803   1.227   6.970
  624SOL    HW2 2772   6.933   1.326   6.964
  625SOL     OW 2773   1.550   0.791   0.251
  625SOL    HW1 2774   1.465   0.756   0.291
  625SOL    HW2 2775   1.533   0.880   0.210
  626SOL     OW 2776   0.719   5.577   2.568
  626SOL    HW1 2777   0.791   5.596   2.502
  626SOL    HW2 2778   0.634   5.554   2.520
  627SOL     OW 2779   6.704   6.253   0.411
  627SOL    HW1 2780   6.691   6.166   0.363
  627SOL    HW2 2781   6.731   6.324   0.347
  628SOL     OW 2782   5.724   4.035   4.917
  628SOL    HW1 2783   5.633   3.997   4.932
  628SOL    HW2 2784   5.717   4.133   4.900
  629SOL     OW 2785   0.192   1.204   0.344
  629SOL    HW1 2786   0.156   1.155   0.264
  629SOL    HW2 2787   0.117   1.227   0.405
  630SOL     OW 2788   6.601   1.513   0.366
  630SOL    HW1 2789   6.607   1.514   0.466
  630SOL    HW2 2790   6.609   1.419   0.334
  631SOL     OW 2791   3.277   1.714   4.153
  631SOL    HW1 2792   3.376   1.701   4.145
  631SOL    HW2 2793   3.258   1.794   4.210
  632SOL     OW 2794   4.412   2.892   0.524
  632SOL    HW1 2795   4.334   2.954   0.535
  632SOL    HW2 2796   4.493   2.945   0.498
  633SOL     OW 2797   2.453   4.919   0.843
  633SOL    HW1 2798   2.354   4.926   0.843
  633SOL    HW2 2799   2.481   4.825   0.823
  634SOL     OW 2800   3.683   3.645   4.064
  634SOL    HW1 2801   3.717   3.620   3.973
  634SOL    HW2 2802   3.586   3.668   4.059
  635SOL     OW 2803   4.684   6.945   6.883
  635SOL    HW1 2804   4.728   6.904   6.963
  635SOL    HW2 2805   4.742   6.933   6.802
  636SOL     OW 2806   3.492   0.270   4.980
  636SOL    HW1 2807   3.517   0.365   4.966
  636SOL    HW2 2808   3.418   0.244   4.918
  637SOL     OW 2809   5.918   1.648   2.528
  637SOL    HW1 2810   5.881   1.692   2.610
  637SOL    HW2 2811   5.846   1.637   2.460
  638SOL     OW 2812   5.902   3.777   4.025
  638SOL    HW1 2813   5.944   3.755   4.113
  638SOL    HW2 2814   5.803   3.775   4.034
  639SOL     OW 2815   5.399   4.478   3.416
  639SOL    HW1 2816   5.362   4.469   3.323
  639SOL    HW2 2817   5.325   4.503   3.479
  640SOL     OW 2818   0.124   3.614   3.518
  640SOL    HW1 2819   0.102   3.710   3.534
  640SOL    HW2 2820   0.164   3.604   3.427
  641SOL     OW 2821   1.803   4.882   5.644
  641SOL    HW1 2822   1.726   4.920   5.592
  641SOL    HW2 2823   1.865   4.956   5.671
  642SOL     OW 2824   1.602   3.244   4.628
  642SOL    HW1 2825   1.697   3.241   4.660
  642SOL    HW2 2826   1.599   3.280   4.535
  643SOL     OW 2827   6.424   0.024   6.884
  643SOL    HW1 2828   6.350   0.042   6.819
  643SOL    HW2 2829   6.432   6.953   6.898
  644SOL     OW 2830   0.888   0.830   4.351
  644SOL    HW1 2831   0.790   0.836   4.333
  644SOL    HW2 2832   0.935   0.795   4.270
  645SOL     OW 2833   3.392   5.067   3.179
  645SOL    HW1 2834   3.398   5.047   3.277
  645SOL    HW2 2835   3.447   5.001   3.128
  646SOL     OW 2836   3.519   0.882   4.772
  646SOL    HW1 2837   3.459   0.891   4.692
  646SOL    HW2 2838   3.481   0.936   4.848
  647SOL     OW 2839   4.974   1.912   4.781
  647SOL    HW1 2840   4.922   1.899   4.865
  647SOL    HW2 2841   4.984   1.824   4.734
  648SOL     OW 2842   6.328   2.936   3.305
  648SOL    HW1 2843   6.306   2.849   3.262
  648SOL    HW2 2844   6.334   2.924   3.404
  649SOL     OW 2845   2.169   4.605   0.181
  649SOL    HW1 2846   2.245   4.655   0.224
  649SOL    HW2 2847   2.090   4.666   0.173
  650SOL     OW 2848   0.082   5.521   0.594
  650SOL    HW1 2849   7.018   5.561   0.594
  650SOL    HW2 2850   0.144   5.580   0.646
  651SOL     OW 2851   1.863   0.443   5.751
  651SOL    HW1 2852   1.781   0.450   5.808
  651SOL    HW2 2853   1.897   0.535   5.730
  652SOL     OW 2854   4.302   6.583   1.943
  652SOL    HW1 2855   4.244   6.607   1.865
  652SOL    HW2 2856   4.373   6.652   1.954
  653SOL     OW 2857   0.771   6.621   0.401
  653SOL    HW1 2858   0.855   6.625   0.347
  653SOL    HW2 2859   0.734   6.529   0.396
  654SOL     OW 2860   6.890   6.715   6.308
  654SOL    HW1 2861   6.968   6.770   6.276
  654SOL    HW2 2862   6.920   6.621   6.324
  655SOL     OW 2863   0.149   5.455   1.874
  655SOL    HW1 2864   0.068   5.406   1.844
  655SOL    HW2 2865   0.149   5.462   1.974
  656SOL     OW 2866   2.285   6.566   0.789
  656SOL    HW1 2867   2.188   6.566   0.762
  656SOL    HW2 2868   2.328   6.480   0.763
  657SOL     OW 2869   3.107   3.693   1.071
  657SOL    HW1 2870   3.105   3.676   1.170
  657SOL    HW2 2871   3.155   3.618   1.025
  658SOL     OW 2872   1.903   4.197   5.740
  658SOL    HW1 2873   1.933   4.185   5.646
  658SOL    HW2 2874   1.957   4.269   5.784
  659SOL     OW 2875   3.022   5.579   4.785
  659SOL    HW1 2876   3.035   5.503   4.849
  659SOL    HW2 2877   3.111   5.617   4.759
  660SOL     OW 2878   4.996   4.999   2.156
  660SOL    HW1 2879   4.899   5.000   2.181
  660SOL    HW2 2880   5.008   4.945   2.072
  661SOL     OW 2881   4.755   4.160   4.660
  661SOL    HW1 2882   4.749   4.168   4.560
  661SOL    HW2 2883   4.758   4.251   4.701
  662SOL     OW 2884   4.313   1.973   6.357
  662SOL    HW1 2885   4.375   1.985   6.435
  662SOL    HW2 2886   4.250   1.898   6.376
  663SOL     OW 2887   0.669   4.615   0.052
  663SOL    HW1 2888   0.711   4.525   0.053
  663SOL    HW2 2889   0.730   4.682   0.095
  664SOL     OW 2890   1.794   5.468   6.987
  664SOL    HW1 2891   1.887   5.470   7.024
  664SOL    HW2 2892   1.769   5.374   6.966
  665SOL     OW 2893   4.200   5.528   1.239
  665SOL    HW1 2894   4.142   5.599   1.198
  665SOL    HW2 2895   4.238   5.471   1.166
  666SOL     OW 2896   3.492   1.936   0.959
  666SOL    HW1 2897   3.453   1.943   1.051
  666SOL    HW2 2898   3.592   1.932   0.965
  667SOL     OW 2899   0.815   2.533   4.035
  667SOL    HW1 2900   0.729   2.570   4.003
  667SOL    HW2 2901   0.798   2.466   4.108
  668SOL     OW 2902   4.609   5.812   6.848
  668SOL    HW1 2903   4.676   5.789   6.777
  668SOL    HW2 2904   4.597   5.733   6.908
  669SOL     OW 2905   1.568   6.698   3.193
  669SOL    HW1 2906   1.519   6.785   3.199
  669SOL    HW2 2907   1.503   6.623   3.186
  670SOL     OW 2908   2.990   3.723   2.596
  670SOL    HW1 2909   2.956   3.676   2.514
  670SOL    HW2 2910   2.936   3.696   2.675
  671SOL     OW 2911   2.141   6.112   6.033
  671SOL    HW1 2912   2.147   6.127   6.132
  671SOL    HW2 2913   2.222   6.150   5.989
  672SOL     OW 2914   1.261   3.373   3.626
  672SOL    HW1 2915   1.217   3.460   3.650
  672SOL    HW2 2916   1.206   3.325   3.559
  673SOL     OW 2917   4.462   6.772   0.168
  673SOL    HW1 2918   4.415   6.855   0.140
  673SOL    HW2 2919   4.553   6.795   0.204
  674SOL     OW 2920   0.466   3.241   4.124
  674SOL    HW1 2921   0.507   3.167   4.071
  674SOL    HW2 2922   0.529   3.318   4.130
  675SOL     OW 2923   0.736   1.965   4.980
  675SOL    HW1 2924   0.691   1.988   5.066
  675SOL    HW2 2925   0.834   1.984   4.987
  676SOL     OW 2926   3.134   4.892   4.122
  676SOL    HW1 2927   3.206   4.914   4.188
  676SOL    HW2 2928   3.163   4.922   4.031
  677SOL     OW 2929   5.971   1.074   0.393
  677SOL    HW1 2930   5.895   1.124   0.352
  677SOL    HW2 2931   6.052   1.133   0.396
  678SOL     OW 2932   2.671   1.449   5.032
  678SOL    HW1 2933   2.587   1.466   5.084
  678SOL    HW2 2934   2.736   1.399   5.089
  679SOL     OW 2935   4.040   1.044   4.811
  679SOL    HW1 2936   4.127   1.093   4.805
  679SOL    HW2 2937   4.020   1.001   4.723
  680SOL     OW 2938   5.876   4.598   5.843
  680SOL    HW1 2939   5.973   4.580   5.826
  680SOL    HW2 2940   5.821   4.550   5.775
  681SOL     OW 2941   6.583   0.083   0.861
  681SOL    HW1 2942   6.618   0.052   0.950
  681SOL    HW2 2943   6.638   0.044   0.788
  682SOL     OW 2944   2.675   6.475   6.288
  682SOL    HW1 2945   2.655   6.387   6.332
  682SOL    HW2 2946   2.766   6.506   6.316
  683SOL     OW 2947   3.358   0.318   6.109
  683SOL    HW1 2948   3.428   0.360   6.052
  683SOL    HW2 2949   3.286   0.280   6.050
  684SOL     OW 2950   6.122   1.392   6.254
  684SOL    HW1 2951   6.208   1.438   6.276
  684SOL    HW2 2952   6.053   1.416   6.323
  685SOL     OW 2953   4.792   0.485   5.908
  685SOL    HW1 2954   4.883   0.448   5.891
  685SOL    HW2 2955   4.778   0.494   6.007
  686SOL     OW 2956   5.957   2.899   3.038
  686SOL    HW1 2957   6.042   2.860   3.002
  686SOL    HW2 2958   5.923   2.843   3.113
  687SOL     OW 2959   7.004   3.201   6.045
  687SOL    HW1 2960   6.932   3.162   6.103
  687SOL    HW2 2961   0.033   3.263   6.100
  688SOL     OW 2962   2.121   3.547   0.185
  688SOL    HW1 2963   2.023   3.529   0.183
  688SOL    HW2 2964   2.153   3.570   0.093
  689SOL     OW 2965   0.913   4.219   6.045
  689SOL    HW1 2966   0.931   4.271   5.961
  689SOL    HW2 2967   0.893   4.282   6.119
  690SOL     OW 2968   0.904   3.198   3.190
  690SOL    HW1 2969   0.981   3.195   3.126
  690SOL    HW2 2970   0.940   3.192   3.284
  691SOL     OW 2971   2.358   1.487   6.396
  691SOL    HW1 2972   2.321   1.458   6.484
  691SOL    HW2 2973   2.284   1.522   6.339
  692SOL     OW 2974   3.051   0.089   3.836
  692SOL    HW1 2975   3.087   0.040   3.915
  692SOL    HW2 2976   3.090   0.050   3.752
  693SOL     OW 2977   6.516   1.660   3.623
  693SOL    HW1 2978   6.529   1.629   3.717
  693SOL    HW2 2979   6.569   1.602   3.561
  694SOL     OW 2980   3.264   5.852   2.445
  694SOL    HW1 2981   3.250   5.901   2.359
  694SOL    HW2 2982   3.231   5.908   2.521
  695SOL     OW 2983   4.986   4.820   5.167
  695SOL    HW1 2984   4.959   4.756   5.239
  695SOL    HW2 2985   4.967   4.778   5.078
  696SOL     OW 2986   3.237   5.187   2.312
  696SOL    HW1 2987   3.237   5.118   2.240
  696SOL    HW2 2988   3.156   5.175   2.370
  697SOL     OW 2989   1.128   3.448   6.353
  697SOL    HW1 2990   1.040   3.402   6.355
  697SOL    HW2 2991   1.178   3.429   6.438
  698SOL     OW 2992   5.897   0.190   4.831
  698SOL    HW1 2993   5.936   0.102   4.805
  698SOL    HW2 2994   5.841   0.179   4.913
  699SOL     OW 2995   1.074   4.392   0.187
  699SOL    HW1 2996   1.073   4.375   0.286
  699SOL    HW2 2997   1.110   4.483   0.169
  700SOL     OW 2998   2.855   2.268   3.659
  700SOL    HW1 2999   2.808   2.356   3.666
  700SOL    HW2 3000   2.788   2.194   3.667
  701SOL     OW 3001   1.228   5.005   0.087
  701SOL    HW1 3002   1.256   5.099   0.103
  701SOL    HW2 3003   1.210   4.991   7.017
  702SOL     OW 3004   5.987   6.097   6.456
  702SOL    HW1 3005   5.979   6.195   6.437
  702SOL    HW2 3006   5.897   6.054   6.446
  703SOL     OW 3007   4.293   3.361   6.961
  703SOL    HW1 3008   4.197   3.339   6.943
  703SOL    HW2 3009   4.343   3.362   6.874
  704SOL     OW 3010   1.620   1.040   6.111
  704SOL    HW1 3011   1.535   1.043   6.058
  704SOL    HW2 3012   1.662   1.131   6.111
  705SOL     OW 3013   5.040   0.030   3.534
  705SOL    HW1 3014   5.123   0.003   3.583
  705SOL    HW2 3015   4.960   7.019   3.579
  706SOL     OW 3016   4.228   1.544   3.795
  706SOL    HW1 3017   4.284   1.565   3.875
  706SOL    HW2 3018   4.274   1.475   3.739
  707SOL     OW 3019   4.164   6.684   2.247
  707SOL    HW1 3020   4.155   6.726   2.337
  707SOL    HW2 3021   4.255   6.705   2.210
  708SOL     OW 3022   4.307   0.110   1.007
  708SOL    HW1 3023   4.360   0.183   0.964
  708SOL    HW2 3024   4.265   0.145   1.091
  709SOL     OW 3025   1.404   5.417   1.162
  709SOL    HW1 3026   1.431   5.486   1.095
  709SOL    HW2 3027   1.477   5.350   1.172
  710SOL     OW 3028   3.655   3.917   2.972
  710SOL    HW1 3029   3.668   3.840   3.034
  710SOL    HW2 3030   3.577   3.971   3.002
  711SOL     OW 3031   0.458   2.075   5.876
  711SOL    HW1 3032   0.534   2.107   5.819
  711SOL    HW2 3033   0.444   2.139   5.951
  712SOL     OW 3034   1.801   4.399   0.770
  712SOL    HW1 3035   1.885   4.363   0.729
  712SOL    HW2 3036   1.769   4.337   0.841
  713SOL     OW 3037   3.231   4.352   0.666
  713SOL    HW1 3038   3.202   4.435   0.713
  713SOL    HW2 3039   3.158   4.283   0.673
  714SOL     OW 3040   6.062   4.402   5.346
  714SOL    HW1 3041   6.157   4.425   5.325
  714SOL    HW2 3042   6.001   4.457   5.287
  715SOL     OW 3043   4.880   5.879   0.072
  715SOL    HW1 3044   4.924   5.818   0.006
  715SOL    HW2 3045   4.813   5.828   0.125
  716SOL     OW 3046   0.920   5.400   1.345
  716SOL    HW1 3047   1.019   5.409   1.343
  716SOL    HW2 3048   0.894   5.314   1.388
  717SOL     OW 3049   6.331   4.703   6.598
  717SOL    HW1 3050   6.329   4.668   6.504
  717SOL    HW2 3051   6.242   4.689   6.640
  718SOL     OW 3052   3.567   2.071   6.358
  718SOL    HW1 3053   3.638   2.059   6.427
  718SOL    HW2 3054   3.598   2.034   6.271
  719SOL     OW 3055   6.474   2.157   2.072
  719SOL    HW1 3056   6.490   2.247   2.113
  719SOL    HW2 3057   6.433   2.096   2.140
  720SOL     OW 3058   2.736   1.475   6.009
  720SOL    HW1 3059   2.755   1.567   5.977
  720SOL    HW2 3060   2.761   1.467   6.105
  721SOL     OW 3061   1.166   0.567   4.744
  721SOL    HW1 3062   1.234   0.554   4.817
  721SOL    HW2 3063   1.165   0.487   4.684
  722SOL     OW 3064   4.356   6.528   5.106
  722SOL    HW1 3065   4.425   6.575   5.051
  722SOL    HW2 3066   4.400   6.465   5.170
  723SOL     OW 3067   2.236   3.136   1.732
  723SOL    HW1 3068   2.304   3.198   1.693
  723SOL    HW2 3069   2.205   3.172   1.820
  724SOL     OW 3070   1.439   1.531   4.871
  724SOL    HW1 3071   1.398   1.450   4.913
  724SOL    HW2 3072   1.533   1.510   4.844
  725SOL     OW 3073   2.798   5.070   2.156
  725SOL    HW1 3074   2.833   5.099   2.067
  725SOL    HW2 3075   2.812   4.972   2.167
  726SOL     OW 3076   3.744   4.519   0.203
  726SOL    HW1 3077   3.786   4.457   0.269
  726SOL    HW2 3078   3.797   4.604   0.199
  727SOL     OW 3079   4.595   6.025   4.126
  727SOL    HW1 3080   4.641   5.980   4.049
  727SOL    HW2 3081   4.515   5.972   4.152
  728SOL     OW 3082   0.269   4.596   5.191
  728SOL    HW1 3083   0.288   4.498   5.182
  728SOL    HW2 3084   0.279   4.623   5.287
  729SOL     OW 3085   2.495   0.736   0.360
  729SOL    HW1 3086   2.448   0.820   0.333
  729SOL    HW2 3087   2.492   0.670   0.285
  730SOL     OW 3088   5.888   0.098   3.254
  730SOL    HW1 3089   5.789   0.084   3.257
  730SOL    HW2 3090   5.934   0.011   3.268
  731SOL     OW 3091   5.507   3.293   6.370
  731SOL    HW1 3092   5.507   3.380   6.322
  731SOL    HW2 3093   5.531   3.307   6.466
  732SOL     OW 3094   0.333   3.668   0.925
  732SOL    HW1 3095   0.407   3.601   0.921
  732SOL    HW2 3096   0.258   3.637   0.867
  733SOL     OW 3097   5.311   4.275   4.729
  733SOL    HW1 3098   5.321   4.366   4.688
  733SOL    HW2 3099   5.368   4.210   4.681
  734SOL     OW 3100   6.390   4.565   2.651
  734SOL    HW1 3101   6.365   4.511   2.731
  734SOL    HW2 3102   6.484   4.597   2.660
  735SOL     OW 3103   3.274   2.605   1.092
  735SOL    HW1 3104   3.216   2.624   1.171
  735SOL    HW2 3105   3.307   2.692   1.054
  736SOL     OW 3106   0.043   6.653   2.459
  736SOL    HW1 3107   0.069   6.635   2.554
  736SOL    HW2 3108   0.125   6.659   2.403
  737SOL     OW 3109   4.956   3.394   0.983
  737SOL    HW1 3110   4.885   3.329   1.010
  737SOL    HW2 3111   5.041   3.373   1.032
  738SOL     OW 3112   1.525   5.098   3.894
  738SOL    HW1 3113   1.438   5.053   3.911
  738SOL    HW2 3114   1.598   5.030   3.890
  739SOL     OW 3115   4.926   6.112   5.438
  739SOL    HW1 3116   4.895   6.061   5.518
  739SOL    HW2 3117   4.957   6.049   5.368
  740SOL     OW 3118   5.567   0.506   0.728
  740SOL    HW1 3119   5.559   0.583   0.664
  740SOL    HW2 3120   5.588   0.540   0.820
  741SOL     OW 3121   2.076   6.459   3.660
  741SOL    HW1 3122   2.000   6.493   3.605
  741SOL    HW2 3123   2.056   6.471   3.757
  742SOL     OW 3124   2.091   0.033   2.394
  742SOL    HW1 3125   2.070   7.000   2.470
  742SOL    HW2 3126   2.162   7.020   2.337
  743SOL     OW 3127   1.580   4.313   4.438
  743SOL    HW1 3128   1.665   4.262   4.448
  743SOL    HW2 3129   1.599   4.400   4.392
  744SOL     OW 3130   6.790   0.123   6.406
  744SOL    HW1 3131   6.751   0.034   6.385
  744SOL    HW2 3132   6.726   0.195   6.377
  745SOL     OW 3133   1.101   6.298   4.406
  745SOL    HW1 3134   1.135   6.205   4.387
  745SOL    HW2 3135   1.051   6.332   4.327
  746SOL     OW 3136   0.219   6.652   5.240
  746SOL    HW1 3137   0.197   6.747   5.220
  746SOL    HW2 3138   0.139   6.606   5.278
  747SOL     OW 3139   4.604   5.024   4.465
  747SOL    HW1 3140   4.514   4.990   4.436
  747SOL    HW2 3141   4.657   5.053   4.385
  748SOL     OW 3142   4.166   5.238   2.708
  748SOL    HW1 3143   4.187   5.189   2.793
  748SOL    HW2 3144   4.218   5.324   2.707
  749SOL     OW 3145   6.794   3.522   4.922
  749SOL    HW1 3146   6.760   3.524   4.828
  749SOL    HW2 3147   6.743   3.454   4.975
  750SOL     OW 3148   1.801   3.109   0.672
  750SOL    HW1 3149   1.768   3.181   0.733
  750SOL    HW2 3150   1.729   3.082   0.609
  751SOL     OW 3151   3.995   1.859   6.185
  751SOL    HW1 3152   3.901   1.832   6.163
  751SOL    HW2 3153   4.032   1.796   6.253
  752SOL     OW 3154   4.298   2.066   2.038
  752SOL    HW1 3155   4.234   2.033   1.968
  752SOL    HW2 3156   4.391   2.040   2.014
  753SOL     OW 3157   2.110   3.355   4.164
  753SOL    HW1 3158   2.077   3.312   4.248
  753SOL    HW2 3159   2.087   3.298   4.086
  754SOL     OW 3160   6.111   3.764   6.515
  754SOL    HW1 3161   6.040   3.750   6.584
  754SOL    HW2 3162   6.072   3.810   6.435
  755SOL     OW 3163   1.138   5.990   0.219
  755SOL    HW1 3164   1.082   5.935   0.155
  755SOL    HW2 3165   1.229   6.002   0.181
  756SOL     OW 3166   4.954   6.812   1.099
  756SOL    HW1 3167   4.906   6.733   1.061
  756SOL    HW2 3168   5.010   6.783   1.177
  757SOL     OW 3169   0.770   5.986   3.259
  757SOL    HW1 3170   0.723   5.962   3.344
  757SOL    HW2 3171   0.705   5.988   3.184
  758SOL     OW 3172   4.045   0.950   1.159
  758SOL    HW1 3173   3.972   0.960   1.092
  758SOL    HW2 3174   4.006   0.930   1.249
  759SOL     OW 3175   6.730   0.986   0.666
  759SOL    HW1 3176   6.702   1.081   0.680
  759SOL    HW2 3177   6.650   0.926   0.673
  760SOL     OW 3178   4.281   1.520   6.579
  760SOL    HW1 3179   4.325   1.524   6.489
  760SOL    HW2 3180   4.346   1.545   6.650
  761SOL     OW 3181   5.022   3.930   6.864
  761SOL    HW1 3182   5.020   3.927   6.964
  761SOL    HW2 3183   4.930   3.947   6.829
  762SOL     OW 3184   2.403   6.131   3.337
  762SOL    HW1 3185   2.395   6.033   3.350
  762SOL    HW2 3186   2.335   6.178   3.393
  763SOL     OW 3187   4.189   5.667   6.477
  763SOL    HW1 3188   4.183   5.757   6.434
  763SOL    HW2 3189   4.251   5.609   6.425
  764SOL     OW 3190   4.693   0.150   4.236
  764SOL    HW1 3191   4.635   0.212   4.183
  764SOL    HW2 3192   4.748   0.094   4.175
  765SOL     OW 3193   1.540   6.343   1.456
  765SOL    HW1 3194   1.534   6.266   1.519
  765SOL    HW2 3195   1.567   6.311   1.366
  766SOL     OW 3196   0.437   1.841   0.142
  766SOL    HW1 3197   0.453   1.750   0.103
  766SOL    HW2 3198   0.339   1.860   0.141
  767SOL     OW 3199   0.607   5.947   2.393
  767SOL    HW1 3200   0.660   6.030   2.405
  767SOL    HW2 3201   0.512   5.964   2.418
  768SOL     OW 3202   2.040   0.583   2.228
  768SOL    HW1 3203   2.051   0.629   2.315
  768SOL    HW2 3204   1.959   0.523   2.231
  769SOL     OW 3205   2.766   6.842   3.906
  769SOL    HW1 3206   2.782   6.927   3.857
  769SOL    HW2 3207   2.850   6.787   3.906
  770SOL     OW 3208   1.855   4.641   2.805
  770SOL    HW1 3209   1.936   4.652   2.863
  770SOL    HW2 3210   1.881   4.594   2.721
  771SOL     OW 3211   1.770   5.264   2.588
  771SOL    HW1 3212   1.849   5.281   2.529
  771SOL    HW2 3213   1.785   5.179   2.640
  772SOL     OW 3214   6.748   5.231   0.665
  772SOL    HW1 3215   6.840   5.254   0.696
  772SOL    HW2 3216   6.683   5.244   0.741
  773SOL     OW 3217   0.682   3.712   3.600
  773SOL    HW1 3218   0.719   3.619   3.607
  773SOL    HW2 3219   0.644   3.739   3.688
  774SOL     OW 3220   1.112   1.589   2.256
  774SOL    HW1 3221   1.015   1.565   2.253
  774SOL    HW2 3222   1.120   1.687   2.277
  775SOL     OW 3223   0.967   2.051   3.550
  775SOL    HW1 3224   1.020   2.097   3.621
  775SOL    HW2 3225   0.978   2.099   3.463
  776SOL     OW 3226   6.990   1.208   6.193
  776SOL    HW1 3227   7.000   1.132   6.258
  776SOL    HW2 3228   6.988   1.294   6.242
  777SOL     OW 3229   3.133   6.865   1.113
  777SOL    HW1 3230   3.043   6.867   1.070
  777SOL    HW2 3231   3.166   6.959   1.125
  778SOL     OW 3232   3.663   1.540   3.776
  778SOL    HW1 3233   3.695   1.476   3.845
  778SOL    HW2 3234   3.650   1.630   3.818
  779SOL     OW 3235   0.880   1.976   2.824
  779SOL    HW1 3236   0.812   1.904   2.840
  779SOL    HW2 3237   0.957   1.938   2.772
  780SOL     OW 3238   5.977   3.599   4.820
  780SOL    HW1 3239   6.045   3.661   4.858
  780SOL    HW2 3240   5.987   3.595   4.721
  781SOL     OW 3241   5.943   1.408   6.041
  781SOL    HW1 3242   5.881   1.335   6.068
  781SOL    HW2 3243   6.021   1.411   6.103
  782SOL     OW 3244   1.181   4.116   0.447
  782SOL    HW1 3245   1.162   4.081   0.356
  782SOL    HW2 3246   1.122   4.070   0.513
  783SOL     OW 3247   3.816   4.321   0.756
  783SOL    HW1 3248   3.831   4.389   0.685
  783SOL    HW2 3249   3.743   4.352   0.817
  784SOL     OW 3250   5.307   6.729   5.657
  784SOL    HW1 3251   5.263   6.723   5.567
  784SOL    HW2 3252   5.239   6.756   5.725
  785SOL     OW 3253   0.002   2.198   3.334
  785SOL    HW1 3254   0.094   2.160   3.346
  785SOL    HW2 3255   6.966   2.123   3.318
  786SOL     OW 3256   1.306   0.573   0.912
  786SOL    HW1 3257   1.277   0.589   0.818
  786SOL    HW2 3258   1.381   0.507   0.913
  787SOL     OW 3259   3.437   1.697   6.438
  787SOL    HW1 3260   3.522   1.731   6.478
  787SOL    HW2 3261   3.457   1.643   6.357
  788SOL     OW 3262   2.220   2.634   4.943
  788SOL    HW1 3263   2.265   2.665   5.027
  788SOL    HW2 3264   2.219   2.535   4.940
  789SOL     OW 3265   5.743   4.286   1.387
  789SOL    HW1 3266   5.819   4.264   1.327
  789SOL    HW2 3267   5.677   4.211   1.386
  790SOL     OW 3268   2.463   1.601   4.010
  790SOL    HW1 3269   2.506   1.518   4.045
  790SOL    HW2 3270   2.374   1.614   4.054
  791SOL     OW 3271   3.647   0.283   3.677
  791SOL    HW1 3272   3.629   0.368   3.629
  791SOL    HW2 3273   3.727   0.294   3.735
  792SOL     OW 3274   0.133   0.303   1.290
  792SOL    HW1 3275   0.233   0.298   1.291
  792SOL    HW2 3276   0.103   0.348   1.206
  793SOL     OW 3277   3.953   6.159   2.396
  793SOL    HW1 3278   3.892   6.144   2.319
  793SOL    HW2 3279   3.938   6.251   2.434
  794SOL     OW 3280   2.537   3.445   5.450
  794SOL    HW1 3281   2.574   3.462   5.358
  794SOL    HW2 3282   2.602   3.389   5.502
  795SOL     OW 3283   2.797   5.474   5.194
  795SOL    HW1 3284   2.737   5.499   5.118
  795SOL    HW2 3285   2.781   5.378   5.218
  796SOL     OW 3286   0.992   2.310   6.572
  796SOL    HW1 3287   0.903   2.274   6.598
  796SOL    HW2 3288   1.026   2.260   6.492
  797SOL     OW 3289   5.480   2.422   2.352
  797SOL    HW1 3290   5.427   2.350   2.398
  797SOL    HW2 3291   5.524   2.480   2.421
  798SOL     OW 3292   5.065   0.145   1.196
  798SOL    HW1 3293   5.029   0.195   1.117
  798SOL    HW2 3294   5.164   0.157   1.201
  799SOL     OW 3295   6.643   1.134   4.046
  799SOL    HW1 3296   6.580   1.205   4.013
  799SOL    HW2 3297   6.732   1.145   4.001
  800SOL     OW 3298   5.745   1.309   2.649
  800SOL    HW1 3299   5.763   1.385   2.712
  800SOL    HW2 3300   5.788   1.328   2.561
  801SOL     OW 3301   1.269   3.852   2.926
  801SOL    HW1 3302   1.219   3.901   2.997
  801SOL    HW2 3303   1.365   3.880   2.927
  802SOL     OW 3304   4.145   0.600   0.326
  802SOL    HW1 3305   4.166   0.502   0.322
  802SOL    HW2 3306   4.070   0.615   0.391
  803SOL     OW 3307   6.921   5.917   5.129
  803SOL    HW1 3308   6.855   5.906   5.054
  803SOL    HW2 3309   6.877   5.962   5.206
  804SOL     OW 3310   6.114   6.281   6.869
  804SOL    HW1 3311   6.026   6.243   6.842
  804SOL    HW2 3312   6.124   6.374   6.832
  805SOL     OW 3313   3.996   2.314   5.939
  805SOL    HW1 3314   4.045   2.239   5.894
  805SOL    HW2 3315   3.948   2.279   6.020
  806SOL     OW 3316   4.252   1.204   4.807
  806SOL    HW1 3317   4.236   1.281   4.745
  806SOL    HW2 3318   4.316   1.232   4.878
  807SOL     OW 3319   0.653   1.679   3.606
  807SOL    HW1 3320   0.657   1.724   3.695
  807SOL    HW2 3321   0.724   1.717   3.547
  808SOL     OW 3322   4.768   3.782   6.637
  808SOL    HW1 3323   4.826   3.812   6.561
  808SOL    HW2 3324   4.812   3.705   6.683
  809SOL     OW 3325   0.933   4.571   1.572
  809SOL    HW1 3326   0.879   4.519   1.506
  809SOL    HW2 3327   0.906   4.667   1.569
  810SOL     OW 3328   4.190   2.596   1.370
  810SOL    HW1 3329   4.107   2.597   1.315
  810SOL    HW2 3330   4.168   2.571   1.464
  811SOL     OW 3331   4.667   5.078   3.581
  811SOL    HW1 3332   4.745   5.079   3.517
  811SOL    HW2 3333   4.656   5.169   3.621
  812SOL     OW 3334   0.094   1.317   2.084
  812SOL    HW1 3335   0.069   1.257   2.161
  812SOL    HW2 3336   0.061   1.409   2.102
  813SOL     OW 3337   4.088   4.977   4.193
  813SOL    HW1 3338   4.062   5.069   4.166
  813SOL    HW2 3339   4.096   4.919   4.112
  814SOL     OW 3340   5.296   6.502   3.459
  814SOL    HW1 3341   5.305   6.452   3.373
  814SOL    HW2 3342   5.199   6.514   3.480
  815SOL     OW 3343   6.520   2.967   2.211
  815SOL    HW1 3344   6.445   2.930   2.157
  815SOL    HW2 3345   6.524   2.921   2.300
  816SOL     OW 3346   0.100   0.190   0.012
  816SOL    HW1 3347   0.047   0.270   0.040
  816SOL    HW2 3348   0.185   0.186   0.065
  817SOL     OW 3349   1.934   3.560   2.075
  817SOL    HW1 3350   1.881   3.599   2.151
  817SOL    HW2 3351   2.027   3.540   2.106
  818SOL     OW 3352   6.610   3.395   1.136
  818SOL    HW1 3353   6.600   3.493   1.117
  818SOL    HW2 3354   6.568   3.374   1.225
  819SOL     OW 3355   5.983   3.289   3.924
  819SOL    HW1 3356   5.969   3.190   3.917
  819SOL    HW2 3357   6.064   3.314   3.871
  820SOL     OW 3358   1.333   2.687   6.057
  820SOL    HW1 3359   1.239   2.679   6.023
  820SOL    HW2 3360   1.396   2.692   5.979
  821SOL     OW 3361   2.862   4.716   0.273
  821SOL    HW1 3362   2.882   4.785   0.204
  821SOL    HW2 3363   2.854   4.626   0.229
  822SOL     OW 3364   1.130   4.721   4.826
  822SOL    HW1 3365   1.213   4.766   4.857
  822SOL    HW2 3366   1.137   4.701   4.729
  823SOL     OW 3367   4.709   4.687   6.917
  823SOL    HW1 3368   4.776   4.614   6.901
  823SOL    HW2 3369   4.673   4.679   7.010
  824SOL     OW 3370   5.613   0.928   5.766
  824SOL    HW1 3371   5.522   0.928   5.726
  824SOL    HW2 3372   5.658   1.015   5.747
  825SOL     OW 3373   1.911   3.811   1.609
  825SOL    HW1 3374   1.886   3.906   1.626
  825SOL    HW2 3375   1.831   3.753   1.622
  826SOL     OW 3376   5.445   3.915   0.498
  826SOL    HW1 3377   5.405   3.823   0.491
  826SOL    HW2 3378   5.402   3.975   0.431
  827SOL     OW 3379   2.965   5.390   5.504
  827SOL    HW1 3380   2.943   5.300   5.542
  827SOL    HW2 3381   2.883   5.447   5.505
  828SOL     OW 3382   6.339   0.728   5.308
  828SOL    HW1 3383   6.257   0.695   5.261
  828SOL    HW2 3384   6.390   0.789   5.248
  829SOL     OW 3385   2.978   3.702   4.369
  829SOL    HW1 3386   2.989   3.794   4.329
  829SOL    HW2 3387   3.023   3.699   4.458
  830SOL     OW 3388   5.224   4.515   5.947
  830SOL    HW1 3389   5.128   4.505   5.923
  830SOL    HW2 3390   5.281   4.482   5.871
  831SOL     OW 3391   7.001   0.404   4.894
  831SOL    HW1 3392   7.025   0.412   4.797
  831SOL    HW2 3393   0.036   0.459   4.949
  832SOL     OW 3394   1.899   0.917   6.877
  832SOL    HW1 3395   1.842   0.934   6.796
  832SOL    HW2 3396   1.860   0.965   6.956
  833SOL     OW 3397   0.713   5.945   6.083
  833SOL    HW1 3398   0.777   5.874   6.113
  833SOL    HW2 3399   0.738   6.033   6.124
  834SOL     OW 3400   4.003   4.002   1.856
  834SOL    HW1 3401   3.921   4.053   1.831
  834SOL    HW2 3402   3.983   3.942   1.934
  835SOL     OW 3403   3.419   0.087   4.135
  835SOL    HW1 3404   3.411   0.046   4.225
  835SOL    HW2 3405   3.397   0.184   4.140
  836SOL     OW 3406   2.902   6.198   6.597
  836SOL    HW1 3407   2.824   6.136   6.607
  836SOL    HW2 3408   2.985   6.145   6.584
  837SOL     OW 3409   5.206   6.520   6.617
  837SOL    HW1 3410   5.115   6.481   6.628
  837SOL    HW2 3411   5.230   6.572   6.699
  838SOL     OW 3412   0.487   0.455   4.613
  838SOL    HW1 3413   0.511   0.368   4.656
  838SOL    HW2 3414   0.570   0.501   4.584
  839SOL     OW 3415   2.511   1.549   1.969
  839SOL    HW1 3416   2.532   1.640   1.932
  839SOL    HW2 3417   2.572   1.529   2.046
  840SOL     OW 3418   5.880   0.568   5.600
  840SOL    HW1 3419   5.903   0.485   5.550
  840SOL    HW2 3420   5.834   0.632   5.539
  841SOL     OW 3421   6.000   4.305   0.617
  841SOL    HW1 3422   5.976   4.371   0.689
  841SOL    HW2 3423   6.099   4.302   0.607
  842SOL     OW 3424   4.427   5.283   4.161
  842SOL    HW1 3425   4.361   5.258   4.090
  842SOL    HW2 3426   4.400   5.242   4.248
  843SOL     OW 3427   4.933   2.116   0.245
  843SOL    HW1 3428   5.017   2.111   0.191
  843SOL    HW2 3429   4.902   2.211   0.251
  844SOL     OW 3430   4.815   6.588   1.040
  844SOL    HW1 3431   4.722   6.587   1.004
  844SOL    HW2 3432   4.822   6.524   1.117
  845SOL     OW 3433   6.531   3.481   4.266
  845SOL    HW1 3434   6.586   3.407   4.228
  845SOL    HW2 3435   6.441   3.481   4.223
  846SOL     OW 3436   5.137   1.552   6.547
  846SOL    HW1 3437   5.056   1.534   6.604
  846SOL    HW2 3438   5.113   1.542   6.451
  847SOL     OW 3439   6.361   3.433   0.794
  847SOL    HW1 3440   6.387   3.523   0.827
  847SOL    HW2 3441   6.273   3.439   0.747
  848SOL     OW 3442   5.974   1.217   6.671
  848SOL    HW1 3443   5.897   1.271   6.705
  848SOL    HW2 3444   6.058   1.270   6.679
  849SOL     OW 3445   0.745   5.672   5.245
  849SOL    HW1 3446   0.828   5.618   5.262
  849SOL    HW2 3447   0.740   5.746   5.312
  850SOL     OW 3448   5.001   0.743   3.402
  850SOL    HW1 3449   4.940   0.739   3.482
  850SOL    HW2 3450   5.028   0.838   3.386
  851SOL     OW 3451   6.981   1.353   0.670
  851SOL    HW1 3452   6.915   1.381   0.740
  851SOL    HW2 3453   0.032   1.310   0.712
  852SOL     OW 3454   2.361   2.732   0.040
  852SOL    HW1 3455   2.349   2.636   0.063
  852SOL    HW2 3456   2.292   2.760   7.001
  853SOL     OW 3457   1.145   3.630   3.687
  853SOL    HW1 3458   1.237   3.650   3.651
  853SOL    HW2 3459   1.102   3.716   3.716
  854SOL     OW 3460   5.068   6.202   2.253
  854SOL    HW1 3461   5.084   6.146   2.172
  854SOL    HW2 3462   5.125   6.168   2.328
  855SOL     OW 3463   6.000   6.775   1.156
  855SOL    HW1 3464   5.989   6.800   1.059
  855SOL    HW2 3465   5.911   6.780   1.201
  856SOL     OW 3466   1.996   1.199   5.042
  856SOL    HW1 3467   2.019   1.296   5.050
  856SOL    HW2 3468   2.039   1.161   4.960
  857SOL     OW 3469   5.858   5.310   1.167
  857SOL    HW1 3470   5.846   5.279   1.073
  857SOL    HW2 3471   5.779   5.283   1.222
  858SOL     OW 3472   2.520   4.599   2.050
  858SOL    HW1 3473   2.459   4.609   1.972
  858SOL    HW2 3474   2.615   4.602   2.019
  859SOL     OW 3475   5.719   5.492   6.389
  859SOL    HW1 3476   5.814   5.483   6.418
  859SOL    HW2 3477   5.713   5.481   6.290
  860SOL     OW 3478   4.720   4.307   0.697
  860SOL    HW1 3479   4.643   4.337   0.755
  860SOL    HW2 3480   4.805   4.313   0.749
  861SOL     OW 3481   2.064   0.011   4.324
  861SOL    HW1 3482   2.148   7.022   4.376
  861SOL    HW2 3483   2.001   0.065   4.380
  862SOL     OW 3484   6.155   3.765   4.910
  862SOL    HW1 3485   6.144   3.863   4.894
  862SOL    HW2 3486   6.191   3.749   5.002
  863SOL     OW 3487   1.277   0.354   0.459
  863SOL    HW1 3488   1.317   0.423   0.518
  863SOL    HW2 3489   1.336   0.273   0.457
  864SOL     OW 3490   5.386   4.437   3.836
  864SOL    HW1 3491   5.424   4.523   3.869
  864SOL    HW2 3492   5.450   4.395   3.771
  865SOL     OW 3493   0.819   6.564   4.966
  865SOL    HW1 3494   0.907   6.601   4.936
  865SOL    HW2 3495   0.764   6.538   4.886
  866SOL     OW 3496   2.178   1.646   1.673
  866SOL    HW1 3497   2.205   1.676   1.582
  866SOL    HW2 3498   2.236   1.691   1.741
  867SOL     OW 3499   2.973   2.451   1.291
  867SOL    HW1 3500   2.977   2.389   1.370
  867SOL    HW2 3501   3.044   2.520   1.298
  868SOL     OW 3502   6.038   6.398   1.272
  868SOL    HW1 3503   6.067   6.455   1.349
  868SOL    HW2 3504   6.082   6.309   1.278
  869SOL     OW 3505   6.294   5.562   3.007
  869SOL    HW1 3506   6.375   5.510   3.033
  869SOL    HW2 3507   6.218   5.500   2.991
  870SOL     OW 3508   5.872   3.959   1.233
  870SOL    HW1 3509   5.784   3.932   1.273
  870SOL    HW2 3510   5.890   4.055   1.254
  871SOL     OW 3511   0.187   3.175   1.954
  871SOL    HW1 3512   0.146   3.088   1.981
  871SOL    HW2 3513   0.181   3.185   1.855
  872SOL     OW 3514   6.665   3.652   4.433
  872SOL    HW1 3515   6.757   3.641   4.396
  872SOL    HW2 3516   6.600   3.601   4.376
  873SOL     OW 3517   4.247   0.635   2.894
  873SOL    HW1 3518   4.333   0.620   2.845
  873SOL    HW2 3519   4.264   0.689   2.976
  874SOL     OW 3520   1.391   4.022   5.232
  874SOL    HW1 3521   1.401   4.044   5.329
  874SOL    HW2 3522   1.308   4.065   5.196
  875SOL     OW 3523   4.973   4.302   0.801
  875SOL    HW1 3524   4.933   4.278   0.890
  875SOL    HW2 3525   4.974   4.402   0.791
  876SOL     OW 3526   6.589   4.580   3.524
  876SOL    HW1 3527   6.611   4.620   3.435
  876SOL    HW2 3528   6.673   4.557   3.572
  877SOL     OW 3529   4.890   4.882   6.824
  877SOL    HW1 3530   4.967   4.895   6.887
  877SOL    HW2 3531   4.817   4.833   6.871
  878SOL     OW 3532   4.046   5.427   6.931
  878SOL    HW1 3533   4.074   5.466   6.843
  878SOL    HW2 3534   4.106   5.350   6.954
  879SOL     OW 3535   4.142   1.613   2.590
  879SOL    HW1 3536   4.149   1.677   2.515
  879SOL    HW2 3537   4.163   1.659   2.676
  880SOL     OW 3538   3.171   4.203   0.089
  880SOL    HW1 3539   3.197   4.238   0.179
  880SOL    HW2 3540   3.221   4.119   0.070
  881SOL     OW 3541   4.246   4.811   5.159
  881SOL    HW1 3542   4.258   4.715   5.133
  881SOL    HW2 3543   4.163   4.847   5.116
  882SOL     OW 3544   2.016   1.407   3.936
  882SOL    HW1 3545   1.943   1.357   3.890
  882SOL    HW2 3546   1.980   1.492   3.974
  883SOL     OW 3547   4.417   5.000   5.595
  883SOL    HW1 3548   4.341   5.063   5.615
  883SOL    HW2 3549   4.486   5.048   5.542
  884SOL     OW 3550   6.819   3.501   2.393
  884SOL    HW1 3551   6.721   3.481   2.385
  884SOL    HW2 3552   6.866   3.472   2.309
  885SOL     OW 3553   5.803   6.739   0.236
  885SOL    HW1 3554   5.879   6.678   0.214
  885SOL    HW2 3555   5.749   6.757   0.153
  886SOL     OW 3556   4.165   1.008   0.314
  886SOL    HW1 3557   4.239   0.941   0.320
  886SOL    HW2 3558   4.169   1.053   0.225
  887SOL     OW 3559   4.414   6.428   5.852
  887SOL    HW1 3560   4.332   6.383   5.816
  887SOL    HW2 3561   4.394   6.524   5.872
  888SOL     OW 3562   6.945   6.246   3.541
  888SOL    HW1 3563   7.002   6.322   3.573
  888SOL    HW2 3564   6.882   6.219   3.613
  889SOL     OW 3565   0.035   0.074   5.910
  889SOL    HW1 3566   0.015   0.109   5.818
  889SOL    HW2 3567   7.001   0.117   5.976
  890SOL     OW 3568   2.843   4.780   2.202
  890SOL    HW1 3569   2.943   4.770   2.204
  890SOL    HW2 3570   2.806   4.727   2.126
  891SOL     OW 3571   5.928   3.491   1.383
  891SOL    HW1 3572   5.904   3.586   1.401
  891SOL    HW2 3573   5.845   3.438   1.367
  892SOL     OW 3574   3.954   3.743   0.438
  892SOL    HW1 3575   3.963   3.704   0.529
  892SOL    HW2 3576   3.857   3.749   0.413
  893SOL     OW 3577   1.589   0.754   0.891
  893SOL    HW1 3578   1.614   0.770   0.987
  893SOL    HW2 3579   1.497   0.791   0.874
  894SOL     OW 3580   2.065   4.307   4.529
  894SOL    HW1 3581   2.077   4.326   4.432
  894SOL    HW2 3582   2.148   4.333   4.579
  895SOL     OW 3583   1.668   7.021   4.436
  895SOL    HW1 3584   1.666   0.093   4.438
  895SOL    HW2 3585   1.721   6.987   4.513
  896SOL     OW 3586   6.057   6.002   4.116
  896SOL    HW1 3587   6.132   6.068   4.119
  896SOL    HW2 3588   6.079   5.929   4.052
  897SOL     OW 3589   4.681   1.178   0.682
  897SOL    HW1 3590   4.728   1.224   0.607
  897SOL    HW2 3591   4.635   1.096   0.647
  898SOL     OW 3592   5.105   6.119   4.067
  898SOL    HW1 3593   5.173   6.172   4.118
  898SOL    HW2 3594   5.027   6.177   4.047
  899SOL     OW 3595   0.588   4.972   0.078
  899SOL    HW1 3596   0.660   4.967   0.008
  899SOL    HW2 3597   0.624   4.939   0.165
  900SOL     OW 3598   6.270   6.076   1.951
  900SOL    HW1 3599   6.203   6.111   2.017
  900SOL    HW2 3600   6.343   6.143   1.939
  901SOL     OW 3601   0.383   1.619   4.597
  901SOL    HW1 3602   0.480   1.634   4.578
  901SOL    HW2 3603   0.356   1.675   4.676
  902SOL     OW 3604   0.267   0.980   6.369
  902SOL    HW1 3605   0.325   1.026   6.436
  902SOL    HW2 3606   0.271   1.031   6.283
  903SOL     OW 3607   6.368   4.559   0.406
  903SOL    HW1 3608   6.392   4.655   0.394
  903SOL    HW2 3609   6.428   4.502   0.350
  904SOL     OW 3610   1.613   1.784   3.993
  904SOL    HW1 3611   1.537   1.803   3.932
  904SOL    HW2 3612   1.649   1.871   4.029
  905SOL     OW 3613   5.131   2.430   0.298
  905SOL    HW1 3614   5.116   2.509   0.357
  905SOL    HW2 3615   5.167   2.354   0.353
  906SOL     OW 3616   0.286   4.371   7.021
  906SOL    HW1 3617   0.316   4.441   0.058
  906SOL    HW2 3618   0.186   4.364   7.023
  907SOL     OW 3619   6.038   2.206   3.157
  907SOL    HW1 3620   6.082   2.117   3.153
  907SOL    HW2 3621   6.001   2.221   3.248
  908SOL     OW 3622   1.056   6.757   4.182
  908SOL    HW1 3623   1.097   6.788   4.096
  908SOL    HW2 3624   1.121   6.771   4.257
  909SOL     OW 3625   2.897   1.141   0.462
  909SOL    HW1 3626   2.828   1.098   0.405
  909SOL    HW2 3627   2.928   1.077   0.532
  910SOL     OW 3628   1.934   0.493   0.793
  910SOL    HW1 3629   1.940   0.514   0.695
  910SOL    HW2 3630   1.838   0.493   0.821
  911SOL     OW 3631   0.115   4.750   1.486
  911SOL    HW1 3632   0.135   4.655   1.461
  911SOL    HW2 3633   0.140   4.764   1.582
  912SOL     OW 3634   0.767   1.325   5.755
  912SOL    HW1 3635   0.797   1.389   5.825
  912SOL    HW2 3636   0.669   1.339   5.736
  913SOL     OW 3637   1.848   0.627   3.490
  913SOL    HW1 3638   1.775   0.681   3.531
  913SOL    HW2 3639   1.854   0.647   3.392
  914SOL     OW 3640   2.345   5.535   4.837
  914SOL    HW1 3641   2.331   5.572   4.929
  914SOL    HW2 3642   2.328   5.607   4.770
  915SOL     OW 3643   0.694   3.276   0.642
  915SOL    HW1 3644   0.641   3.334   0.580
  915SOL    HW2 3645   0.788   3.268   0.608
  916SOL     OW 3646   2.110   2.021   2.096
  916SOL    HW1 3647   2.097   1.938   2.042
  916SOL    HW2 3648   2.091   2.000   2.192
  917SOL     OW 3649   3.903   0.894   1.441
  917SOL    HW1 3650   3.949   0.873   1.527
  917SOL    HW2 3651   3.833   0.825   1.423
  918SOL     OW 3652   3.061   5.972   6.566
  918SOL    HW1 3653   3.132   5.949   6.633
  918SOL    HW2 3654   3.083   5.930   6.478
  919SOL     OW 3655   1.707   6.666   1.965
  919SOL    HW1 3656   1.673   6.759   1.948
  919SOL    HW2 3657   1.674   6.605   1.893
  920SOL     OW 3658   2.472   0.690   2.882
  920SOL    HW1 3659   2.463   0.592   2.898
  920SOL    HW2 3660   2.386   0.735   2.903
  921SOL     OW 3661   6.036   4.506   4.129
  921SOL    HW1 3662   6.128   4.520   4.092
  921SOL    HW2 3663   6.031   4.416   4.172
  922SOL     OW 3664   3.506   3.766   6.572
  922SOL    HW1 3665   3.554   3.739   6.488
  922SOL    HW2 3666   3.568   3.820   6.629
  923SOL     OW 3667   2.652   5.871   0.210
  923SOL    HW1 3668   2.648   5.829   0.119
  923SOL    HW2 3669   2.740   5.852   0.252
  924SOL     OW 3670   5.357   2.884   2.249
  924SOL    HW1 3671   5.378   2.793   2.212
  924SOL    HW2 3672   5.411   2.899   2.332
  925SOL     OW 3673   6.647   1.899   5.989
  925SOL    HW1 3674   6.637   1.936   5.897
  925SOL    HW2 3675   6.685   1.969   6.049
  926SOL     OW 3676   5.702   0.098   0.611
  926SOL    HW1 3677   5.638   0.040   0.660
  926SOL    HW2 3678   5.692   0.084   0.513
  927SOL     OW 3679   4.823   4.098   3.545
  927SOL    HW1 3680   4.796   4.135   3.456
  927SOL    HW2 3681   4.915   4.059   3.539
  928SOL     OW 3682   1.569   0.101   0.684
  928SOL    HW1 3683   1.560   0.037   0.760
  928SOL    HW2 3684   1.647   0.074   0.627
  929SOL     OW 3685   0.109   2.931   2.055
  929SOL    HW1 3686   0.028   2.899   2.103
  929SOL    HW2 3687   0.155   2.854   2.011
  930SOL     OW 3688   6.198   4.738   4.417
  930SOL    HW1 3689   6.129   4.787   4.363
  930SOL    HW2 3690   6.173   4.641   4.421
  931SOL     OW 3691   0.231   3.246   3.170
  931SOL    HW1 3692   0.144   3.293   3.154
  931SOL    HW2 3693   0.248   3.182   3.095
  932SOL     OW 3694   3.645   6.362   2.098
  932SOL    HW1 3695   3.560   6.360   2.152
  932SOL    HW2 3696   3.711   6.299   2.138
  933SOL     OW 3697   1.074   4.373   3.247
  933SOL    HW1 3698   1.047   4.282   3.218
  933SOL    HW2 3699   1.019   4.401   3.326
  934SOL     OW 3700   2.640   1.311   4.776
  934SOL    HW1 3701   2.624   1.217   4.743
  934SOL    HW2 3702   2.601   1.321   4.867
  935SOL     OW 3703   4.881   3.880   6.373
  935SOL    HW1 3704   4.838   3.882   6.283
  935SOL    HW2 3705   4.915   3.971   6.396
  936SOL     OW 3706   0.272   6.609   0.955
  936SOL    HW1 3707   0.348   6.591   1.018
  936SOL    HW2 3708   0.297   6.684   0.894
  937SOL     OW 3709   5.075   1.604   4.406
  937SOL    HW1 3710   5.142   1.549   4.457
  937SOL    HW2 3711   5.018   1.543   4.351
  938SOL     OW 3712   0.632   4.185   6.587
  938SOL    HW1 3713   0.643   4.264   6.646
  938SOL    HW2 3714   0.715   4.130   6.588
  939SOL     OW 3715   5.265   1.278   6.195
  939SOL    HW1 3716   5.228   1.259   6.286
  939SOL    HW2 3717   5.211   1.229   6.127
  940SOL     OW 3718   0.124   1.712   2.778
  940SOL    HW1 3719   0.026   1.708   2.762
  940SOL    HW2 3720   0.156   1.626   2.817
  941SOL     OW 3721   5.741   1.300   3.895
  941SOL    HW1 3722   5.756   1.272   3.801
  941SOL    HW2 3723   5.706   1.394   3.897
  942SOL     OW 3724   5.076   0.019   5.051
  942SOL    HW1 3725   5.113   6.997   5.129
  942SOL    HW2 3726   5.032   0.103   5.083
  943SOL     OW 3727   0.165   3.391   2.434
  943SOL    HW1 3728   0.126   3.365   2.346
  943SOL    HW2 3729   0.094   3.433   2.491
  944SOL     OW 3730   6.362   3.593   4.770
  944SOL    HW1 3731   6.450   3.634   4.745
  944SOL    HW2 3732   6.312   3.655   4.830
  945SOL     OW 3733   4.971   4.695   4.222
  945SOL    HW1 3734   5.001   4.781   4.265
  945SOL    HW2 3735   4.899   4.654   4.277
  946SOL     OW 3736   6.302   2.777   6.253
  946SOL    HW1 3737   6.339   2.684   6.258
  946SOL    HW2 3738   6.336   2.830   6.331
  947SOL     OW 3739   3.346   3.729   6.198
  947SOL    HW1 3740   3.270   3.717   6.262
  947SOL    HW2 3741   3.432   3.732   6.248
  948SOL     OW 3742   3.852   1.165   0.167
  948SOL    HW1 3743   3.820   1.250   0.209
  948SOL    HW2 3744   3.785   1.134   0.100
  949SOL     OW 3745   6.794   6.015   5.874
  949SOL    HW1 3746   6.752   5.928   5.847
  949SOL    HW2 3747   6.722   6.081   5.896
  950SOL     OW 3748   3.870   5.161   2.514
  950SOL    HW1 3749   3.775   5.177   2.488
  950SOL    HW2 3750   3.916   5.109   2.443
  951SOL     OW 3751   0.805   0.393   1.752
  951SOL    HW1 3752   0.853   0.371   1.836
  951SOL    HW2 3753   0.819   0.320   1.685
  952SOL     OW 3754   5.447   1.899   2.563
  952SOL    HW1 3755   5.375   1.897   2.633
  952SOL    HW2 3756   5.408   1.925   2.475
  953SOL     OW 3757   4.654   5.922   5.522
  953SOL    HW1 3758   4.725   5.958   5.583
  953SOL    HW2 3759   4.610   5.843   5.566
  954SOL     OW 3760   5.793   0.092   1.261
  954SOL    HW1 3761   5.835   0.157   1.197
  954SOL    HW2 3762   5.699   0.121   1.281
  955SOL     OW 3763   0.799   5.046   3.911
  955SOL    HW1 3764   0.713   5.032   3.863
  955SOL    HW2 3765   0.790   5.012   4.005
  956SOL     OW 3766   1.094   1.520   1.102
  956SOL    HW1 3767   1.191   1.543   1.107
  956SOL    HW2 3768   1.047   1.588   1.047
  957SOL     OW 3769   1.601   5.068   5.527
  957SOL    HW1 3770   1.546   5.011   5.466
  957SOL    HW2 3771   1.614   5.158   5.487
  958SOL     OW 3772   5.377   1.972   0.795
  958SOL    HW1 3773   5.451   1.907   0.812
  958SOL    HW2 3774   5.297   1.947   0.849
  959SOL     OW 3775   2.779   4.683   2.954
  959SOL    HW1 3776   2.714   4.661   2.881
  959SOL    HW2 3777   2.729   4.716   3.034
  960SOL     OW 3778   1.223   6.042   4.363
  960SOL    HW1 3779   1.187   5.987   4.287
  960SOL    HW2 3780   1.318   6.018   4.379
  961SOL     OW 3781   4.022   6.932   2.179
  961SOL    HW1 3782   4.069   6.849   2.210
  961SOL    HW2 3783   3.947   6.953   2.241
  962SOL     OW 3784   1.516   1.100   3.641
  962SOL    HW1 3785   1.525   1.195   3.611
  962SOL    HW2 3786   1.542   1.039   3.567
  963SOL     OW 3787   6.134   0.214   0.622
  963SOL    HW1 3788   6.187   0.153   0.564
  963SOL    HW2 3789   6.173   0.216   0.714
  964SOL     OW 3790   5.435   3.178   1.050
  964SOL    HW1 3791   5.447   3.267   1.006
  964SOL    HW2 3792   5.339   3.164   1.070
  965SOL     OW 3793   5.987   1.949   0.880
  965SOL    HW1 3794   5.987   2.014   0.805
  965SOL    HW2 3795   5.893   1.925   0.904
  966SOL     OW 3796   5.855   1.419   3.060
  966SOL    HW1 3797   5.784   1.444   2.994
  966SOL    HW2 3798   5.943   1.458   3.033
  967SOL     OW 3799   1.528   5.593   0.959
  967SOL    HW1 3800   1.616   5.632   0.986
  967SOL    HW2 3801   1.519   5.594   0.860
  968SOL     OW 3802   4.892   2.388   2.362
  968SOL    HW1 3803   4.957   2.370   2.289
  968SOL    HW2 3804   4.803   2.411   2.323
  969SOL     OW 3805   3.459   5.880   5.467
  969SOL    HW1 3806   3.467   5.781   5.460
  969SOL    HW2 3807   3.454   5.920   5.376
  970SOL     OW 3808   4.365   1.682   5.408
  970SOL    HW1 3809   4.402   1.728   5.489
  970SOL    HW2 3810   4.314   1.601   5.436
  971SOL     OW 3811   0.062   0.996   2.352
  971SOL    HW1 3812   0.132   0.948   2.406
  971SOL    HW2 3813   0.087   1.092   2.343
  972SOL     OW 3814   5.910   4.487   0.814
  972SOL    HW1 3815   5.834   4.494   0.749
  972SOL    HW2 3816   5.902   4.560   0.882
  973SOL     OW 3817   0.531   4.855   6.638
  973SOL    HW1 3818   0.563   4.821   6.727
  973SOL    HW2 3819   0.510   4.952   6.646
  974SOL     OW 3820   3.409   0.854   2.483
  974SOL    HW1 3821   3.473   0.841   2.559
  974SOL    HW2 3822   3.375   0.948   2.484
  975SOL     OW 3823   2.952   6.221   6.272
  975SOL    HW1 3824   3.044   6.211   6.309
  975SOL    HW2 3825   2.886   6.222   6.348
  976SOL     OW 3826   6.930   2.771   2.133
  976SOL    HW1 3827   6.906   2.716   2.213
  976SOL    HW2 3828   6.972   2.712   2.064
  977SOL     OW 3829   1.825   1.198   4.228
  977SOL    HW1 3830   1.737   1.243   4.211
  977SOL    HW2 3831   1.846   1.203   4.326
  978SOL     OW 3832   5.236   3.914   4.741
  978SOL    HW1 3833   5.198   3.994   4.696
  978SOL    HW2 3834   5.162   3.859   4.780
  979SOL     OW 3835   6.327   1.344   3.517
  979SOL    HW1 3836   6.394   1.398   3.466
  979SOL    HW2 3837   6.235   1.369   3.490
  980SOL     OW 3838   5.172   2.366   3.594
  980SOL    HW1 3839   5.191   2.386   3.690
  980SOL    HW2 3840   5.251   2.391   3.538
  981SOL     OW 3841   1.697   1.720   4.996
  981SOL    HW1 3842   1.694   1.746   4.899
  981SOL    HW2 3843   1.639   1.782   5.049
  982SOL     OW 3844   1.963   2.734   2.583
  982SOL    HW1 3845   2.055   2.730   2.545
  982SOL    HW2 3846   1.946   2.824   2.622
  983SOL     OW 3847   6.037   2.622   3.580
  983SOL    HW1 3848   5.988   2.593   3.498
  983SOL    HW2 3849   5.971   2.657   3.647
  984SOL     OW 3850   4.186   0.369   4.656
  984SOL    HW1 3851   4.156   0.463   4.642
  984SOL    HW2 3852   4.111   0.317   4.697
  985SOL     OW 3853   4.477   4.982   6.903
  985SOL    HW1 3854   4.418   5.008   6.827
  985SOL    HW2 3855   4.433   4.909   6.955
  986SOL     OW 3856   5.478   5.678   6.748
  986SOL    HW1 3857   5.495   5.656   6.845
  986SOL    HW2 3858   5.484   5.594   6.694
  987SOL     OW 3859   3.810   6.641   1.271
  987SOL    HW1 3860   3.880   6.570   1.277
  987SOL    HW2 3861   3.745   6.630   1.346
  988SOL     OW 3862   4.287   2.414   1.113
  988SOL    HW1 3863   4.348   2.488   1.142
  988SOL    HW2 3864   4.341   2.332   1.096
  989SOL     OW 3865   0.776   0.947   5.607
  989SOL    HW1 3866   0.739   0.870   5.555
  989SOL    HW2 3867   0.712   1.023   5.602
  990SOL     OW 3868   5.221   6.598   3.779
  990SOL    HW1 3869   5.191   6.577   3.686
  990SOL    HW2 3870   5.298   6.662   3.775
  991SOL     OW 3871   1.718   1.793   4.738
  991SOL    HW1 3872   1.780   1.770   4.663
  991SOL    HW2 3873   1.650   1.859   4.706
  992SOL     OW 3874   0.617   3.064   0.221
  992SOL    HW1 3875   0.527   3.069   0.178
  992SOL    HW2 3876   0.660   2.977   0.199
  993SOL     OW 3877   2.318   5.555   2.518
  993SOL    HW1 3878   2.289   5.651   2.524
  993SOL    HW2 3879   2.377   5.543   2.438
  994SOL     OW 3880   3.618   3.833   2.702
  994SOL    HW1 3881   3.664   3.748   2.678
  994SOL    HW2 3882   3.635   3.854   2.799
  995SOL     OW 3883   2.140   2.477   6.119
  995SOL    HW1 3884   2.150   2.567   6.078
  995SOL    HW2 3885   2.227   2.428   6.115
  996SOL     OW 3886   1.786   4.089   4.148
  996SOL    HW1 3887   1.789   4.077   4.247
  996SOL    HW2 3888   1.861   4.037   4.106
  997SOL     OW 3889   6.906   0.070   1.680
  997SOL    HW1 3890   6.981   0.104   1.622
  997SOL    HW2 3891   6.840   0.144   1.694
  998SOL     OW 3892   4.801   6.808   3.338
  998SOL    HW1 3893   4.718   6.766   3.375
  998SOL    HW2 3894   4.836   6.753   3.262
  999SOL     OW 3895   5.217   5.713   1.456
  999SOL    HW1 3896   5.203   5.805   1.421
  999SOL    HW2 3897   5.212   5.714   1.556
 1000SOL     OW 3898   0.654   1.662   2.514
 1000SOL    HW1 3899   0.745   1.683   2.549
 1000SOL    HW2 3900   0.607   1.601   2.578
 1001SOL     OW 3901   4.363   6.714   6.574
 1001SOL    HW1 3902   4.286   6.755   6.525
 1001SOL    HW2 3903   4.397   6.779   6.642
 1002SOL     OW 3904   5.392   1.467   6.585
 1002SOL    HW1 3905   5.448   1.495   6.507
 1002SOL    HW2 3906   5.302   1.509   6.579
 1003SOL     OW 3907   2.718   0.059   1.866
 1003SOL    HW1 3908   2.658   7.019   1.824
 1003SOL    HW2 3909   2.664   0.139   1.892
 1004SOL     OW 3910   6.964   0.577   0.328
 1004SOL    HW1 3911   6.889   0.551   0.388
 1004SOL    HW2 3912   0.012   0.512   0.338
 1005SOL     OW 3913   6.802   0.832   3.181
 1005SOL    HW1 3914   6.741   0.832   3.102
 1005SOL    HW2 3915   6.849   0.920   3.187
 1006SOL     OW 3916   2.371   6.105   1.122
 1006SOL    HW1 3917   2.284   6.071   1.086
 1006SOL    HW2 3918   2.377   6.084   1.220
 1007SOL     OW 3919   5.914   6.796   3.655
 1007SOL    HW1 3920   6.009   6.829   3.651
 1007SOL    HW2 3921   5.853   6.869   3.625
 1008SOL     OW 3922   1.442   2.948   4.236
 1008SOL    HW1 3923   1.539   2.970   4.233
 1008SOL    HW2 3924   1.394   2.999   4.163
 1009SOL     OW 3925   6.800   5.244   3.757
 1009SOL    HW1 3926   6.734   5.279   3.823
 1009SOL    HW2 3927   6.767   5.157   3.720
 1010SOL     OW 3928   4.311   2.550   0.193
 1010SOL    HW1 3929   4.317   2.612   0.271
 1010SOL    HW2 3930   4.401   2.543   0.149
 1011SOL     OW 3931   3.100   5.027   3.068
 1011SOL    HW1 3932   3.046   4.963   3.123
 1011SOL    HW2 3933   3.187   5.046   3.115
 1012SOL     OW 3934   6.380   5.313   0.414
 1012SOL    HW1 3935   6.343   5.304   0.507
 1012SOL    HW2 3936   6.365   5.406   0.381
 1013SOL     OW 3937   0.415   1.661   6.683
 1013SOL    HW1 3938   0.432   1.724   6.607
 1013SOL    HW2 3939   0.323   1.674   6.718
 1014SOL     OW 3940   5.571   5.440   6.640
 1014SOL    HW1 3941   5.553   5.344   6.664
 1014SOL    HW2 3942   5.613   5.444   6.549
 1015SOL     OW 3943   3.687   6.766   4.860
 1015SOL    HW1 3944   3.616   6.815   4.810
 1015SOL    HW2 3945   3.652   6.738   4.950
 1016SOL     OW 3946   2.299   2.984   0.840
 1016SOL    HW1 3947   2.251   3.056   0.891
 1016SOL    HW2 3948   2.285   3.000   0.742
 1017SOL     OW 3949   4.627   2.811   0.338
 1017SOL    HW1 3950   4.665   2.869   0.410
 1017SOL    HW2 3951   4.528   2.801   0.351
 1018SOL     OW 3952   1.860   3.496   4.076
 1018SOL    HW1 3953   1.958   3.483   4.093
 1018SOL    HW2 3954   1.846   3.517   3.979
 1019SOL     OW 3955   0.549   0.980   0.287
 1019SOL    HW1 3956   0.575   0.967   0.191
 1019SOL    HW2 3957   0.455   0.950   0.300
 1020SOL     OW 3958   0.987   6.688   1.128
 1020SOL    HW1 3959   1.048   6.689   1.049
 1020SOL    HW2 3960   0.993   6.600   1.174
 1021SOL     OW 3961   5.994   1.140   1.017
 1021SOL    HW1 3962   6.073   1.195   1.043
 1021SOL    HW2 3963   5.910   1.188   1.042
 1022SOL     OW 3964   4.324   5.176   6.268
 1022SOL    HW1 3965   4.304   5.081   6.293
 1022SOL    HW2 3966   4.422   5.186   6.249
 1023SOL     OW 3967   0.085   0.119   2.911
 1023SOL    HW1 3968   0.131   0.079   2.990
 1023SOL    HW2 3969   0.004   0.065   2.888
 1024SOL     OW 3970   6.667   2.714   4.442
 1024SOL    HW1 3971   6.597   2.771   4.485
 1024SOL    HW2 3972   6.642   2.698   4.346
 1025SOL     OW 3973   3.479   4.393   0.206
 1025SOL    HW1 3974   3.526   4.305   0.212
 1025SOL    HW2 3975   3.546   4.466   0.203
 1026SOL     OW 3976   1.385   1.132   0.789
 1026SOL    HW1 3977   1.369   1.050   0.844
 1026SOL    HW2 3978   1.319   1.203   0.815
 1027SOL     OW 3979   3.044   5.776   1.756
 1027SOL    HW1 3980   3.017   5.710   1.826
 1027SOL    HW2 3981   3.144   5.781   1.752
 1028SOL     OW 3982   2.940   6.208   0.163
 1028SOL    HW1 3983   2.900   6.277   0.222
 1028SOL    HW2 3984   2.882   6.194   0.083
 1029SOL     OW 3985   2.115   0.934   0.128
 1029SOL    HW1 3986   2.178   0.956   0.054
 1029SOL    HW2 3987   2.032   0.989   0.119
 1030SOL     OW 3988   3.535   2.916   3.392
 1030SOL    HW1 3989   3.546   2.882   3.485
 1030SOL    HW2 3990   3.624   2.945   3.356
 1031SOL     OW 3991   4.466   5.544   1.256
 1031SOL    HW1 3992   4.485   5.624   1.200
 1031SOL    HW2 3993   4.367   5.529   1.260
 1032SOL     OW 3994   1.772   1.505   5.270
 1032SOL    HW1 3995   1.786   1.603   5.256
 1032SOL    HW2 3996   1.678   1.481   5.246
 1033SOL     OW 3997   1.806   6.896   1.585
 1033SOL    HW1 3998   1.748   6.857   1.513
 1033SOL    HW2 3999   1.864   6.967   1.546
 1034SOL     OW 4000   1.989   6.431   4.692
 1034SOL    HW1 4001   2.078   6.457   4.655
 1034SOL    HW2 4002   1.940   6.512   4.723
 1035SOL     OW 4003   2.734   1.597   3.534
 1035SOL    HW1 4004   2.793   1.532   3.583
 1035SOL    HW2 4005   2.786   1.638   3.458
 1036SOL     OW 4006   3.465   0.208   1.100
 1036SOL    HW1 4007   3.436   0.153   1.177
 1036SOL    HW2 4008   3.551   0.173   1.063
 1037SOL     OW 4009   1.083   1.177   1.353
 1037SOL    HW1 4010   1.079   1.216   1.261
 1037SOL    HW2 4011   1.072   1.078   1.348
 1038SOL     OW 4012   0.589   1.169   5.217
 1038SOL    HW1 4013   0.629   1.182   5.126
 1038SOL    HW2 4014   0.655   1.197   5.287
 1039SOL     OW 4015   4.451   1.845   5.619
 1039SOL    HW1 4016   4.543   1.883   5.613
 1039SOL    HW2 4017   4.395   1.902   5.679
 1040SOL     OW 4018   5.477   2.949   3.206
 1040SOL    HW1 4019   5.491   2.983   3.113
 1040SOL    HW2 4020   5.548   2.985   3.266
 1041SOL     OW 4021   6.596   0.103   4.494
 1041SOL    HW1 4022   6.550   0.182   4.453
 1041SOL    HW2 4023   6.539   0.022   4.484
 1042SOL     OW 4024   3.597   5.156   2.912
 1042SOL    HW1 4025   3.509   5.203   2.917
 1042SOL    HW2 4026   3.591   5.069   2.961
 1043SOL     OW 4027   4.183   1.074   6.379
 1043SOL    HW1 4028   4.277   1.062   6.411
 1043SOL    HW2 4029   4.173   1.029   6.290
 1044SOL     OW 4030   4.218   2.598   1.649
 1044SOL    HW1 4031   4.283   2.584   1.725
 1044SOL    HW2 4032   4.168   2.683   1.664
 1045SOL     OW 4033   2.931   0.150   1.665
 1045SOL    HW1 4034   2.936   0.250   1.673
 1045SOL    HW2 4035   2.854   0.116   1.719
 1046SOL     OW 4036   2.713   6.905   6.153
 1046SOL    HW1 4037   2.800   6.856   6.151
 1046SOL    HW2 4038   2.640   6.843   6.181
 1047SOL     OW 4039   1.596   5.318   2.812
 1047SOL    HW1 4040   1.648   5.294   2.730
 1047SOL    HW2 4041   1.521   5.379   2.788
 1048SOL     OW 4042   4.949   5.492   5.376
 1048SOL    HW1 4043   4.996   5.541   5.303
 1048SOL    HW2 4044   4.907   5.557   5.439
 1049SOL     OW 4045   0.596   4.200   4.976
 1049SOL    HW1 4046   0.692   4.176   4.987
 1049SOL    HW2 4047   0.577   4.217   4.879
 1050SOL     OW 4048   2.602   5.413   0.860
 1050SOL    HW1 4049   2.588   5.390   0.956
 1050SOL    HW2 4050   2.686   5.467   0.850
 1051SOL     OW 4051   3.870   4.337   0.372
 1051SOL    HW1 4052   3.848   4.250   0.415
 1051SOL    HW2 4053   3.857   4.411   0.438
 1052SOL     OW 4054   4.389   0.675   4.188
 1052SOL    HW1 4055   4.451   0.687   4.110
 1052SOL    HW2 4056   4.311   0.621   4.160
 1053SOL     OW 4057   6.014   5.754   3.464
 1053SOL    HW1 4058   6.073   5.715   3.394
 1053SOL    HW2 4059   6.022   5.853   3.464
 1054SOL     OW 4060   2.603   4.807   5.594
 1054SOL    HW1 4061   2.651   4.750   5.662
 1054SOL    HW2 4062   2.525   4.757   5.557
 1055SOL     OW 4063   5.528   5.877   4.885
 1055SOL    HW1 4064   5.470   5.812   4.935
 1055SOL    HW2 4065   5.495   5.886   4.791
 1056SOL     OW 4066   1.574   6.282   5.593
 1056SOL    HW1 4067   1.657   6.264   5.540
 1056SOL    HW2 4068   1.562   6.380   5.606
 1057SOL     OW 4069   3.101   3.931   2.926
 1057SOL    HW1 4070   3.145   4.009   2.881
 1057SOL    HW2 4071   3.121   3.847   2.875
 1058SOL     OW 4072   4.937   1.009   2.381
 1058SOL    HW1 4073   5.018   1.065   2.359
 1058SOL    HW2 4074   4.867   1.023   2.311
 1059SOL     OW 4075   3.458   0.778   1.756
 1059SOL    HW1 4076   3.451   0.743   1.662
 1059SOL    HW2 4077   3.369   0.813   1.785
 1060SOL     OW 4078   0.063   3.570   5.744
 1060SOL    HW1 4079   0.130   3.613   5.804
 1060SOL    HW2 4080   0.068   3.471   5.752
 1061SOL     OW 4081   4.079   4.402   0.824
 1061SOL    HW1 4082   4.068   4.496   0.857
 1061SOL    HW2 4083   3.989   4.363   0.805
 1062SOL     OW 4084   7.008   6.177   5.844
 1062SOL    HW1 4085   6.941   6.103   5.848
 1062SOL    HW2 4086   0.001   6.196   5.748
 1063SOL     OW 4087   1.367   4.233   0.844
 1063SOL    HW1 4088   1.420   4.258   0.763
 1063SOL    HW2 4089   1.276   4.201   0.815
 1064SOL     OW 4090   0.985   3.812   2.569
 1064SOL    HW1 4091   0.953   3.821   2.663
 1064SOL    HW2 4092   0.983   3.901   2.524
 1065SOL     OW 4093   4.403   0.758   4.863
 1065SOL    HW1 4094   4.373   0.772   4.768
 1065SOL    HW2 4095   4.501   0.734   4.863
 1066SOL     OW 4096   4.976   0.546   4.273
 1066SOL    HW1 4097   4.953   0.460   4.227
 1066SOL    HW2 4098   5.066   0.577   4.242
 1067SOL     OW 4099   1.193   2.911   0.847
 1067SOL    HW1 4100   1.168   2.888   0.941
 1067SOL    HW2 4101   1.111   2.915   0.790
 1068SOL     OW 4102   6.185   3.523   1.486
 1068SOL    HW1 4103   6.100   3.536   1.436
 1068SOL    HW2 4104   6.165   3.484   1.576
 1069SOL     OW 4105   4.533   4.559   1.062
 1069SOL    HW1 4106   4.516   4.647   1.019
 1069SOL    HW2 4107   4.481   4.553   1.148
 1070SOL     OW 4108   1.417   0.797   6.398
 1070SOL    HW1 4109   1.478   0.735   6.447
 1070SOL    HW2 4110   1.426   0.889   6.436
 1071SOL     OW 4111   3.641   0.507   3.458
 1071SOL    HW1 4112   3.725   0.556   3.481
 1071SOL    HW2 4113   3.578   0.569   3.411
 1072SOL     OW 4114   2.242   6.286   2.405
 1072SOL    HW1 4115   2.282   6.260   2.493
 1072SOL    HW2 4116   2.164   6.226   2.386
 1073SOL     OW 4117   3.203   6.031   2.241
 1073SOL    HW1 4118   3.224   6.127   2.260
 1073SOL    HW2 4119   3.169   6.022   2.147
 1074SOL     OW 4120   2.266   5.851   1.592
 1074SOL    HW1 4121   2.179   5.825   1.550
 1074SOL    HW2 4122   2.251   5.872   1.689
 1075SOL     OW 4123   4.867   5.196   3.435
 1075SOL    HW1 4124   4.910   5.276   3.477
 1075SOL    HW2 4125   4.889   5.194   3.337
 1076SOL     OW 4126   0.662   4.627   5.225
 1076SOL    HW1 4127   0.692   4.600   5.134
 1076SOL    HW2 4128   0.683   4.723   5.241
 1077SOL     OW 4129   6.073   6.886   0.046
 1077SOL    HW1 4130   6.098   6.789   0.056
 1077SOL    HW2 4131   6.047   6.923   0.135
 1078SOL     OW 4132   1.623   1.286   2.199
 1078SOL    HW1 4133   1.610   1.363   2.137
 1078SOL    HW2 4134   1.714   1.247   2.185
 1079SOL     OW 4135   2.122   4.849   3.667
 1079SOL    HW1 4136   2.024   4.855   3.653
 1079SOL    HW2 4137   2.169   4.904   3.599
 1080SOL     OW 4138   2.126   4.722   3.374
 1080SOL    HW1 4139   2.051   4.669   3.333
 1080SOL    HW2 4140   2.195   4.740   3.304
 1081SOL     OW 4141   0.316   1.902   5.433
 1081SOL    HW1 4142   0.307   1.870   5.527
 1081SOL    HW2 4143   0.232   1.884   5.383
 1082SOL     OW 4144   1.775   0.258   5.570
 1082SOL    HW1 4145   1.692   0.298   5.531
 1082SOL    HW2 4146   1.826   0.327   5.620
 1083SOL     OW 4147   4.109   3.841   2.140
 1083SOL    HW1 4148   4.086   3.789   2.058
 1083SOL    HW2 4149   4.185   3.903   2.120
 1084SOL     OW 4150   6.727   5.532   0.825
 1084SOL    HW1 4151   6.629   5.546   0.816
 1084SOL    HW2 4152   6.776   5.605   0.778
 1085SOL     OW 4153   1.867   4.300   3.977
 1085SOL    HW1 4154   1.838   4.226   4.038
 1085SOL    HW2 4155   1.794   4.367   3.967
 1086SOL     OW 4156   6.111   5.615   3.233
 1086SOL    HW1 4157   6.206   5.620   3.204
 1086SOL    HW2 4158   6.080   5.520   3.231
 1087SOL     OW 4159   5.148   2.816   5.772
 1087SOL    HW1 4160   5.149   2.797   5.870
 1087SOL    HW2 4161   5.100   2.902   5.754
 1088SOL     OW 4162   5.953   4.582   3.364
 1088SOL    HW1 4163   5.935   4.550   3.272
 1088SOL    HW2 4164   6.039   4.543   3.397
 1089SOL     OW 4165   0.603   0.804   4.309
 1089SOL    HW1 4166   0.565   0.815   4.401
 1089SOL    HW2 4167   0.580   0.712   4.276
 1090SOL     OW 4168   2.930   1.253   4.609
 1090SOL    HW1 4169   2.940   1.317   4.685
 1090SOL    HW2 4170   2.833   1.243   4.587
 1091SOL     OW 4171   2.024   1.988   3.799
 1091SOL    HW1 4172   2.061   1.923   3.865
 1091SOL    HW2 4173   1.930   2.010   3.823
 1092SOL     OW 4174   2.321   4.014   1.805
 1092SOL    HW1 4175   2.267   3.989   1.725
 1092SOL    HW2 4176   2.277   3.979   1.887
 1093SOL     OW 4177   1.806   1.625   2.669
 1093SOL    HW1 4178   1.777   1.676   2.749
 1093SOL    HW2 4179   1.829   1.531   2.696
 1094SOL     OW 4180   0.043   6.264   2.276
 1094SOL    HW1 4181   0.074   6.227   2.364
 1094SOL    HW2 4182   0.014   6.359   2.289
 1095SOL     OW 4183   5.991   2.116   6.283
 1095SOL    HW1 4184   5.913   2.178   6.282
 1095SOL    HW2 4185   6.039   2.120   6.196
 1096SOL     OW 4186   3.776   5.187   1.652
 1096SOL    HW1 4187   3.862   5.156   1.693
 1096SOL    HW2 4188   3.765   5.146   1.562
 1097SOL     OW 4189   1.393   4.740   4.900
 1097SOL    HW1 4190   1.460   4.791   4.847
 1097SOL    HW2 4191   1.426   4.646   4.913
 1098SOL     OW 4192   5.201   2.233   0.977
 1098SOL    HW1 4193   5.151   2.196   0.899
 1098SOL    HW2 4194   5.208   2.332   0.969
 1099SOL     OW 4195   4.286   1.614   4.737
 1099SOL    HW1 4196   4.283   1.641   4.641
 1099SOL    HW2 4197   4.194   1.590   4.768
 1100SOL     OW 4198   0.732   1.717   6.302
 1100SOL    HW1 4199   0.724   1.711   6.401
 1100SOL    HW2 4200   0.733   1.813   6.274
 1101SOL     OW 4201   5.443   3.211   1.482
 1101SOL    HW1 4202   5.496   3.209   1.567
 1101SOL    HW2 4203   5.469   3.135   1.424
 1102SOL     OW 4204   0.974   4.734   4.067
 1102SOL    HW1 4205   0.901   4.666   4.072
 1102SOL    HW2 4206   0.948   4.814   4.121
 1103SOL     OW 4207   2.271   1.261   1.665
 1103SOL    HW1 4208   2.243   1.331   1.599
 1103SOL    HW2 4209   2.370   1.264   1.678
 1104SOL     OW 4210   1.780   4.265   6.178
 1104SOL    HW1 4211   1.858   4.215   6.140
 1104SOL    HW2 4212   1.723   4.298   6.103
 1105SOL     OW 4213   4.773   4.149   6.482
 1105SOL    HW1 4214   4.715   4.215   6.434
 1105SOL    HW2 4215   4.838   4.198   6.540
 1106SOL     OW 4216   1.055   1.950   6.253
 1106SOL    HW1 4217   1.115   1.989   6.323
 1106SOL    HW2 4218   1.102   1.951   6.164
 1107SOL     OW 4219   0.650   0.264   6.734
 1107SOL    HW1 4220   0.598   0.333   6.783
 1107SOL    HW2 4221   0.695   0.306   6.655
 1108SOL     OW 4222   2.421   0.851   5.356
 1108SOL    HW1 4223   2.467   0.766   5.332
 1108SOL    HW2 4224   2.467   0.927   5.311
 1109SOL     OW 4225   4.039   5.640   4.285
 1109SOL    HW1 4226   3.988   5.602   4.208
 1109SOL    HW2 4227   4.062   5.735   4.266
 1110SOL     OW 4228   3.012   2.042   1.703
 1110SOL    HW1 4229   2.957   2.104   1.648
 1110SOL    HW2 4230   3.023   1.955   1.655
 1111SOL     OW 4231   5.435   6.522   6.855
 1111SOL    HW1 4232   5.491   6.536   6.774
 1111SOL    HW2 4233   5.478   6.452   6.913
 1112SOL     OW 4234   6.012   1.069   3.176
 1112SOL    HW1 4235   5.945   1.078   3.250
 1112SOL    HW2 4236   5.991   0.987   3.122
 1113SOL     OW 4237   6.037   3.378   2.122
 1113SOL    HW1 4238   5.943   3.346   2.107
 1113SOL    HW2 4239   6.090   3.304   2.165
 1114SOL     OW 4240   4.842   0.857   6.372
 1114SOL    HW1 4241   4.901   0.820   6.300
 1114SOL    HW2 4242   4.767   0.909   6.330
 1115SOL     OW 4243   4.300   2.657   0.436
 1115SOL    HW1 4244   4.343   2.736   0.479
 1115SOL    HW2 4245   4.214   2.635   0.483
 1116SOL     OW 4246   5.669   5.147   4.070
 1116SOL    HW1 4247   5.713   5.137   4.159
 1116SOL    HW2 4248   5.727   5.202   4.010
 1117SOL     OW 4249   2.706   2.925   1.319
 1117SOL    HW1 4250   2.670   3.012   1.287
 1117SOL    HW2 4251   2.689   2.915   1.417
 1118SOL     OW 4252   0.852   4.850   2.727
 1118SOL    HW1 4253   0.826   4.789   2.802
 1118SOL    HW2 4254   0.952   4.855   2.722
 1119SOL     OW 4255   3.772   4.131   1.873
 1119SOL    HW1 4256   3.740   4.133   1.968
 1119SOL    HW2 4257   3.725   4.202   1.821
 1120SOL     OW 4258   5.353   6.944   6.131
 1120SOL    HW1 4259   5.432   6.920   6.189
 1120SOL    HW2 4260   5.283   6.873   6.140
 1121SOL     OW 4261   5.088   2.952   2.302
 1121SOL    HW1 4262   5.062   2.872   2.357
 1121SOL    HW2 4263   5.187   2.952   2.288
 1122SOL     OW 4264   5.132   2.957   6.662
 1122SOL    HW1 4265   5.124   3.002   6.573
 1122SOL    HW2 4266   5.123   3.026   6.734
 1123SOL     OW 4267   4.556   1.257   1.911
 1123SOL    HW1 4268   4.565   1.158   1.917
 1123SOL    HW2 4269   4.514   1.281   1.824
 1124SOL     OW 4270   6.765   3.971   4.988
 1124SOL    HW1 4271   6.848   3.915   4.984
 1124SOL    HW2 4272   6.710   3.943   5.068
 1125SOL     OW 4273   2.696   2.091   5.016
 1125SOL    HW1 4274   2.786   2.098   4.973
 1125SOL    HW2 4275   2.704   2.043   5.103
 1126SOL     OW 4276   4.759   6.612   6.814
 1126SOL    HW1 4277   4.820   6.536   6.791
 1126SOL    HW2 4278   4.796   6.697   6.775
 1127SOL     OW 4279   3.113   4.547   5.567
 1127SOL    HW1 4280   3.027   4.598   5.571
 1127SOL    HW2 4281   3.189   4.607   5.589
 1128SOL     OW 4282   4.436   2.177   4.270
 1128SOL    HW1 4283   4.394   2.199   4.359
 1128SOL    HW2 4284   4.375   2.208   4.197
 1129SOL     OW 4285   3.530   7.007   0.216
 1129SOL    HW1 4286   3.506   6.982   0.122
 1129SOL    HW2 4287   3.542   6.924   0.271
 1130SOL     OW 4288   1.902   4.586   1.052
 1130SOL    HW1 4289   1.864   4.495   1.037
 1130SOL    HW2 4290   1.829   4.650   1.077
 1131SOL     OW 4291   0.472   6.720   5.745
 1131SOL    HW1 4292   0.549   6.691   5.688
 1131SOL    HW2 4293   0.465   6.659   5.824
 1132SOL     OW 4294   4.986   0.412   6.830
 1132SOL    HW1 4295   4.989   0.441   6.925
 1132SOL    HW2 4296   4.982   0.493   6.771
 1133SOL     OW 4297   0.347   1.763   1.716
 1133SOL    HW1 4298   0.284   1.825   1.762
 1133SOL    HW2 4299   0.298   1.682   1.684
 1134SOL     OW 4300   5.761   2.102   6.799
 1134SOL    HW1 4301   5.830   2.169   6.772
 1134SOL    HW2 4302   5.671   2.132   6.766
 1135SOL     OW 4303   3.264   2.157   2.963
 1135SOL    HW1 4304   3.310   2.236   2.921
 1135SOL    HW2 4305   3.208   2.111   2.894
 1136SOL     OW 4306   2.858   4.962   4.035
 1136SOL    HW1 4307   2.948   4.937   4.070
 1136SOL    HW2 4308   2.860   5.057   4.003
 1137SOL     OW 4309   1.033   2.511   6.886
 1137SOL    HW1 4310   1.054   2.517   6.983
 1137SOL    HW2 4311   1.096   2.447   6.842
 1138SOL     OW 4312   2.180   2.704   5.987
 1138SOL    HW1 4313   2.210   2.707   5.892
 1138SOL    HW2 4314   2.235   2.767   6.041
 1139SOL     OW 4315   1.713   6.290   3.166
 1139SOL    HW1 4316   1.649   6.280   3.243
 1139SOL    HW2 4317   1.771   6.209   3.160
 1140SOL     OW 4318   4.078   2.152   2.915
 1140SOL    HW1 4319   4.165   2.187   2.880
 1140SOL    HW2 4320   4.093   2.104   3.001
 1141SOL     OW 4321   5.791   5.695   5.877
 1141SOL    HW1 4322   5.802   5.604   5.836
 1141SOL    HW2 4323   5.710   5.739   5.839
 1142SOL     OW 4324   5.408   0.384   4.411
 1142SOL    HW1 4325   5.424   0.312   4.479
 1142SOL    HW2 4326   5.380   0.342   4.325
 1143SOL     OW 4327   3.821   1.968   2.326
 1143SOL    HW1 4328   3.745   2.029   2.303
 1143SOL    HW2 4329   3.836   1.969   2.424
 1144SOL     OW 4330   0.138   4.322   4.631
 1144SOL    HW1 4331   0.233   4.330   4.601
 1144SOL    HW2 4332   0.135   4.270   4.717
 1145SOL     OW 4333   0.189   5.308   3.327
 1145SOL    HW1 4334   0.273   5.255   3.339
 1145SOL    HW2 4335   0.194   5.359   3.241
 1146SOL     OW 4336   5.048   1.433   1.018
 1146SOL    HW1 4337   5.002   1.408   0.934
 1146SOL    HW2 4338   4.993   1.499   1.069
 1147SOL     OW 4339   1.738   3.718   0.778
 1147SOL    HW1 4340   1.712   3.692   0.871
 1147SOL    HW2 4341   1.711   3.646   0.714
 1148SOL     OW 4342   3.267   6.362   6.154
 1148SOL    HW1 4343   3.186   6.419   6.166
 1148SOL    HW2 4344   3.305   6.375   6.063
 1149SOL     OW 4345   5.682   3.376   2.614
 1149SOL    HW1 4346   5.745   3.311   2.572
 1149SOL    HW2 4347   5.712   3.469   2.591
 1150SOL     OW 4348   2.357   4.342   0.940
 1150SOL    HW1 4349   2.296   4.407   0.985
 1150SOL    HW2 4350   2.302   4.274   0.890
 1151SOL     OW 4351   5.646   5.755   6.396
 1151SOL    HW1 4352   5.680   5.662   6.410
 1151SOL    HW2 4353   5.660   5.808   6.479
 1152SOL     OW 4354   1.205   6.808   4.898
 1152SOL    HW1 4355   1.174   6.713   4.893
 1152SOL    HW2 4356   1.143   6.860   4.955
 1153SOL     OW 4357   2.078   6.551   2.818
 1153SOL    HW1 4358   2.014   6.477   2.839
 1153SOL    HW2 4359   2.028   6.637   2.810
 1154SOL     OW 4360   0.105   3.655   1.328
 1154SOL    HW1 4361   0.088   3.630   1.423
 1154SOL    HW2 4362   0.061   3.588   1.268
 1155SOL     OW 4363   3.452   6.037   6.993
 1155SOL    HW1 4364   3.461   5.957   6.935
 1155SOL    HW2 4365   3.541   6.062   0.003
 1156SOL     OW 4366   2.203   0.500   3.526
 1156SOL    HW1 4367   2.196   0.594   3.493
 1156SOL    HW2 4368   2.119   0.476   3.575
 1157SOL     OW 4369   0.067   2.440   4.658
 1157SOL    HW1 4370   0.166   2.435   4.644
 1157SOL    HW2 4371   0.021   2.403   4.577
 1158SOL     OW 4372   5.788   5.356   5.268
 1158SOL    HW1 4373   5.841   5.395   5.193
 1158SOL    HW2 4374   5.730   5.426   5.308
 1159SOL     OW 4375   4.210   0.311   2.581
 1159SOL    HW1 4376   4.158   0.377   2.637
 1159SOL    HW2 4377   4.295   0.353   2.551
 1160SOL     OW 4378   3.793   3.790   1.687
 1160SOL    HW1 4379   3.783   3.693   1.707
 1160SOL    HW2 4380   3.752   3.811   1.598
 1161SOL     OW 4381   5.318   0.122   5.317
 1161SOL    HW1 4382   5.341   0.193   5.251
 1161SOL    HW2 4383   5.396   0.061   5.330
 1162SOL     OW 4384   3.633   2.578   1.185
 1162SOL    HW1 4385   3.609   2.483   1.204
 1162SOL    HW2 4386   3.651   2.626   1.271
 1163SOL     OW 4387   5.477   2.209   2.150
 1163SOL    HW1 4388   5.504   2.120   2.186
 1163SOL    HW2 4389   5.459   2.272   2.226
 1164SOL     OW 4390   5.181   2.842   3.491
 1164SOL    HW1 4391   5.100   2.785   3.501
 1164SOL    HW2 4392   5.176   2.893   3.405
 1165SOL     OW 4393   1.500   3.488   3.812
 1165SOL    HW1 4394   1.405   3.478   3.784
 1165SOL    HW2 4395   1.538   3.399   3.838
 1166SOL     OW 4396   4.376   1.797   6.731
 1166SOL    HW1 4397   4.282   1.819   6.707
 1166SOL    HW2 4398   4.438   1.861   6.686
 1167SOL     OW 4399   3.656   0.259   5.516
 1167SOL    HW1 4400   3.677   0.332   5.451
 1167SOL    HW2 4401   3.620   0.180   5.466
 1168SOL     OW 4402   6.104   6.955   2.505
 1168SOL    HW1 4403   6.184   6.969   2.445
 1168SOL    HW2 4404   6.053   6.876   2.473
 1169SOL     OW 4405   6.973   2.778   0.551
 1169SOL    HW1 4406   6.984   2.747   0.645
 1169SOL    HW2 4407   0.023   2.836   0.526
 1170SOL     OW 4408   3.918   0.492   1.986
 1170SOL    HW1 4409   3.878   0.440   2.062
 1170SOL    HW2 4410   3.845   0.528   1.929
 1171SOL     OW 4411   2.882   5.864   0.957
 1171SOL    HW1 4412   2.840   5.891   1.044
 1171SOL    HW2 4413   2.910   5.946   0.907
 1172SOL     OW 4414   3.131   3.872   3.538
 1172SOL    HW1 4415   3.134   3.937   3.463
 1172SOL    HW2 4416   3.142   3.921   3.625
 1173SOL     OW 4417   3.477   0.287   5.727
 1173SOL    HW1 4418   3.393   0.334   5.699
 1173SOL    HW2 4419   3.542   0.287   5.651
 1174SOL     OW 4420   2.161   5.726   0.761
 1174SOL    HW1 4421   2.092   5.668   0.804
 1174SOL    HW2 4422   2.253   5.690   0.780
 1175SOL     OW 4423   5.536   5.038   6.995
 1175SOL    HW1 4424   5.446   5.058   0.006
 1175SOL    HW2 4425   5.593   4.993   0.036
 1176SOL     OW 4426   6.113   5.079   0.865
 1176SOL    HW1 4427   6.182   5.085   0.938
 1176SOL    HW2 4428   6.032   5.131   0.892
 1177SOL     OW 4429   0.268   2.417   5.274
 1177SOL    HW1 4430   0.282   2.318   5.281
 1177SOL    HW2 4431   0.211   2.448   5.349
 1178SOL     OW 4432   4.813   4.202   1.953
 1178SOL    HW1 4433   4.716   4.191   1.975
 1178SOL    HW2 4434   4.822   4.260   1.872
 1179SOL     OW 4435   2.248   4.258   0.533
 1179SOL    HW1 4436   2.306   4.317   0.589
 1179SOL    HW2 4437   2.230   4.302   0.445
 1180SOL     OW 4438   2.314   0.894   3.599
 1180SOL    HW1 4439   2.265   0.925   3.680
 1180SOL    HW2 4440   2.256   0.832   3.546
 1181SOL     OW 4441   0.912   4.058   4.815
 1181SOL    HW1 4442   0.888   3.966   4.783
 1181SOL    HW2 4443   0.912   4.122   4.738
 1182SOL     OW 4444   1.714   4.468   3.393
 1182SOL    HW1 4445   1.677   4.416   3.316
 1182SOL    HW2 4446   1.673   4.559   3.395
 1183SOL     OW 4447   4.552   5.602   2.007
 1183SOL    HW1 4448   4.590   5.691   2.032
 1183SOL    HW2 4449   4.593   5.531   2.064
 1184SOL     OW 4450   3.152   3.418   5.588
 1184SOL    HW1 4451   3.055   3.434   5.571
 1184SOL    HW2 4452   3.206   3.469   5.521
 1185SOL     OW 4453   2.296   0.297   0.156
 1185SOL    HW1 4454   2.265   0.209   0.121
 1185SOL    HW2 4455   2.246   0.371   0.111
 1186SOL     OW 4456   5.993   0.350   5.454
 1186SOL    HW1 4457   6.019   0.338   5.358
 1186SOL    HW2 4458   5.968   0.262   5.494
 1187SOL     OW 4459   5.519   6.175   5.446
 1187SOL    HW1 4460   5.430   6.131   5.440
 1187SOL    HW2 4461   5.519   6.241   5.521
 1188SOL     OW 4462   2.926   6.556   6.371
 1188SOL    HW1 4463   2.988   6.603   6.434
 1188SOL    HW2 4464   2.978   6.526   6.290
 1189SOL     OW 4465   4.901   1.387   2.443
 1189SOL    HW1 4466   4.804   1.396   2.418
 1189SOL    HW2 4467   4.920   1.446   2.522
 1190SOL     OW 4468   4.092   4.924   3.914
 1190SOL    HW1 4469   4.054   5.016   3.900
 1190SOL    HW2 4470   4.167   4.910   3.849
 1191SOL     OW 4471   3.683   5.311   6.021
 1191SOL    HW1 4472   3.695   5.305   6.120
 1191SOL    HW2 4473   3.734   5.237   5.977
 1192SOL     OW 4474   5.579   4.559   3.009
 1192SOL    HW1 4475   5.569   4.604   3.097
 1192SOL    HW2 4476   5.558   4.462   3.019
 1193SOL     OW 4477   5.741   7.011   4.502
 1193SOL    HW1 4478   5.727   0.011   4.597
 1193SOL    HW2 4479   5.823   6.953   4.496
 1194SOL     OW 4480   0.302   0.927   0.494
 1194SOL    HW1 4481   0.211   0.898   0.522
 1194SOL    HW2 4482   0.338   0.993   0.559
 1195SOL     OW 4483   6.187   1.619   0.198
 1195SOL    HW1 4484   6.209   1.659   0.109
 1195SOL    HW2 4485   6.103   1.661   0.233
 1196SOL     OW 4486   6.837   4.851   1.827
 1196SOL    HW1 4487   6.890   4.922   1.781
 1196SOL    HW2 4488   6.897   4.774   1.848
 1197SOL     OW 4489   4.208   5.764   5.689
 1197SOL    HW1 4490   4.121   5.734   5.729
 1197SOL    HW2 4491   4.219   5.863   5.705
 1198SOL     OW 4492   2.242   2.850   2.061
 1198SOL    HW1 4493   2.333   2.884   2.083
 1198SOL    HW2 4494   2.178   2.877   2.133
 1199SOL     OW 4495   3.978   3.655   3.360
 1199SOL    HW1 4496   4.058   3.642   3.420
 1199SOL    HW2 4497   3.954   3.752   3.359
 1200SOL     OW 4498   4.197   3.899   5.222
 1200SOL    HW1 4499   4.161   3.992   5.213
 1200SOL    HW2 4500   4.297   3.902   5.224
 1201SOL     OW 4501   1.164   1.413   4.694
 1201SOL    HW1 4502   1.197   1.331   4.741
 1201SOL    HW2 4503   1.081   1.446   4.739
 1202SOL     OW 4504   5.772   0.350   6.111
 1202SOL    HW1 4505   5.773   0.379   6.015
 1202SOL    HW2 4506   5.750   0.428   6.169
 1203SOL     OW 4507   5.632   0.200   0.951
 1203SOL    HW1 4508   5.571   0.261   1.002
 1203SOL    HW2 4509   5.580   0.121   0.917
 1204SOL     OW 4510   3.871   1.395   0.494
 1204SOL    HW1 4511   3.787   1.341   0.490
 1204SOL    HW2 4512   3.898   1.407   0.590
 1205SOL     OW 4513   5.587   3.213   0.106
 1205SOL    HW1 4514   5.648   3.195   0.029
 1205SOL    HW2 4515   5.495   3.181   0.084
 1206SOL     OW 4516   1.918   1.578   4.915
 1206SOL    HW1 4517   1.861   1.637   4.972
 1206SOL    HW2 4518   1.861   1.507   4.873
 1207SOL     OW 4519   6.748   6.515   0.602
 1207SOL    HW1 4520   6.701   6.568   0.531
 1207SOL    HW2 4521   6.736   6.417   0.583
 1208SOL     OW 4522   3.811   3.949   2.502
 1208SOL    HW1 4523   3.904   3.920   2.524
 1208SOL    HW2 4524   3.748   3.914   2.572
 1209SOL     OW 4525   6.295   5.914   5.583
 1209SOL    HW1 4526   6.329   5.914   5.677
 1209SOL    HW2 4527   6.195   5.906   5.584
 1210SOL     OW 4528   4.173   0.376   2.939
 1210SOL    HW1 4529   4.191   0.468   2.904
 1210SOL    HW2 4530   4.094   0.379   3.000
 1211SOL     OW 4531   1.773   3.522   3.838
 1211SOL    HW1 4532   1.818   3.468   3.767
 1211SOL    HW2 4533   1.674   3.515   3.828
 1212SOL     OW 4534   1.212   2.743   5.223
 1212SOL    HW1 4535   1.123   2.712   5.191
 1212SOL    HW2 4536   1.207   2.762   5.321
 1213SOL     OW 4537   6.190   2.639   5.124
 1213SOL    HW1 4538   6.142   2.693   5.055
 1213SOL    HW2 4539   6.270   2.596   5.083
 1214SOL     OW 4540   1.678   3.313   4.125
 1214SOL    HW1 4541   1.763   3.363   4.104
 1214SOL    HW2 4542   1.633   3.287   4.040
 1215SOL     OW 4543   2.291   4.231   2.489
 1215SOL    HW1 4544   2.349   4.297   2.442
 1215SOL    HW2 4545   2.247   4.172   2.421
 1216SOL     OW 4546   0.077   6.994   1.874
 1216SOL    HW1 4547   0.004   7.013   1.808
 1216SOL    HW2 4548   0.118   0.053   1.904
 1217SOL     OW 4549   1.049   6.379   0.461
 1217SOL    HW1 4550   1.137   6.425   0.478
 1217SOL    HW2 4551   1.065   6.288   0.423
 1218SOL     OW 4552   1.312   3.082   4.772
 1218SOL    HW1 4553   1.291   3.145   4.697
 1218SOL    HW2 4554   1.245   3.093   4.844
 1219SOL     OW 4555   4.366   5.022   0.919
 1219SOL    HW1 4556   4.380   5.052   1.013
 1219SOL    HW2 4557   4.455   5.012   0.874
 1220SOL     OW 4558   5.290   3.589   2.456
 1220SOL    HW1 4559   5.381   3.548   2.459
 1220SOL    HW2 4560   5.220   3.518   2.458
 1221SOL     OW 4561   6.017   3.768   6.926
 1221SOL    HW1 4562   6.082   3.742   6.997
 1221SOL    HW2 4563   6.034   3.863   6.898
 1222SOL     OW 4564   0.072   6.774   0.713
 1222SOL    HW1 4565   0.162   6.771   0.757
 1222SOL    HW2 4566   0.010   6.829   0.768
 1223SOL     OW 4567   5.917   0.568   0.382
 1223SOL    HW1 4568   5.987   0.569   0.310
 1223SOL    HW2 4569   5.927   0.649   0.439
 1224SOL     OW 4570   4.326   6.354   6.874
 1224SOL    HW1 4571   4.254   6.379   6.810
 1224SOL    HW2 4572   4.398   6.423   6.874
 1225SOL     OW 4573   4.093   1.619   0.870
 1225SOL    HW1 4574   4.190   1.596   0.873
 1225SOL    HW2 4575   4.077   1.684   0.795
 1226SOL     OW 4576   5.939   6.619   0.703
 1226SOL    HW1 4577   5.888   6.544   0.661
 1226SOL    HW2 4578   5.894   6.706   0.683
 1227SOL     OW 4579   5.928   4.876   5.513
 1227SOL    HW1 4580   5.845   4.914   5.473
 1227SOL    HW2 4581   5.912   4.858   5.611
 1228SOL     OW 4582   4.119   2.880   1.717
 1228SOL    HW1 4583   4.087   2.913   1.628
 1228SOL    HW2 4584   4.040   2.859   1.775
 1229SOL     OW 4585   0.581   0.001   2.350
 1229SOL    HW1 4586   0.659   6.997   2.296
 1229SOL    HW2 4587   0.603   0.090   2.390
 1230SOL     OW 4588   5.575   5.495   3.020
 1230SOL    HW1 4589   5.506   5.561   3.051
 1230SOL    HW2 4590   5.615   5.527   2.934
 1231SOL     OW 4591   1.781   2.681   5.991
 1231SOL    HW1 4592   1.739   2.686   6.082
 1231SOL    HW2 4593   1.823   2.769   5.969
 1232SOL     OW 4594   4.002   1.625   4.792
 1232SOL    HW1 4595   3.968   1.595   4.881
 1232SOL    HW2 4596   3.965   1.716   4.771
 1233SOL     OW 4597   1.093   5.039   3.200
 1233SOL    HW1 4598   1.018   4.989   3.156
 1233SOL    HW2 4599   1.168   4.977   3.221
 1234SOL     OW 4600   6.900   2.872   6.919
 1234SOL    HW1 4601   6.872   2.967   6.905
 1234SOL    HW2 4602   6.841   2.812   6.864
 1235SOL     OW 4603   6.196   4.961   6.861
 1235SOL    HW1 4604   6.282   4.912   6.842
 1235SOL    HW2 4605   6.128   4.896   6.894
 1236SOL     OW 4606   3.443   1.788   0.379
 1236SOL    HW1 4607   3.519   1.783   0.314
 1236SOL    HW2 4608   3.433   1.700   0.425
 1237SOL     OW 4609   1.600   0.200   4.773
 1237SOL    HW1 4610   1.527   0.228   4.711
 1237SOL    HW2 4611   1.590   0.248   4.861
 1238SOL     OW 4612   0.572   6.639   3.089
 1238SOL    HW1 4613   0.671   6.645   3.077
 1238SOL    HW2 4614   0.527   6.644   3.000
 1239SOL     OW 4615   6.855   5.079   4.325
 1239SOL    HW1 4616   6.818   5.077   4.418
 1239SOL    HW2 4617   6.798   5.022   4.266
 1240SOL     OW 4618   6.224   5.781   2.277
 1240SOL    HW1 4619   6.151   5.716   2.297
 1240SOL    HW2 4620   6.284   5.743   2.206
 1241SOL     OW 4621   0.126   4.715   4.386
 1241SOL    HW1 4622   0.105   4.641   4.322
 1241SOL    HW2 4623   0.085   4.695   4.475
 1242SOL     OW 4624   2.108   3.921   6.724
 1242SOL    HW1 4625   2.114   3.940   6.822
 1242SOL    HW2 4626   2.095   3.823   6.711
 1243SOL     OW 4627   0.688   2.673   5.205
 1243SOL    HW1 4628   0.627   2.598   5.179
 1243SOL    HW2 4629   0.691   2.680   5.305
 1244SOL     OW 4630   5.896   6.324   5.662
 1244SOL    HW1 4631   5.805   6.350   5.632
 1244SOL    HW2 4632   5.943   6.404   5.700
 1245SOL     OW 4633   5.695   5.723   1.394
 1245SOL    HW1 4634   5.694   5.778   1.478
 1245SOL    HW2 4635   5.712   5.783   1.316
 1246SOL     OW 4636   4.785   0.559   1.509
 1246SOL    HW1 4637   4.873   0.537   1.551
 1246SOL    HW2 4638   4.797   0.631   1.441
 1247SOL     OW 4639   6.301   6.654   4.449
 1247SOL    HW1 4640   6.302   6.729   4.515
 1247SOL    HW2 4641   6.381   6.660   4.389
 1248SOL     OW 4642   0.379   6.414   4.633
 1248SOL    HW1 4643   0.396   6.483   4.703
 1248SOL    HW2 4644   0.453   6.417   4.565
 1249SOL     OW 4645   0.399   3.962   1.346
 1249SOL    HW1 4646   0.386   3.875   1.298
 1249SOL    HW2 4647   0.338   3.967   1.425
 1250SOL     OW 4648   6.219   3.404   5.090
 1250SOL    HW1 4649   6.295   3.455   5.130
 1250SOL    HW2 4650   6.154   3.468   5.049
 1251SOL     OW 4651   2.125   1.757   2.810
 1251SOL    HW1 4652   2.030   1.783   2.792
 1251SOL    HW2 4653   2.174   1.836   2.847
 1252SOL     OW 4654   3.074   5.502   6.913
 1252SOL    HW1 4655   3.102   5.501   6.817
 1252SOL    HW2 4656   3.151   5.475   6.970
 1253SOL     OW 4657   3.052   0.990   1.137
 1253SOL    HW1 4658   3.084   0.913   1.192
 1253SOL    HW2 4659   2.952   0.990   1.134
 1254SOL     OW 4660   5.717   1.619   3.206
 1254SOL    HW1 4661   5.657   1.602   3.283
 1254SOL    HW2 4662   5.774   1.538   3.190
 1255SOL     OW 4663   5.737   2.625   5.117
 1255SOL    HW1 4664   5.813   2.625   5.183
 1255SOL    HW2 4665   5.692   2.536   5.118
 1256SOL     OW 4666   6.457   5.756   3.249
 1256SOL    HW1 4667   6.438   5.849   3.280
 1256SOL    HW2 4668   6.505   5.759   3.162
 1257SOL     OW 4669   0.120   4.518   4.162
 1257SOL    HW1 4670   0.048   4.456   4.193
 1257SOL    HW2 4671   0.140   4.500   4.066
 1258SOL     OW 4672   1.955   6.148   3.546
 1258SOL    HW1 4673   1.880   6.191   3.596
 1258SOL    HW2 4674   1.969   6.055   3.579
 1259SOL     OW 4675   4.779   0.273   4.977
 1259SOL    HW1 4676   4.803   0.216   5.055
 1259SOL    HW2 4677   4.686   0.249   4.946
 1260SOL     OW 4678   2.730   0.634   2.290
 1260SOL    HW1 4679   2.810   0.603   2.239
 1260SOL    HW2 4680   2.666   0.680   2.227
 1261SOL     OW 4681   0.028   3.312   6.875
 1261SOL    HW1 4682   6.990   3.386   6.860
 1261SOL    HW2 4683   0.082   3.298   6.792
 1262SOL     OW 4684   4.324   4.856   1.398
 1262SOL    HW1 4685   4.385   4.778   1.406
 1262SOL    HW2 4686   4.321   4.888   1.304
 1263SOL     OW 4687   6.526   2.121   1.218
 1263SOL    HW1 4688   6.505   2.219   1.211
 1263SOL    HW2 4689   6.491   2.073   1.138
 1264SOL     OW 4690   0.214   4.041   3.354
 1264SOL    HW1 4691   0.258   3.989   3.427
 1264SOL    HW2 4692   0.269   4.035   3.271
 1265SOL     OW 4693   0.083   3.881   3.881
 1265SOL    HW1 4694   0.091   3.792   3.925
 1265SOL    HW2 4695   0.002   3.928   3.917
 1266SOL     OW 4696   2.724   1.762   4.868
 1266SOL    HW1 4697   2.814   1.795   4.841
 1266SOL    HW2 4698   2.726   1.737   4.965
 1267SOL     OW 4699   6.575   6.165   2.263
 1267SOL    HW1 4700   6.571   6.179   2.362
 1267SOL    HW2 4701   6.667   6.135   2.237
 1268SOL     OW 4702   5.852   2.451   0.364
 1268SOL    HW1 4703   5.794   2.379   0.401
 1268SOL    HW2 4704   5.831   2.466   0.268
 1269SOL     OW 4705   6.554   6.820   5.517
 1269SOL    HW1 4706   6.560   6.789   5.612
 1269SOL    HW2 4707   6.617   6.897   5.504
 1270SOL     OW 4708   1.868   3.941   4.670
 1270SOL    HW1 4709   1.828   3.904   4.754
 1270SOL    HW2 4710   1.965   3.914   4.665
 1271SOL     OW 4711   3.570   1.902   3.161
 1271SOL    HW1 4712   3.521   1.964   3.222
 1271SOL    HW2 4713   3.667   1.901   3.185
 1272SOL     OW 4714   0.273   5.993   0.723
 1272SOL    HW1 4715   0.231   6.082   0.705
 1272SOL    HW2 4716   0.339   6.003   0.798
 1273SOL     OW 4717   2.196   4.030   0.379
 1273SOL    HW1 4718   2.281   3.997   0.338
 1273SOL    HW2 4719   2.217   4.104   0.443
 1274SOL     OW 4720   0.477   3.119   1.950
 1274SOL    HW1 4721   0.537   3.145   2.026
 1274SOL    HW2 4722   0.382   3.117   1.982
 1275SOL     OW 4723   4.334   0.699   3.817
 1275SOL    HW1 4724   4.417   0.703   3.873
 1275SOL    HW2 4725   4.255   0.681   3.875
 1276SOL     OW 4726   6.672   0.172   3.536
 1276SOL    HW1 4727   6.590   0.158   3.481
 1276SOL    HW2 4728   6.669   0.263   3.578
 1277SOL     OW 4729   0.554   1.096   4.449
 1277SOL    HW1 4730   0.560   1.016   4.508
 1277SOL    HW2 4731   0.630   1.158   4.469
 1278SOL     OW 4732   2.171   2.113   5.206
 1278SOL    HW1 4733   2.096   2.131   5.142
 1278SOL    HW2 4734   2.134   2.089   5.296
 1279SOL     OW 4735   2.103   0.074   0.712
 1279SOL    HW1 4736   2.121   0.159   0.762
 1279SOL    HW2 4737   2.078   0.002   0.776
 1280SOL     OW 4738   2.699   6.861   3.231
 1280SOL    HW1 4739   2.744   6.901   3.152
 1280SOL    HW2 4740   2.602   6.849   3.212
 1281SOL     OW 4741   0.979   5.448   2.888
 1281SOL    HW1 4742   1.032   5.480   2.966
 1281SOL    HW2 4743   0.979   5.517   2.817
 1282SOL     OW 4744   0.619   0.689   0.975
 1282SOL    HW1 4745   0.628   0.611   0.912
 1282SOL    HW2 4746   0.627   0.774   0.923
 1283SOL     OW 4747   5.254   3.654   5.895
 1283SOL    HW1 4748   5.348   3.621   5.892
 1283SOL    HW2 4749   5.254   3.753   5.879
 1284SOL     OW 4750   3.095   2.747   1.718
 1284SOL    HW1 4751   3.116   2.781   1.810
 1284SOL    HW2 4752   3.139   2.659   1.704
 1285SOL     OW 4753   5.538   3.864   6.530
 1285SOL    HW1 4754   5.576   3.807   6.604
 1285SOL    HW2 4755   5.523   3.957   6.564
 1286SOL     OW 4756   4.486   4.726   2.245
 1286SOL    HW1 4757   4.398   4.746   2.289
 1286SOL    HW2 4758   4.470   4.685   2.155
 1287SOL     OW 4759   5.650   4.761   6.865
 1287SOL    HW1 4760   5.587   4.809   6.804
 1287SOL    HW2 4761   5.600   4.724   6.943
 1288SOL     OW 4762   0.026   2.665   0.783
 1288SOL    HW1 4763   0.112   2.617   0.762
 1288SOL    HW2 4764   0.019   2.680   0.881
 1289SOL     OW 4765   0.241   5.634   1.448
 1289SOL    HW1 4766   0.256   5.635   1.546
 1289SOL    HW2 4767   0.227   5.540   1.417
 1290SOL     OW 4768   0.732   0.901   0.483
 1290SOL    HW1 4769   0.669   0.930   0.411
 1290SOL    HW2 4770   0.727   0.965   0.560
 1291SOL     OW 4771   1.587   4.627   6.474
 1291SOL    HW1 4772   1.617   4.645   6.380
 1291SOL    HW2 4773   1.628   4.694   6.536
 1292SOL     OW 4774   0.011   4.610   2.100
 1292SOL    HW1 4775   6.999   4.633   2.011
 1292SOL    HW2 4776   7.023   4.513   2.119
 1293SOL     OW 4777   3.204   1.059   6.180
 1293SOL    HW1 4778   3.195   1.154   6.152
 1293SOL    HW2 4779   3.173   0.999   6.106
 1294SOL     OW 4780   0.457   2.864   1.023
 1294SOL    HW1 4781   0.460   2.862   0.924
 1294SOL    HW2 4782   0.410   2.782   1.057
 1295SOL     OW 4783   6.000   3.628   2.470
 1295SOL    HW1 4784   5.989   3.652   2.566
 1295SOL    HW2 4785   6.047   3.703   2.422
 1296SOL     OW 4786   3.955   1.515   6.115
 1296SOL    HW1 4787   3.897   1.471   6.046
 1296SOL    HW2 4788   3.900   1.539   6.195
 1297SOL     OW 4789   5.528   0.978   6.067
 1297SOL    HW1 4790   5.618   0.958   6.029
 1297SOL    HW2 4791   5.512   1.077   6.063
 1298SOL     OW 4792   5.984   3.143   2.938
 1298SOL    HW1 4793   6.056   3.181   2.996
 1298SOL    HW2 4794   5.951   3.057   2.977
 1299SOL     OW 4795   1.786   4.093   3.351
 1299SOL    HW1 4796   1.696   4.106   3.392
 1299SOL    HW2 4797   1.779   4.101   3.251
 1300SOL     OW 4798   3.333   3.772   1.842
 1300SOL    HW1 4799   3.387   3.758   1.759
 1300SOL    HW2 4800   3.239   3.740   1.827
 1301SOL     OW 4801   1.122   6.224   2.641
 1301SOL    HW1 4802   1.089   6.242   2.733
 1301SOL    HW2 4803   1.107   6.129   2.617
 1302SOL     OW 4804   2.612   6.710   4.529
 1302SOL    HW1 4805   2.701   6.754   4.541
 1302SOL    HW2 4806   2.594   6.697   4.431
 1303SOL     OW 4807   3.819   0.974   0.729
 1303SOL    HW1 4808   3.737   0.961   0.673
 1303SOL    HW2 4809   3.892   1.015   0.673
 1304SOL     OW 4810   1.798   1.349   6.391
 1304SOL    HW1 4811   1.882   1.402   6.403
 1304SOL    HW2 4812   1.775   1.346   6.294
 1305SOL     OW 4813   6.165   5.616   6.295
 1305SOL    HW1 4814   6.099   5.614   6.220
 1305SOL    HW2 4815   6.234   5.546   6.281
 1306SOL     OW 4816   0.850   4.582   5.524
 1306SOL    HW1 4817   0.836   4.483   5.514
 1306SOL    HW2 4818   0.764   4.630   5.504
 1307SOL     OW 4819   2.013   2.964   4.234
 1307SOL    HW1 4820   1.983   3.047   4.188
 1307SOL    HW2 4821   2.104   2.979   4.273
 1308SOL     OW 4822   4.446   5.997   4.769
 1308SOL    HW1 4823   4.453   5.899   4.786
 1308SOL    HW2 4824   4.416   6.013   4.675
 1309SOL     OW 4825   5.527   3.080   5.314
 1309SOL    HW1 4826   5.479   3.116   5.234
 1309SOL    HW2 4827   5.623   3.063   5.290
 1310SOL     OW 4828   5.567   3.654   4.920
 1310SOL    HW1 4829   5.609   3.575   4.965
 1310SOL    HW2 4830   5.629   3.687   4.848
 1311SOL     OW 4831   6.569   6.384   3.986
 1311SOL    HW1 4832   6.562   6.446   3.908
 1311SOL    HW2 4833   6.523   6.298   3.964
 1312SOL     OW 4834   0.822   0.658   6.760
 1312SOL    HW1 4835   0.730   0.697   6.752
 1312SOL    HW2 4836   0.886   0.713   6.706
 1313SOL     OW 4837   2.504   5.669   5.758
 1313SOL    HW1 4838   2.532   5.748   5.812
 1313SOL    HW2 4839   2.584   5.621   5.724
 1314SOL     OW 4840   1.784   1.331   5.789
 1314SOL    HW1 4841   1.795   1.321   5.690
 1314SOL    HW2 4842   1.691   1.364   5.808
 1315SOL     OW 4843   0.946   1.349   0.408
 1315SOL    HW1 4844   0.847   1.363   0.412
 1315SOL    HW2 4845   0.993   1.431   0.440
 1316SOL     OW 4846   2.080   0.113   3.047
 1316SOL    HW1 4847   2.131   0.197   3.031
 1316SOL    HW2 4848   1.997   0.113   2.990
 1317SOL     OW 4849   0.645   4.644   4.544
 1317SOL    HW1 4850   0.579   4.610   4.477
 1317SOL    HW2 4851   0.735   4.608   4.522
 1318SOL     OW 4852   0.579   0.909   0.818
 1318SOL    HW1 4853   0.621   0.984   0.767
 1318SOL    HW2 4854   0.557   0.834   0.755
 1319SOL     OW 4855   6.436   1.934   0.419
 1319SOL    HW1 4856   6.418   1.839   0.393
 1319SOL    HW2 4857   6.352   1.974   0.455
 1320SOL     OW 4858   5.918   4.852   0.314
 1320SOL    HW1 4859   5.887   4.849   0.409
 1320SOL    HW2 4860   5.976   4.932   0.300
 1321SOL     OW 4861   3.864   2.643   0.271
 1321SOL    HW1 4862   3.922   2.563   0.261
 1321SOL    HW2 4863   3.867   2.675   0.366
 1322SOL     OW 4864   5.249   1.074   3.182
 1322SOL    HW1 4865   5.185   1.056   3.257
 1322SOL    HW2 4866   5.198   1.101   3.101
 1323SOL     OW 4867   5.566   1.969   5.369
 1323SOL    HW1 4868   5.529   1.877   5.351
 1323SOL    HW2 4869   5.618   1.967   5.454
 1324SOL     OW 4870   1.594   2.117   1.653
 1324SOL    HW1 4871   1.685   2.085   1.678
 1324SOL    HW2 4872   1.536   2.119   1.734
 1325SOL     OW 4873   2.620   6.615   3.076
 1325SOL    HW1 4874   2.533   6.630   3.030
 1325SOL    HW2 4875   2.666   6.536   3.035
 1326SOL     OW 4876   4.732   2.673   4.678
 1326SOL    HW1 4877   4.680   2.596   4.715
 1326SOL    HW2 4878   4.729   2.669   4.578
 1327SOL     OW 4879   3.171   5.616   2.744
 1327SOL    HW1 4880   3.206   5.677   2.816
 1327SOL    HW2 4881   3.236   5.542   2.728
 1328SOL     OW 4882   0.858   2.477   0.543
 1328SOL    HW1 4883   0.761   2.451   0.540
 1328SOL    HW2 4884   0.910   2.407   0.593
 1329SOL     OW 4885   6.661   1.558   0.974
 1329SOL    HW1 4886   6.644   1.649   0.934
 1329SOL    HW2 4887   6.672   1.567   1.073
 1330SOL     OW 4888   6.300   0.197   0.829
 1330SOL    HW1 4889   6.390   0.154   0.824
 1330SOL    HW2 4890   6.310   0.296   0.828
 1331SOL     OW 4891   5.039   2.081   3.069
 1331SOL    HW1 4892   5.019   1.984   3.080
 1331SOL    HW2 4893   4.953   2.133   3.068
 1332SOL     OW 4894   3.498   0.281   0.769
 1332SOL    HW1 4895   3.551   0.254   0.849
 1332SOL    HW2 4896   3.549   0.258   0.686
 1333SOL     OW 4897   3.636   4.349   5.548
 1333SOL    HW1 4898   3.613   4.408   5.625
 1333SOL    HW2 4899   3.605   4.391   5.463
 1334SOL     OW 4900   0.489   2.969   4.535
 1334SOL    HW1 4901   0.563   2.947   4.600
 1334SOL    HW2 4902   0.467   2.888   4.482
 1335SOL     OW 4903   2.009   6.128   2.624
 1335SOL    HW1 4904   2.033   6.039   2.662
 1335SOL    HW2 4905   2.068   6.199   2.665
 1336SOL     OW 4906   1.367   0.946   6.005
 1336SOL    HW1 4907   1.423   0.881   6.057
 1336SOL    HW2 4908   1.289   0.975   6.062
 1337SOL     OW 4909   1.045   2.484   4.801
 1337SOL    HW1 4910   1.036   2.576   4.763
 1337SOL    HW2 4911   0.998   2.419   4.742
 1338SOL     OW 4912   4.541   3.813   6.268
 1338SOL    HW1 4913   4.542   3.858   6.357
 1338SOL    HW2 4914   4.606   3.859   6.207
 1339SOL     OW 4915   6.728   5.318   6.779
 1339SOL    HW1 4916   6.693   5.384   6.712
 1339SOL    HW2 4917   6.811   5.355   6.821
 1340SOL     OW 4918   0.999   1.927   1.679
 1340SOL    HW1 4919   1.039   1.875   1.755
 1340SOL    HW2 4920   0.924   1.874   1.639
 1341SOL     OW 4921   4.380   0.827   5.216
 1341SOL    HW1 4922   4.425   0.820   5.305
 1341SOL    HW2 4923   4.449   0.839   5.145
 1342SOL     OW 4924   1.189   5.961   6.557
 1342SOL    HW1 4925   1.209   5.885   6.619
 1342SOL    HW2 4926   1.159   5.926   6.469
 1343SOL     OW 4927   3.429   6.633   2.383
 1343SOL    HW1 4928   3.429   6.722   2.338
 1343SOL    HW2 4929   3.369   6.570   2.334
 1344SOL     OW 4930   6.975   2.669   3.477
 1344SOL    HW1 4931   0.012   2.605   3.435
 1344SOL    HW2 4932   6.917   2.709   3.406
 1345SOL     OW 4933   0.401   1.141   3.612
 1345SOL    HW1 4934   0.457   1.215   3.574
 1345SOL    HW2 4935   0.422   1.055   3.565
 1346SOL     OW 4936   1.406   0.136   2.671
 1346SOL    HW1 4937   1.465   0.108   2.595
 1346SOL    HW2 4938   1.331   0.070   2.681
 1347SOL     OW 4939   6.245   6.340   3.708
 1347SOL    HW1 4940   6.246   6.368   3.804
 1347SOL    HW2 4941   6.153   6.314   3.681
 1348SOL     OW 4942   5.820   5.385   3.413
 1348SOL    HW1 4943   5.783   5.424   3.329
 1348SOL    HW2 4944   5.817   5.454   3.486
 1349SOL     OW 4945   4.985   2.851   6.384
 1349SOL    HW1 4946   4.939   2.928   6.427
 1349SOL    HW2 4947   4.951   2.840   6.290
 1350SOL     OW 4948   3.846   5.231   6.909
 1350SOL    HW1 4949   3.840   5.202   6.814
 1350SOL    HW2 4950   3.904   5.312   6.917
 1351SOL     OW 4951   0.828   1.084   2.800
 1351SOL    HW1 4952   0.761   1.012   2.817
 1351SOL    HW2 4953   0.860   1.120   2.888
 1352SOL     OW 4954   0.629   0.211   3.662
 1352SOL    HW1 4955   0.618   0.261   3.576
 1352SOL    HW2 4956   0.673   0.270   3.730
 1353SOL     OW 4957   6.788   4.380   6.043
 1353SOL    HW1 4958   6.764   4.285   6.062
 1353SOL    HW2 4959   6.851   4.413   6.114
 1354SOL     OW 4960   6.992   1.651   0.990
 1354SOL    HW1 4961   7.026   1.629   0.899
 1354SOL    HW2 4962   6.902   1.609   1.003
 1355SOL     OW 4963   5.443   4.019   7.020
 1355SOL    HW1 4964   5.524   4.026   6.961
 1355SOL    HW2 4965   5.398   3.931   7.003
 1356SOL     OW 4966   3.540   3.737   3.654
 1356SOL    HW1 4967   3.591   3.667   3.704
 1356SOL    HW2 4968   3.443   3.731   3.677
 1357SOL     OW 4969   2.373   3.319   6.063
 1357SOL    HW1 4970   2.465   3.289   6.089
 1357SOL    HW2 4971   2.378   3.408   6.018
 1358SOL     OW 4972   2.510   2.272   5.867
 1358SOL    HW1 4973   2.564   2.344   5.825
 1358SOL    HW2 4974   2.565   2.225   5.936
 1359SOL     OW 4975   6.553   3.809   1.433
 1359SOL    HW1 4976   6.456   3.788   1.422
 1359SOL    HW2 4977   6.594   3.823   1.343
 1360SOL     OW 4978   4.108   3.692   2.360
 1360SOL    HW1 4979   4.132   3.599   2.333
 1360SOL    HW2 4980   4.099   3.748   2.278
 1361SOL     OW 4981   0.521   0.046   6.345
 1361SOL    HW1 4982   0.447   0.114   6.349
 1361SOL    HW2 4983   0.519   7.018   6.428
 1362SOL     OW 4984   2.742   3.270   5.418
 1362SOL    HW1 4985   2.774   3.363   5.402
 1362SOL    HW2 4986   2.821   3.208   5.423
 1363SOL     OW 4987   6.452   5.720   3.815
 1363SOL    HW1 4988   6.446   5.746   3.911
 1363SOL    HW2 4989   6.396   5.638   3.800
 1364SOL     OW 4990   6.788   2.589   0.251
 1364SOL    HW1 4991   6.771   2.518   0.183
 1364SOL    HW2 4992   6.859   2.558   0.315
 1365SOL     OW 4993   0.662   4.096   5.463
 1365SOL    HW1 4994   0.688   4.069   5.555
 1365SOL    HW2 4995   0.733   4.156   5.425
 1366SOL     OW 4996   6.923   3.132   1.077
 1366SOL    HW1 4997   6.906   3.214   1.023
 1366SOL    HW2 4998   7.021   3.125   1.098
 1367SOL     OW 4999   1.222   5.131   3.580
 1367SOL    HW1 5000   1.293   5.062   3.595
 1367SOL    HW2 5001   1.141   5.087   3.541
 1368SOL     OW 5002   6.620   0.233   4.069
 1368SOL    HW1 5003   6.701   0.292   4.062
 1368SOL    HW2 5004   6.588   0.231   4.164
 1369SOL     OW 5005   2.467   6.229   1.622
 1369SOL    HW1 5006   2.411   6.170   1.563
 1369SOL    HW2 5007   2.546   6.262   1.570
 1370SOL     OW 5008   7.021   1.367   4.090
 1370SOL    HW1 5009   6.958   1.295   4.059
 1370SOL    HW2 5010   0.070   1.325   4.138
 1371SOL     OW 5011   4.800   1.455   4.949
 1371SOL    HW1 5012   4.751   1.511   5.016
 1371SOL    HW2 5013   4.884   1.419   4.991
 1372SOL     OW 5014   6.072   2.278   1.108
 1372SOL    HW1 5015   6.074   2.287   1.008
 1372SOL    HW2 5016   6.102   2.186   1.133
 1373SOL     OW 5017   5.584   1.792   0.838
 1373SOL    HW1 5018   5.641   1.833   0.909
 1373SOL    HW2 5019   5.551   1.703   0.869
 1374SOL     OW 5020   5.444   4.581   0.024
 1374SOL    HW1 5021   5.498   4.498   0.010
 1374SOL    HW2 5022   5.444   4.604   0.121
 1375SOL     OW 5023   6.979   6.456   6.325
 1375SOL    HW1 5024   0.006   6.374   6.340
 1375SOL    HW2 5025   6.888   6.430   6.293
 1376SOL     OW 5026   3.383   4.704   6.052
 1376SOL    HW1 5027   3.306   4.685   5.992
 1376SOL    HW2 5028   3.367   4.665   6.143
 1377SOL     OW 5029   1.257   2.399   3.882
 1377SOL    HW1 5030   1.352   2.376   3.901
 1377SOL    HW2 5031   1.215   2.437   3.964
 1378SOL     OW 5032   4.960   2.575   4.938
 1378SOL    HW1 5033   4.900   2.644   4.897
 1378SOL    HW2 5034   5.049   2.617   4.959
 1379SOL     OW 5035   4.791   5.566   2.874
 1379SOL    HW1 5036   4.729   5.637   2.907
 1379SOL    HW2 5037   4.809   5.501   2.948
 1380SOL     OW 5038   6.760   6.541   2.642
 1380SOL    HW1 5039   6.672   6.576   2.609
 1380SOL    HW2 5040   6.820   6.617   2.665
 1381SOL     OW 5041   5.674   1.764   6.494
 1381SOL    HW1 5042   5.741   1.803   6.431
 1381SOL    HW2 5043   5.714   1.757   6.585
 1382SOL     OW 5044   4.881   3.045   1.178
 1382SOL    HW1 5045   4.965   3.017   1.225
 1382SOL    HW2 5046   4.819   2.966   1.171
 1383SOL     OW 5047   0.630   0.234   1.383
 1383SOL    HW1 5048   0.592   0.245   1.475
 1383SOL    HW2 5049   0.647   0.137   1.366
 1384SOL     OW 5050   4.422   6.909   0.925
 1384SOL    HW1 5051   4.515   6.915   0.961
 1384SOL    HW2 5052   4.371   6.991   0.950
 1385SOL     OW 5053   1.990   4.445   3.738
 1385SOL    HW1 5054   1.954   4.396   3.659
 1385SOL    HW2 5055   1.959   4.400   3.822
 1386SOL     OW 5056   3.283   0.107   3.344
 1386SOL    HW1 5057   3.248   0.077   3.255
 1386SOL    HW2 5058   3.382   0.101   3.344
 1387SOL     OW 5059   2.880   5.635   1.935
 1387SOL    HW1 5060   2.783   5.647   1.958
 1387SOL    HW2 5061   2.908   5.541   1.956
 1388SOL     OW 5062   6.435   6.544   1.324
 1388SOL    HW1 5063   6.414   6.456   1.282
 1388SOL    HW2 5064   6.351   6.597   1.335
 1389SOL     OW 5065   5.948   2.507   3.328
 1389SOL    HW1 5066   5.881   2.540   3.261
 1389SOL    HW2 5067   5.935   2.409   3.342
 1390SOL     OW 5068   0.065   3.972   6.818
 1390SOL    HW1 5069   0.022   4.030   6.748
 1390SOL    HW2 5070   0.007   3.969   6.899
 1391SOL     OW 5071   6.452   6.881   4.545
 1391SOL    HW1 5072   6.504   6.797   4.534
 1391SOL    HW2 5073   6.404   6.903   4.460
 1392SOL     OW 5074   5.428   5.772   6.227
 1392SOL    HW1 5075   5.348   5.784   6.286
 1392SOL    HW2 5076   5.509   5.760   6.283
 1393SOL     OW 5077   6.149   4.720   5.520
 1393SOL    HW1 5078   6.077   4.787   5.539
 1393SOL    HW2 5079   6.136   4.639   5.578
 1394SOL     OW 5080   2.978   6.107   5.021
 1394SOL    HW1 5081   2.937   6.145   5.105
 1394SOL    HW2 5082   2.914   6.117   4.945
 1395SOL     OW 5083   2.579   4.164   5.919
 1395SOL    HW1 5084   2.516   4.097   5.880
 1395SOL    HW2 5085   2.640   4.118   5.984
 1396SOL     OW 5086   1.730   1.108   5.073
 1396SOL    HW1 5087   1.823   1.139   5.093
 1396SOL    HW2 5088   1.721   1.089   4.975
 1397SOL     OW 5089   0.715   0.362   3.883
 1397SOL    HW1 5090   0.801   0.367   3.934
 1397SOL    HW2 5091   0.654   0.436   3.912
 1398SOL     OW 5092   2.630   0.969   5.915
 1398SOL    HW1 5093   2.633   1.028   5.834
 1398SOL    HW2 5094   2.580   1.016   5.987
 1399SOL     OW 5095   3.338   6.013   0.597
 1399SOL    HW1 5096   3.250   6.060   0.583
 1399SOL    HW2 5097   3.320   5.920   0.628
 1400SOL     OW 5098   0.138   1.377   3.005
 1400SOL    HW1 5099   0.181   1.287   3.016
 1400SOL    HW2 5100   0.208   1.448   3.015
 1401SOL     OW 5101   6.898   2.177   4.782
 1401SOL    HW1 5102   6.818   2.117   4.783
 1401SOL    HW2 5103   6.908   2.218   4.691
 1402SOL     OW 5104   0.648   3.911   0.333
 1402SOL    HW1 5105   0.713   3.848   0.377
 1402SOL    HW2 5106   0.562   3.863   0.316
 1403SOL     OW 5107   2.578   2.148   1.701
 1403SOL    HW1 5108   2.633   2.162   1.783
 1403SOL    HW2 5109   2.638   2.146   1.621
 1404SOL     OW 5110   5.379   0.100   0.237
 1404SOL    HW1 5111   5.364   0.130   0.332
 1404SOL    HW2 5112   5.297   0.054   0.204
 1405SOL     OW 5113   2.148   3.716   0.907
 1405SOL    HW1 5114   2.117   3.638   0.852
 1405SOL    HW2 5115   2.245   3.732   0.890
 1406SOL     OW 5116   1.215   5.230   1.290
 1406SOL    HW1 5117   1.288   5.239   1.222
 1406SOL    HW2 5118   1.218   5.309   1.352
 1407SOL     OW 5119   0.485   1.937   2.486
 1407SOL    HW1 5120   0.439   1.899   2.567
 1407SOL    HW2 5121   0.535   1.865   2.439
 1408SOL     OW 5122   5.672   1.219   5.779
 1408SOL    HW1 5123   5.715   1.213   5.870
 1408SOL    HW2 5124   5.704   1.301   5.733
 1409SOL     OW 5125   0.586   0.974   4.810
 1409SOL    HW1 5126   0.670   0.947   4.858
 1409SOL    HW2 5127   0.578   1.074   4.811
 1410SOL     OW 5128   1.995   3.244   6.175
 1410SOL    HW1 5129   2.055   3.282   6.245
 1410SOL    HW2 5130   2.050   3.216   6.096
 1411SOL     OW 5131   2.768   6.778   1.990
 1411SOL    HW1 5132   2.803   6.788   1.897
 1411SOL    HW2 5133   2.813   6.702   2.035
 1412SOL     OW 5134   0.142   1.916   1.061
 1412SOL    HW1 5135   0.195   1.874   0.987
 1412SOL    HW2 5136   0.046   1.889   1.052
 1413SOL     OW 5137   1.727   1.325   5.515
 1413SOL    HW1 5138   1.643   1.326   5.460
 1413SOL    HW2 5139   1.804   1.350   5.456
 1414SOL     OW 5140   2.563   1.307   1.747
 1414SOL    HW1 5141   2.603   1.259   1.669
 1414SOL    HW2 5142   2.606   1.275   1.831
 1415SOL     OW 5143   2.220   0.644   4.650
 1415SOL    HW1 5144   2.267   0.681   4.731
 1415SOL    HW2 5145   2.275   0.569   4.612
 1416SOL     OW 5146   4.535   4.415   4.282
 1416SOL    HW1 5147   4.472   4.484   4.317
 1416SOL    HW2 5148   4.532   4.414   4.182
 1417SOL     OW 5149   3.240   1.704   0.157
 1417SOL    HW1 5150   3.239   1.783   0.218
 1417SOL    HW2 5151   3.301   1.634   0.193
 1418SOL     OW 5152   3.260   3.701   3.711
 1418SOL    HW1 5153   3.232   3.607   3.691
 1418SOL    HW2 5154   3.216   3.764   3.646
 1419SOL     OW 5155   2.516   6.212   4.966
 1419SOL    HW1 5156   2.509   6.132   4.906
 1419SOL    HW2 5157   2.425   6.248   4.985
 1420SOL     OW 5158   2.300   0.183   1.634
 1420SOL    HW1 5159   2.283   0.246   1.710
 1420SOL    HW2 5160   2.236   0.106   1.639
 1421SOL     OW 5161   1.868   3.402   3.611
 1421SOL    HW1 5162   1.967   3.389   3.609
 1421SOL    HW2 5163   1.834   3.413   3.518
 1422SOL     OW 5164   1.715   3.497   1.350
 1422SOL    HW1 5165   1.746   3.558   1.423
 1422SOL    HW2 5166   1.795   3.456   1.306
 1423SOL     OW 5167   5.330   6.426   3.107
 1423SOL    HW1 5168   5.331   6.348   3.169
 1423SOL    HW2 5169   5.401   6.491   3.133
 1424SOL     OW 5170   6.423   4.832   5.548
 1424SOL    HW1 5171   6.488   4.755   5.550
 1424SOL    HW2 5172   6.332   4.797   5.526
 1425SOL     OW 5173   1.134   6.376   4.843
 1425SOL    HW1 5174   1.077   6.295   4.838
 1425SOL    HW2 5175   1.167   6.388   4.936
 1426SOL     OW 5176   1.843   2.137   6.147
 1426SOL    HW1 5177   1.748   2.149   6.120
 1426SOL    HW2 5178   1.882   2.226   6.173
 1427SOL     OW 5179   0.376   6.316   3.312
 1427SOL    HW1 5180   0.441   6.325   3.238
 1427SOL    HW2 5181   0.296   6.374   3.294
 1428SOL     OW 5182   5.805   2.819   1.036
 1428SOL    HW1 5183   5.855   2.827   0.950
 1428SOL    HW2 5184   5.869   2.821   1.113
 1429SOL     OW 5185   5.280   2.303   0.520
 1429SOL    HW1 5186   5.261   2.224   0.461
 1429SOL    HW2 5187   5.338   2.274   0.596
 1430SOL     OW 5188   1.700   4.504   3.931
 1430SOL    HW1 5189   1.608   4.495   3.971
 1430SOL    HW2 5190   1.732   4.598   3.943
 1431SOL     OW 5191   2.167   1.875   0.589
 1431SOL    HW1 5192   2.210   1.853   0.502
 1431SOL    HW2 5193   2.201   1.963   0.622
 1432SOL     OW 5194   3.119   1.646   2.918
 1432SOL    HW1 5195   3.109   1.557   2.875
 1432SOL    HW2 5196   3.165   1.709   2.856
 1433SOL     OW 5197   3.956   1.291   5.257
 1433SOL    HW1 5198   4.001   1.203   5.275
 1433SOL    HW2 5199   3.956   1.308   5.158
 1434SOL     OW 5200   0.248   0.775   6.142
 1434SOL    HW1 5201   0.281   0.826   6.221
 1434SOL    HW2 5202   0.299   0.690   6.132
 1435SOL     OW 5203   6.173   7.026   2.959
 1435SOL    HW1 5204   6.182   0.077   2.899
 1435SOL    HW2 5205   6.206   0.023   3.051
 1436SOL     OW 5206   5.875   3.903   0.127
 1436SOL    HW1 5207   5.952   3.925   0.188
 1436SOL    HW2 5208   5.902   3.831   0.064
 1437SOL     OW 5209   2.550   2.430   3.203
 1437SOL    HW1 5210   2.460   2.391   3.185
 1437SOL    HW2 5211   2.564   2.511   3.146
 1438SOL     OW 5212   3.319   5.835   1.371
 1438SOL    HW1 5213   3.247   5.772   1.400
 1438SOL    HW2 5214   3.281   5.928   1.365
 1439SOL     OW 5215   6.775   5.668   1.343
 1439SOL    HW1 5216   6.843   5.739   1.325
 1439SOL    HW2 5217   6.715   5.659   1.264
 1440SOL     OW 5218   2.959   3.678   0.052
 1440SOL    HW1 5219   2.959   3.647   6.985
 1440SOL    HW2 5220   2.873   3.653   0.096
 1441SOL     OW 5221   5.820   1.060   3.358
 1441SOL    HW1 5222   5.729   1.098   3.344
 1441SOL    HW2 5223   5.830   1.031   3.453
 1442SOL     OW 5224   6.783   5.757   0.044
 1442SOL    HW1 5225   6.761   5.778   0.139
 1442SOL    HW2 5226   6.726   5.682   0.012
 1443SOL     OW 5227   0.372   3.115   2.616
 1443SOL    HW1 5228   0.408   3.027   2.646
 1443SOL    HW2 5229   0.313   3.153   2.688
 1444SOL     OW 5230   5.266   5.777   1.026
 1444SOL    HW1 5231   5.217   5.835   1.091
 1444SOL    HW2 5232   5.207   5.759   0.947
 1445SOL     OW 5233   0.566   2.625   2.956
 1445SOL    HW1 5234   0.592   2.673   3.040
 1445SOL    HW2 5235   0.647   2.611   2.899
 1446SOL     OW 5236   6.262   1.351   0.174
 1446SOL    HW1 5237   6.229   1.442   0.199
 1446SOL    HW2 5238   6.243   1.334   0.077
 1447SOL     OW 5239   6.296   6.138   4.130
 1447SOL    HW1 5240   6.337   6.155   4.219
 1447SOL    HW2 5241   6.366   6.142   4.059
 1448SOL     OW 5242   6.451   2.937   5.415
 1448SOL    HW1 5243   6.516   2.922   5.490
 1448SOL    HW2 5244   6.426   3.033   5.412
 1449SOL     OW 5245   1.311   3.547   5.379
 1449SOL    HW1 5246   1.371   3.622   5.352
 1449SOL    HW2 5247   1.279   3.561   5.473
 1450SOL     OW 5248   0.792   2.080   6.951
 1450SOL    HW1 5249   0.751   2.167   6.978
 1450SOL    HW2 5250   0.885   2.097   6.917
 1451SOL     OW 5251   1.257   6.359   2.311
 1451SOL    HW1 5252   1.315   6.362   2.393
 1451SOL    HW2 5253   1.249   6.264   2.279
 1452SOL     OW 5254   4.274   2.507   5.575
 1452SOL    HW1 5255   4.356   2.475   5.622
 1452SOL    HW2 5256   4.220   2.563   5.637
 1453SOL     OW 5257   0.564   4.111   6.173
 1453SOL    HW1 5258   0.502   4.158   6.236
 1453SOL    HW2 5259   0.631   4.058   6.226
 1454SOL     OW 5260   1.252   2.227   1.791
 1454SOL    HW1 5261   1.302   2.156   1.840
 1454SOL    HW2 5262   1.212   2.189   1.708
 1455SOL     OW 5263   1.616   6.786   2.532
 1455SOL    HW1 5264   1.565   6.719   2.586
 1455SOL    HW2 5265   1.712   6.759   2.526
 1456SOL     OW 5266   6.451   0.492   6.375
 1456SOL    HW1 5267   6.424   0.446   6.460
 1456SOL    HW2 5268   6.378   0.480   6.307
 1457SOL     OW 5269   1.083   5.789   0.834
 1457SOL    HW1 5270   1.113   5.873   0.788
 1457SOL    HW2 5271   1.094   5.711   0.771
 1458SOL     OW 5272   6.022   5.013   5.290
 1458SOL    HW1 5273   5.938   5.050   5.252
 1458SOL    HW2 5274   6.000   4.951   5.365
 1459SOL     OW 5275   4.103   6.650   5.329
 1459SOL    HW1 5276   4.162   6.665   5.409
 1459SOL    HW2 5277   4.019   6.604   5.358
 1460SOL     OW 5278   0.988   0.088   5.444
 1460SOL    HW1 5279   0.953   0.174   5.407
 1460SOL    HW2 5280   0.921   0.048   5.505
 1461SOL     OW 5281   6.801   3.929   2.925
 1461SOL    HW1 5282   6.898   3.906   2.923
 1461SOL    HW2 5283   6.761   3.911   2.835
 1462SOL     OW 5284   1.084   0.945   6.941
 1462SOL    HW1 5285   1.001   0.958   6.887
 1462SOL    HW2 5286   1.130   0.861   6.913
 1463SOL     OW 5287   1.083   5.455   5.787
 1463SOL    HW1 5288   1.075   5.358   5.808
 1463SOL    HW2 5289   1.044   5.473   5.697
 1464SOL     OW 5290   0.248   5.921   2.296
 1464SOL    HW1 5291   0.265   5.844   2.234
 1464SOL    HW2 5292   0.295   6.002   2.263
 1465SOL     OW 5293   1.780   0.706   4.176
 1465SOL    HW1 5294   1.724   0.770   4.123
 1465SOL    HW2 5295   1.735   0.687   4.263
 1466SOL     OW 5296   3.370   1.519   2.117
 1466SOL    HW1 5297   3.341   1.599   2.169
 1466SOL    HW2 5298   3.452   1.541   2.064
 1467SOL     OW 5299   1.517   1.365   3.564
 1467SOL    HW1 5300   1.579   1.440   3.541
 1467SOL    HW2 5301   1.449   1.355   3.492
 1468SOL     OW 5302   2.100   5.736   2.227
 1468SOL    HW1 5303   2.184   5.788   2.242
 1468SOL    HW2 5304   2.052   5.726   2.314
 1469SOL     OW 5305   6.865   0.169   3.123
 1469SOL    HW1 5306   6.860   0.174   3.223
 1469SOL    HW2 5307   6.847   0.075   3.094
 1470SOL     OW 5308   0.971   1.356   1.870
 1470SOL    HW1 5309   0.963   1.281   1.805
 1470SOL    HW2 5310   0.965   1.321   1.963
 1471SOL     OW 5311   0.984   0.111   0.237
 1471SOL    HW1 5312   1.067   0.155   0.203
 1471SOL    HW2 5313   0.985   0.111   0.337
 1472SOL     OW 5314   2.751   5.947   6.401
 1472SOL    HW1 5315   2.796   5.952   6.312
 1472SOL    HW2 5316   2.811   5.900   6.466
 1473SOL     OW 5317   3.438   5.658   5.219
 1473SOL    HW1 5318   3.388   5.740   5.245
 1473SOL    HW2 5319   3.421   5.638   5.122
 1474SOL     OW 5320   4.863   4.231   1.257
 1474SOL    HW1 5321   4.826   4.229   1.164
 1474SOL    HW2 5322   4.956   4.195   1.258
 1475SOL     OW 5323   5.384   0.848   0.811
 1475SOL    HW1 5324   5.291   0.813   0.798
 1475SOL    HW2 5325   5.441   0.818   0.734
 1476SOL     OW 5326   2.514   1.630   0.985
 1476SOL    HW1 5327   2.601   1.596   0.951
 1476SOL    HW2 5328   2.492   1.585   1.072
 1477SOL     OW 5329   3.630   6.267   6.526
 1477SOL    HW1 5330   3.606   6.258   6.623
 1477SOL    HW2 5331   3.672   6.182   6.495
 1478SOL     OW 5332   6.389   5.656   5.088
 1478SOL    HW1 5333   6.317   5.707   5.134
 1478SOL    HW2 5334   6.446   5.609   5.155
 1479SOL     OW 5335   3.094   3.594   0.705
 1479SOL    HW1 5336   3.014   3.545   0.740
 1479SOL    HW2 5337   3.158   3.529   0.664
 1480SOL     OW 5338   3.007   6.680   4.046
 1480SOL    HW1 5339   2.928   6.629   4.012
 1480SOL    HW2 5340   3.087   6.658   3.991
 1481SOL     OW 5341   5.930   3.467   6.371
 1481SOL    HW1 5342   5.938   3.451   6.273
 1481SOL    HW2 5343   6.020   3.466   6.413
 1482SOL     OW 5344   4.569   0.389   1.721
 1482SOL    HW1 5345   4.523   0.422   1.804
 1482SOL    HW2 5346   4.624   0.462   1.682
 1483SOL     OW 5347   5.588   2.377   5.114
 1483SOL    HW1 5348   5.518   2.433   5.070
 1483SOL    HW2 5349   5.550   2.286   5.134
 1484SOL     OW 5350   4.669   4.756   3.713
 1484SOL    HW1 5351   4.664   4.829   3.781
 1484SOL    HW2 5352   4.639   4.670   3.754
 1485SOL     OW 5353   5.130   0.398   4.471
 1485SOL    HW1 5354   5.223   0.403   4.434
 1485SOL    HW2 5355   5.069   0.452   4.413
 1486SOL     OW 5356   5.179   0.549   3.346
 1486SOL    HW1 5357   5.099   0.608   3.341
 1486SOL    HW2 5358   5.262   0.603   3.329
 1487SOL     OW 5359   0.146   2.320   6.856
 1487SOL    HW1 5360   0.093   2.401   6.881
 1487SOL    HW2 5361   0.090   2.238   6.868
 1488SOL     OW 5362   4.984   0.018   3.261
 1488SOL    HW1 5363   5.017   0.031   3.354
 1488SOL    HW2 5364   4.910   6.978   3.260
 1489SOL     OW 5365   3.530   4.860   6.430
 1489SOL    HW1 5366   3.493   4.952   6.414
 1489SOL    HW2 5367   3.457   4.793   6.419
 1490SOL     OW 5368   6.991   3.519   1.127
 1490SOL    HW1 5369   0.013   3.563   1.052
 1490SOL    HW2 5370   6.915   3.466   1.091
 1491SOL     OW 5371   6.474   3.933   2.481
 1491SOL    HW1 5372   6.412   4.012   2.479
 1491SOL    HW2 5373   6.458   3.877   2.400
 1492SOL     OW 5374   6.226   0.298   2.357
 1492SOL    HW1 5375   6.129   0.276   2.359
 1492SOL    HW2 5376   6.270   0.250   2.281
 1493SOL     OW 5377   3.908   0.493   6.116
 1493SOL    HW1 5378   3.936   0.537   6.030
 1493SOL    HW2 5379   3.845   0.419   6.096
 1494SOL     OW 5380   5.831   2.550   6.792
 1494SOL    HW1 5381   5.895   2.512   6.860
 1494SOL    HW2 5382   5.882   2.600   6.723
 1495SOL     OW 5383   0.384   4.150   5.492
 1495SOL    HW1 5384   0.343   4.060   5.475
 1495SOL    HW2 5385   0.484   4.142   5.487
 1496SOL     OW 5386   1.377   1.045   0.528
 1496SOL    HW1 5387   1.381   1.078   0.622
 1496SOL    HW2 5388   1.465   1.004   0.504
 1497SOL     OW 5389   5.198   2.963   2.002
 1497SOL    HW1 5390   5.242   3.044   1.963
 1497SOL    HW2 5391   5.156   2.988   2.090
 1498SOL     OW 5392   2.557   4.700   0.692
 1498SOL    HW1 5393   2.480   4.715   0.630
 1498SOL    HW2 5394   2.642   4.720   0.643
 1499SOL     OW 5395   0.485   2.678   5.845
 1499SOL    HW1 5396   0.547   2.704   5.771
 1499SOL    HW2 5397   0.415   2.749   5.856
 1500SOL     OW 5398   0.284   6.629   0.420
 1500SOL    HW1 5399   0.258   6.721   0.394
 1500SOL    HW2 5400   0.204   6.579   0.453
 1501SOL     OW 5401   5.887   1.851   6.315
 1501SOL    HW1 5402   5.914   1.947   6.304
 1501SOL    HW2 5403   5.951   1.805   6.376
 1502SOL     OW 5404   4.856   0.852   0.018
 1502SOL    HW1 5405   4.889   0.765   7.009
 1502SOL    HW2 5406   4.929   0.896   0.070
 1503SOL     OW 5407   1.423   3.233   2.297
 1503SOL    HW1 5408   1.374   3.146   2.300
 1503SOL    HW2 5409   1.516   3.220   2.333
 1504SOL     OW 5410   0.370   0.004   4.049
 1504SOL    HW1 5411   0.448   6.993   4.097
 1504SOL    HW2 5412   0.403   0.055   3.969
 1505SOL     OW 5413   4.703   0.153   5.735
 1505SOL    HW1 5414   4.802   0.144   5.740
 1505SOL    HW2 5415   4.671   0.211   5.811
 1506SOL     OW 5416   0.953   6.917   0.059
 1506SOL    HW1 5417   0.903   6.910   7.000
 1506SOL    HW2 5418   0.929   7.004   0.104
 1507SOL     OW 5419   0.076   2.015   5.696
 1507SOL    HW1 5420   0.056   2.104   5.737
 1507SOL    HW2 5421   0.169   1.988   5.719
 1508SOL     OW 5422   5.974   1.389   1.455
 1508SOL    HW1 5423   5.882   1.356   1.437
 1508SOL    HW2 5424   6.022   1.323   1.513
 1509SOL     OW 5425   4.636   2.156   4.983
 1509SOL    HW1 5426   4.578   2.093   4.932
 1509SOL    HW2 5427   4.714   2.183   4.926
 1510SOL     OW 5428   5.534   7.014   4.963
 1510SOL    HW1 5429   5.487   7.006   4.875
 1510SOL    HW2 5430   5.543   6.924   5.005
 1511SOL     OW 5431   4.088   3.773   4.164
 1511SOL    HW1 5432   4.048   3.752   4.075
 1511SOL    HW2 5433   4.186   3.752   4.164
 1512SOL     OW 5434   6.623   5.713   1.557
 1512SOL    HW1 5435   6.545   5.650   1.554
 1512SOL    HW2 5436   6.689   5.688   1.486
 1513SOL     OW 5437   3.754   0.533   4.538
 1513SOL    HW1 5438   3.783   0.482   4.619
 1513SOL    HW2 5439   3.727   0.625   4.564
 1514SOL     OW 5440   3.819   3.006   5.895
 1514SOL    HW1 5441   3.889   2.936   5.880
 1514SOL    HW2 5442   3.846   3.065   5.971
 1515SOL     OW 5443   5.538   1.650   2.670
 1515SOL    HW1 5444   5.523   1.742   2.634
 1515SOL    HW2 5445   5.454   1.617   2.714
 1516SOL     OW 5446   6.246   5.531   5.999
 1516SOL    HW1 5447   6.206   5.620   5.975
 1516SOL    HW2 5448   6.184   5.482   6.060
 1517SOL     OW 5449   4.343   5.964   2.625
 1517SOL    HW1 5450   4.286   6.003   2.553
 1517SOL    HW2 5451   4.379   5.875   2.595
 1518SOL     OW 5452   0.034   1.824   0.463
 1518SOL    HW1 5453   7.015   1.865   0.384
 1518SOL    HW2 5454   0.035   1.888   0.539
 1519SOL     OW 5455   6.329   4.366   1.339
 1519SOL    HW1 5456   6.337   4.411   1.428
 1519SOL    HW2 5457   6.253   4.405   1.288
 1520SOL     OW 5458   0.406   4.281   1.549
 1520SOL    HW1 5459   0.475   4.234   1.492
 1520SOL    HW2 5460   0.329   4.308   1.491
 1521SOL     OW 5461   2.551   4.461   6.426
 1521SOL    HW1 5462   2.453   4.472   6.444
 1521SOL    HW2 5463   2.593   4.411   6.502
 1522SOL     OW 5464   6.202   5.718   4.692
 1522SOL    HW1 5465   6.225   5.627   4.726
 1522SOL    HW2 5466   6.256   5.787   4.740
 1523SOL     OW 5467   3.661   6.507   0.047
 1523SOL    HW1 5468   3.662   6.587   0.107
 1523SOL    HW2 5469   3.751   6.463   0.050
 1524SOL     OW 5470   2.644   1.845   1.670
 1524SOL    HW1 5471   2.691   1.763   1.701
 1524SOL    HW2 5472   2.611   1.897   1.748
 1525SOL     OW 5473   6.221   3.050   0.657
 1525SOL    HW1 5474   6.158   3.011   0.589
 1525SOL    HW2 5475   6.201   3.011   0.747
 1526SOL     OW 5476   6.952   0.976   6.986
 1526SOL    HW1 5477   6.981   0.906   6.921
 1526SOL    HW2 5478   6.864   1.015   6.957
 1527SOL     OW 5479   3.426   1.380   4.096
 1527SOL    HW1 5480   3.326   1.376   4.094
 1527SOL    HW2 5481   3.456   1.475   4.088
 1528SOL     OW 5482   4.348   4.801   2.934
 1528SOL    HW1 5483   4.431   4.793   2.880
 1528SOL    HW2 5484   4.268   4.780   2.877
 1529SOL     OW 5485   4.461   0.577   6.912
 1529SOL    HW1 5486   4.371   0.540   6.935
 1529SOL    HW2 5487   4.494   0.634   6.987
 1530SOL     OW 5488   3.739   1.566   2.125
 1530SOL    HW1 5489   3.723   1.537   2.031
 1530SOL    HW2 5490   3.677   1.641   2.148
 1531SOL     OW 5491   4.908   0.794   5.029
 1531SOL    HW1 5492   4.959   0.720   4.985
 1531SOL    HW2 5493   4.902   0.872   4.967
 1532SOL     OW 5494   3.667   4.151   5.980
 1532SOL    HW1 5495   3.605   4.202   6.040
 1532SOL    HW2 5496   3.634   4.056   5.972
 1533SOL     OW 5497   6.210   4.982   0.470
 1533SOL    HW1 5498   6.264   5.061   0.500
 1533SOL    HW2 5499   6.130   5.013   0.420
 1534SOL     OW 5500   2.948   6.164   6.016
 1534SOL    HW1 5501   2.921   6.187   6.110
 1534SOL    HW2 5502   3.034   6.210   5.994
 1535SOL     OW 5503   5.419   5.814   4.245
 1535SOL    HW1 5504   5.437   5.863   4.330
 1535SOL    HW2 5505   5.423   5.877   4.168
 1536SOL     OW 5506   4.090   5.190   6.117
 1536SOL    HW1 5507   4.067   5.264   6.054
 1536SOL    HW2 5508   4.176   5.211   6.164
 1537SOL     OW 5509   4.473   5.526   3.951
 1537SOL    HW1 5510   4.568   5.501   3.932
 1537SOL    HW2 5511   4.459   5.532   4.050
 1538SOL     OW 5512   3.237   6.819   6.776
 1538SOL    HW1 5513   3.141   6.847   6.778
 1538SOL    HW2 5514   3.246   6.734   6.724
 1539SOL     OW 5515   4.795   3.546   1.615
 1539SOL    HW1 5516   4.736   3.626   1.621
 1539SOL    HW2 5517   4.787   3.492   1.699
 1540SOL     OW 5518   0.133   6.843   5.512
 1540SOL    HW1 5519   0.073   6.766   5.533
 1540SOL    HW2 5520   0.191   6.821   5.434
 1541SOL     OW 5521   3.329   2.960   4.243
 1541SOL    HW1 5522   3.294   2.927   4.155
 1541SOL    HW2 5523   3.271   3.033   4.277
 1542SOL     OW 5524   6.314   0.626   2.764
 1542SOL    HW1 5525   6.276   0.559   2.827
 1542SOL    HW2 5526   6.364   0.580   2.691
 1543SOL     OW 5527   3.679   5.016   4.750
 1543SOL    HW1 5528   3.679   5.004   4.650
 1543SOL    HW2 5529   3.602   5.075   4.776
 1544SOL     OW 5530   3.203   3.628   3.237
 1544SOL    HW1 5531   3.212   3.561   3.163
 1544SOL    HW2 5532   3.245   3.591   3.320
 1545SOL     OW 5533   4.642   0.338   3.022
 1545SOL    HW1 5534   4.630   0.399   3.100
 1545SOL    HW2 5535   4.562   0.277   3.015
 1546SOL     OW 5536   4.952   6.910   5.553
 1546SOL    HW1 5537   4.872   6.891   5.611
 1546SOL    HW2 5538   4.943   6.861   5.467
 1547SOL     OW 5539   1.986   4.021   0.990
 1547SOL    HW1 5540   1.984   3.931   1.035
 1547SOL    HW2 5541   2.074   4.034   0.945
 1548SOL     OW 5542   5.627   4.052   6.811
 1548SOL    HW1 5543   5.597   4.123   6.747
 1548SOL    HW2 5544   5.702   4.087   6.867
 1549SOL     OW 5545   4.014   1.734   1.403
 1549SOL    HW1 5546   3.984   1.653   1.353
 1549SOL    HW2 5547   3.985   1.728   1.499
 1550SOL     OW 5548   2.783   3.458   0.393
 1550SOL    HW1 5549   2.851   3.527   0.418
 1550SOL    HW2 5550   2.701   3.469   0.450
 1551SOL     OW 5551   2.038   3.943   6.460
 1551SOL    HW1 5552   2.061   3.931   6.557
 1551SOL    HW2 5553   2.052   4.038   6.434
 1552SOL     OW 5554   2.419   5.647   0.808
 1552SOL    HW1 5555   2.479   5.568   0.813
 1552SOL    HW2 5556   2.459   5.716   0.747
 1553SOL     OW 5557   5.936   1.572   6.941
 1553SOL    HW1 5558   5.856   1.600   6.887
 1553SOL    HW2 5559   5.915   1.580   0.010
 1554SOL     OW 5560   3.361   1.697   3.522
 1554SOL    HW1 5561   3.272   1.683   3.477
 1554SOL    HW2 5562   3.396   1.787   3.499
 1555SOL     OW 5563   5.795   3.260   0.298
 1555SOL    HW1 5564   5.732   3.211   0.238
 1555SOL    HW2 5565   5.785   3.226   0.391
 1556SOL     OW 5566   2.582   2.478   0.018
 1556SOL    HW1 5567   2.612   2.403   6.987
 1556SOL    HW2 5568   2.658   2.542   0.032
 1557SOL     OW 5569   1.849   2.279   4.642
 1557SOL    HW1 5570   1.922   2.349   4.641
 1557SOL    HW2 5571   1.786   2.297   4.717
 1558SOL     OW 5572   5.990   0.567   4.563
 1558SOL    HW1 5573   5.931   0.524   4.632
 1558SOL    HW2 5574   6.085   0.543   4.580
 1559SOL     OW 5575   1.878   2.938   6.578
 1559SOL    HW1 5576   1.798   2.995   6.595
 1559SOL    HW2 5577   1.955   2.997   6.550
 1560SOL     OW 5578   6.901   0.952   5.988
 1560SOL    HW1 5579   6.904   0.876   5.924
 1560SOL    HW2 5580   6.969   1.021   5.961
 1561SOL     OW 5581   5.646   6.561   3.714
 1561SOL    HW1 5582   5.608   6.612   3.637
 1561SOL    HW2 5583   5.697   6.482   3.680
 1562SOL     OW 5584   5.013   6.048   2.620
 1562SOL    HW1 5585   4.942   6.107   2.657
 1562SOL    HW2 5586   5.079   6.103   2.568
 1563SOL     OW 5587   2.425   0.270   4.871
 1563SOL    HW1 5588   2.349   0.244   4.811
 1563SOL    HW2 5589   2.487   0.331   4.822
 1564SOL     OW 5590   1.556   1.929   3.420
 1564SOL    HW1 5591   1.506   1.845   3.401
 1564SOL    HW2 5592   1.609   1.955   3.339
 1565SOL     OW 5593   4.869   4.450   3.476
 1565SOL    HW1 5594   4.795   4.413   3.532
 1565SOL    HW2 5595   4.847   4.544   3.449
 1566SOL     OW 5596   5.811   4.344   2.864
 1566SOL    HW1 5597   5.734   4.368   2.804
 1566SOL    HW2 5598   5.783   4.269   2.925
 1567SOL     OW 5599   6.610   6.135   0.774
 1567SOL    HW1 5600   6.641   6.052   0.729
 1567SOL    HW2 5601   6.689   6.192   0.797
 1568SOL     OW 5602   1.602   6.912   6.808
 1568SOL    HW1 5603   1.684   6.969   6.803
 1568SOL    HW2 5604   1.626   6.822   6.844
 1569SOL     OW 5605   4.815   5.967   3.460
 1569SOL    HW1 5606   4.817   6.060   3.495
 1569SOL    HW2 5607   4.759   5.964   3.377
 1570SOL     OW 5608   1.659   0.487   0.823
 1570SOL    HW1 5609   1.580   0.431   0.800
 1570SOL    HW2 5610   1.631   0.583   0.830
 1571SOL     OW 5611   5.687   2.554   1.067
 1571SOL    HW1 5612   5.680   2.654   1.075
 1571SOL    HW2 5613   5.756   2.521   1.131
 1572SOL     OW 5614   0.328   6.798   1.463
 1572SOL    HW1 5615   0.266   6.721   1.478
 1572SOL    HW2 5616   0.413   6.782   1.514
 1573SOL     OW 5617   5.369   2.215   2.486
 1573SOL    HW1 5618   5.440   2.154   2.521
 1573SOL    HW2 5619   5.286   2.163   2.467
 1574SOL     OW 5620   6.051   1.059   1.951
 1574SOL    HW1 5621   6.144   1.056   1.914
 1574SOL    HW2 5622   6.043   1.134   2.016
 1575SOL     OW 5623   3.324   1.163   0.414
 1575SOL    HW1 5624   3.238   1.178   0.367
 1575SOL    HW2 5625   3.318   1.199   0.507
 1576SOL     OW 5626   6.869   5.781   3.987
 1576SOL    HW1 5627   6.837   5.742   4.073
 1576SOL    HW2 5628   6.959   5.743   3.964
 1577SOL     OW 5629   3.588   1.825   4.288
 1577SOL    HW1 5630   3.504   1.839   4.340
 1577SOL    HW2 5631   3.608   1.907   4.235
 1578SOL     OW 5632   5.949   3.800   5.741
 1578SOL    HW1 5633   6.041   3.810   5.702
 1578SOL    HW2 5634   5.956   3.801   5.841
 1579SOL     OW 5635   0.010   1.771   3.178
 1579SOL    HW1 5636   0.094   1.727   3.212
 1579SOL    HW2 5637   6.994   1.710   3.112
 1580SOL     OW 5638   2.728   3.530   5.293
 1580SOL    HW1 5639   2.693   3.624   5.298
 1580SOL    HW2 5640   2.828   3.531   5.301
 1581SOL     OW 5641   0.061   4.668   5.043
 1581SOL    HW1 5642   0.057   4.768   5.038
 1581SOL    HW2 5643   0.148   4.640   5.083
 1582SOL     OW 5644   1.609   6.487   4.386
 1582SOL    HW1 5645   1.606   6.449   4.479
 1582SOL    HW2 5646   1.520   6.474   4.343
 1583SOL     OW 5647   0.925   3.261   3.720
 1583SOL    HW1 5648   0.981   3.317   3.782
 1583SOL    HW2 5649   0.847   3.224   3.770
 1584SOL     OW 5650   1.577   6.850   4.672
 1584SOL    HW1 5651   1.608   6.900   4.753
 1584SOL    HW2 5652   1.624   6.885   4.591
 1585SOL     OW 5653   5.348   1.484   3.167
 1585SOL    HW1 5654   5.374   1.389   3.182
 1585SOL    HW2 5655   5.362   1.507   3.071
 1586SOL     OW 5656   3.204   4.443   1.087
 1586SOL    HW1 5657   3.279   4.489   1.133
 1586SOL    HW2 5658   3.189   4.353   1.129
 1587SOL     OW 5659   3.080   5.059   0.249
 1587SOL    HW1 5660   3.026   5.016   0.177
 1587SOL    HW2 5661   3.058   5.156   0.253
 1588SOL     OW 5662   4.832   1.060   3.219
 1588SOL    HW1 5663   4.788   1.144   3.249
 1588SOL    HW2 5664   4.780   0.981   3.254
 1589SOL     OW 5665   6.382   4.023   3.096
 1589SOL    HW1 5666   6.319   4.020   3.174
 1589SOL    HW2 5667   6.399   3.930   3.063
 1590SOL     OW 5668   2.706   6.651   5.861
 1590SOL    HW1 5669   2.646   6.619   5.934
 1590SOL    HW2 5670   2.677   6.741   5.830
 1591SOL     OW 5671   0.517   4.915   2.795
 1591SOL    HW1 5672   0.563   4.899   2.882
 1591SOL    HW2 5673   0.544   5.005   2.759
 1592SOL     OW 5674   2.594   4.640   1.497
 1592SOL    HW1 5675   2.618   4.578   1.422
 1592SOL    HW2 5676   2.617   4.597   1.585
 1593SOL     OW 5677   0.983   6.356   4.154
 1593SOL    HW1 5678   0.957   6.446   4.120
 1593SOL    HW2 5679   0.943   6.285   4.096
 1594SOL     OW 5680   0.000   5.310   2.907
 1594SOL    HW1 5681   0.051   5.252   2.970
 1594SOL    HW2 5682   6.952   5.259   2.867
 1595SOL     OW 5683   1.205   5.103   6.632
 1595SOL    HW1 5684   1.105   5.104   6.634
 1595SOL    HW2 5685   1.236   5.093   6.537
 1596SOL     OW 5686   0.961   2.620   5.401
 1596SOL    HW1 5687   0.867   2.591   5.382
 1596SOL    HW2 5688   0.962   2.719   5.419
 1597SOL     OW 5689   2.889   5.802   0.345
 1597SOL    HW1 5690   2.888   5.792   0.444
 1597SOL    HW2 5691   2.904   5.712   0.303
 1598SOL     OW 5692   1.001   3.866   7.013
 1598SOL    HW1 5693   0.902   3.854   7.005
 1598SOL    HW2 5694   1.033   3.925   6.939
 1599SOL     OW 5695   5.095   4.185   5.767
 1599SOL    HW1 5696   5.041   4.269   5.758
 1599SOL    HW2 5697   5.042   4.108   5.730
 1600SOL     OW 5698   5.223   1.865   5.032
 1600SOL    HW1 5699   5.147   1.802   5.050
 1600SOL    HW2 5700   5.192   1.937   4.969
 1601SOL     OW 5701   0.410   5.297   4.770
 1601SOL    HW1 5702   0.370   5.222   4.823
 1601SOL    HW2 5703   0.486   5.261   4.715
 1602SOL     OW 5704   2.148   5.434   4.224
 1602SOL    HW1 5705   2.191   5.422   4.135
 1602SOL    HW2 5706   2.215   5.420   4.297
 1603SOL     OW 5707   0.574   5.872   2.120
 1603SOL    HW1 5708   0.625   5.786   2.118
 1603SOL    HW2 5709   0.558   5.898   2.215
 1604SOL     OW 5710   5.979   4.786   6.913
 1604SOL    HW1 5711   5.915   4.858   6.887
 1604SOL    HW2 5712   5.937   4.730   6.985
 1605SOL     OW 5713   6.105   0.020   1.959
 1605SOL    HW1 5714   6.156   6.992   1.893
 1605SOL    HW2 5715   6.049   6.989   2.017
 1606SOL     OW 5716   4.006   0.200   4.791
 1606SOL    HW1 5717   4.029   0.234   4.882
 1606SOL    HW2 5718   3.911   0.224   4.770
 1607SOL     OW 5719   4.423   2.328   0.649
 1607SOL    HW1 5720   4.416   2.397   0.577
 1607SOL    HW2 5721   4.516   2.328   0.687
 1608SOL     OW 5722   1.591   0.696   5.956
 1608SOL    HW1 5723   1.675   0.738   5.922
 1608SOL    HW2 5724   1.593   0.598   5.941
 1609SOL     OW 5725   4.225   0.869   6.960
 1609SOL    HW1 5726   4.177   0.957   6.965
 1609SOL    HW2 5727   4.163   0.800   6.922
 1610SOL     OW 5728   6.239   4.017   5.222
 1610SOL    HW1 5729   6.240   3.932   5.169
 1610SOL    HW2 5730   6.326   4.026   5.271
 1611SOL     OW 5731   3.450   3.675   1.537
 1611SOL    HW1 5732   3.502   3.701   1.456
 1611SOL    HW2 5733   3.353   3.695   1.522
 1612SOL     OW 5734   3.032   1.250   5.518
 1612SOL    HW1 5735   3.127   1.249   5.549
 1612SOL    HW2 5736   2.994   1.342   5.530
 1613SOL     OW 5737   1.965   6.015   1.748
 1613SOL    HW1 5738   2.017   6.096   1.722
 1613SOL    HW2 5739   2.020   5.958   1.809
 1614SOL     OW 5740   6.399   3.807   0.458
 1614SOL    HW1 5741   6.412   3.842   0.365
 1614SOL    HW2 5742   6.396   3.884   0.522
 1615SOL     OW 5743   6.150   4.517   1.235
 1615SOL    HW1 5744   6.069   4.547   1.286
 1615SOL    HW2 5745   6.181   4.591   1.176
 1616SOL     OW 5746   4.423   2.648   5.843
 1616SOL    HW1 5747   4.469   2.573   5.796
 1616SOL    HW2 5748   4.338   2.615   5.884
 1617SOL     OW 5749   5.855   6.665   1.385
 1617SOL    HW1 5750   5.877   6.762   1.399
 1617SOL    HW2 5751   5.930   6.620   1.337
 1618SOL     OW 5752   0.519   3.900   0.918
 1618SOL    HW1 5753   0.513   3.912   0.818
 1618SOL    HW2 5754   0.444   3.843   0.949
 1619SOL     OW 5755   1.349   1.890   3.975
 1619SOL    HW1 5756   1.327   1.853   3.885
 1619SOL    HW2 5757   1.272   1.944   4.008
 1620SOL     OW 5758   1.908   6.053   0.708
 1620SOL    HW1 5759   2.005   6.073   0.725
 1620SOL    HW2 5760   1.865   6.023   0.794
 1621SOL     OW 5761   0.518   1.326   0.700
 1621SOL    HW1 5762   0.473   1.242   0.671
 1621SOL    HW2 5763   0.483   1.403   0.646
 1622SOL     OW 5764   1.485   2.231   4.292
 1622SOL    HW1 5765   1.551   2.204   4.361
 1622SOL    HW2 5766   1.486   2.330   4.281
 1623SOL     OW 5767   2.654   2.791   6.064
 1623SOL    HW1 5768   2.643   2.694   6.041
 1623SOL    HW2 5769   2.573   2.842   6.034
 1624SOL     OW 5770   3.126   0.874   5.756
 1624SOL    HW1 5771   3.152   0.780   5.734
 1624SOL    HW2 5772   3.028   0.886   5.737
 1625SOL     OW 5773   1.477   6.073   1.988
 1625SOL    HW1 5774   1.421   6.059   1.906
 1625SOL    HW2 5775   1.422   6.053   2.069
 1626SOL     OW 5776   2.794   1.837   6.562
 1626SOL    HW1 5777   2.861   1.810   6.493
 1626SOL    HW2 5778   2.796   1.771   6.637
 1627SOL     OW 5779   6.069   2.618   4.009
 1627SOL    HW1 5780   6.093   2.530   4.051
 1627SOL    HW2 5781   6.092   2.615   3.911
 1628SOL     OW 5782   4.744   5.114   6.720
 1628SOL    HW1 5783   4.793   5.189   6.764
 1628SOL    HW2 5784   4.791   5.028   6.740
 1629SOL     OW 5785   3.607   2.151   4.448
 1629SOL    HW1 5786   3.583   2.101   4.531
 1629SOL    HW2 5787   3.707   2.153   4.438
 1630SOL     OW 5788   1.162   6.291   5.635
 1630SOL    HW1 5789   1.113   6.376   5.656
 1630SOL    HW2 5790   1.230   6.310   5.564
 1631SOL     OW 5791   0.118   1.144   5.891
 1631SOL    HW1 5792   0.176   1.188   5.823
 1631SOL    HW2 5793   0.026   1.182   5.886
 1632SOL     OW 5794   0.578   1.677   6.909
 1632SOL    HW1 5795   0.597   1.598   6.967
 1632SOL    HW2 5796   0.516   1.650   6.835
 1633SOL     OW 5797   5.016   2.137   3.686
 1633SOL    HW1 5798   5.077   2.203   3.641
 1633SOL    HW2 5799   5.066   2.052   3.704
 1634SOL     OW 5800   4.174   5.524   5.553
 1634SOL    HW1 5801   4.080   5.496   5.574
 1634SOL    HW2 5802   4.196   5.607   5.605
 1635SOL     OW 5803   6.259   5.144   5.238
 1635SOL    HW1 5804   6.175   5.090   5.246
 1635SOL    HW2 5805   6.324   5.113   5.307
 1636SOL     OW 5806   2.220   4.420   1.225
 1636SOL    HW1 5807   2.224   4.494   1.157
 1636SOL    HW2 5808   2.146   4.358   1.201
 1637SOL     OW 5809   6.174   0.445   2.905
 1637SOL    HW1 5810   6.088   0.478   2.867
 1637SOL    HW2 5811   6.176   0.463   3.003
 1638SOL     OW 5812   0.585   4.046   3.920
 1638SOL    HW1 5813   0.488   4.024   3.927
 1638SOL    HW2 5814   0.598   4.119   3.854
 1639SOL     OW 5815   4.425   6.430   2.675
 1639SOL    HW1 5816   4.482   6.404   2.597
 1639SOL    HW2 5817   4.328   6.425   2.649
 1640SOL     OW 5818   5.700   1.500   0.811
 1640SOL    HW1 5819   5.746   1.443   0.879
 1640SOL    HW2 5820   5.768   1.549   0.757
 1641SOL     OW 5821   5.358   2.712   3.873
 1641SOL    HW1 5822   5.313   2.801   3.861
 1641SOL    HW2 5823   5.332   2.652   3.797
 1642SOL     OW 5824   6.588   3.439   0.306
 1642SOL    HW1 5825   6.537   3.359   0.338
 1642SOL    HW2 5826   6.620   3.491   0.385
 1643SOL     OW 5827   2.885   5.883   4.055
 1643SOL    HW1 5828   2.846   5.972   4.077
 1643SOL    HW2 5829   2.983   5.893   4.035
 1644SOL     OW 5830   1.888   2.329   1.008
 1644SOL    HW1 5831   1.885   2.296   0.913
 1644SOL    HW2 5832   1.956   2.402   1.016
 1645SOL     OW 5833   3.595   6.380   5.068
 1645SOL    HW1 5834   3.607   6.359   4.971
 1645SOL    HW2 5835   3.534   6.312   5.109
 1646SOL     OW 5836   2.590   5.396   1.137
 1646SOL    HW1 5837   2.639   5.459   1.196
 1646SOL    HW2 5838   2.616   5.302   1.160
 1647SOL     OW 5839   5.516   2.655   4.370
 1647SOL    HW1 5840   5.503   2.693   4.278
 1647SOL    HW2 5841   5.430   2.615   4.402
 1648SOL     OW 5842   6.099   6.204   1.590
 1648SOL    HW1 5843   6.016   6.254   1.563
 1648SOL    HW2 5844   6.174   6.269   1.604
 1649SOL     OW 5845   3.372   0.356   3.446
 1649SOL    HW1 5846   3.322   0.270   3.438
 1649SOL    HW2 5847   3.437   0.349   3.522
 1650SOL     OW 5848   2.727   6.998   4.149
 1650SOL    HW1 5849   2.731   6.960   4.056
 1650SOL    HW2 5850   2.807   6.968   4.201
 1651SOL     OW 5851   0.819   0.552   1.125
 1651SOL    HW1 5852   0.910   0.563   1.085
 1651SOL    HW2 5853   0.762   0.630   1.100
 1652SOL     OW 5854   1.263   2.501   1.625
 1652SOL    HW1 5855   1.241   2.486   1.721
 1652SOL    HW2 5856   1.334   2.437   1.596
 1653SOL     OW 5857   0.625   6.197   1.867
 1653SOL    HW1 5858   0.636   6.257   1.787
 1653SOL    HW2 5859   0.663   6.243   1.948
 1654SOL     OW 5860   0.177   2.663   1.888
 1654SOL    HW1 5861   0.104   2.701   1.831
 1654SOL    HW2 5862   0.253   2.634   1.830
 1655SOL     OW 5863   5.347   3.894   6.344
 1655SOL    HW1 5864   5.366   3.971   6.284
 1655SOL    HW2 5865   5.421   3.884   6.410
 1656SOL     OW 5866   1.650   4.613   3.077
 1656SOL    HW1 5867   1.614   4.519   3.082
 1656SOL    HW2 5868   1.730   4.615   3.017
 1657SOL     OW 5869   6.974   1.222   4.595
 1657SOL    HW1 5870   0.046   1.211   4.593
 1657SOL    HW2 5871   6.949   1.308   4.551
 1658SOL     OW 5872   0.606   6.974   3.450
 1658SOL    HW1 5873   0.571   6.999   3.360
 1658SOL    HW2 5874   0.586   6.878   3.469
 1659SOL     OW 5875   3.930   2.144   6.135
 1659SOL    HW1 5876   4.015   2.164   6.184
 1659SOL    HW2 5877   3.911   2.046   6.141
 1660SOL     OW 5878   1.836   4.721   4.288
 1660SOL    HW1 5879   1.899   4.645   4.274
 1660SOL    HW2 5880   1.886   4.799   4.326
 1661SOL     OW 5881   3.389   1.470   1.645
 1661SOL    HW1 5882   3.359   1.566   1.635
 1661SOL    HW2 5883   3.412   1.433   1.555
 1662SOL     OW 5884   6.063   1.164   3.601
 1662SOL    HW1 5885   6.072   1.228   3.525
 1662SOL    HW2 5886   6.092   1.208   3.686
 1663SOL     OW 5887   2.297   1.400   2.624
 1663SOL    HW1 5888   2.229   1.470   2.604
 1663SOL    HW2 5889   2.383   1.422   2.578
 1664SOL     OW 5890   1.296   0.083   4.026
 1664SOL    HW1 5891   1.311   0.179   4.003
 1664SOL    HW2 5892   1.214   0.050   3.978
 1665SOL     OW 5893   6.880   1.703   2.726
 1665SOL    HW1 5894   6.844   1.665   2.811
 1665SOL    HW2 5895   6.833   1.661   2.648
 1666SOL     OW 5896   5.938   3.734   0.632
 1666SOL    HW1 5897   6.001   3.761   0.559
 1666SOL    HW2 5898   5.847   3.770   0.612
 1667SOL     OW 5899   5.629   6.703   0.766
 1667SOL    HW1 5900   5.680   6.677   0.847
 1667SOL    HW2 5901   5.687   6.759   0.706
 1668SOL     OW 5902   4.989   6.362   5.903
 1668SOL    HW1 5903   4.971   6.430   5.974
 1668SOL    HW2 5904   4.941   6.277   5.925
 1669SOL     OW 5905   6.406   6.829   0.504
 1669SOL    HW1 5906   6.483   6.811   0.566
 1669SOL    HW2 5907   6.347   6.748   0.501
 1670SOL     OW 5908   0.133   5.762   5.970
 1670SOL    HW1 5909   0.184   5.839   5.932
 1670SOL    HW2 5910   0.049   5.749   5.918
 1671SOL     OW 5911   4.390   2.870   0.795
 1671SOL    HW1 5912   4.325   2.944   0.811
 1671SOL    HW2 5913   4.402   2.857   0.697
 1672SOL     OW 5914   1.917   4.032   2.534
 1672SOL    HW1 5915   1.918   4.090   2.615
 1672SOL    HW2 5916   1.826   4.032   2.493
 1673SOL     OW 5917   0.634   2.428   4.595
 1673SOL    HW1 5918   0.687   2.359   4.546
 1673SOL    HW2 5919   0.665   2.519   4.569
 1674SOL     OW 5920   1.617   3.986   1.253
 1674SOL    HW1 5921   1.709   3.958   1.283
 1674SOL    HW2 5922   1.568   3.906   1.218
 1675SOL     OW 5923   4.313   6.928   6.214
 1675SOL    HW1 5924   4.280   6.999   6.276
 1675SOL    HW2 5925   4.356   6.971   6.135
 1676SOL     OW 5926   3.516   1.199   2.447
 1676SOL    HW1 5927   3.420   1.222   2.458
 1676SOL    HW2 5928   3.557   1.259   2.378
 1677SOL     OW 5929   4.515   2.460   5.684
 1677SOL    HW1 5930   4.567   2.385   5.725
 1677SOL    HW2 5931   4.560   2.490   5.600
 1678SOL     OW 5932   5.205   4.690   4.509
 1678SOL    HW1 5933   5.268   4.616   4.532
 1678SOL    HW2 5934   5.233   4.732   4.423
 1679SOL     OW 5935   2.269   3.569   5.507
 1679SOL    HW1 5936   2.268   3.636   5.432
 1679SOL    HW2 5937   2.355   3.518   5.504
 1680SOL     OW 5938   1.041   1.393   4.091
 1680SOL    HW1 5939   1.087   1.308   4.065
 1680SOL    HW2 5940   1.074   1.468   4.034
 1681SOL     OW 5941   6.622   5.932   1.026
 1681SOL    HW1 5942   6.562   5.865   1.069
 1681SOL    HW2 5943   6.567   6.010   0.994
 1682SOL     OW 5944   0.240   3.160   5.024
 1682SOL    HW1 5945   0.276   3.090   4.962
 1682SOL    HW2 5946   0.141   3.166   5.013
 1683SOL     OW 5947   3.822   5.613   1.182
 1683SOL    HW1 5948   3.845   5.528   1.228
 1683SOL    HW2 5949   3.904   5.650   1.137
 1684SOL     OW 5950   1.146   6.548   2.664
 1684SOL    HW1 5951   1.064   6.544   2.721
 1684SOL    HW2 5952   1.166   6.457   2.628
 1685SOL     OW 5953   2.795   1.455   6.323
 1685SOL    HW1 5954   2.840   1.402   6.395
 1685SOL    HW2 5955   2.756   1.538   6.363
 1686SOL     OW 5956   2.460   5.144   5.605
 1686SOL    HW1 5957   2.427   5.237   5.618
 1686SOL    HW2 5958   2.513   5.116   5.685
 1687SOL     OW 5959   1.978   3.471   1.278
 1687SOL    HW1 5960   2.066   3.449   1.235
 1687SOL    HW2 5961   1.989   3.473   1.377
 1688SOL     OW 5962   1.662   2.605   3.510
 1688SOL    HW1 5963   1.709   2.518   3.520
 1688SOL    HW2 5964   1.648   2.646   3.600
 1689SOL     OW 5965   3.613   0.737   1.985
 1689SOL    HW1 5966   3.538   0.735   1.919
 1689SOL    HW2 5967   3.598   0.809   2.052
 1690SOL     OW 5968   1.226   2.984   3.231
 1690SOL    HW1 5969   1.295   3.055   3.243
 1690SOL    HW2 5970   1.161   3.012   3.161
 1691SOL     OW 5971   4.870   3.733   2.989
 1691SOL    HW1 5972   4.823   3.818   2.963
 1691SOL    HW2 5973   4.869   3.724   3.088
 1692SOL     OW 5974   6.482   6.841   1.434
 1692SOL    HW1 5975   6.442   6.750   1.444
 1692SOL    HW2 5976   6.571   6.843   1.479
 1693SOL     OW 5977   1.089   2.534   2.133
 1693SOL    HW1 5978   1.049   2.624   2.121
 1693SOL    HW2 5979   1.021   2.471   2.171
 1694SOL     OW 5980   4.423   6.756   4.221
 1694SOL    HW1 5981   4.444   6.849   4.193
 1694SOL    HW2 5982   4.500   6.718   4.273
 1695SOL     OW 5983   2.458   1.143   4.924
 1695SOL    HW1 5984   2.406   1.208   4.979
 1695SOL    HW2 5985   2.504   1.078   4.985
 1696SOL     OW 5986   5.639   5.305   0.761
 1696SOL    HW1 5987   5.588   5.236   0.710
 1696SOL    HW2 5988   5.575   5.365   0.809
 1697SOL     OW 5989   6.678   6.737   1.832
 1697SOL    HW1 5990   6.718   6.737   1.740
 1697SOL    HW2 5991   6.578   6.737   1.825
 1698SOL     OW 5992   4.367   1.584   0.777
 1698SOL    HW1 5993   4.416   1.641   0.710
 1698SOL    HW2 5994   4.409   1.494   0.780
 1699SOL     OW 5995   3.116   1.486   2.290
 1699SOL    HW1 5996   3.172   1.567   2.273
 1699SOL    HW2 5997   3.096   1.440   2.203
 1700SOL     OW 5998   6.491   2.468   3.819
 1700SOL    HW1 5999   6.496   2.538   3.747
 1700SOL    HW2 6000   6.584   2.435   3.839
 1701SOL     OW 6001   4.826   3.075   4.995
 1701SOL    HW1 6002   4.799   3.013   4.922
 1701SOL    HW2 6003   4.786   3.044   5.082
 1702SOL     OW 6004   6.933   3.693   0.622
 1702SOL    HW1 6005   7.021   3.687   0.574
 1702SOL    HW2 6006   6.898   3.787   0.616
 1703SOL     OW 6007   3.844   3.928   3.334
 1703SOL    HW1 6008   3.869   3.911   3.238
 1703SOL    HW2 6009   3.750   3.961   3.339
 1704SOL     OW 6010   0.652   1.264   1.045
 1704SOL    HW1 6011   0.655   1.310   0.956
 1704SOL    HW2 6012   0.722   1.193   1.048
 1705SOL     OW 6013   3.562   1.968   1.974
 1705SOL    HW1 6014   3.468   1.985   1.944
 1705SOL    HW2 6015   3.611   2.055   1.984
 1706SOL     OW 6016   4.261   6.316   1.138
 1706SOL    HW1 6017   4.355   6.334   1.109
 1706SOL    HW2 6018   4.258   6.229   1.189
 1707SOL     OW 6019   4.296   1.152   2.313
 1707SOL    HW1 6020   4.278   1.091   2.236
 1707SOL    HW2 6021   4.395   1.166   2.321
 1708SOL     OW 6022   5.410   5.509   2.355
 1708SOL    HW1 6023   5.332   5.525   2.416
 1708SOL    HW2 6024   5.492   5.492   2.410
 1709SOL     OW 6025   3.025   6.065   1.978
 1709SOL    HW1 6026   3.074   6.152   1.973
 1709SOL    HW2 6027   2.951   6.064   1.911
 1710SOL     OW 6028   5.798   4.524   3.907
 1710SOL    HW1 6029   5.889   4.531   3.948
 1710SOL    HW2 6030   5.794   4.582   3.826
 1711SOL     OW 6031   1.358   4.648   5.340
 1711SOL    HW1 6032   1.275   4.703   5.343
 1711SOL    HW2 6033   1.336   4.555   5.309
 1712SOL     OW 6034   0.473   3.268   6.379
 1712SOL    HW1 6035   0.449   3.173   6.363
 1712SOL    HW2 6036   0.514   3.307   6.297
 1713SOL     OW 6037   3.341   1.727   1.114
 1713SOL    HW1 6038   3.441   1.725   1.116
 1713SOL    HW2 6039   3.307   1.652   1.058
 1714SOL     OW 6040   4.167   1.619   5.974
 1714SOL    HW1 6041   4.253   1.569   5.989
 1714SOL    HW2 6042   4.096   1.581   6.033
 1715SOL     OW 6043   6.565   3.643   2.688
 1715SOL    HW1 6044   6.511   3.727   2.685
 1715SOL    HW2 6045   6.525   3.576   2.625
 1716SOL     OW 6046   5.488   6.654   1.600
 1716SOL    HW1 6047   5.399   6.610   1.610
 1716SOL    HW2 6048   5.516   6.693   1.688
 1717SOL     OW 6049   1.923   6.539   6.637
 1717SOL    HW1 6050   1.921   6.637   6.615
 1717SOL    HW2 6051   1.867   6.489   6.571
 1718SOL     OW 6052   1.661   2.038   0.733
 1718SOL    HW1 6053   1.609   2.067   0.813
 1718SOL    HW2 6054   1.744   1.990   0.763
 1719SOL     OW 6055   2.651   4.419   1.353
 1719SOL    HW1 6056   2.613   4.387   1.267
 1719SOL    HW2 6057   2.748   4.396   1.358
 1720SOL     OW 6058   6.754   1.303   1.561
 1720SOL    HW1 6059   6.796   1.216   1.588
 1720SOL    HW2 6060   6.693   1.287   1.483
 1721SOL     OW 6061   1.525   6.794   2.906
 1721SOL    HW1 6062   1.451   6.732   2.879
 1721SOL    HW2 6063   1.599   6.742   2.947
 1722SOL     OW 6064   5.433   1.294   3.898
 1722SOL    HW1 6065   5.346   1.286   3.850
 1722SOL    HW2 6066   5.471   1.385   3.883
 1723SOL     OW 6067   6.781   2.353   3.480
 1723SOL    HW1 6068   6.870   2.375   3.519
 1723SOL    HW2 6069   6.721   2.433   3.485
 1724SOL     OW 6070   5.856   1.835   0.622
 1724SOL    HW1 6071   5.951   1.806   0.610
 1724SOL    HW2 6072   5.797   1.777   0.566
 1725SOL     OW 6073   3.181   4.592   0.176
 1725SOL    HW1 6074   3.145   4.518   0.119
 1725SOL    HW2 6075   3.108   4.629   0.233
 1726SOL     OW 6076   0.291   4.627   5.693
 1726SOL    HW1 6077   0.220   4.628   5.764
 1726SOL    HW2 6078   0.298   4.535   5.655
 1727SOL     OW 6079   3.536   2.906   4.510
 1727SOL    HW1 6080   3.514   2.843   4.585
 1727SOL    HW2 6081   3.493   2.873   4.426
 1728SOL     OW 6082   5.328   5.072   4.868
 1728SOL    HW1 6083   5.257   5.006   4.894
 1728SOL    HW2 6084   5.342   5.068   4.770
 1729SOL     OW 6085   2.054   3.728   4.107
 1729SOL    HW1 6086   2.008   3.771   4.184
 1729SOL    HW2 6087   2.060   3.793   4.031
 1730SOL     OW 6088   6.614   0.813   4.761
 1730SOL    HW1 6089   6.654   0.764   4.838
 1730SOL    HW2 6090   6.613   0.911   4.781
 1731SOL     OW 6091   0.759   5.340   2.259
 1731SOL    HW1 6092   0.833   5.281   2.293
 1731SOL    HW2 6093   0.798   5.415   2.206
 1732SOL     OW 6094   2.593   4.716   5.929
 1732SOL    HW1 6095   2.557   4.647   5.991
 1732SOL    HW2 6096   2.540   4.800   5.939
 1733SOL     OW 6097   0.943   3.803   2.845
 1733SOL    HW1 6098   0.903   3.719   2.880
 1733SOL    HW2 6099   1.018   3.832   2.905
 1734SOL     OW 6100   4.598   2.972   1.580
 1734SOL    HW1 6101   4.694   2.968   1.552
 1734SOL    HW2 6102   4.592   2.988   1.678
 1735SOL     OW 6103   5.670   5.276   1.367
 1735SOL    HW1 6104   5.648   5.372   1.382
 1735SOL    HW2 6105   5.615   5.219   1.428
 1736SOL     OW 6106   4.776   1.519   0.517
 1736SOL    HW1 6107   4.854   1.488   0.462
 1736SOL    HW2 6108   4.694   1.524   0.460
 1737SOL     OW 6109   2.967   0.659   4.198
 1737SOL    HW1 6110   2.916   0.744   4.207
 1737SOL    HW2 6111   2.991   0.644   4.102
 1738SOL     OW 6112   2.182   2.323   3.653
 1738SOL    HW1 6113   2.101   2.379   3.669
 1738SOL    HW2 6114   2.198   2.314   3.555
 1739SOL     OW 6115   4.878   2.635   5.470
 1739SOL    HW1 6116   4.791   2.591   5.446
 1739SOL    HW2 6117   4.926   2.660   5.386
 1740SOL     OW 6118   6.948   1.777   6.664
 1740SOL    HW1 6119   6.986   1.759   6.573
 1740SOL    HW2 6120   6.893   1.860   6.661
 1741SOL     OW 6121   2.460   0.804   2.450
 1741SOL    HW1 6122   2.425   0.736   2.385
 1741SOL    HW2 6123   2.552   0.831   2.423
 1742SOL     OW 6124   4.423   6.155   5.941
 1742SOL    HW1 6125   4.352   6.167   6.010
 1742SOL    HW2 6126   4.442   6.243   5.897
 1743SOL     OW 6127   2.067   1.520   1.909
 1743SOL    HW1 6128   2.079   1.548   1.813
 1743SOL    HW2 6129   2.139   1.455   1.934
 1744SOL     OW 6130   0.636   6.857   1.804
 1744SOL    HW1 6131   0.661   6.901   1.718
 1744SOL    HW2 6132   0.582   6.921   1.859
 1745SOL     OW 6133   0.137   0.977   4.425
 1745SOL    HW1 6134   0.197   0.941   4.354
 1745SOL    HW2 6135   0.044   0.943   4.410
 1746SOL     OW 6136   1.929   5.633   5.711
 1746SOL    HW1 6137   1.832   5.639   5.689
 1746SOL    HW2 6138   1.940   5.587   5.799
 1747SOL     OW 6139   4.876   6.601   2.563
 1747SOL    HW1 6140   4.963   6.571   2.524
 1747SOL    HW2 6141   4.803   6.588   2.497
 1748SOL     OW 6142   0.071   0.366   3.578
 1748SOL    HW1 6143   0.105   0.455   3.546
 1748SOL    HW2 6144   0.067   0.366   3.678
 1749SOL     OW 6145   3.281   6.635   5.087
 1749SOL    HW1 6146   3.294   6.616   4.989
 1749SOL    HW2 6147   3.273   6.549   5.137
 1750SOL     OW 6148   5.535   1.015   3.615
 1750SOL    HW1 6149   5.559   1.070   3.695
 1750SOL    HW2 6150   5.617   0.969   3.580
 1751SOL     OW 6151   3.355   5.293   4.640
 1751SOL    HW1 6152   3.398   5.246   4.716
 1751SOL    HW2 6153   3.255   5.288   4.649
 1752SOL     OW 6154   6.828   2.327   2.338
 1752SOL    HW1 6155   6.804   2.230   2.327
 1752SOL    HW2 6156   6.830   2.350   2.435
 1753SOL     OW 6157   0.406   1.541   0.579
 1753SOL    HW1 6158   0.337   1.562   0.510
 1753SOL    HW2 6159   0.441   1.626   0.619
 1754SOL     OW 6160   3.365   3.217   1.608
 1754SOL    HW1 6161   3.392   3.121   1.608
 1754SOL    HW2 6162   3.373   3.254   1.516
 1755SOL     OW 6163   5.888   4.954   1.854
 1755SOL    HW1 6164   5.791   4.957   1.881
 1755SOL    HW2 6165   5.906   5.028   1.790
 1756SOL     OW 6166   4.225   4.395   6.213
 1756SOL    HW1 6167   4.132   4.362   6.230
 1756SOL    HW2 6168   4.290   4.321   6.232
 1757SOL     OW 6169   2.528   6.123   4.710
 1757SOL    HW1 6170   2.435   6.161   4.707
 1757SOL    HW2 6171   2.526   6.027   4.682
 1758SOL     OW 6172   2.426   0.252   3.338
 1758SOL    HW1 6173   2.484   0.330   3.313
 1758SOL    HW2 6174   2.442   0.176   3.275
 1759SOL     OW 6175   1.479   5.206   6.674
 1759SOL    HW1 6176   1.553   5.186   6.610
 1759SOL    HW2 6177   1.406   5.139   6.663
 1760SOL     OW 6178   6.561   1.467   1.709
 1760SOL    HW1 6179   6.604   1.388   1.666
 1760SOL    HW2 6180   6.559   1.455   1.808
 1761SOL     OW 6181   0.068   0.081   0.351
 1761SOL    HW1 6182   7.016   0.055   0.298
 1761SOL    HW2 6183   0.138   0.010   0.343
 1762SOL     OW 6184   6.230   1.287   5.171
 1762SOL    HW1 6185   6.308   1.341   5.141
 1762SOL    HW2 6186   6.257   1.191   5.177
 1763SOL     OW 6187   1.854   3.783   4.905
 1763SOL    HW1 6188   1.822   3.717   4.837
 1763SOL    HW2 6189   1.947   3.759   4.933
 1764SOL     OW 6190   1.764   4.007   3.098
 1764SOL    HW1 6191   1.853   3.960   3.091
 1764SOL    HW2 6192   1.698   3.946   3.140
 1765SOL     OW 6193   3.466   2.425   6.974
 1765SOL    HW1 6194   3.473   2.346   0.008
 1765SOL    HW2 6195   3.428   2.395   6.886
 1766SOL     OW 6196   4.812   2.928   4.425
 1766SOL    HW1 6197   4.796   3.007   4.484
 1766SOL    HW2 6198   4.857   2.957   4.341
 1767SOL     OW 6199   5.606   3.719   2.631
 1767SOL    HW1 6200   5.516   3.760   2.615
 1767SOL    HW2 6201   5.629   3.726   2.728
 1768SOL     OW 6202   3.688   1.269   4.734
 1768SOL    HW1 6203   3.621   1.219   4.789
 1768SOL    HW2 6204   3.644   1.345   4.687
 1769SOL     OW 6205   4.433   2.397   4.931
 1769SOL    HW1 6206   4.338   2.426   4.939
 1769SOL    HW2 6207   4.448   2.313   4.984
 1770SOL     OW 6208   0.944   5.832   4.675
 1770SOL    HW1 6209   0.922   5.798   4.767
 1770SOL    HW2 6210   1.029   5.884   4.678
 1771SOL     OW 6211   2.807   4.883   6.873
 1771SOL    HW1 6212   2.816   4.787   6.849
 1771SOL    HW2 6213   2.710   4.903   6.891
 1772SOL     OW 6214   3.021   6.324   3.562
 1772SOL    HW1 6215   3.010   6.386   3.639
 1772SOL    HW2 6216   3.041   6.378   3.480
 1773SOL     OW 6217   2.590   5.069   5.821
 1773SOL    HW1 6218   2.668   5.009   5.806
 1773SOL    HW2 6219   2.619   5.151   5.870
 1774SOL     OW 6220   4.187   6.223   1.704
 1774SOL    HW1 6221   4.270   6.217   1.759
 1774SOL    HW2 6222   4.108   6.195   1.759
 1775SOL     OW 6223   1.457   4.488   4.093
 1775SOL    HW1 6224   1.418   4.441   4.014
 1775SOL    HW2 6225   1.385   4.537   4.142
 1776SOL     OW 6226   2.985   0.314   3.981
 1776SOL    HW1 6227   3.065   0.373   3.971
 1776SOL    HW2 6228   3.006   0.224   3.943
 1777SOL     OW 6229   3.110   4.965   5.870
 1777SOL    HW1 6230   3.144   4.959   5.776
 1777SOL    HW2 6231   3.080   5.058   5.888
 1778SOL     OW 6232   4.322   3.594   5.488
 1778SOL    HW1 6233   4.255   3.548   5.430
 1778SOL    HW2 6234   4.275   3.641   5.563
 1779SOL     OW 6235   4.013   0.943   4.552
 1779SOL    HW1 6236   4.006   1.020   4.488
 1779SOL    HW2 6237   4.104   0.904   4.548
 1780SOL     OW 6238   3.088   3.098   6.013
 1780SOL    HW1 6239   3.106   3.086   5.916
 1780SOL    HW2 6240   3.011   3.041   6.041
 1781SOL     OW 6241   5.005   5.753   3.804
 1781SOL    HW1 6242   5.018   5.661   3.841
 1781SOL    HW2 6243   4.969   5.748   3.711
 1782SOL     OW 6244   3.783   1.735   2.856
 1782SOL    HW1 6245   3.853   1.794   2.814
 1782SOL    HW2 6246   3.727   1.695   2.784
 1783SOL     OW 6247   1.346   5.065   6.382
 1783SOL    HW1 6248   1.329   4.977   6.338
 1783SOL    HW2 6249   1.445   5.079   6.391
 1784SOL     OW 6250   3.366   1.114   5.486
 1784SOL    HW1 6251   3.331   1.142   5.576
 1784SOL    HW2 6252   3.435   1.043   5.499
 1785SOL     OW 6253   6.291   4.694   3.364
 1785SOL    HW1 6254   6.283   4.788   3.396
 1785SOL    HW2 6255   6.288   4.631   3.442
 1786SOL     OW 6256   1.760   2.367   0.616
 1786SOL    HW1 6257   1.755   2.441   0.683
 1786SOL    HW2 6258   1.803   2.287   0.657
 1787SOL     OW 6259   2.377   0.752   4.875
 1787SOL    HW1 6260   2.459   0.807   4.886
 1787SOL    HW2 6261   2.297   0.804   4.907
 1788SOL     OW 6262   3.490   3.216   0.700
 1788SOL    HW1 6263   3.489   3.224   0.799
 1788SOL    HW2 6264   3.486   3.119   0.674
 1789SOL     OW 6265   6.228   2.489   3.274
 1789SOL    HW1 6266   6.273   2.403   3.296
 1789SOL    HW2 6267   6.135   2.488   3.313
 1790SOL     OW 6268   4.135   6.188   4.188
 1790SOL    HW1 6269   4.232   6.210   4.181
 1790SOL    HW2 6270   4.092   6.250   4.254
 1791SOL     OW 6271   6.462   0.847   3.823
 1791SOL    HW1 6272   6.373   0.887   3.848
 1791SOL    HW2 6273   6.474   0.854   3.724
 1792SOL     OW 6274   0.018   2.880   4.943
 1792SOL    HW1 6275   7.005   2.940   5.012
 1792SOL    HW2 6276   6.982   2.865   4.869
 1793SOL     OW 6277   6.951   6.648   3.722
 1793SOL    HW1 6278   6.950   6.689   3.813
 1793SOL    HW2 6279   0.007   6.595   3.711
 1794SOL     OW 6280   5.687   6.138   6.420
 1794SOL    HW1 6281   5.602   6.094   6.390
 1794SOL    HW2 6282   5.690   6.232   6.384
 1795SOL     OW 6283   1.307   2.643   1.135
 1795SOL    HW1 6284   1.276   2.620   1.227
 1795SOL    HW2 6285   1.392   2.695   1.141
 1796SOL     OW 6286   2.214   0.660   4.238
 1796SOL    HW1 6287   2.219   0.699   4.329
 1796SOL    HW2 6288   2.164   0.573   4.242
 1797SOL     OW 6289   1.650   0.231   6.703
 1797SOL    HW1 6290   1.664   0.297   6.629
 1797SOL    HW2 6291   1.599   0.275   6.777
 1798SOL     OW 6292   5.567   2.240   3.968
 1798SOL    HW1 6293   5.595   2.273   3.877
 1798SOL    HW2 6294   5.474   2.202   3.962
 1799SOL     OW 6295   6.500   1.292   5.972
 1799SOL    HW1 6296   6.570   1.314   5.903
 1799SOL    HW2 6297   6.532   1.323   6.062
 1800SOL     OW 6298   3.900   4.827   2.440
 1800SOL    HW1 6299   3.825   4.869   2.491
 1800SOL    HW2 6300   3.866   4.790   2.354
 1801SOL     OW 6301   0.351   0.484   2.216
 1801SOL    HW1 6302   0.289   0.538   2.273
 1801SOL    HW2 6303   0.323   0.490   2.120
 1802SOL     OW 6304   5.485   5.333   3.273
 1802SOL    HW1 6305   5.487   5.251   3.331
 1802SOL    HW2 6306   5.476   5.306   3.178
 1803SOL     OW 6307   0.757   6.197   0.028
 1803SOL    HW1 6308   0.672   6.223   0.074
 1803SOL    HW2 6309   0.751   6.221   6.959
 1804SOL     OW 6310   2.640   3.823   5.284
 1804SOL    HW1 6311   2.664   3.857   5.375
 1804SOL    HW2 6312   2.574   3.885   5.241
 1805SOL     OW 6313   6.326   4.168   5.592
 1805SOL    HW1 6314   6.345   4.136   5.685
 1805SOL    HW2 6315   6.230   4.193   5.584
 1806SOL     OW 6316   0.674   0.664   0.404
 1806SOL    HW1 6317   0.673   0.756   0.443
 1806SOL    HW2 6318   0.722   0.666   0.316
 1807SOL     OW 6319   5.121   2.551   5.554
 1807SOL    HW1 6320   5.144   2.480   5.488
 1807SOL    HW2 6321   5.035   2.595   5.527
 1808SOL     OW 6322   0.736   3.920   6.253
 1808SOL    HW1 6323   0.772   3.879   6.169
 1808SOL    HW2 6324   0.806   3.979   6.294
 1809SOL     OW 6325   2.257   2.283   4.396
 1809SOL    HW1 6326   2.157   2.281   4.397
 1809SOL    HW2 6327   2.292   2.250   4.484
 1810SOL     OW 6328   3.062   6.778   3.511
 1810SOL    HW1 6329   3.091   6.871   3.535
 1810SOL    HW2 6330   3.109   6.748   3.429
 1811SOL     OW 6331   5.701   5.164   3.507
 1811SOL    HW1 6332   5.604   5.187   3.514
 1811SOL    HW2 6333   5.751   5.241   3.468
 1812SOL     OW 6334   4.402   6.296   5.346
 1812SOL    HW1 6335   4.467   6.358   5.390
 1812SOL    HW2 6336   4.377   6.223   5.410
 1813SOL     OW 6337   6.575   5.336   1.125
 1813SOL    HW1 6338   6.534   5.244   1.125
 1813SOL    HW2 6339   6.673   5.329   1.107
 1814SOL     OW 6340   5.981   1.492   0.895
 1814SOL    HW1 6341   6.004   1.587   0.874
 1814SOL    HW2 6342   6.055   1.450   0.948
 1815SOL     OW 6343   6.688   1.961   2.059
 1815SOL    HW1 6344   6.622   2.035   2.074
 1815SOL    HW2 6345   6.644   1.873   2.073
 1816SOL     OW 6346   2.863   3.527   1.089
 1816SOL    HW1 6347   2.917   3.563   1.013
 1816SOL    HW2 6348   2.768   3.514   1.059
 1817SOL     OW 6349   3.749   0.134   2.726
 1817SOL    HW1 6350   3.671   0.133   2.662
 1817SOL    HW2 6351   3.756   0.225   2.767
 1818SOL     OW 6352   1.941   6.341   2.899
 1818SOL    HW1 6353   1.944   6.317   2.996
 1818SOL    HW2 6354   1.857   6.304   2.858
 1819SOL     OW 6355   0.974   4.889   1.815
 1819SOL    HW1 6356   1.070   4.866   1.804
 1819SOL    HW2 6357   0.927   4.883   1.727
 1820SOL     OW 6358   4.409   0.507   2.504
 1820SOL    HW1 6359   4.330   0.565   2.483
 1820SOL    HW2 6360   4.454   0.480   2.420
 1821SOL     OW 6361   0.805   0.792   2.085
 1821SOL    HW1 6362   0.851   0.848   2.154
 1821SOL    HW2 6363   0.807   0.840   1.997
 1822SOL     OW 6364   2.626   3.185   1.220
 1822SOL    HW1 6365   2.635   3.154   1.125
 1822SOL    HW2 6366   2.532   3.216   1.236
 1823SOL     OW 6367   2.986   5.824   3.035
 1823SOL    HW1 6368   2.981   5.725   3.049
 1823SOL    HW2 6369   2.918   5.869   3.092
 1824SOL     OW 6370   3.269   2.505   1.680
 1824SOL    HW1 6371   3.330   2.426   1.685
 1824SOL    HW2 6372   3.309   2.574   1.618
 1825SOL     OW 6373   1.531   1.593   2.992
 1825SOL    HW1 6374   1.508   1.524   2.923
 1825SOL    HW2 6375   1.616   1.639   2.965
 1826SOL     OW 6376   3.429   0.039   1.313
 1826SOL    HW1 6377   3.474   6.977   1.315
 1826SOL    HW2 6378   3.347   0.036   1.370
 1827SOL     OW 6379   6.994   5.311   2.581
 1827SOL    HW1 6380   7.009   5.326   2.678
 1827SOL    HW2 6381   0.017   5.379   2.528
 1828SOL     OW 6382   1.085   2.223   0.608
 1828SOL    HW1 6383   1.137   2.158   0.663
 1828SOL    HW2 6384   1.016   2.173   0.555
 1829SOL     OW 6385   3.887   0.318   3.812
 1829SOL    HW1 6386   3.890   0.395   3.875
 1829SOL    HW2 6387   3.960   0.327   3.744
 1830SOL     OW 6388   6.127   5.803   3.948
 1830SOL    HW1 6389   6.096   5.742   3.875
 1830SOL    HW2 6390   6.191   5.870   3.910
 1831SOL     OW 6391   5.970   0.218   2.454
 1831SOL    HW1 6392   5.946   0.185   2.545
 1831SOL    HW2 6393   5.900   0.283   2.423
 1832SOL     OW 6394   5.272   1.160   1.026
 1832SOL    HW1 6395   5.316   1.074   1.050
 1832SOL    HW2 6396   5.174   1.154   1.045
 1833SOL     OW 6397   5.604   0.300   5.247
 1833SOL    HW1 6398   5.594   0.351   5.332
 1833SOL    HW2 6399   5.521   0.311   5.192
 1834SOL     OW 6400   2.675   3.971   0.606
 1834SOL    HW1 6401   2.681   4.065   0.572
 1834SOL    HW2 6402   2.688   3.971   0.705
 1835SOL     OW 6403   1.493   4.220   1.241
 1835SOL    HW1 6404   1.548   4.137   1.240
 1835SOL    HW2 6405   1.406   4.202   1.194
 1836SOL     OW 6406   5.244   1.398   1.270
 1836SOL    HW1 6407   5.192   1.426   1.189
 1836SOL    HW2 6408   5.209   1.311   1.304
 1837SOL     OW 6409   1.032   2.331   4.471
 1837SOL    HW1 6410   1.105   2.280   4.427
 1837SOL    HW2 6411   1.060   2.426   4.483
 1838SOL     OW 6412   0.118   1.928   4.225
 1838SOL    HW1 6413   0.131   2.014   4.274
 1838SOL    HW2 6414   0.058   1.868   4.278
 1839SOL     OW 6415   4.719   2.760   5.012
 1839SOL    HW1 6416   4.651   2.687   5.019
 1839SOL    HW2 6417   4.703   2.811   4.927
 1840SOL     OW 6418   3.638   5.814   1.257
 1840SOL    HW1 6419   3.554   5.815   1.203
 1840SOL    HW2 6420   3.690   5.731   1.236
 1841SOL     OW 6421   2.482   2.163   4.285
 1841SOL    HW1 6422   2.480   2.170   4.186
 1841SOL    HW2 6423   2.422   2.233   4.325
 1842SOL     OW 6424   0.829   5.392   0.972
 1842SOL    HW1 6425   0.887   5.318   0.938
 1842SOL    HW2 6426   0.882   5.449   1.036
 1843SOL     OW 6427   0.389   1.911   4.387
 1843SOL    HW1 6428   0.335   1.980   4.434
 1843SOL    HW2 6429   0.329   1.841   4.348
 1844SOL     OW 6430   3.544   0.805   5.782
 1844SOL    HW1 6431   3.507   0.876   5.843
 1844SOL    HW2 6432   3.641   0.821   5.768
 1845SOL     OW 6433   2.054   6.793   4.682
 1845SOL    HW1 6434   1.962   6.779   4.718
 1845SOL    HW2 6435   2.112   6.832   4.754
 1846SOL     OW 6436   4.317   2.039   0.561
 1846SOL    HW1 6437   4.385   2.111   0.573
 1846SOL    HW2 6438   4.229   2.069   0.596
 1847SOL     OW 6439   1.298   0.365   5.974
 1847SOL    HW1 6440   1.391   0.333   5.955
 1847SOL    HW2 6441   1.275   0.439   5.910
 1848SOL     OW 6442   0.400   6.938   2.636
 1848SOL    HW1 6443   0.302   6.953   2.629
 1848SOL    HW2 6444   0.448   7.017   2.598
 1849SOL     OW 6445   3.765   2.013   0.624
 1849SOL    HW1 6446   3.858   2.039   0.649
 1849SOL    HW2 6447   3.740   1.928   0.671
 1850SOL     OW 6448   6.963   2.982   2.374
 1850SOL    HW1 6449   6.906   3.012   2.297
 1850SOL    HW2 6450   0.029   3.011   2.360
 1851SOL     OW 6451   0.703   1.988   1.365
 1851SOL    HW1 6452   0.632   2.003   1.296
 1851SOL    HW2 6453   0.792   1.982   1.321
 1852SOL     OW 6454   5.820   3.305   1.689
 1852SOL    HW1 6455   5.785   3.328   1.780
 1852SOL    HW2 6456   5.767   3.353   1.620
 1853SOL     OW 6457   0.345   3.078   2.975
 1853SOL    HW1 6458   0.396   3.027   3.045
 1853SOL    HW2 6459   0.356   3.032   2.886
 1854SOL     OW 6460   2.188   6.226   2.824
 1854SOL    HW1 6461   2.120   6.264   2.887
 1854SOL    HW2 6462   2.185   6.126   2.827
 1855SOL     OW 6463   4.953   4.245   6.642
 1855SOL    HW1 6464   4.986   4.336   6.620
 1855SOL    HW2 6465   4.914   4.244   6.734
 1856SOL     OW 6466   6.307   3.766   5.156
 1856SOL    HW1 6467   6.335   3.675   5.187
 1856SOL    HW2 6468   6.385   3.828   5.161
 1857SOL     OW 6469   3.469   0.932   6.214
 1857SOL    HW1 6470   3.369   0.931   6.225
 1857SOL    HW2 6471   3.510   0.979   6.292
 1858SOL     OW 6472   5.685   3.098   3.832
 1858SOL    HW1 6473   5.755   3.037   3.871
 1858SOL    HW2 6474   5.707   3.193   3.856
 1859SOL     OW 6475   4.417   1.373   3.181
 1859SOL    HW1 6476   4.322   1.352   3.204
 1859SOL    HW2 6477   4.420   1.422   3.093
 1860SOL     OW 6478   6.449   0.542   3.775
 1860SOL    HW1 6479   6.431   0.630   3.820
 1860SOL    HW2 6480   6.547   0.531   3.763
 1861SOL     OW 6481   5.273   6.686   2.659
 1861SOL    HW1 6482   5.195   6.680   2.722
 1861SOL    HW2 6483   5.251   6.749   2.585
 1862SOL     OW 6484   2.385   0.459   6.410
 1862SOL    HW1 6485   2.362   0.542   6.360
 1862SOL    HW2 6486   2.454   0.407   6.360
 1863SOL     OW 6487   2.059   1.571   0.278
 1863SOL    HW1 6488   2.032   1.631   0.354
 1863SOL    HW2 6489   2.068   1.477   0.312
 1864SOL     OW 6490   0.655   6.922   5.914
 1864SOL    HW1 6491   0.717   6.972   5.973
 1864SOL    HW2 6492   0.565   6.914   5.958
 1865SOL     OW 6493   3.690   0.337   5.895
 1865SOL    HW1 6494   3.759   0.325   5.824
 1865SOL    HW2 6495   3.601   0.354   5.852
 1866SOL     OW 6496   4.587   5.122   3.235
 1866SOL    HW1 6497   4.656   5.050   3.227
 1866SOL    HW2 6498   4.555   5.127   3.329
 1867SOL     OW 6499   0.594   4.069   0.119
 1867SOL    HW1 6500   0.666   4.075   0.049
 1867SOL    HW2 6501   0.632   4.029   0.202
 1868SOL     OW 6502   4.968   3.741   0.282
 1868SOL    HW1 6503   4.961   3.644   0.305
 1868SOL    HW2 6504   5.029   3.787   0.346
 1869SOL     OW 6505   6.080   2.628   5.723
 1869SOL    HW1 6506   6.022   2.653   5.801
 1869SOL    HW2 6507   6.074   2.529   5.708
 1870SOL     OW 6508   1.874   2.835   5.291
 1870SOL    HW1 6509   1.959   2.878   5.260
 1870SOL    HW2 6510   1.798   2.899   5.281
 1871SOL     OW 6511   0.398   1.167   6.539
 1871SOL    HW1 6512   0.373   1.217   6.622
 1871SOL    HW2 6513   0.478   1.210   6.497
 1872SOL     OW 6514   3.596   2.928   0.283
 1872SOL    HW1 6515   3.558   3.002   0.227
 1872SOL    HW2 6516   3.681   2.959   0.326
 1873SOL     OW 6517   4.743   1.683   6.092
 1873SOL    HW1 6518   4.783   1.772   6.067
 1873SOL    HW2 6519   4.802   1.610   6.057
 1874SOL     OW 6520   3.333   1.232   1.126
 1874SOL    HW1 6521   3.279   1.217   1.209
 1874SOL    HW2 6522   3.300   1.172   1.054
 1875SOL     OW 6523   0.455   1.226   0.348
 1875SOL    HW1 6524   0.490   1.135   0.325
 1875SOL    HW2 6525   0.356   1.220   0.364
 1876SOL     OW 6526   3.979   0.211   6.005
 1876SOL    HW1 6527   3.922   0.282   5.964
 1876SOL    HW2 6528   4.070   0.214   5.965
 1877SOL     OW 6529   0.353   0.225   2.789
 1877SOL    HW1 6530   0.258   0.217   2.820
 1877SOL    HW2 6531   0.355   0.232   2.689
 1878SOL     OW 6532   6.691   2.089   3.795
 1878SOL    HW1 6533   6.681   2.087   3.696
 1878SOL    HW2 6534   6.771   2.145   3.820
 1879SOL     OW 6535   1.114   4.451   4.355
 1879SOL    HW1 6536   1.163   4.510   4.291
 1879SOL    HW2 6537   1.177   4.386   4.396
 1880SOL     OW 6538   0.052   1.985   4.771
 1880SOL    HW1 6539   7.015   2.060   4.786
 1880SOL    HW2 6540   0.138   2.005   4.818
 1881SOL     OW 6541   5.589   2.089   3.054
 1881SOL    HW1 6542   5.555   2.040   2.973
 1881SOL    HW2 6543   5.665   2.038   3.094
 1882SOL     OW 6544   1.622   3.860   6.304
 1882SOL    HW1 6545   1.720   3.847   6.293
 1882SOL    HW2 6546   1.584   3.785   6.358
 1883SOL     OW 6547   6.874   1.966   3.274
 1883SOL    HW1 6548   6.929   1.907   3.215
 1883SOL    HW2 6549   6.777   1.946   3.260
 1884SOL     OW 6550   0.058   1.975   0.698
 1884SOL    HW1 6551   7.007   2.023   0.736
 1884SOL    HW2 6552   0.102   1.921   0.770
 1885SOL     OW 6553   1.696   1.982   6.349
 1885SOL    HW1 6554   1.682   1.888   6.380
 1885SOL    HW2 6555   1.790   1.993   6.316
 1886SOL     OW 6556   1.630   0.613   1.580
 1886SOL    HW1 6557   1.559   0.548   1.608
 1886SOL    HW2 6558   1.718   0.585   1.620
 1887SOL     OW 6559   1.228   5.544   5.233
 1887SOL    HW1 6560   1.198   5.594   5.152
 1887SOL    HW2 6561   1.328   5.542   5.236
 1888SOL     OW 6562   2.922   2.385   6.726
 1888SOL    HW1 6563   3.012   2.340   6.726
 1888SOL    HW2 6564   2.876   2.367   6.813
 1889SOL     OW 6565   0.640   3.370   5.414
 1889SOL    HW1 6566   0.563   3.334   5.360
 1889SOL    HW2 6567   0.605   3.426   5.489
 1890SOL     OW 6568   1.597   5.940   3.995
 1890SOL    HW1 6569   1.673   5.892   4.040
 1890SOL    HW2 6570   1.533   5.874   3.957
 1891SOL     OW 6571   5.038   2.335   2.143
 1891SOL    HW1 6572   5.034   2.418   2.087
 1891SOL    HW2 6573   5.054   2.256   2.083
 1892SOL     OW 6574   1.672   0.810   2.358
 1892SOL    HW1 6575   1.597   0.757   2.318
 1892SOL    HW2 6576   1.645   0.906   2.365
 1893SOL     OW 6577   3.208   3.762   1.479
 1893SOL    HW1 6578   3.164   3.755   1.569
 1893SOL    HW2 6579   3.140   3.748   1.407
 1894SOL     OW 6580   3.521   4.114   3.873
 1894SOL    HW1 6581   3.615   4.099   3.845
 1894SOL    HW2 6582   3.516   4.114   3.973
 1895SOL     OW 6583   4.410   0.476   1.200
 1895SOL    HW1 6584   4.448   0.558   1.156
 1895SOL    HW2 6585   4.475   0.442   1.268
 1896SOL     OW 6586   5.363   1.353   1.645
 1896SOL    HW1 6587   5.388   1.438   1.599
 1896SOL    HW2 6588   5.414   1.345   1.731
 1897SOL     OW 6589   2.132   5.405   1.608
 1897SOL    HW1 6590   2.044   5.415   1.561
 1897SOL    HW2 6591   2.198   5.469   1.569
 1898SOL     OW 6592   2.205   5.086   3.806
 1898SOL    HW1 6593   2.153   5.129   3.879
 1898SOL    HW2 6594   2.171   4.993   3.792
 1899SOL     OW 6595   0.423   1.218   1.482
 1899SOL    HW1 6596   0.438   1.166   1.566
 1899SOL    HW2 6597   0.445   1.314   1.498
 1900SOL     OW 6598   2.367   0.704   6.940
 1900SOL    HW1 6599   2.283   0.703   6.885
 1900SOL    HW2 6600   2.444   0.733   6.884
 1901SOL     OW 6601   1.722   2.013   0.465
 1901SOL    HW1 6602   1.674   2.072   0.399
 1901SOL    HW2 6603   1.692   2.036   0.558
 1902SOL     OW 6604   2.092   0.647   5.084
 1902SOL    HW1 6605   2.146   0.656   5.168
 1902SOL    HW2 6606   1.998   0.674   5.102
 1903SOL     OW 6607   0.091   3.804   2.918
 1903SOL    HW1 6608   0.112   3.878   2.853
 1903SOL    HW2 6609   0.176   3.762   2.949
 1904SOL     OW 6610   6.038   5.331   3.937
 1904SOL    HW1 6611   6.066   5.304   4.029
 1904SOL    HW2 6612   6.003   5.425   3.940
 1905SOL     OW 6613   0.824   0.090   3.479
 1905SOL    HW1 6614   0.840   0.061   3.384
 1905SOL    HW2 6615   0.727   0.079   3.501
 1906SOL     OW 6616   2.047   0.199   4.985
 1906SOL    HW1 6617   2.074   0.293   4.963
 1906SOL    HW2 6618   2.107   0.163   5.056
 1907SOL     OW 6619   4.208   1.620   1.928
 1907SOL    HW1 6620   4.122   1.656   1.891
 1907SOL    HW2 6621   4.190   1.574   2.015
 1908SOL     OW 6622   3.792   6.403   5.637
 1908SOL    HW1 6623   3.786   6.460   5.719
 1908SOL    HW2 6624   3.729   6.326   5.646
 1909SOL     OW 6625   0.805   3.482   3.549
 1909SOL    HW1 6626   0.862   3.552   3.506
 1909SOL    HW2 6627   0.851   3.448   3.631
 1910SOL     OW 6628   0.199   5.517   6.086
 1910SOL    HW1 6629   0.165   5.604   6.049
 1910SOL    HW2 6630   0.277   5.535   6.146
 1911SOL     OW 6631   6.953   3.754   4.995
 1911SOL    HW1 6632   6.977   3.743   5.092
 1911SOL    HW2 6633   6.913   3.670   4.961
 1912SOL     OW 6634   2.982   5.803   1.284
 1912SOL    HW1 6635   3.015   5.767   1.371
 1912SOL    HW2 6636   2.883   5.817   1.289
 1913SOL     OW 6637   2.672   0.285   4.624
 1913SOL    HW1 6638   2.640   0.362   4.679
 1913SOL    HW2 6639   2.698   0.318   4.533
 1914SOL     OW 6640   3.503   2.935   6.379
 1914SOL    HW1 6641   3.558   2.853   6.364
 1914SOL    HW2 6642   3.533   2.981   6.463
 1915SOL     OW 6643   3.736   2.640   5.604
 1915SOL    HW1 6644   3.728   2.694   5.688
 1915SOL    HW2 6645   3.654   2.652   5.548
 1916SOL     OW 6646   4.036   5.890   1.579
 1916SOL    HW1 6647   4.131   5.916   1.564
 1916SOL    HW2 6648   4.017   5.804   1.533
 1917SOL     OW 6649   2.256   3.267   6.957
 1917SOL    HW1 6650   2.312   3.335   6.909
 1917SOL    HW2 6651   2.303   3.238   0.013
 1918SOL     OW 6652   1.222   1.696   4.927
 1918SOL    HW1 6653   1.258   1.785   4.901
 1918SOL    HW2 6654   1.284   1.624   4.897
 1919SOL     OW 6655   1.546   1.716   1.580
 1919SOL    HW1 6656   1.598   1.779   1.522
 1919SOL    HW2 6657   1.459   1.759   1.606
 1920SOL     OW 6658   6.586   4.300   2.872
 1920SOL    HW1 6659   6.505   4.358   2.879
 1920SOL    HW2 6660   6.591   4.239   2.951
 1921SOL     OW 6661   1.994   3.309   0.040
 1921SOL    HW1 6662   2.088   3.327   0.010
 1921SOL    HW2 6663   1.949   3.250   7.001
 1922SOL     OW 6664   2.930   3.545   1.561
 1922SOL    HW1 6665   2.852   3.605   1.575
 1922SOL    HW2 6666   3.006   3.574   1.619
 1923SOL     OW 6667   4.135   1.738   6.405
 1923SOL    HW1 6668   4.182   1.652   6.425
 1923SOL    HW2 6669   4.102   1.778   6.491
 1924SOL     OW 6670   4.639   6.579   0.616
 1924SOL    HW1 6671   4.601   6.608   0.528
 1924SOL    HW2 6672   4.576   6.605   0.689
 1925SOL     OW 6673   1.455   4.807   1.035
 1925SOL    HW1 6674   1.434   4.716   0.999
 1925SOL    HW2 6675   1.470   4.870   0.959
 1926SOL     OW 6676   3.154   0.340   2.481
 1926SOL    HW1 6677   3.091   0.286   2.426
 1926SOL    HW2 6678   3.244   0.342   2.436
 1927SOL     OW 6679   2.438   4.663   0.298
 1927SOL    HW1 6680   2.436   4.704   0.389
 1927SOL    HW2 6681   2.476   4.728   0.232
 1928SOL     OW 6682   6.006   4.226   4.984
 1928SOL    HW1 6683   5.941   4.302   4.988
 1928SOL    HW2 6684   5.956   4.139   4.983
 1929SOL     OW 6685   2.531   0.778   1.775
 1929SOL    HW1 6686   2.561   0.816   1.687
 1929SOL    HW2 6687   2.462   0.708   1.759
 1930SOL     OW 6688   5.178   3.710   6.784
 1930SOL    HW1 6689   5.180   3.742   6.689
 1930SOL    HW2 6690   5.116   3.767   6.838
 1931SOL     OW 6691   0.939   2.139   0.177
 1931SOL    HW1 6692   1.022   2.178   0.136
 1931SOL    HW2 6693   0.899   2.072   0.114
 1932SOL     OW 6694   4.571   2.573   3.553
 1932SOL    HW1 6695   4.497   2.568   3.619
 1932SOL    HW2 6696   4.556   2.504   3.482
 1933SOL     OW 6697   0.922   2.852   0.702
 1933SOL    HW1 6698   0.913   2.828   0.799
 1933SOL    HW2 6699   0.832   2.877   0.666
 1934SOL     OW 6700   0.064   1.575   4.692
 1934SOL    HW1 6701   0.016   1.621   4.767
 1934SOL    HW2 6702   7.027   1.517   4.643
 1935SOL     OW 6703   4.449   4.914   3.512
 1935SOL    HW1 6704   4.541   4.932   3.548
 1935SOL    HW2 6705   4.428   4.817   3.524
 1936SOL     OW 6706   4.823   3.973   3.837
 1936SOL    HW1 6707   4.914   3.941   3.814
 1936SOL    HW2 6708   4.787   4.030   3.763
 1937SOL     OW 6709   4.317   6.438   0.149
 1937SOL    HW1 6710   4.231   6.488   0.165
 1937SOL    HW2 6711   4.299   6.360   0.088
 1938SOL     OW 6712   1.760   2.108   1.084
 1938SOL    HW1 6713   1.808   2.191   1.054
 1938SOL    HW2 6714   1.775   2.035   1.017
 1939SOL     OW 6715   6.586   6.634   4.518
 1939SOL    HW1 6716   6.684   6.642   4.536
 1939SOL    HW2 6717   6.567   6.547   4.473
 1940SOL     OW 6718   5.990   4.224   1.267
 1940SOL    HW1 6719   6.076   4.175   1.257
 1940SOL    HW2 6720   5.981   4.291   1.193
 1941SOL     OW 6721   1.634   2.709   3.770
 1941SOL    HW1 6722   1.662   2.803   3.753
 1941SOL    HW2 6723   1.700   2.664   3.830
 1942SOL     OW 6724   5.249   3.441   2.828
 1942SOL    HW1 6725   5.216   3.467   2.919
 1942SOL    HW2 6726   5.171   3.431   2.766
 1943SOL     OW 6727   1.315   0.781   2.451
 1943SOL    HW1 6728   1.353   0.707   2.394
 1943SOL    HW2 6729   1.386   0.816   2.512
 1944SOL     OW 6730   5.937   4.261   0.335
 1944SOL    HW1 6731   5.971   4.169   0.356
 1944SOL    HW2 6732   5.940   4.317   0.418
 1945SOL     OW 6733   3.638   5.714   0.433
 1945SOL    HW1 6734   3.603   5.681   0.520
 1945SOL    HW2 6735   3.570   5.775   0.391
 1946SOL     OW 6736   5.886   6.939   1.457
 1946SOL    HW1 6737   5.858   7.016   1.400
 1946SOL    HW2 6738   5.985   6.943   1.473
 1947SOL     OW 6739   5.787   5.571   3.895
 1947SOL    HW1 6740   5.839   5.626   3.830
 1947SOL    HW2 6741   5.739   5.497   3.847
 1948SOL     OW 6742   6.052   5.272   2.488
 1948SOL    HW1 6743   6.079   5.176   2.474
 1948SOL    HW2 6744   5.966   5.275   2.540
 1949SOL     OW 6745   4.232   3.390   0.220
 1949SOL    HW1 6746   4.274   3.371   0.131
 1949SOL    HW2 6747   4.134   3.371   0.215
 1950SOL     OW 6748   3.794   3.039   3.276
 1950SOL    HW1 6749   3.854   3.032   3.196
 1950SOL    HW2 6750   3.729   3.114   3.262
 1951SOL     OW 6751   0.351   4.525   6.344
 1951SOL    HW1 6752   0.313   4.618   6.346
 1951SOL    HW2 6753   0.450   4.531   6.332
 1952SOL     OW 6754   5.512   4.899   1.201
 1952SOL    HW1 6755   5.534   4.901   1.298
 1952SOL    HW2 6756   5.431   4.955   1.183
 1953SOL     OW 6757   6.565   1.529   6.194
 1953SOL    HW1 6758   6.633   1.582   6.144
 1953SOL    HW2 6759   6.604   1.495   6.280
 1954SOL     OW 6760   5.537   0.123   1.349
 1954SOL    HW1 6761   5.558   0.040   1.400
 1954SOL    HW2 6762   5.520   0.198   1.413
 1955SOL     OW 6763   0.000   0.965   1.804
 1955SOL    HW1 6764   0.002   0.984   1.706
 1955SOL    HW2 6765   0.087   0.924   1.831
 1956SOL     OW 6766   4.605   6.976   2.237
 1956SOL    HW1 6767   4.512   7.005   2.261
 1956SOL    HW2 6768   4.671   0.009   2.282
 1957SOL     OW 6769   5.208   4.562   4.163
 1957SOL    HW1 6770   5.181   4.549   4.068
 1957SOL    HW2 6771   5.136   4.610   4.212
 1958SOL     OW 6772   4.666   0.984   1.816
 1958SOL    HW1 6773   4.698   0.922   1.887
 1958SOL    HW2 6774   4.572   0.960   1.791
 1959SOL     OW 6775   0.118   6.532   3.915
 1959SOL    HW1 6776   0.145   6.544   4.011
 1959SOL    HW2 6777   0.050   6.459   3.908
 1960SOL     OW 6778   6.985   3.720   2.367
 1960SOL    HW1 6779   6.922   3.643   2.365
 1960SOL    HW2 6780   6.957   3.787   2.298
 1961SOL     OW 6781   5.644   4.325   4.622
 1961SOL    HW1 6782   5.555   4.306   4.580
 1961SOL    HW2 6783   5.671   4.420   4.603
 1962SOL     OW 6784   1.195   6.416   3.222
 1962SOL    HW1 6785   1.096   6.406   3.215
 1962SOL    HW2 6786   1.217   6.507   3.255
 1963SOL     OW 6787   1.718   1.965   1.299
 1963SOL    HW1 6788   1.747   2.031   1.229
 1963SOL    HW2 6789   1.780   1.971   1.377
 1964SOL     OW 6790   4.584   4.905   1.864
 1964SOL    HW1 6791   4.499   4.853   1.856
 1964SOL    HW2 6792   4.567   5.001   1.842
 1965SOL     OW 6793   2.163   2.385   4.140
 1965SOL    HW1 6794   2.089   2.413   4.200
 1965SOL    HW2 6795   2.135   2.305   4.086
 1966SOL     OW 6796   1.591   5.683   1.313
 1966SOL    HW1 6797   1.643   5.765   1.337
 1966SOL    HW2 6798   1.525   5.706   1.242
 1967SOL     OW 6799   6.153   2.817   4.213
 1967SOL    HW1 6800   6.110   2.757   4.144
 1967SOL    HW2 6801   6.082   2.863   4.265
 1968SOL     OW 6802   2.531   0.600   5.314
 1968SOL    HW1 6803   2.484   0.540   5.378
 1968SOL    HW2 6804   2.522   0.564   5.222
 1969SOL     OW 6805   3.442   0.669   1.512
 1969SOL    HW1 6806   3.493   0.597   1.466
 1969SOL    HW2 6807   3.406   0.733   1.444
 1970SOL     OW 6808   0.037   0.265   5.344
 1970SOL    HW1 6809   0.137   0.259   5.346
 1970SOL    HW2 6810   7.026   0.173   5.345
 1971SOL     OW 6811   0.519   1.039   5.584
 1971SOL    HW1 6812   0.520   1.138   5.592
 1971SOL    HW2 6813   0.427   1.005   5.606
 1972SOL     OW 6814   5.601   2.501   1.815
 1972SOL    HW1 6815   5.629   2.472   1.723
 1972SOL    HW2 6816   5.647   2.586   1.839
 1973SOL     OW 6817   2.589   4.263   1.636
 1973SOL    HW1 6818   2.574   4.322   1.557
 1973SOL    HW2 6819   2.537   4.298   1.714
 1974SOL     OW 6820   4.592   6.677   4.501
 1974SOL    HW1 6821   4.589   6.713   4.594
 1974SOL    HW2 6822   4.674   6.709   4.455
 1975SOL     OW 6823   2.225   1.966   4.128
 1975SOL    HW1 6824   2.280   1.931   4.053
 1975SOL    HW2 6825   2.269   1.944   4.215
 1976SOL     OW 6826   5.301   6.063   6.898
 1976SOL    HW1 6827   5.341   6.113   6.974
 1976SOL    HW2 6828   5.341   5.971   6.894
 1977SOL     OW 6829   1.928   3.321   5.305
 1977SOL    HW1 6830   1.831   3.345   5.312
 1977SOL    HW2 6831   1.984   3.402   5.325
 1978SOL     OW 6832   1.740   5.923   2.880
 1978SOL    HW1 6833   1.781   5.839   2.846
 1978SOL    HW2 6834   1.807   5.972   2.937
 1979SOL     OW 6835   5.314   5.333   6.886
 1979SOL    HW1 6836   5.364   5.259   6.842
 1979SOL    HW2 6837   5.263   5.297   6.964
 1980SOL     OW 6838   3.731   0.668   3.000
 1980SOL    HW1 6839   3.662   0.603   2.970
 1980SOL    HW2 6840   3.785   0.628   3.074
 1981SOL     OW 6841   5.551   2.598   2.552
 1981SOL    HW1 6842   5.495   2.611   2.633
 1981SOL    HW2 6843   5.646   2.623   2.573
 1982SOL     OW 6844   6.472   3.866   3.619
 1982SOL    HW1 6845   6.472   3.838   3.715
 1982SOL    HW2 6846   6.499   3.788   3.562
 1983SOL     OW 6847   0.951   0.213   1.562
 1983SOL    HW1 6848   0.924   0.292   1.507
 1983SOL    HW2 6849   1.036   0.175   1.526
 1984SOL     OW 6850   4.618   2.528   5.418
 1984SOL    HW1 6851   4.552   2.576   5.360
 1984SOL    HW2 6852   4.670   2.463   5.362
 1985SOL     OW 6853   6.944   5.970   2.320
 1985SOL    HW1 6854   0.013   5.974   2.298
 1985SOL    HW2 6855   6.890   5.994   2.239
 1986SOL     OW 6856   2.867   1.119   6.118
 1986SOL    HW1 6857   2.910   1.030   6.130
 1986SOL    HW2 6858   2.767   1.109   6.124
 1987SOL     OW 6859   2.157   1.698   3.531
 1987SOL    HW1 6860   2.196   1.707   3.439
 1987SOL    HW2 6861   2.205   1.760   3.593
 1988SOL     OW 6862   0.438   1.576   0.960
 1988SOL    HW1 6863   0.469   1.633   1.036
 1988SOL    HW2 6864   0.350   1.533   0.984
 1989SOL     OW 6865   2.236   5.726   4.089
 1989SOL    HW1 6866   2.181   5.808   4.103
 1989SOL    HW2 6867   2.201   5.651   4.145
 1990SOL     OW 6868   3.462   6.402   0.428
 1990SOL    HW1 6869   3.512   6.489   0.430
 1990SOL    HW2 6870   3.364   6.420   0.424
 1991SOL     OW 6871   2.051   5.398   0.103
 1991SOL    HW1 6872   2.121   5.340   0.060
 1991SOL    HW2 6873   2.091   5.444   0.182
 1992SOL     OW 6874   6.763   0.499   0.503
 1992SOL    HW1 6875   6.804   0.449   0.580
 1992SOL    HW2 6876   6.666   0.515   0.521
 1993SOL     OW 6877   3.569   2.072   4.971
 1993SOL    HW1 6878   3.592   2.106   5.063
 1993SOL    HW2 6879   3.476   2.102   4.948
 1994SOL     OW 6880   5.092   1.859   0.965
 1994SOL    HW1 6881   5.020   1.918   1.000
 1994SOL    HW2 6882   5.070   1.829   0.873
 1995SOL     OW 6883   5.619   3.291   4.069
 1995SOL    HW1 6884   5.699   3.283   4.129
 1995SOL    HW2 6885   5.642   3.345   3.989
 1996SOL     OW 6886   2.844   1.896   1.102
 1996SOL    HW1 6887   2.768   1.857   1.153
 1996SOL    HW2 6888   2.815   1.981   1.058
 1997SOL     OW 6889   3.319   1.646   3.797
 1997SOL    HW1 6890   3.397   1.619   3.852
 1997SOL    HW2 6891   3.350   1.670   3.705
 1998SOL     OW 6892   1.530   3.859   0.694
 1998SOL    HW1 6893   1.489   3.903   0.774
 1998SOL    HW2 6894   1.603   3.798   0.723
 1999SOL     OW 6895   0.637   0.692   4.972
 1999SOL    HW1 6896   0.681   0.627   4.909
 1999SOL    HW2 6897   0.700   0.766   4.993
 2000SOL     OW 6898   4.536   3.472   6.110
 2000SOL    HW1 6899   4.459   3.419   6.074
 2000SOL    HW2 6900   4.520   3.569   6.093
 2001SOL     OW 6901   2.016   1.383   6.878
 2001SOL    HW1 6902   1.947   1.445   6.915
 2001SOL    HW2 6903   2.104   1.399   6.924
 2002SOL     OW 6904   0.615   5.676   0.703
 2002SOL    HW1 6905   0.591   5.660   0.607
 2002SOL    HW2 6906   0.558   5.618   0.762
 2003SOL     OW 6907   6.734   5.311   1.794
 2003SOL    HW1 6908   6.681   5.271   1.720
 2003SOL    HW2 6909   6.704   5.273   1.882
 2004SOL     OW 6910   4.601   1.017   4.823
 2004SOL    HW1 6911   4.600   1.104   4.872
 2004SOL    HW2 6912   4.650   0.949   4.879
 2005SOL     OW 6913   0.027   4.900   0.104
 2005SOL    HW1 6914   0.121   4.872   0.085
 2005SOL    HW2 6915   0.020   4.999   0.098
 2006SOL     OW 6916   5.603   6.752   4.574
 2006SOL    HW1 6917   5.553   6.838   4.574
 2006SOL    HW2 6918   5.646   6.738   4.485
 2007SOL     OW 6919   5.439   3.790   1.241
 2007SOL    HW1 6920   5.389   3.703   1.239
 2007SOL    HW2 6921   5.515   3.786   1.177
 2008SOL     OW 6922   2.142   3.083   3.593
 2008SOL    HW1 6923   2.162   3.052   3.686
 2008SOL    HW2 6924   2.138   3.183   3.591
 2009SOL     OW 6925   5.436   6.492   2.299
 2009SOL    HW1 6926   5.475   6.568   2.247
 2009SOL    HW2 6927   5.338   6.507   2.312
 2010SOL     OW 6928   1.741   1.530   1.308
 2010SOL    HW1 6929   1.724   1.502   1.403
 2010SOL    HW2 6930   1.661   1.508   1.252
 2011SOL     OW 6931   0.093   0.752   5.043
 2011SOL    HW1 6932   0.180   0.794   5.017
 2011SOL    HW2 6933   0.105   0.653   5.054
 2012SOL     OW 6934   1.334   3.606   1.806
 2012SOL    HW1 6935   1.357   3.514   1.774
 2012SOL    HW2 6936   1.377   3.674   1.747
 2013SOL     OW 6937   6.661   2.937   3.473
 2013SOL    HW1 6938   6.676   2.889   3.559
 2013SOL    HW2 6939   6.726   3.012   3.466
 2014SOL     OW 6940   2.883   0.273   3.014
 2014SOL    HW1 6941   2.812   0.251   2.948
 2014SOL    HW2 6942   2.843   0.279   3.106
 2015SOL     OW 6943   3.179   6.578   0.652
 2015SOL    HW1 6944   3.275   6.597   0.674
 2015SOL    HW2 6945   3.144   6.649   0.591
 2016SOL     OW 6946   1.829   5.841   5.395
 2016SOL    HW1 6947   1.737   5.874   5.377
 2016SOL    HW2 6948   1.850   5.851   5.492
 2017SOL     OW 6949   4.246   0.355   3.416
 2017SOL    HW1 6950   4.226   0.429   3.352
 2017SOL    HW2 6951   4.215   0.268   3.377
 2018SOL     OW 6952   6.840   3.129   3.997
 2018SOL    HW1 6953   6.860   3.087   3.909
 2018SOL    HW2 6954   6.903   3.093   4.066
 2019SOL     OW 6955   6.054   4.256   6.278
 2019SOL    HW1 6956   6.000   4.325   6.327
 2019SOL    HW2 6957   6.119   4.214   6.342
 2020SOL     OW 6958   1.878   6.431   5.771
 2020SOL    HW1 6959   1.951   6.364   5.755
 2020SOL    HW2 6960   1.820   6.399   5.845
 2021SOL     OW 6961   6.243   6.522   3.913
 2021SOL    HW1 6962   6.338   6.553   3.913
 2021SOL    HW2 6963   6.197   6.554   3.996
 2022SOL     OW 6964   2.243   4.584   4.428
 2022SOL    HW1 6965   2.287   4.504   4.387
 2022SOL    HW2 6966   2.301   4.620   4.501
 2023SOL     OW 6967   0.334   0.141   6.853
 2023SOL    HW1 6968   0.409   0.089   6.894
 2023SOL    HW2 6969   0.251   0.085   6.850
 2024SOL     OW 6970   0.067   5.706   3.787
 2024SOL    HW1 6971   0.157   5.670   3.810
 2024SOL    HW2 6972   0.002   5.631   3.779
 2025SOL     OW 6973   3.108   0.508   3.334
 2025SOL    HW1 6974   3.051   0.575   3.381
 2025SOL    HW2 6975   3.174   0.469   3.399
 2026SOL     OW 6976   6.383   2.138   6.678
 2026SOL    HW1 6977   6.329   2.134   6.762
 2026SOL    HW2 6978   6.343   2.075   6.610
 2027SOL     OW 6979   0.807   6.199   1.325
 2027SOL    HW1 6980   0.776   6.124   1.268
 2027SOL    HW2 6981   0.728   6.248   1.362
 2028SOL     OW 6982   3.227   5.821   2.950
 2028SOL    HW1 6983   3.133   5.830   2.981
 2028SOL    HW2 6984   3.279   5.903   2.975
 2029SOL     OW 6985   6.668   2.428   6.882
 2029SOL    HW1 6986   6.719   2.403   6.964
 2029SOL    HW2 6987   6.572   2.404   6.893
 2030SOL     OW 6988   3.246   6.930   2.385
 2030SOL    HW1 6989   3.169   6.896   2.330
 2030SOL    HW2 6990   3.331   6.921   2.332
 2031SOL     OW 6991   6.784   6.339   2.480
 2031SOL    HW1 6992   6.820   6.385   2.399
 2031SOL    HW2 6993   6.778   6.405   2.556
 2032SOL     OW 6994   3.593   1.077   1.138
 2032SOL    HW1 6995   3.589   1.096   1.236
 2032SOL    HW2 6996   3.511   1.113   1.093
 2033SOL     OW 6997   2.012   1.260   0.688
 2033SOL    HW1 6998   2.029   1.297   0.597
 2033SOL    HW2 6999   1.913   1.259   0.705
 2034SOL     OW 7000   2.051   5.042   5.724
 2034SOL    HW1 7001   2.107   5.071   5.647
 2034SOL    HW2 7002   2.030   5.120   5.782
 2035SOL     OW 7003   6.557   7.010   2.191
 2035SOL    HW1 7004   6.565   6.924   2.141
 2035SOL    HW2 7005   6.565   0.059   2.128
 2036SOL     OW 7006   1.690   3.436   3.336
 2036SOL    HW1 7007   1.607   3.447   3.280
 2036SOL    HW2 7008   1.771   3.440   3.277
 2037SOL     OW 7009   6.606   2.884   6.056
 2037SOL    HW1 7010   6.570   2.934   5.978
 2037SOL    HW2 7011   6.566   2.792   6.060
 2038SOL     OW 7012   2.754   1.018   0.269
 2038SOL    HW1 7013   2.767   0.948   0.199
 2038SOL    HW2 7014   2.660   1.051   0.267
 2039SOL     OW 7015   0.166   6.338   2.553
 2039SOL    HW1 7016   0.116   6.405   2.607
 2039SOL    HW2 7017   0.263   6.361   2.550
 2040SOL     OW 7018   1.790   2.007   0.008
 2040SOL    HW1 7019   1.848   2.034   0.085
 2040SOL    HW2 7020   1.802   1.909   7.018
 2041SOL     OW 7021   1.092   0.523   5.369
 2041SOL    HW1 7022   1.028   0.452   5.399
 2041SOL    HW2 7023   1.040   0.605   5.343
 2042SOL     OW 7024   4.791   0.246   6.115
 2042SOL    HW1 7025   4.852   0.169   6.099
 2042SOL    HW2 7026   4.826   0.301   6.191
 2043SOL     OW 7027   6.537   2.370   2.237
 2043SOL    HW1 7028   6.634   2.362   2.258
 2043SOL    HW2 7029   6.515   2.464   2.210
 2044SOL     OW 7030   6.119   0.991   1.522
 2044SOL    HW1 7031   6.102   0.909   1.467
 2044SOL    HW2 7032   6.032   1.032   1.548
 2045SOL     OW 7033   1.269   5.787   4.826
 2045SOL    HW1 7034   1.303   5.765   4.734
 2045SOL    HW2 7035   1.267   5.887   4.838
 2046SOL     OW 7036   6.524   2.441   5.309
 2046SOL    HW1 7037   6.469   2.414   5.388
 2046SOL    HW2 7038   6.471   2.504   5.252
 2047SOL     OW 7039   5.773   2.201   1.296
 2047SOL    HW1 7040   5.715   2.175   1.218
 2047SOL    HW2 7041   5.842   2.267   1.266
 2048SOL     OW 7042   0.256   0.869   4.650
 2048SOL    HW1 7043   0.231   0.773   4.660
 2048SOL    HW2 7044   0.197   0.913   4.583
 2049SOL     OW 7045   4.610   1.361   4.616
 2049SOL    HW1 7046   4.590   1.297   4.689
 2049SOL    HW2 7047   4.619   1.453   4.654
 2050SOL     OW 7048   0.366   2.526   4.572
 2050SOL    HW1 7049   0.365   2.579   4.657
 2050SOL    HW2 7050   0.458   2.491   4.555
 2051SOL     OW 7051   2.088   5.906   0.107
 2051SOL    HW1 7052   2.024   5.942   0.039
 2051SOL    HW2 7053   2.151   5.978   0.136
 2052SOL     OW 7054   1.354   3.109   0.737
 2052SOL    HW1 7055   1.309   3.026   0.770
 2052SOL    HW2 7056   1.379   3.166   0.815
 2053SOL     OW 7057   1.146   5.380   4.745
 2053SOL    HW1 7058   1.230   5.357   4.793
 2053SOL    HW2 7059   1.075   5.403   4.812
 2054SOL     OW 7060   3.218   3.090   3.144
 2054SOL    HW1 7061   3.233   3.025   3.218
 2054SOL    HW2 7062   3.285   3.165   3.152
 2055SOL     OW 7063   0.015   2.583   4.895
 2055SOL    HW1 7064   0.009   2.564   4.797
 2055SOL    HW2 7065   7.014   2.676   4.913
 2056SOL     OW 7066   4.317   4.248   1.342
 2056SOL    HW1 7067   4.285   4.277   1.251
 2056SOL    HW2 7068   4.314   4.326   1.405
 2057SOL     OW 7069   5.035   3.261   4.531
 2057SOL    HW1 7070   5.084   3.178   4.504
 2057SOL    HW2 7071   5.075   3.298   4.615
 2058SOL     OW 7072   0.652   6.698   2.438
 2058SOL    HW1 7073   0.705   6.782   2.455
 2058SOL    HW2 7074   0.557   6.723   2.421
 2059SOL     OW 7075   2.762   0.693   5.408
 2059SOL    HW1 7076   2.673   0.660   5.377
 2059SOL    HW2 7077   2.802   0.626   5.471
 2060SOL     OW 7078   0.509   3.066   1.351
 2060SOL    HW1 7079   0.583   3.063   1.419
 2060SOL    HW2 7080   0.466   2.975   1.345
 2061SOL     OW 7081   1.826   2.615   2.386
 2061SOL    HW1 7082   1.878   2.635   2.469
 2061SOL    HW2 7083   1.775   2.696   2.358
 2062SOL     OW 7084   6.529   5.510   5.289
 2062SOL    HW1 7085   6.590   5.486   5.364
 2062SOL    HW2 7086   6.435   5.486   5.313
 2063SOL     OW 7087   1.523   6.600   4.782
 2063SOL    HW1 7088   1.532   6.685   4.730
 2063SOL    HW2 7089   1.455   6.611   4.854
 2064SOL     OW 7090   1.308   3.381   4.307
 2064SOL    HW1 7091   1.242   3.360   4.234
 2064SOL    HW2 7092   1.271   3.454   4.365
 2065SOL     OW 7093   5.276   3.549   6.281
 2065SOL    HW1 7094   5.219   3.616   6.234
 2065SOL    HW2 7095   5.365   3.589   6.302
 2066SOL     OW 7096   6.652   3.939   5.513
 2066SOL    HW1 7097   6.702   3.879   5.450
 2066SOL    HW2 7098   6.614   3.884   5.588
 2067SOL     OW 7099   6.278   4.803   1.614
 2067SOL    HW1 7100   6.201   4.742   1.595
 2067SOL    HW2 7101   6.244   4.892   1.645
 2068SOL     OW 7102   3.956   1.535   4.165
 2068SOL    HW1 7103   4.055   1.550   4.171
 2068SOL    HW2 7104   3.918   1.596   4.095
 2069SOL     OW 7105   0.349   2.227   4.170
 2069SOL    HW1 7106   0.367   2.174   4.087
 2069SOL    HW2 7107   0.261   2.200   4.209
 2070SOL     OW 7108   1.638   2.896   1.050
 2070SOL    HW1 7109   1.708   2.876   0.981
 2070SOL    HW2 7110   1.626   2.816   1.110
 2071SOL     OW 7111   5.959   1.466   6.452
 2071SOL    HW1 7112   5.859   1.467   6.453
 2071SOL    HW2 7113   5.993   1.558   6.474
 2072SOL     OW 7114   3.958   5.274   5.585
 2072SOL    HW1 7115   3.903   5.314   5.659
 2072SOL    HW2 7116   3.899   5.256   5.506
 2073SOL     OW 7117   3.528   6.275   5.994
 2073SOL    HW1 7118   3.554   6.273   6.091
 2073SOL    HW2 7119   3.548   6.366   5.956
 2074SOL     OW 7120   1.610   2.672   6.425
 2074SOL    HW1 7121   1.690   2.644   6.479
 2074SOL    HW2 7122   1.638   2.740   6.357
 2075SOL     OW 7123   6.508   2.234   3.065
 2075SOL    HW1 7124   6.474   2.300   2.998
 2075SOL    HW2 7125   6.575   2.279   3.125
 2076SOL     OW 7126   6.334   0.265   5.224
 2076SOL    HW1 7127   6.283   0.310   5.151
 2076SOL    HW2 7128   6.286   0.278   5.311
 2077SOL     OW 7129   6.505   2.105   1.656
 2077SOL    HW1 7130   6.587   2.061   1.619
 2077SOL    HW2 7131   6.468   2.049   1.730
 2078SOL     OW 7132   1.493   4.858   5.859
 2078SOL    HW1 7133   1.518   4.952   5.881
 2078SOL    HW2 7134   1.573   4.799   5.868
 2079SOL     OW 7135   5.898   1.269   2.379
 2079SOL    HW1 7136   5.971   1.256   2.446
 2079SOL    HW2 7137   5.937   1.273   2.287
 2080SOL     OW 7138   3.509   1.975   4.649
 2080SOL    HW1 7139   3.427   1.927   4.618
 2080SOL    HW2 7140   3.483   2.046   4.715
 2081SOL     OW 7141   0.771   6.318   3.547
 2081SOL    HW1 7142   0.688   6.263   3.556
 2081SOL    HW2 7143   0.806   6.340   3.639
 2082SOL     OW 7144   1.152   5.812   3.164
 2082SOL    HW1 7145   1.081   5.786   3.230
 2082SOL    HW2 7146   1.237   5.831   3.213
 2083SOL     OW 7147   0.773   5.628   3.928
 2083SOL    HW1 7148   0.716   5.550   3.953
 2083SOL    HW2 7149   0.797   5.622   3.831
 2084SOL     OW 7150   1.406   2.279   1.242
 2084SOL    HW1 7151   1.382   2.327   1.157
 2084SOL    HW2 7152   1.461   2.198   1.220
 2085SOL     OW 7153   4.922   5.949   0.851
 2085SOL    HW1 7154   4.913   6.046   0.829
 2085SOL    HW2 7155   5.013   5.918   0.823
 2086SOL     OW 7156   3.201   6.484   6.941
 2086SOL    HW1 7157   3.131   6.550   6.970
 2086SOL    HW2 7158   3.170   6.436   6.859
 2087SOL     OW 7159   4.062   2.275   7.021
 2087SOL    HW1 7160   4.025   2.366   0.012
 2087SOL    HW2 7161   3.991   2.220   6.976
 2088SOL     OW 7162   1.001   6.098   5.491
 2088SOL    HW1 7163   0.990   6.001   5.470
 2088SOL    HW2 7164   1.045   6.108   5.580
 2089SOL     OW 7165   3.970   2.520   5.498
 2089SOL    HW1 7166   3.892   2.510   5.559
 2089SOL    HW2 7167   3.956   2.598   5.438
 2090SOL     OW 7168   4.978   3.043   5.579
 2090SOL    HW1 7169   4.888   3.004   5.595
 2090SOL    HW2 7170   4.979   3.139   5.607
 2091SOL     OW 7171   6.928   5.905   1.289
 2091SOL    HW1 7172   7.016   5.919   1.334
 2091SOL    HW2 7173   6.872   5.987   1.301
 2092SOL     OW 7174   5.170   3.883   0.780
 2092SOL    HW1 7175   5.136   3.931   0.861
 2092SOL    HW2 7176   5.218   3.948   0.721
 2093SOL     OW 7177   3.598   2.100   2.263
 2093SOL    HW1 7178   3.608   2.135   2.169
 2093SOL    HW2 7179   3.501   2.092   2.285
 2094SOL     OW 7180   5.820   2.698   0.542
 2094SOL    HW1 7181   5.835   2.747   0.456
 2094SOL    HW2 7182   5.812   2.600   0.524
 2095SOL     OW 7183   6.086   6.175   3.079
 2095SOL    HW1 7184   6.057   6.270   3.085
 2095SOL    HW2 7185   6.186   6.171   3.073
 2096SOL     OW 7186   4.479   6.110   3.212
 2096SOL    HW1 7187   4.421   6.191   3.206
 2096SOL    HW2 7188   4.475   6.060   3.125
 2097SOL     OW 7189   3.015   4.081   6.217
 2097SOL    HW1 7190   2.962   4.010   6.262
 2097SOL    HW2 7191   2.955   4.158   6.195
 2098SOL     OW 7192   4.121   6.264   3.200
 2098SOL    HW1 7193   4.066   6.181   3.199
 2098SOL    HW2 7194   4.199   6.253   3.138
 2099SOL     OW 7195   4.444   2.011   0.036
 2099SOL    HW1 7196   4.375   2.077   0.066
 2099SOL    HW2 7197   4.517   2.006   0.104
 2100SOL     OW 7198   5.130   1.136   0.504
 2100SOL    HW1 7199   5.071   1.197   0.557
 2100SOL    HW2 7200   5.218   1.127   0.549
 2101SOL     OW 7201   0.420   6.279   0.686
 2101SOL    HW1 7202   0.356   6.263   0.611
 2101SOL    HW2 7203   0.509   6.306   0.649
 2102SOL     OW 7204   3.878   3.427   1.139
 2102SOL    HW1 7205   3.966   3.468   1.116
 2102SOL    HW2 7206   3.853   3.451   1.232
 2103SOL     OW 7207   3.101   3.897   0.148
 2103SOL    HW1 7208   3.061   3.816   0.105
 2103SOL    HW2 7209   3.029   3.950   0.193
 2104SOL     OW 7210   1.659   4.726   2.254
 2104SOL    HW1 7211   1.661   4.814   2.206
 2104SOL    HW2 7212   1.702   4.736   2.343
 2105SOL     OW 7213   4.615   4.742   0.146
 2105SOL    HW1 7214   4.572   4.833   0.142
 2105SOL    HW2 7215   4.555   4.679   0.196
 2106SOL     OW 7216   5.291   3.624   1.515
 2106SOL    HW1 7217   5.192   3.638   1.521
 2106SOL    HW2 7218   5.316   3.606   1.419
 2107SOL     OW 7219   5.480   3.461   5.594
 2107SOL    HW1 7220   5.401   3.436   5.651
 2107SOL    HW2 7221   5.483   3.561   5.584
 2108SOL     OW 7222   5.663   6.414   6.322
 2108SOL    HW1 7223   5.566   6.425   6.343
 2108SOL    HW2 7224   5.674   6.392   6.225
 2109SOL     OW 7225   3.185   5.423   2.168
 2109SOL    HW1 7226   3.201   5.336   2.214
 2109SOL    HW2 7227   3.191   5.498   2.234
 2110SOL     OW 7228   4.163   0.909   6.110
 2110SOL    HW1 7229   4.071   0.876   6.090
 2110SOL    HW2 7230   4.206   0.940   6.026
 2111SOL     OW 7231   1.373   2.242   5.502
 2111SOL    HW1 7232   1.307   2.306   5.541
 2111SOL    HW2 7233   1.401   2.176   5.573
 2112SOL     OW 7234   6.101   1.719   6.797
 2112SOL    HW1 7235   6.032   1.657   6.835
 2112SOL    HW2 7236   6.153   1.760   6.871
 2113SOL     OW 7237   2.027   6.785   4.414
 2113SOL    HW1 7238   2.057   6.791   4.509
 2113SOL    HW2 7239   2.065   6.862   4.362
 2114SOL     OW 7240   2.896   2.974   0.353
 2114SOL    HW1 7241   2.965   2.902   0.355
 2114SOL    HW2 7242   2.937   3.060   0.384
 2115SOL     OW 7243   1.153   4.592   2.278
 2115SOL    HW1 7244   1.224   4.577   2.210
 2115SOL    HW2 7245   1.189   4.572   2.369
 2116SOL     OW 7246   0.684   2.619   0.919
 2116SOL    HW1 7247   0.618   2.663   0.858
 2116SOL    HW2 7248   0.755   2.685   0.944
 2117SOL     OW 7249   4.821   2.711   1.372
 2117SOL    HW1 7250   4.805   2.629   1.426
 2117SOL    HW2 7251   4.914   2.743   1.388
 2118SOL     OW 7252   6.399   3.796   2.259
 2118SOL    HW1 7253   6.425   3.859   2.186
 2118SOL    HW2 7254   6.339   3.725   2.223
 2119SOL     OW 7255   1.554   0.646   6.782
 2119SOL    HW1 7256   1.492   0.679   6.853
 2119SOL    HW2 7257   1.513   0.566   6.737
 2120SOL     OW 7258   6.541   1.951   3.014
 2120SOL    HW1 7259   6.638   1.943   2.993
 2120SOL    HW2 7260   6.519   2.047   3.032
 2121SOL     OW 7261   2.454   1.624   6.051
 2121SOL    HW1 7262   2.532   1.618   5.989
 2121SOL    HW2 7263   2.404   1.538   6.050
 2122SOL     OW 7264   6.000   6.914   6.040
 2122SOL    HW1 7265   5.931   6.842   6.054
 2122SOL    HW2 7266   6.067   6.910   6.113
 2123SOL     OW 7267   6.920   6.505   2.302
 2123SOL    HW1 7268   6.876   6.541   2.220
 2123SOL    HW2 7269   6.958   6.581   2.355
 2124SOL     OW 7270   2.986   2.545   5.586
 2124SOL    HW1 7271   3.075   2.508   5.560
 2124SOL    HW2 7272   2.920   2.526   5.513
 2125SOL     OW 7273   1.971   6.374   3.371
 2125SOL    HW1 7274   1.954   6.310   3.446
 2125SOL    HW2 7275   2.010   6.324   3.293
 2126SOL     OW 7276   3.870   3.277   0.490
 2126SOL    HW1 7277   3.773   3.291   0.510
 2126SOL    HW2 7278   3.924   3.299   0.571
 2127SOL     OW 7279   6.810   2.461   5.687
 2127SOL    HW1 7280   6.856   2.544   5.718
 2127SOL    HW2 7281   6.794   2.466   5.589
 2128SOL     OW 7282   5.366   3.644   0.480
 2128SOL    HW1 7283   5.340   3.629   0.384
 2128SOL    HW2 7284   5.419   3.566   0.513
 2129SOL     OW 7285   5.347   4.150   3.260
 2129SOL    HW1 7286   5.297   4.211   3.198
 2129SOL    HW2 7287   5.320   4.055   3.241
 2130SOL     OW 7288   2.436   1.874   1.068
 2130SOL    HW1 7289   2.492   1.891   1.149
 2130SOL    HW2 7290   2.453   1.781   1.036
 2131SOL     OW 7291   5.103   2.215   6.534
 2131SOL    HW1 7292   5.178   2.151   6.518
 2131SOL    HW2 7293   5.019   2.178   6.496
 2132SOL     OW 7294   3.307   1.226   6.738
 2132SOL    HW1 7295   3.331   1.225   6.835
 2132SOL    HW2 7296   3.311   1.320   6.704
 2133SOL     OW 7297   2.574   2.055   1.243
 2133SOL    HW1 7298   2.601   2.090   1.154
 2133SOL    HW2 7299   2.620   2.109   1.315
 2134SOL     OW 7300   0.670   0.539   4.232
 2134SOL    HW1 7301   0.743   0.487   4.187
 2134SOL    HW2 7302   0.602   0.475   4.268
 2135SOL     OW 7303   0.776   2.183   4.039
 2135SOL    HW1 7304   0.860   2.144   4.002
 2135SOL    HW2 7305   0.701   2.117   4.029
 2136SOL     OW 7306   1.070   3.657   4.953
 2136SOL    HW1 7307   1.071   3.752   4.923
 2136SOL    HW2 7308   1.012   3.648   5.034
 2137SOL     OW 7309   0.818   6.804   5.094
 2137SOL    HW1 7310   0.806   6.708   5.067
 2137SOL    HW2 7311   0.783   6.818   5.187
 2138SOL     OW 7312   6.613   2.367   1.649
 2138SOL    HW1 7313   6.555   2.290   1.675
 2138SOL    HW2 7314   6.557   2.450   1.641
 2139SOL     OW 7315   3.069   0.898   3.934
 2139SOL    HW1 7316   3.000   0.928   4.000
 2139SOL    HW2 7317   3.060   0.799   3.920
 2140SOL     OW 7318   2.393   6.270   2.650
 2140SOL    HW1 7319   2.323   6.257   2.721
 2140SOL    HW2 7320   2.429   6.363   2.655
 2141SOL     OW 7321   6.819   2.780   1.233
 2141SOL    HW1 7322   6.813   2.682   1.254
 2141SOL    HW2 7323   6.787   2.833   1.311
 2142SOL     OW 7324   1.739   2.126   3.224
 2142SOL    HW1 7325   1.835   2.110   3.246
 2142SOL    HW2 7326   1.727   2.219   3.188
 2143SOL     OW 7327   3.875   6.145   1.358
 2143SOL    HW1 7328   3.904   6.052   1.333
 2143SOL    HW2 7329   3.947   6.189   1.411
 2144SOL     OW 7330   1.261   0.706   3.171
 2144SOL    HW1 7331   1.165   0.680   3.172
 2144SOL    HW2 7332   1.271   0.796   3.128
 2145SOL     OW 7333   3.344   5.591   3.631
 2145SOL    HW1 7334   3.350   5.556   3.537
 2145SOL    HW2 7335   3.318   5.688   3.629
 2146SOL     OW 7336   3.068   4.032   1.996
 2146SOL    HW1 7337   3.036   4.113   2.046
 2146SOL    HW2 7338   3.037   3.950   2.043
 2147SOL     OW 7339   0.377   1.572   0.182
 2147SOL    HW1 7340   0.340   1.491   0.136
 2147SOL    HW2 7341   0.311   1.604   0.250
 2148SOL     OW 7342   4.911   3.702   3.529
 2148SOL    HW1 7343   4.829   3.698   3.587
 2148SOL    HW2 7344   4.970   3.776   3.561
 2149SOL     OW 7345   3.658   0.032   1.666
 2149SOL    HW1 7346   3.638   7.008   1.583
 2149SOL    HW2 7347   3.729   0.099   1.647
 2150SOL     OW 7348   3.798   2.076   2.597
 2150SOL    HW1 7349   3.755   2.158   2.561
 2150SOL    HW2 7350   3.750   2.047   2.680
 2151SOL     OW 7351   3.613   2.302   5.525
 2151SOL    HW1 7352   3.532   2.317   5.582
 2151SOL    HW2 7353   3.590   2.238   5.451
 2152SOL     OW 7354   5.846   6.240   2.438
 2152SOL    HW1 7355   5.765   6.186   2.412
 2152SOL    HW2 7356   5.819   6.336   2.450
 2153SOL     OW 7357   4.527   1.397   4.150
 2153SOL    HW1 7358   4.612   1.449   4.157
 2153SOL    HW2 7359   4.480   1.399   4.238
 2154SOL     OW 7360   3.238   5.859   4.729
 2154SOL    HW1 7361   3.263   5.811   4.645
 2154SOL    HW2 7362   3.166   5.926   4.709
 2155SOL     OW 7363   1.824   5.228   0.230
 2155SOL    HW1 7364   1.745   5.243   0.172
 2155SOL    HW2 7365   1.891   5.301   0.216
 2156SOL     OW 7366   1.970   0.531   1.082
 2156SOL    HW1 7367   2.008   0.545   0.990
 2156SOL    HW2 7368   1.902   0.602   1.101
 2157SOL     OW 7369   6.624   1.428   4.809
 2157SOL    HW1 7370   6.698   1.370   4.842
 2157SOL    HW2 7371   6.624   1.430   4.709
 2158SOL     OW 7372   2.979   6.622   0.260
 2158SOL    HW1 7373   3.054   6.658   0.314
 2158SOL    HW2 7374   2.936   6.546   0.309
 2159SOL     OW 7375   1.607   6.688   5.215
 2159SOL    HW1 7376   1.621   6.785   5.234
 2159SOL    HW2 7377   1.695   6.641   5.217
 2160SOL     OW 7378   3.941   4.406   1.446
 2160SOL    HW1 7379   3.957   4.327   1.506
 2160SOL    HW2 7380   3.940   4.376   1.351
 2161SOL     OW 7381   4.943   3.379   3.190
 2161SOL    HW1 7382   4.925   3.333   3.103
 2161SOL    HW2 7383   4.924   3.316   3.266
 2162SOL     OW 7384   2.049   0.750   6.583
 2162SOL    HW1 7385   1.977   0.696   6.627
 2162SOL    HW2 7386   2.097   0.804   6.652
 2163SOL     OW 7387   1.438   6.901   6.589
 2163SOL    HW1 7388   1.507   6.927   6.521
 2163SOL    HW2 7389   1.481   6.893   6.679
 2164SOL     OW 7390   2.286   0.704   6.225
 2164SOL    HW1 7391   2.347   0.783   6.218
 2164SOL    HW2 7392   2.191   0.735   6.219
 2165SOL     OW 7393   1.629   1.167   2.734
 2165SOL    HW1 7394   1.625   1.198   2.639
 2165SOL    HW2 7395   1.618   1.068   2.738
 2166SOL     OW 7396   1.668   2.407   5.394
 2166SOL    HW1 7397   1.591   2.344   5.390
 2166SOL    HW2 7398   1.653   2.482   5.330
 2167SOL     OW 7399   2.722   0.933   2.207
 2167SOL    HW1 7400   2.810   0.930   2.159
 2167SOL    HW2 7401   2.689   1.028   2.209
 2168SOL     OW 7402   6.199   3.012   5.292
 2168SOL    HW1 7403   6.208   3.031   5.389
 2168SOL    HW2 7404   6.128   3.070   5.252
 2169SOL     OW 7405   5.723   2.683   6.258
 2169SOL    HW1 7406   5.704   2.690   6.160
 2169SOL    HW2 7407   5.656   2.738   6.309
 2170SOL     OW 7408   4.932   4.464   5.061
 2170SOL    HW1 7409   4.867   4.462   5.136
 2170SOL    HW2 7410   5.020   4.426   5.092
 2171SOL     OW 7411   6.508   2.982   0.176
 2171SOL    HW1 7412   6.492   3.035   0.259
 2171SOL    HW2 7413   6.543   2.891   0.201
 2172SOL     OW 7414   2.970   0.727   0.323
 2172SOL    HW1 7415   2.941   0.676   0.242
 2172SOL    HW2 7416   2.891   0.743   0.383
 2173SOL     OW 7417   3.973   0.534   5.869
 2173SOL    HW1 7418   4.048   0.517   5.804
 2173SOL    HW2 7419   3.889   0.553   5.818
 2174SOL     OW 7420   6.781   4.220   5.520
 2174SOL    HW1 7421   6.722   4.143   5.497
 2174SOL    HW2 7422   6.837   4.198   5.600
 2175SOL     OW 7423   3.061   0.558   2.855
 2175SOL    HW1 7424   3.139   0.618   2.836
 2175SOL    HW2 7425   3.075   0.512   2.943
 2176SOL     OW 7426   1.806   2.053   1.810
 2176SOL    HW1 7427   1.831   2.134   1.864
 2176SOL    HW2 7428   1.813   1.971   1.867
 2177SOL     OW 7429   6.775   1.504   2.182
 2177SOL    HW1 7430   6.743   1.473   2.272
 2177SOL    HW2 7431   6.729   1.589   2.158
 2178SOL     OW 7432   0.929   4.664   0.348
 2178SOL    HW1 7433   1.026   4.638   0.353
 2178SOL    HW2 7434   0.872   4.584   0.366
 2179SOL     OW 7435   1.279   6.008   3.679
 2179SOL    HW1 7436   1.235   6.036   3.764
 2179SOL    HW2 7437   1.219   5.946   3.629
 2180SOL     OW 7438   3.214   4.143   2.785
 2180SOL    HW1 7439   3.189   4.240   2.784
 2180SOL    HW2 7440   3.304   4.130   2.742
 2181SOL     OW 7441   4.977   4.887   5.869
 2181SOL    HW1 7442   4.922   4.810   5.901
 2181SOL    HW2 7443   4.949   4.912   5.776
 2182SOL     OW 7444   0.083   3.452   6.617
 2182SOL    HW1 7445   0.014   3.392   6.575
 2182SOL    HW2 7446   0.160   3.462   6.555
 2183SOL     OW 7447   2.946   3.173   0.695
 2183SOL    HW1 7448   3.039   3.150   0.725
 2183SOL    HW2 7449   2.947   3.195   0.598
 2184SOL     OW 7450   3.930   0.901   6.349
 2184SOL    HW1 7451   3.939   0.995   6.380
 2184SOL    HW2 7452   3.960   0.839   6.422
 2185SOL     OW 7453   1.725   1.290   0.778
 2185SOL    HW1 7454   1.687   1.218   0.836
 2185SOL    HW2 7455   1.747   1.370   0.834
 2186SOL     OW 7456   0.135   4.221   2.325
 2186SOL    HW1 7457   0.098   4.275   2.249
 2186SOL    HW2 7458   0.072   4.226   2.403
 2187SOL     OW 7459   6.999   1.360   1.398
 2187SOL    HW1 7460   7.017   1.455   1.423
 2187SOL    HW2 7461   6.958   1.312   1.476
 2188SOL     OW 7462   4.867   6.209   3.999
 2188SOL    HW1 7463   4.906   6.280   3.940
 2188SOL    HW2 7464   4.771   6.195   3.976
 2189SOL     OW 7465   1.679   6.906   5.836
 2189SOL    HW1 7466   1.754   6.970   5.855
 2189SOL    HW2 7467   1.615   6.907   5.912
 2190SOL     OW 7468   6.460   2.745   1.883
 2190SOL    HW1 7469   6.475   2.746   1.784
 2190SOL    HW2 7470   6.454   2.839   1.917
 2191SOL     OW 7471   3.102   2.537   6.476
 2191SOL    HW1 7472   3.020   2.553   6.420
 2191SOL    HW2 7473   3.143   2.625   6.500
 2192SOL     OW 7474   4.408   6.050   5.499
 2192SOL    HW1 7475   4.502   6.016   5.488
 2192SOL    HW2 7476   4.347   5.994   5.444
 2193SOL     OW 7477   0.738   5.434   5.703
 2193SOL    HW1 7478   0.643   5.404   5.699
 2193SOL    HW2 7479   0.755   5.478   5.791
 2194SOL     OW 7480   1.948   5.856   0.333
 2194SOL    HW1 7481   2.027   5.829   0.388
 2194SOL    HW2 7482   1.972   5.853   0.236
 2195SOL     OW 7483   0.693   6.440   1.735
 2195SOL    HW1 7484   0.780   6.436   1.785
 2195SOL    HW2 7485   0.626   6.492   1.789
 2196SOL     OW 7486   3.419   0.572   5.438
 2196SOL    HW1 7487   3.519   0.578   5.429
 2196SOL    HW2 7488   3.392   0.476   5.440
 2197SOL     OW 7489   4.689   4.570   1.745
 2197SOL    HW1 7490   4.673   4.631   1.668
 2197SOL    HW2 7491   4.780   4.588   1.783
 2198SOL     OW 7492   6.671   3.629   6.762
 2198SOL    HW1 7493   6.667   3.633   6.662
 2198SOL    HW2 7494   6.593   3.679   6.801
 2199SOL     OW 7495   4.696   6.794   0.317
 2199SOL    HW1 7496   4.685   6.858   0.392
 2199SOL    HW2 7497   4.772   6.731   0.337
 2200SOL     OW 7498   4.262   0.889   4.508
 2200SOL    HW1 7499   4.340   0.943   4.541
 2200SOL    HW2 7500   4.289   0.792   4.504
 2201SOL     OW 7501   6.080   3.426   1.724
 2201SOL    HW1 7502   5.984   3.420   1.750
 2201SOL    HW2 7503   6.121   3.506   1.769
 2202SOL     OW 7504   3.689   4.894   4.238
 2202SOL    HW1 7505   3.673   4.900   4.139
 2202SOL    HW2 7506   3.787   4.887   4.255
 2203SOL     OW 7507   3.447   1.938   3.469
 2203SOL    HW1 7508   3.532   1.953   3.419
 2203SOL    HW2 7509   3.439   2.006   3.542
 2204SOL     OW 7510   3.679   1.377   6.945
 2204SOL    HW1 7511   3.683   1.358   6.846
 2204SOL    HW2 7512   3.597   1.431   6.965
 2205SOL     OW 7513   1.391   0.157   0.051
 2205SOL    HW1 7514   1.451   0.233   0.023
 2205SOL    HW2 7515   1.326   0.190   0.120
 2206SOL     OW 7516   3.106   3.498   6.326
 2206SOL    HW1 7517   3.133   3.589   6.357
 2206SOL    HW2 7518   3.174   3.431   6.356
 2207SOL     OW 7519   0.973   4.075   6.288
 2207SOL    HW1 7520   1.043   4.049   6.222
 2207SOL    HW2 7521   0.952   4.173   6.276
 2208SOL     OW 7522   0.393   3.423   1.985
 2208SOL    HW1 7523   0.312   3.366   1.995
 2208SOL    HW2 7524   0.384   3.480   1.903
 2209SOL     OW 7525   1.662   5.931   6.804
 2209SOL    HW1 7526   1.686   5.883   6.719
 2209SOL    HW2 7527   1.739   5.988   6.832
 2210SOL     OW 7528   0.946   5.264   3.186
 2210SOL    HW1 7529   0.983   5.330   3.121
 2210SOL    HW2 7530   1.014   5.193   3.204
 2211SOL     OW 7531   6.030   1.325   5.354
 2211SOL    HW1 7532   6.077   1.402   5.398
 2211SOL    HW2 7533   6.097   1.267   5.309
 2212SOL     OW 7534   0.453   6.901   6.140
 2212SOL    HW1 7535   0.489   6.968   6.205
 2212SOL    HW2 7536   0.387   6.946   6.080
 2213SOL     OW 7537   4.189   2.248   4.089
 2213SOL    HW1 7538   4.199   2.203   4.000
 2213SOL    HW2 7539   4.094   2.239   4.121
 2214SOL     OW 7540   5.179   0.637   4.996
 2214SOL    HW1 7541   5.190   0.734   4.977
 2214SOL    HW2 7542   5.259   0.587   4.962
 2215SOL     OW 7543   6.738   1.675   5.737
 2215SOL    HW1 7544   6.789   1.761   5.741
 2215SOL    HW2 7545   6.661   1.679   5.801
 2216SOL     OW 7546   1.264   6.878   1.299
 2216SOL    HW1 7547   1.333   6.877   1.371
 2216SOL    HW2 7548   1.252   6.785   1.263
 2217SOL     OW 7549   3.936   6.779   0.881
 2217SOL    HW1 7550   3.854   6.804   0.933
 2217SOL    HW2 7551   4.007   6.848   0.895
 2218SOL     OW 7552   1.090   6.247   6.536
 2218SOL    HW1 7553   1.067   6.279   6.445
 2218SOL    HW2 7554   1.153   6.169   6.529
 2219SOL     OW 7555   1.632   3.756   3.488
 2219SOL    HW1 7556   1.720   3.760   3.537
 2219SOL    HW2 7557   1.635   3.816   3.408
 2220SOL     OW 7558   0.661   2.146   4.741
 2220SOL    HW1 7559   0.682   2.110   4.832
 2220SOL    HW2 7560   0.714   2.095   4.672
 2221SOL     OW 7561   6.694   1.905   1.599
 2221SOL    HW1 7562   6.760   1.857   1.540
 2221SOL    HW2 7563   6.733   1.917   1.690
 2222SOL     OW 7564   4.345   0.184   1.836
 2222SOL    HW1 7565   4.400   0.263   1.862
 2222SOL    HW2 7566   4.281   0.210   1.763
 2223SOL     OW 7567   6.205   5.169   3.437
 2223SOL    HW1 7568   6.140   5.102   3.402
 2223SOL    HW2 7569   6.178   5.195   3.530
 2224SOL     OW 7570   1.706   4.975   1.468
 2224SOL    HW1 7571   1.679   4.879   1.474
 2224SOL    HW2 7572   1.667   5.015   1.385
 2225SOL     OW 7573   6.354   4.631   2.248
 2225SOL    HW1 7574   6.409   4.714   2.256
 2225SOL    HW2 7575   6.358   4.597   2.154
 2226SOL     OW 7576   3.699   2.600   1.471
 2226SOL    HW1 7577   3.734   2.507   1.466
 2226SOL    HW2 7578   3.776   2.664   1.475
 2227SOL     OW 7579   6.646   4.124   6.128
 2227SOL    HW1 7580   6.555   4.164   6.117
 2227SOL    HW2 7581   6.648   4.033   6.087
 2228SOL     OW 7582   3.195   4.582   6.872
 2228SOL    HW1 7583   3.169   4.596   6.777
 2228SOL    HW2 7584   3.242   4.495   6.881
 2229SOL     OW 7585   4.588   1.210   3.944
 2229SOL    HW1 7586   4.569   1.306   3.967
 2229SOL    HW2 7587   4.538   1.150   4.007
 2230SOL     OW 7588   1.377   5.312   4.221
 2230SOL    HW1 7589   1.365   5.327   4.319
 2230SOL    HW2 7590   1.416   5.221   4.205
 2231SOL     OW 7591   1.893   1.172   2.235
 2231SOL    HW1 7592   1.938   1.108   2.297
 2231SOL    HW2 7593   1.934   1.263   2.245
 2232SOL     OW 7594   0.124   3.329   2.797
 2232SOL    HW1 7595   0.104   3.383   2.715
 2232SOL    HW2 7596   0.071   3.244   2.794
 2233SOL     OW 7597   3.550   5.393   0.430
 2233SOL    HW1 7598   3.647   5.371   0.424
 2233SOL    HW2 7599   3.517   5.421   0.340
 2234SOL     OW 7600   3.921   2.141   0.935
 2234SOL    HW1 7601   3.860   2.209   0.896
 2234SOL    HW2 7602   3.910   2.140   1.035
 2235SOL     OW 7603   1.204   0.242   6.873
 2235SOL    HW1 7604   1.161   0.155   6.847
 2235SOL    HW2 7605   1.274   0.225   6.942
 2236SOL     OW 7606   0.428   4.409   1.058
 2236SOL    HW1 7607   0.506   4.471   1.052
 2236SOL    HW2 7608   0.431   4.344   0.981
 2237SOL     OW 7609   6.906   3.272   4.642
 2237SOL    HW1 7610   6.910   3.239   4.548
 2237SOL    HW2 7611   6.835   3.342   4.650
 2238SOL     OW 7612   0.175   5.483   2.156
 2238SOL    HW1 7613   0.240   5.557   2.139
 2238SOL    HW2 7614   0.224   5.396   2.161
 2239SOL     OW 7615   4.169   4.822   3.408
 2239SOL    HW1 7616   4.230   4.744   3.388
 2239SOL    HW2 7617   4.202   4.869   3.489
 2240SOL     OW 7618   6.693   5.023   3.624
 2240SOL    HW1 7619   6.618   5.009   3.688
 2240SOL    HW2 7620   6.661   5.006   3.531
 2241SOL     OW 7621   0.326   6.158   2.198
 2241SOL    HW1 7622   0.315   6.151   2.098
 2241SOL    HW2 7623   0.256   6.218   2.235
 2242SOL     OW 7624   4.840   1.704   3.348
 2242SOL    HW1 7625   4.811   1.787   3.396
 2242SOL    HW2 7626   4.762   1.665   3.298
 2243SOL     OW 7627   2.637   6.282   4.508
 2243SOL    HW1 7628   2.631   6.225   4.589
 2243SOL    HW2 7629   2.733   6.305   4.490
 2244SOL     OW 7630   3.563   0.619   4.347
 2244SOL    HW1 7631   3.625   0.584   4.418
 2244SOL    HW2 7632   3.573   0.718   4.340
 2245SOL     OW 7633   0.118   2.271   2.717
 2245SOL    HW1 7634   0.096   2.186   2.764
 2245SOL    HW2 7635   0.216   2.273   2.695
 2246SOL     OW 7636   1.456   3.374   5.747
 2246SOL    HW1 7637   1.398   3.309   5.697
 2246SOL    HW2 7638   1.458   3.461   5.697
 2247SOL     OW 7639   2.358   2.293   5.220
 2247SOL    HW1 7640   2.288   2.227   5.194
 2247SOL    HW2 7641   2.335   2.333   5.309
 2248SOL     OW 7642   4.879   4.142   5.089
 2248SOL    HW1 7643   4.955   4.080   5.108
 2248SOL    HW2 7644   4.855   4.137   4.992
 2249SOL     OW 7645   5.338   6.042   2.925
 2249SOL    HW1 7646   5.337   6.127   2.873
 2249SOL    HW2 7647   5.411   6.046   2.994
 2250SOL     OW 7648   5.704   3.371   1.280
 2250SOL    HW1 7649   5.693   3.395   1.184
 2250SOL    HW2 7650   5.633   3.306   1.306
 2251SOL     OW 7651   6.100   1.843   0.023
 2251SOL    HW1 7652   6.052   1.926   7.023
 2251SOL    HW2 7653   6.053   1.802   0.100
 2252SOL     OW 7654   5.557   2.835   5.459
 2252SOL    HW1 7655   5.544   2.925   5.417
 2252SOL    HW2 7656   5.522   2.837   5.553
 2253SOL     OW 7657   2.673   3.170   6.887
 2253SOL    HW1 7658   2.746   3.116   6.844
 2253SOL    HW2 7659   2.675   3.156   6.986
 2254SOL     OW 7660   1.883   3.538   5.871
 2254SOL    HW1 7661   1.811   3.547   5.939
 2254SOL    HW2 7662   1.902   3.442   5.854
 2255SOL     OW 7663   6.128   2.910   1.886
 2255SOL    HW1 7664   6.036   2.948   1.880
 2255SOL    HW2 7665   6.195   2.984   1.876
 2256SOL     OW 7666   3.775   4.942   2.671
 2256SOL    HW1 7667   3.836   4.878   2.716
 2256SOL    HW2 7668   3.817   5.033   2.668
 2257SOL     OW 7669   1.538   3.575   4.544
 2257SOL    HW1 7670   1.572   3.498   4.489
 2257SOL    HW2 7671   1.439   3.584   4.532
 2258SOL     OW 7672   1.893   4.871   5.352
 2258SOL    HW1 7673   1.848   4.786   5.378
 2258SOL    HW2 7674   1.854   4.905   5.267
 2259SOL     OW 7675   5.839   4.077   6.517
 2259SOL    HW1 7676   5.769   4.114   6.456
 2259SOL    HW2 7677   5.832   4.122   6.606
 2260SOL     OW 7678   4.263   5.084   2.232
 2260SOL    HW1 7679   4.228   4.997   2.267
 2260SOL    HW2 7680   4.298   5.072   2.139
 2261SOL     OW 7681   5.337   6.422   0.959
 2261SOL    HW1 7682   5.324   6.457   0.867
 2261SOL    HW2 7683   5.420   6.366   0.962
 2262SOL     OW 7684   5.325   2.380   4.137
 2262SOL    HW1 7685   5.420   2.356   4.118
 2262SOL    HW2 7686   5.318   2.422   4.227
 2263SOL     OW 7687   1.707   5.616   5.535
 2263SOL    HW1 7688   1.772   5.663   5.476
 2263SOL    HW2 7689   1.631   5.678   5.557
 2264SOL     OW 7690   2.884   3.646   2.848
 2264SOL    HW1 7691   2.902   3.564   2.902
 2264SOL    HW2 7692   2.890   3.727   2.907
 2265SOL     OW 7693   6.845   1.030   2.286
 2265SOL    HW1 7694   6.844   1.057   2.189
 2265SOL    HW2 7695   6.939   1.025   2.318
 2266SOL     OW 7696   6.321   0.713   0.915
 2266SOL    HW1 7697   6.337   0.745   1.009
 2266SOL    HW2 7698   6.259   0.635   0.917
 2267SOL     OW 7699   6.004   2.399   4.699
 2267SOL    HW1 7700   6.064   2.478   4.690
 2267SOL    HW2 7701   5.975   2.390   4.794
 2268SOL     OW 7702   6.976   6.281   0.529
 2268SOL    HW1 7703   7.008   6.376   0.534
 2268SOL    HW2 7704   6.892   6.278   0.474
 2269SOL     OW 7705   6.565   6.155   5.950
 2269SOL    HW1 7706   6.564   6.185   6.046
 2269SOL    HW2 7707   6.530   6.229   5.892
 2270SOL     OW 7708   2.946   3.450   2.159
 2270SOL    HW1 7709   3.028   3.402   2.188
 2270SOL    HW2 7710   2.902   3.400   2.084
 2271SOL     OW 7711   5.751   4.445   1.624
 2271SOL    HW1 7712   5.758   4.389   1.542
 2271SOL    HW2 7713   5.759   4.542   1.599
 2272SOL     OW 7714   5.178   1.949   5.523
 2272SOL    HW1 7715   5.196   2.008   5.444
 2272SOL    HW2 7716   5.248   1.964   5.592
 2273SOL     OW 7717   0.439   0.586   3.401
 2273SOL    HW1 7718   0.459   0.649   3.326
 2273SOL    HW2 7719   0.340   0.573   3.409
 2274SOL     OW 7720   1.526   3.788   4.868
 2274SOL    HW1 7721   1.615   3.759   4.832
 2274SOL    HW2 7722   1.474   3.708   4.897
 2275SOL     OW 7723   5.449   5.756   4.642
 2275SOL    HW1 7724   5.443   5.657   4.653
 2275SOL    HW2 7725   5.363   5.798   4.671
 2276SOL     OW 7726   4.123   4.052   0.630
 2276SOL    HW1 7727   4.167   4.137   0.660
 2276SOL    HW2 7728   4.030   4.073   0.599
 2277SOL     OW 7729   2.981   3.419   5.924
 2277SOL    HW1 7730   3.070   3.463   5.921
 2277SOL    HW2 7731   2.980   3.341   5.862
 2278SOL     OW 7732   5.592   6.384   2.512
 2278SOL    HW1 7733   5.526   6.436   2.458
 2278SOL    HW2 7734   5.595   6.290   2.478
 2279SOL     OW 7735   5.848   3.455   5.009
 2279SOL    HW1 7736   5.868   3.517   5.085
 2279SOL    HW2 7737   5.892   3.489   4.926
 2280SOL     OW 7738   6.776   6.314   5.315
 2280SOL    HW1 7739   6.785   6.340   5.219
 2280SOL    HW2 7740   6.779   6.397   5.372
 2281SOL     OW 7741   3.746   2.071   1.712
 2281SOL    HW1 7742   3.783   2.010   1.782
 2281SOL    HW2 7743   3.735   2.163   1.750
 2282SOL     OW 7744   4.404   5.565   4.236
 2282SOL    HW1 7745   4.473   5.503   4.273
 2282SOL    HW2 7746   4.313   5.533   4.262
 2283SOL     OW 7747   6.796   4.217   3.358
 2283SOL    HW1 7748   6.773   4.163   3.277
 2283SOL    HW2 7749   6.739   4.188   3.435
 2284SOL     OW 7750   2.311   2.411   1.472
 2284SOL    HW1 7751   2.237   2.357   1.509
 2284SOL    HW2 7752   2.390   2.406   1.533
 2285SOL     OW 7753   1.683   3.612   0.163
 2285SOL    HW1 7754   1.710   3.695   0.113
 2285SOL    HW2 7755   1.663   3.637   0.258
 2286SOL     OW 7756   6.523   5.520   4.621
 2286SOL    HW1 7757   6.531   5.473   4.709
 2286SOL    HW2 7758   6.468   5.465   4.558
 2287SOL     OW 7759   2.483   2.606   1.018
 2287SOL    HW1 7760   2.510   2.633   1.111
 2287SOL    HW2 7761   2.405   2.661   0.989
 2288SOL     OW 7762   0.482   6.664   3.426
 2288SOL    HW1 7763   0.578   6.638   3.416
 2288SOL    HW2 7764   0.428   6.616   3.357
 2289SOL     OW 7765   5.578   1.727   2.217
 2289SOL    HW1 7766   5.635   1.688   2.145
 2289SOL    HW2 7767   5.484   1.696   2.205
 2290SOL     OW 7768   3.134   3.884   3.223
 2290SOL    HW1 7769   3.166   3.789   3.232
 2290SOL    HW2 7770   3.106   3.901   3.129
 2291SOL     OW 7771   2.039   1.911   1.264
 2291SOL    HW1 7772   2.022   1.988   1.325
 2291SOL    HW2 7773   1.954   1.888   1.216
 2292SOL     OW 7774   4.752   2.231   3.694
 2292SOL    HW1 7775   4.835   2.177   3.704
 2292SOL    HW2 7776   4.674   2.171   3.683
 2293SOL     OW 7777   5.523   1.249   0.986
 2293SOL    HW1 7778   5.427   1.260   0.961
 2293SOL    HW2 7779   5.566   1.180   0.928
 2294SOL     OW 7780   1.513   2.627   5.848
 2294SOL    HW1 7781   1.496   2.672   5.760
 2294SOL    HW2 7782   1.598   2.661   5.887
 2295SOL     OW 7783   6.360   0.321   1.912
 2295SOL    HW1 7784   6.335   0.410   1.950
 2295SOL    HW2 7785   6.282   0.284   1.862
 2296SOL     OW 7786   2.300   5.139   3.212
 2296SOL    HW1 7787   2.287   5.112   3.307
 2296SOL    HW2 7788   2.222   5.195   3.182
 2297SOL     OW 7789   5.302   4.826   5.697
 2297SOL    HW1 7790   5.253   4.848   5.781
 2297SOL    HW2 7791   5.387   4.878   5.693
 2298SOL     OW 7792   3.803   3.072   4.748
 2298SOL    HW1 7793   3.895   3.087   4.784
 2298SOL    HW2 7794   3.751   3.015   4.812
 2299SOL     OW 7795   5.371   3.228   5.050
 2299SOL    HW1 7796   5.278   3.205   5.078
 2299SOL    HW2 7797   5.381   3.327   5.045
 2300SOL     OW 7798   4.148   0.112   3.379
 2300SOL    HW1 7799   4.166   0.057   3.461
 2300SOL    HW2 7800   4.146   0.052   3.299
 2301SOL     OW 7801   3.181   3.189   4.307
 2301SOL    HW1 7802   3.158   3.221   4.400
 2301SOL    HW2 7803   3.113   3.225   4.243
 2302SOL     OW 7804   4.127   1.589   0.521
 2302SOL    HW1 7805   4.094   1.525   0.451
 2302SOL    HW2 7806   4.179   1.539   0.590
 2303SOL     OW 7807   2.785   2.952   0.765
 2303SOL    HW1 7808   2.833   2.868   0.789
 2303SOL    HW2 7809   2.848   3.016   0.723
 2304SOL     OW 7810   6.581   6.006   2.969
 2304SOL    HW1 7811   6.581   5.907   2.955
 2304SOL    HW2 7812   6.662   6.045   2.926
 2305SOL     OW 7813   1.391   1.088   4.561
 2305SOL    HW1 7814   1.320   1.114   4.627
 2305SOL    HW2 7815   1.449   1.167   4.543
 2306SOL     OW 7816   1.866   4.803   3.566
 2306SOL    HW1 7817   1.883   4.705   3.557
 2306SOL    HW2 7818   1.768   4.819   3.581
 2307SOL     OW 7819   1.226   2.810   5.496
 2307SOL    HW1 7820   1.306   2.778   5.546
 2307SOL    HW2 7821   1.151   2.827   5.560
 2308SOL     OW 7822   2.095   4.626   1.391
 2308SOL    HW1 7823   2.150   4.559   1.341
 2308SOL    HW2 7824   2.154   4.699   1.424
 2309SOL     OW 7825   1.260   0.071   4.287
 2309SOL    HW1 7826   1.290   7.014   4.331
 2309SOL    HW2 7827   1.299   0.076   4.195
 2310SOL     OW 7828   4.504   6.773   1.854
 2310SOL    HW1 7829   4.584   6.809   1.902
 2310SOL    HW2 7830   4.433   6.842   1.851
 2311SOL     OW 7831   2.660   6.122   0.299
 2311SOL    HW1 7832   2.646   6.032   0.259
 2311SOL    HW2 7833   2.750   6.156   0.274
 2312SOL     OW 7834   3.508   6.157   2.516
 2312SOL    HW1 7835   3.593   6.107   2.533
 2312SOL    HW2 7836   3.440   6.132   2.584
 2313SOL     OW 7837   4.997   4.826   2.902
 2313SOL    HW1 7838   5.044   4.777   2.975
 2313SOL    HW2 7839   5.063   4.880   2.849
 2314SOL     OW 7840   2.970   5.544   3.063
 2314SOL    HW1 7841   2.899   5.503   3.121
 2314SOL    HW2 7842   3.060   5.514   3.094
 2315SOL     OW 7843   4.738   3.149   5.999
 2315SOL    HW1 7844   4.694   3.204   5.928
 2315SOL    HW2 7845   4.682   3.068   6.019
 2316SOL     OW 7846   5.627   2.765   3.002
 2316SOL    HW1 7847   5.663   2.757   2.910
 2316SOL    HW2 7848   5.552   2.831   3.004
 2317SOL     OW 7849   1.518   4.464   2.608
 2317SOL    HW1 7850   1.517   4.465   2.508
 2317SOL    HW2 7851   1.480   4.550   2.643
 2318SOL     OW 7852   0.412   1.526   2.992
 2318SOL    HW1 7853   0.426   1.539   2.893
 2318SOL    HW2 7854   0.498   1.499   3.034
 2319SOL     OW 7855   1.898   4.214   4.766
 2319SOL    HW1 7856   1.950   4.252   4.690
 2319SOL    HW2 7857   1.871   4.121   4.744
 2320SOL     OW 7858   0.348   2.489   4.033
 2320SOL    HW1 7859   0.350   2.398   4.076
 2320SOL    HW2 7860   0.255   2.510   4.004
 2321SOL     OW 7861   2.884   6.739   4.469
 2321SOL    HW1 7862   2.919   6.828   4.499
 2321SOL    HW2 7863   2.954   6.693   4.415
 2322SOL     OW 7864   1.239   1.169   5.471
 2322SOL    HW1 7865   1.233   1.075   5.435
 2322SOL    HW2 7866   1.149   1.199   5.500
 2323SOL     OW 7867   4.431   5.658   3.179
 2323SOL    HW1 7868   4.340   5.690   3.204
 2323SOL    HW2 7869   4.453   5.575   3.229
 2324SOL     OW 7870   0.834   6.019   2.881
 2324SOL    HW1 7871   0.857   5.979   2.792
 2324SOL    HW2 7872   0.879   5.966   2.953
 2325SOL     OW 7873   1.167   3.918   1.013
 2325SOL    HW1 7874   1.202   3.836   0.967
 2325SOL    HW2 7875   1.108   3.969   0.950
 2326SOL     OW 7876   1.691   5.240   6.893
 2326SOL    HW1 7877   1.611   5.212   6.840
 2326SOL    HW2 7878   1.773   5.199   6.854
 2327SOL     OW 7879   4.844   2.576   4.168
 2327SOL    HW1 7880   4.760   2.571   4.115
 2327SOL    HW2 7881   4.918   2.612   4.111
 2328SOL     OW 7882   4.677   1.292   3.294
 2328SOL    HW1 7883   4.713   1.361   3.357
 2328SOL    HW2 7884   4.596   1.327   3.247
 2329SOL     OW 7885   1.058   5.539   3.926
 2329SOL    HW1 7886   1.114   5.562   4.006
 2329SOL    HW2 7887   0.975   5.595   3.927
 2330SOL     OW 7888   0.861   4.502   2.296
 2330SOL    HW1 7889   0.833   4.524   2.389
 2330SOL    HW2 7890   0.946   4.550   2.274
 2331SOL     OW 7891   0.443   3.943   5.287
 2331SOL    HW1 7892   0.459   3.883   5.208
 2331SOL    HW2 7893   0.505   4.021   5.283
 2332SOL     OW 7894   5.357   2.910   6.010
 2332SOL    HW1 7895   5.400   2.934   5.923
 2332SOL    HW2 7896   5.297   2.831   5.997
 2333SOL     OW 7897   1.372   5.331   3.168
 2333SOL    HW1 7898   1.415   5.249   3.207
 2333SOL    HW2 7899   1.439   5.381   3.114
 2334SOL     OW 7900   3.219   0.103   6.822
 2334SOL    HW1 7901   3.178   0.059   6.902
 2334SOL    HW2 7902   3.313   0.069   6.810
 2335SOL     OW 7903   5.235   6.747   3.236
 2335SOL    HW1 7904   5.201   6.803   3.161
 2335SOL    HW2 7905   5.306   6.684   3.202
 2336SOL     OW 7906   4.862   1.215   6.203
 2336SOL    HW1 7907   4.804   1.135   6.222
 2336SOL    HW2 7908   4.923   1.230   6.281
 2337SOL     OW 7909   5.621   0.030   3.273
 2337SOL    HW1 7910   5.595   0.087   3.195
 2337SOL    HW2 7911   5.610   6.962   3.248
 2338SOL     OW 7912   0.067   0.011   6.829
 2338SOL    HW1 7913   0.016   0.047   6.751
 2338SOL    HW2 7914   0.068   0.079   6.903
 2339SOL     OW 7915   3.787   4.679   6.459
 2339SOL    HW1 7916   3.843   4.746   6.507
 2339SOL    HW2 7917   3.690   4.702   6.471
 2340SOL     OW 7918   3.675   5.725   4.429
 2340SOL    HW1 7919   3.593   5.700   4.378
 2340SOL    HW2 7920   3.662   5.815   4.470
 2341SOL     OW 7921   5.858   5.165   0.921
 2341SOL    HW1 7922   5.822   5.083   0.967
 2341SOL    HW2 7923   5.795   5.193   0.849
 2342SOL     OW 7924   6.776   0.475   5.018
 2342SOL    HW1 7925   6.806   0.471   5.113
 2342SOL    HW2 7926   6.833   0.415   4.962
 2343SOL     OW 7927   1.191   5.497   1.342
 2343SOL    HW1 7928   1.260   5.483   1.271
 2343SOL    HW2 7929   1.226   5.562   1.409
 2344SOL     OW 7930   2.241   2.167   2.665
 2344SOL    HW1 7931   2.336   2.165   2.634
 2344SOL    HW2 7932   2.238   2.200   2.759
 2345SOL     OW 7933   1.607   0.719   4.394
 2345SOL    HW1 7934   1.578   0.623   4.389
 2345SOL    HW2 7935   1.528   0.777   4.413
 2346SOL     OW 7936   4.823   3.752   5.818
 2346SOL    HW1 7937   4.831   3.662   5.862
 2346SOL    HW2 7938   4.769   3.743   5.734
 2347SOL     OW 7939   1.643   3.146   1.796
 2347SOL    HW1 7940   1.550   3.184   1.802
 2347SOL    HW2 7941   1.709   3.214   1.827
 2348SOL     OW 7942   2.984   6.296   3.271
 2348SOL    HW1 7943   2.981   6.211   3.218
 2348SOL    HW2 7944   2.891   6.324   3.293
 2349SOL     OW 7945   0.046   6.907   6.181
 2349SOL    HW1 7946   0.028   6.985   6.240
 2349SOL    HW2 7947   0.007   6.924   6.090
 2350SOL     OW 7948   2.863   0.505   5.575
 2350SOL    HW1 7949   2.889   0.410   5.562
 2350SOL    HW2 7950   2.900   0.538   5.662
 2351SOL     OW 7951   2.590   4.771   3.456
 2351SOL    HW1 7952   2.631   4.772   3.548
 2351SOL    HW2 7953   2.526   4.847   3.448
 2352SOL     OW 7954   6.874   4.294   2.934
 2352SOL    HW1 7955   6.775   4.288   2.944
 2352SOL    HW2 7956   6.917   4.215   2.978
 2353SOL     OW 7957   2.742   4.423   5.733
 2353SOL    HW1 7958   2.804   4.345   5.746
 2353SOL    HW2 7959   2.657   4.392   5.692
 2354SOL     OW 7960   3.735   2.285   0.809
 2354SOL    HW1 7961   3.663   2.273   0.741
 2354SOL    HW2 7962   3.805   2.347   0.773
 2355SOL     OW 7963   0.568   6.320   0.214
 2355SOL    HW1 7964   0.524   6.410   0.211
 2355SOL    HW2 7965   0.618   6.311   0.300
 2356SOL     OW 7966   2.418   5.079   2.672
 2356SOL    HW1 7967   2.373   5.101   2.758
 2356SOL    HW2 7968   2.349   5.060   2.602
 2357SOL     OW 7969   5.576   4.497   2.302
 2357SOL    HW1 7970   5.490   4.454   2.274
 2357SOL    HW2 7971   5.639   4.498   2.224
 2358SOL     OW 7972   3.789   0.577   5.641
 2358SOL    HW1 7973   3.768   0.604   5.547
 2358SOL    HW2 7974   3.819   0.481   5.641
 2359SOL     OW 7975   2.601   1.618   5.462
 2359SOL    HW1 7976   2.539   1.588   5.534
 2359SOL    HW2 7977   2.557   1.690   5.408
 2360SOL     OW 7978   4.171   4.907   1.078
 2360SOL    HW1 7979   4.136   4.813   1.076
 2360SOL    HW2 7980   4.244   4.916   1.010
 2361SOL     OW 7981   3.273   6.887   2.650
 2361SOL    HW1 7982   3.364   6.846   2.659
 2361SOL    HW2 7983   3.255   6.907   2.554
 2362SOL     OW 7984   4.895   5.603   4.602
 2362SOL    HW1 7985   4.835   5.660   4.658
 2362SOL    HW2 7986   4.880   5.623   4.505
 2363SOL     OW 7987   3.122   3.295   7.020
 2363SOL    HW1 7988   3.103   3.315   6.924
 2363SOL    HW2 7989   3.053   3.231   0.027
 2364SOL     OW 7990   4.700   1.519   1.837
 2364SOL    HW1 7991   4.680   1.421   1.846
 2364SOL    HW2 7992   4.615   1.571   1.841
 2365SOL     OW 7993   5.261   3.297   4.212
 2365SOL    HW1 7994   5.290   3.262   4.123
 2365SOL    HW2 7995   5.302   3.243   4.284
 2366SOL     OW 7996   2.393   3.903   5.816
 2366SOL    HW1 7997   2.448   3.829   5.777
 2366SOL    HW2 7998   2.322   3.930   5.751
 2367SOL     OW 7999   0.800   3.603   6.346
 2367SOL    HW1 8000   0.872   3.570   6.408
 2367SOL    HW2 8001   0.842   3.652   6.270
 2368SOL     OW 8002   5.568   0.470   4.161
 2368SOL    HW1 8003   5.492   0.464   4.226
 2368SOL    HW2 8004   5.602   0.378   4.141
 2369SOL     OW 8005   3.161   1.425   3.693
 2369SOL    HW1 8006   3.208   1.490   3.752
 2369SOL    HW2 8007   3.170   1.333   3.731
 2370SOL     OW 8008   4.824   2.700   1.022
 2370SOL    HW1 8009   4.742   2.739   1.065
 2370SOL    HW2 8010   4.811   2.601   1.009
 2371SOL     OW 8011   0.596   6.544   2.693
 2371SOL    HW1 8012   0.675   6.483   2.704
 2371SOL    HW2 8013   0.612   6.604   2.614
 2372SOL     OW 8014   6.293   1.410   5.831
 2372SOL    HW1 8015   6.324   1.455   5.747
 2372SOL    HW2 8016   6.372   1.374   5.880
 2373SOL     OW 8017   6.364   0.782   6.425
 2373SOL    HW1 8018   6.269   0.812   6.430
 2373SOL    HW2 8019   6.368   0.683   6.414
 2374SOL     OW 8020   5.891   6.003   2.983
 2374SOL    HW1 8021   5.827   5.985   3.057
 2374SOL    HW2 8022   5.963   6.064   3.015
 2375SOL     OW 8023   1.029   0.294   3.787
 2375SOL    HW1 8024   1.060   0.389   3.797
 2375SOL    HW2 8025   0.959   0.289   3.716
 2376SOL     OW 8026   6.561   2.593   3.125
 2376SOL    HW1 8027   6.574   2.494   3.128
 2376SOL    HW2 8028   6.524   2.620   3.036
 2377SOL     OW 8029   3.969   4.931   6.417
 2377SOL    HW1 8030   3.910   4.983   6.355
 2377SOL    HW2 8031   4.065   4.955   6.401
 2378SOL     OW 8032   5.951   2.159   0.627
 2378SOL    HW1 8033   5.933   2.115   0.539
 2378SOL    HW2 8034   5.884   2.231   0.644
 2379SOL     OW 8035   0.150   5.365   0.386
 2379SOL    HW1 8036   0.243   5.380   0.351
 2379SOL    HW2 8037   0.137   5.418   0.470
 2380SOL     OW 8038   5.747   3.440   5.457
 2380SOL    HW1 8039   5.668   3.431   5.518
 2380SOL    HW2 8040   5.792   3.528   5.474
 2381SOL     OW 8041   2.518   4.817   5.289
 2381SOL    HW1 8042   2.551   4.911   5.294
 2381SOL    HW2 8043   2.449   4.802   5.360
 2382SOL     OW 8044   1.481   5.899   2.875
 2382SOL    HW1 8045   1.578   5.920   2.885
 2382SOL    HW2 8046   1.459   5.885   2.778
 2383SOL     OW 8047   5.313   6.049   5.759
 2383SOL    HW1 8048   5.353   6.006   5.678
 2383SOL    HW2 8049   5.269   6.135   5.732
 2384SOL     OW 8050   0.826   2.156   1.554
 2384SOL    HW1 8051   0.782   2.084   1.500
 2384SOL    HW2 8052   0.922   2.134   1.568
 2385SOL     OW 8053   0.703   1.849   0.314
 2385SOL    HW1 8054   0.795   1.814   0.299
 2385SOL    HW2 8055   0.641   1.810   0.245
 2386SOL     OW 8056   3.329   5.410   4.236
 2386SOL    HW1 8057   3.313   5.380   4.143
 2386SOL    HW2 8058   3.242   5.414   4.285
 2387SOL     OW 8059   0.869   2.609   3.350
 2387SOL    HW1 8060   0.773   2.602   3.321
 2387SOL    HW2 8061   0.893   2.530   3.405
 2388SOL     OW 8062   6.679   2.093   6.308
 2388SOL    HW1 8063   6.615   2.123   6.237
 2388SOL    HW2 8064   6.726   2.173   6.345
 2389SOL     OW 8065   5.424   4.921   4.409
 2389SOL    HW1 8066   5.338   4.917   4.358
 2389SOL    HW2 8067   5.449   4.829   4.440
 2390SOL     OW 8068   4.667   3.274   6.261
 2390SOL    HW1 8069   4.636   3.357   6.216
 2390SOL    HW2 8070   4.696   3.207   6.193
 2391SOL     OW 8071   3.601   3.702   6.334
 2391SOL    HW1 8072   3.574   3.617   6.289
 2391SOL    HW2 8073   3.633   3.767   6.265
 2392SOL     OW 8074   3.190   5.444   5.682
 2392SOL    HW1 8075   3.228   5.361   5.723
 2392SOL    HW2 8076   3.091   5.434   5.672
 2393SOL     OW 8077   3.906   5.523   1.566
 2393SOL    HW1 8078   3.953   5.457   1.625
 2393SOL    HW2 8079   3.908   5.614   1.608
 2394SOL     OW 8080   6.872   3.369   3.248
 2394SOL    HW1 8081   6.953   3.404   3.295
 2394SOL    HW2 8082   6.900   3.319   3.166
 2395SOL     OW 8083   0.407   3.334   6.724
 2395SOL    HW1 8084   0.384   3.334   6.627
 2395SOL    HW2 8085   0.435   3.425   6.752
 2396SOL     OW 8086   5.373   0.469   4.878
 2396SOL    HW1 8087   5.449   0.516   4.833
 2396SOL    HW2 8088   5.298   0.456   4.813
 2397SOL     OW 8089   0.799   4.947   5.456
 2397SOL    HW1 8090   0.795   4.936   5.357
 2397SOL    HW2 8091   0.778   5.042   5.480
 2398SOL     OW 8092   2.797   5.362   3.227
 2398SOL    HW1 8093   2.785   5.398   3.320
 2398SOL    HW2 8094   2.711   5.373   3.177
 2399SOL     OW 8095   2.608   2.466   3.701
 2399SOL    HW1 8096   2.545   2.390   3.719
 2399SOL    HW2 8097   2.602   2.533   3.776
 2400SOL     OW 8098   1.982   3.915   0.204
 2400SOL    HW1 8099   2.065   3.914   0.149
 2400SOL    HW2 8100   1.979   3.834   0.263
 2401SOL     OW 8101   3.376   0.127   4.441
 2401SOL    HW1 8102   3.344   0.220   4.422
 2401SOL    HW2 8103   3.299   0.069   4.467
 2402SOL     OW 8104   0.763   2.055   2.556
 2402SOL    HW1 8105   0.765   2.088   2.650
 2402SOL    HW2 8106   0.671   2.025   2.532
 2403SOL     OW 8107   3.695   3.204   1.436
 2403SOL    HW1 8108   3.738   3.139   1.374
 2403SOL    HW2 8109   3.598   3.211   1.414
 2404SOL     OW 8110   6.811   1.781   1.372
 2404SOL    HW1 8111   6.877   1.788   1.297
 2404SOL    HW2 8112   6.755   1.699   1.360
 2405SOL     OW 8113   2.625   4.576   6.966
 2405SOL    HW1 8114   2.685   4.604   6.891
 2405SOL    HW2 8115   2.551   4.520   6.929
 2406SOL     OW 8116   1.553   0.570   3.818
 2406SOL    HW1 8117   1.552   0.670   3.818
 2406SOL    HW2 8118   1.635   0.538   3.867
 2407SOL     OW 8119   4.407   2.079   3.382
 2407SOL    HW1 8120   4.483   2.105   3.322
 2407SOL    HW2 8121   4.383   1.984   3.365
 2408SOL     OW 8122   2.351   5.821   3.427
 2408SOL    HW1 8123   2.269   5.878   3.426
 2408SOL    HW2 8124   2.339   5.747   3.493
 2409SOL     OW 8125   2.598   3.117   0.928
 2409SOL    HW1 8126   2.538   3.154   0.858
 2409SOL    HW2 8127   2.623   3.023   0.905
 2410SOL     OW 8128   5.879   3.497   5.969
 2410SOL    HW1 8129   5.802   3.449   6.011
 2410SOL    HW2 8130   5.881   3.476   5.871
 2411SOL     OW 8131   2.709   4.158   6.414
 2411SOL    HW1 8132   2.709   4.187   6.510
 2411SOL    HW2 8133   2.718   4.058   6.410
 2412SOL     OW 8134   2.896   2.921   6.873
 2412SOL    HW1 8135   2.887   2.942   6.970
 2412SOL    HW2 8136   2.934   2.829   6.863
 2413SOL     OW 8137   0.094   3.387   6.210
 2413SOL    HW1 8138   0.019   3.441   6.171
 2413SOL    HW2 8139   0.181   3.422   6.176
 2414SOL     OW 8140   5.421   2.779   4.124
 2414SOL    HW1 8141   5.496   2.845   4.115
 2414SOL    HW2 8142   5.409   2.730   4.038
 2415SOL     OW 8143   2.271   6.679   1.058
 2415SOL    HW1 8144   2.242   6.609   1.123
 2415SOL    HW2 8145   2.305   6.636   0.975
 2416SOL     OW 8146   0.315   3.521   2.866
 2416SOL    HW1 8147   0.244   3.451   2.856
 2416SOL    HW2 8148   0.299   3.594   2.800
 2417SOL     OW 8149   4.792   2.384   6.691
 2417SOL    HW1 8150   4.860   2.410   6.622
 2417SOL    HW2 8151   4.833   2.321   6.756
 2418SOL     OW 8152   4.072   4.140   5.227
 2418SOL    HW1 8153   4.085   4.230   5.269
 2418SOL    HW2 8154   3.985   4.139   5.177
 2419SOL     OW 8155   1.824   6.865   4.201
 2419SOL    HW1 8156   1.756   6.924   4.244
 2419SOL    HW2 8157   1.906   6.862   4.258
 2420SOL     OW 8158   3.528   5.725   2.384
 2420SOL    HW1 8159   3.440   5.770   2.397
 2420SOL    HW2 8160   3.515   5.626   2.384
 2421SOL     OW 8161   3.536   6.387   3.940
 2421SOL    HW1 8162   3.501   6.478   3.962
 2421SOL    HW2 8163   3.493   6.355   3.856
 2422SOL     OW 8164   4.013   6.990   1.477
 2422SOL    HW1 8165   4.074   6.945   1.412
 2422SOL    HW2 8166   3.983   6.923   1.545
 2423SOL     OW 8167   2.128   5.160   1.847
 2423SOL    HW1 8168   2.053   5.138   1.784
 2423SOL    HW2 8169   2.130   5.093   1.921
 2424SOL     OW 8170   5.458   6.896   6.987
 2424SOL    HW1 8171   5.424   6.959   0.029
 2424SOL    HW2 8172   5.438   6.933   6.896
 2425SOL     OW 8173   5.089   5.338   5.583
 2425SOL    HW1 8174   5.111   5.241   5.569
 2425SOL    HW2 8175   5.022   5.367   5.515
 2426SOL     OW 8176   1.503   5.829   5.017
 2426SOL    HW1 8177   1.437   5.891   4.975
 2426SOL    HW2 8178   1.486   5.736   4.984
 2427SOL     OW 8179   4.879   6.618   6.313
 2427SOL    HW1 8180   4.795   6.607   6.365
 2427SOL    HW2 8181   4.951   6.656   6.371
 2428SOL     OW 8182   6.916   1.245   3.689
 2428SOL    HW1 8183   6.894   1.336   3.654
 2428SOL    HW2 8184   6.910   1.179   3.615
 2429SOL     OW 8185   5.264   4.998   2.517
 2429SOL    HW1 8186   5.361   5.004   2.492
 2429SOL    HW2 8187   5.208   5.014   2.436
 2430SOL     OW 8188   5.729   2.304   0.681
 2430SOL    HW1 8189   5.631   2.306   0.704
 2430SOL    HW2 8190   5.775   2.381   0.726
 2431SOL     OW 8191   6.356   1.880   2.090
 2431SOL    HW1 8192   6.338   1.924   2.179
 2431SOL    HW2 8193   6.330   1.783   2.095
 2432SOL     OW 8194   3.216   5.140   1.732
 2432SOL    HW1 8195   3.132   5.086   1.732
 2432SOL    HW2 8196   3.193   5.237   1.737
 2433SOL     OW 8197   0.362   5.629   6.890
 2433SOL    HW1 8198   0.298   5.562   6.927
 2433SOL    HW2 8199   0.434   5.647   6.957
 2434SOL     OW 8200   4.180   2.316   2.474
 2434SOL    HW1 8201   4.163   2.264   2.390
 2434SOL    HW2 8202   4.099   2.370   2.497
 2435SOL     OW 8203   5.499   6.087   0.104
 2435SOL    HW1 8204   5.458   6.159   0.160
 2435SOL    HW2 8205   5.596   6.079   0.125
 2436SOL     OW 8206   1.346   1.248   1.346
 2436SOL    HW1 8207   1.355   1.335   1.395
 2436SOL    HW2 8208   1.253   1.212   1.359
 2437SOL     OW 8209   5.862   5.837   2.236
 2437SOL    HW1 8210   5.925   5.866   2.165
 2437SOL    HW2 8211   5.908   5.842   2.325
 2438SOL     OW 8212   3.962   1.898   4.695
 2438SOL    HW1 8213   3.962   1.884   4.596
 2438SOL    HW2 8214   3.894   1.967   4.719
 2439SOL     OW 8215   0.217   5.777   6.711
 2439SOL    HW1 8216   0.239   5.874   6.713
 2439SOL    HW2 8217   0.269   5.729   6.782
 2440SOL     OW 8218   4.351   0.636   4.512
 2440SOL    HW1 8219   4.423   0.674   4.453
 2440SOL    HW2 8220   4.388   0.561   4.566
 2441SOL     OW 8221   5.433   0.701   6.892
 2441SOL    HW1 8222   5.488   0.721   6.973
 2441SOL    HW2 8223   5.451   0.607   6.862
 2442SOL     OW 8224   5.321   3.430   2.104
 2442SOL    HW1 8225   5.226   3.398   2.107
 2442SOL    HW2 8226   5.363   3.419   2.194
 2443SOL     OW 8227   2.330   1.327   6.654
 2443SOL    HW1 8228   2.319   1.390   6.731
 2443SOL    HW2 8229   2.242   1.283   6.634
 2444SOL     OW 8230   4.342   4.632   0.167
 2444SOL    HW1 8231   4.262   4.579   0.193
 2444SOL    HW2 8232   4.384   4.592   0.085
 2445SOL     OW 8233   6.342   1.583   2.000
 2445SOL    HW1 8234   6.330   1.486   2.022
 2445SOL    HW2 8235   6.320   1.598   1.903
 2446SOL     OW 8236   0.971   2.792   2.111
 2446SOL    HW1 8237   1.037   2.866   2.097
 2446SOL    HW2 8238   0.910   2.786   2.032
 2447SOL     OW 8239   2.286   0.725   0.612
 2447SOL    HW1 8240   2.320   0.764   0.526
 2447SOL    HW2 8241   2.348   0.652   0.642
 2448SOL     OW 8242   6.128   2.410   4.222
 2448SOL    HW1 8243   6.159   2.465   4.299
 2448SOL    HW2 8244   6.100   2.320   4.255
 2449SOL     OW 8245   1.258   4.055   1.864
 2449SOL    HW1 8246   1.212   4.093   1.784
 2449SOL    HW2 8247   1.234   4.108   1.945
 2450SOL     OW 8248   3.197   5.153   6.923
 2450SOL    HW1 8249   3.113   5.183   6.878
 2450SOL    HW2 8250   3.174   5.100   7.005
 2451SOL     OW 8251   0.669   6.860   4.325
 2451SOL    HW1 8252   0.648   6.924   4.251
 2451SOL    HW2 8253   0.740   6.900   4.383
 2452SOL     OW 8254   2.363   2.249   2.902
 2452SOL    HW1 8255   2.459   2.277   2.899
 2452SOL    HW2 8256   2.317   2.294   2.979
 2453SOL     OW 8257   6.865   2.321   0.685
 2453SOL    HW1 8258   6.962   2.342   0.669
 2453SOL    HW2 8259   6.827   2.389   0.749
 2454SOL     OW 8260   3.065   5.692   0.063
 2454SOL    HW1 8261   3.157   5.681   0.102
 2454SOL    HW2 8262   3.045   5.615   0.003
 2455SOL     OW 8263   3.574   1.117   0.280
 2455SOL    HW1 8264   3.477   1.126   0.304
 2455SOL    HW2 8265   3.584   1.113   0.180
 2456SOL     OW 8266   0.847   3.506   6.907
 2456SOL    HW1 8267   0.807   3.597   6.916
 2456SOL    HW2 8268   0.854   3.464   6.997
 2457SOL     OW 8269   5.878   0.810   5.751
 2457SOL    HW1 8270   5.782   0.785   5.763
 2457SOL    HW2 8271   5.922   0.745   5.689
 2458SOL     OW 8272   0.844   0.946   3.105
 2458SOL    HW1 8273   0.784   0.937   3.184
 2458SOL    HW2 8274   0.927   0.995   3.131
 2459SOL     OW 8275   3.001   5.950   5.678
 2459SOL    HW1 8276   2.955   5.866   5.706
 2459SOL    HW2 8277   2.933   6.016   5.644
 2460SOL     OW 8278   1.048   0.734   0.456
 2460SOL    HW1 8279   1.067   0.656   0.398
 2460SOL    HW2 8280   1.025   0.813   0.400
 2461SOL     OW 8281   4.775   7.001   4.040
 2461SOL    HW1 8282   4.714   7.024   3.963
 2461SOL    HW2 8283   4.862   6.968   4.004
 2462SOL     OW 8284   1.269   5.261   0.913
 2462SOL    HW1 8285   1.361   5.231   0.889
 2462SOL    HW2 8286   1.274   5.325   0.990
 2463SOL     OW 8287   6.377   1.908   0.766
 2463SOL    HW1 8288   6.451   1.971   0.743
 2463SOL    HW2 8289   6.395   1.818   0.725
 2464SOL     OW 8290   1.149   2.896   2.510
 2464SOL    HW1 8291   1.101   2.939   2.587
 2464SOL    HW2 8292   1.177   2.804   2.535
 2465SOL     OW 8293   6.895   6.022   6.208
 2465SOL    HW1 8294   6.939   6.056   6.125
 2465SOL    HW2 8295   6.944   6.056   6.289
 2466SOL     OW 8296   1.666   2.136   2.703
 2466SOL    HW1 8297   1.605   2.057   2.703
 2466SOL    HW2 8298   1.734   2.125   2.775
 2467SOL     OW 8299   4.721   2.070   5.918
 2467SOL    HW1 8300   4.656   2.030   5.983
 2467SOL    HW2 8301   4.800   2.010   5.909
 2468SOL     OW 8302   4.289   0.263   6.816
 2468SOL    HW1 8303   4.204   0.252   6.765
 2468SOL    HW2 8304   4.269   0.259   6.914
 2469SOL     OW 8305   3.650   3.206   5.783
 2469SOL    HW1 8306   3.721   3.154   5.832
 2469SOL    HW2 8307   3.561   3.190   5.825
 2470SOL     OW 8308   4.025   5.259   6.515
 2470SOL    HW1 8309   3.977   5.323   6.457
 2470SOL    HW2 8310   4.124   5.271   6.505
 2471SOL     OW 8311   2.967   6.932   0.306
 2471SOL    HW1 8312   3.027   6.996   0.257
 2471SOL    HW2 8313   2.876   6.974   0.316
 2472SOL     OW 8314   4.228   2.178   3.594
 2472SOL    HW1 8315   4.129   2.175   3.610
 2472SOL    HW2 8316   4.247   2.160   3.498
 2473SOL     OW 8317   1.181   4.472   5.751
 2473SOL    HW1 8318   1.232   4.551   5.719
 2473SOL    HW2 8319   1.209   4.391   5.699
 2474SOL     OW 8320   1.027   5.226   0.815
 2474SOL    HW1 8321   1.119   5.252   0.843
 2474SOL    HW2 8322   1.013   5.251   0.719
 2475SOL     OW 8323   4.722   0.161   1.747
 2475SOL    HW1 8324   4.783   0.182   1.671
 2475SOL    HW2 8325   4.653   0.233   1.756
 2476SOL     OW 8326   5.588   0.330   2.660
 2476SOL    HW1 8327   5.538   0.244   2.668
 2476SOL    HW2 8328   5.647   0.327   2.579
 2477SOL     OW 8329   4.097   0.955   3.186
 2477SOL    HW1 8330   4.003   0.968   3.156
 2477SOL    HW2 8331   4.099   0.947   3.286
 2478SOL     OW 8332   5.196   0.989   1.999
 2478SOL    HW1 8333   5.168   0.940   2.082
 2478SOL    HW2 8334   5.137   1.069   1.986
 2479SOL     OW 8335   1.339   2.937   1.681
 2479SOL    HW1 8336   1.266   3.002   1.659
 2479SOL    HW2 8337   1.372   2.895   1.597
 2480SOL     OW 8338   3.976   2.635   1.216
 2480SOL    HW1 8339   4.006   2.603   1.126
 2480SOL    HW2 8340   3.881   2.607   1.231
 2481SOL     OW 8341   3.132   0.133   1.404
 2481SOL    HW1 8342   3.079   0.083   1.472
 2481SOL    HW2 8343   3.076   0.150   1.323
 2482SOL     OW 8344   5.595   3.378   6.642
 2482SOL    HW1 8345   5.615   3.448   6.574
 2482SOL    HW2 8346   5.498   3.381   6.667
 2483SOL     OW 8347   1.873   1.605   6.749
 2483SOL    HW1 8348   1.871   1.529   6.684
 2483SOL    HW2 8349   1.963   1.647   6.748
 2484SOL     OW 8350   3.461   0.710   0.409
 2484SOL    HW1 8351   3.382   0.750   0.361
 2484SOL    HW2 8352   3.446   0.717   0.507
 2485SOL     OW 8353   5.270   3.104   0.788
 2485SOL    HW1 8354   5.226   3.130   0.874
 2485SOL    HW2 8355   5.338   3.173   0.763
 2486SOL     OW 8356   1.395   5.436   5.594
 2486SOL    HW1 8357   1.453   5.504   5.638
 2486SOL    HW2 8358   1.442   5.398   5.514
 2487SOL     OW 8359   4.501   6.560   6.874
 2487SOL    HW1 8360   4.597   6.570   6.847
 2487SOL    HW2 8361   4.463   6.650   6.895
 2488SOL     OW 8362   0.652   3.698   1.821
 2488SOL    HW1 8363   0.583   3.731   1.756
 2488SOL    HW2 8364   0.651   3.598   1.824
 2489SOL     OW 8365   1.148   5.819   3.508
 2489SOL    HW1 8366   1.152   5.737   3.564
 2489SOL    HW2 8367   1.201   5.805   3.424
 2490SOL     OW 8368   0.392   5.544   0.865
 2490SOL    HW1 8369   0.461   5.473   0.880
 2490SOL    HW2 8370   0.355   5.573   0.954
 2491SOL     OW 8371   3.143   4.579   0.820
 2491SOL    HW1 8372   3.044   4.593   0.822
 2491SOL    HW2 8373   3.173   4.540   0.907
 2492SOL     OW 8374   4.211   3.832   0.786
 2492SOL    HW1 8375   4.153   3.886   0.725
 2492SOL    HW2 8376   4.283   3.787   0.732
 2493SOL     OW 8377   6.352   6.937   1.771
 2493SOL    HW1 8378   6.356   6.844   1.808
 2493SOL    HW2 8379   6.445   6.971   1.756
 2494SOL     OW 8380   5.480   4.282   2.613
 2494SOL    HW1 8381   5.541   4.361   2.603
 2494SOL    HW2 8382   5.488   4.223   2.533
 2495SOL     OW 8383   5.117   5.956   3.629
 2495SOL    HW1 8384   5.083   5.875   3.581
 2495SOL    HW2 8385   5.053   6.032   3.616
 2496SOL     OW 8386   0.118   2.780   6.893
 2496SOL    HW1 8387   0.179   2.853   6.864
 2496SOL    HW2 8388   0.028   2.818   6.915
 2497SOL     OW 8389   0.797   0.177   0.868
 2497SOL    HW1 8390   0.863   0.102   0.875
 2497SOL    HW2 8391   0.760   0.198   0.959
 2498SOL     OW 8392   2.912   2.116   5.441
 2498SOL    HW1 8393   2.915   2.209   5.403
 2498SOL    HW2 8394   2.943   2.118   5.536
 2499SOL     OW 8395   5.813   3.548   2.282
 2499SOL    HW1 8396   5.848   3.565   2.190
 2499SOL    HW2 8397   5.878   3.582   2.350
 2500SOL     OW 8398   3.556   4.379   6.684
 2500SOL    HW1 8399   3.641   4.389   6.737
 2500SOL    HW2 8400   3.487   4.333   6.741
 2501SOL     OW 8401   5.176   5.400   0.721
 2501SOL    HW1 8402   5.141   5.321   0.670
 2501SOL    HW2 8403   5.194   5.373   0.816
 2502SOL     OW 8404   0.856   0.333   4.527
 2502SOL    HW1 8405   0.807   0.281   4.456
 2502SOL    HW2 8406   0.859   0.429   4.500
 2503SOL     OW 8407   2.384   6.907   3.956
 2503SOL    HW1 8408   2.419   6.986   4.008
 2503SOL    HW2 8409   2.285   6.910   3.955
 2504SOL     OW 8410   3.638   5.554   3.595
 2504SOL    HW1 8411   3.634   5.599   3.506
 2504SOL    HW2 8412   3.550   5.565   3.642
 2505SOL     OW 8413   0.168   6.795   2.942
 2505SOL    HW1 8414   0.206   6.843   3.020
 2505SOL    HW2 8415   0.199   6.700   2.942
 2506SOL     OW 8416   6.740   3.834   6.335
 2506SOL    HW1 8417   6.760   3.905   6.402
 2506SOL    HW2 8418   6.826   3.794   6.303
 2507SOL     OW 8419   6.494   3.144   0.400
 2507SOL    HW1 8420   6.540   3.114   0.484
 2507SOL    HW2 8421   6.400   3.171   0.422
 2508SOL     OW 8422   2.862   1.367   3.628
 2508SOL    HW1 8423   2.950   1.381   3.674
 2508SOL    HW2 8424   2.877   1.333   3.536
 2509SOL     OW 8425   0.280   4.490   0.597
 2509SOL    HW1 8426   0.347   4.416   0.592
 2509SOL    HW2 8427   0.326   4.578   0.584
 2510SOL     OW 8428   2.556   5.166   0.726
 2510SOL    HW1 8429   2.565   5.246   0.786
 2510SOL    HW2 8430   2.556   5.083   0.782
 2511SOL     OW 8431   3.500   2.065   3.928
 2511SOL    HW1 8432   3.514   2.088   4.024
 2511SOL    HW2 8433   3.407   2.031   3.914
 2512SOL     OW 8434   4.477   3.940   5.513
 2512SOL    HW1 8435   4.548   3.893   5.462
 2512SOL    HW2 8436   4.459   3.892   5.599
 2513SOL     OW 8437   2.273   4.911   4.784
 2513SOL    HW1 8438   2.288   4.982   4.853
 2513SOL    HW2 8439   2.259   4.823   4.830
 2514SOL     OW 8440   0.452   3.582   5.250
 2514SOL    HW1 8441   0.499   3.662   5.213
 2514SOL    HW2 8442   0.474   3.573   5.347
 2515SOL     OW 8443   1.536   6.486   0.409
 2515SOL    HW1 8444   1.470   6.441   0.471
 2515SOL    HW2 8445   1.625   6.490   0.454
 2516SOL     OW 8446   5.024   1.360   2.845
 2516SOL    HW1 8447   5.020   1.444   2.900
 2516SOL    HW2 8448   4.933   1.319   2.839
 2517SOL     OW 8449   1.029   0.187   6.576
 2517SOL    HW1 8450   1.125   0.158   6.585
 2517SOL    HW2 8451   1.025   0.280   6.541
 2518SOL     OW 8452   1.657   5.384   0.743
 2518SOL    HW1 8453   1.633   5.479   0.720
 2518SOL    HW2 8454   1.712   5.345   0.669
 2519SOL     OW 8455   3.700   6.640   2.052
 2519SOL    HW1 8456   3.664   6.547   2.040
 2519SOL    HW2 8457   3.769   6.640   2.123
 2520SOL     OW 8458   3.210   1.604   0.807
 2520SOL    HW1 8459   3.243   1.698   0.799
 2520SOL    HW2 8460   3.278   1.549   0.855
 2521SOL     OW 8461   3.349   0.308   5.423
 2521SOL    HW1 8462   3.285   0.309   5.501
 2521SOL    HW2 8463   3.333   0.225   5.369
 2522SOL     OW 8464   0.577   2.332   5.385
 2522SOL    HW1 8465   0.565   2.296   5.477
 2522SOL    HW2 8466   0.506   2.295   5.325
 2523SOL     OW 8467   1.106   2.506   1.002
 2523SOL    HW1 8468   1.145   2.474   0.915
 2523SOL    HW2 8469   1.176   2.556   1.053
 2524SOL     OW 8470   6.968   6.652   5.193
 2524SOL    HW1 8471   6.924   6.643   5.282
 2524SOL    HW2 8472   6.951   6.569   5.139
 2525SOL     OW 8473   1.029   2.422   5.201
 2525SOL    HW1 8474   1.017   2.502   5.259
 2525SOL    HW2 8475   1.122   2.421   5.163
 2526SOL     OW 8476   1.624   5.105   6.366
 2526SOL    HW1 8477   1.702   5.043   6.373
 2526SOL    HW2 8478   1.657   5.200   6.374
 2527SOL     OW 8479   6.137   6.478   6.109
 2527SOL    HW1 8480   6.179   6.561   6.073
 2527SOL    HW2 8481   6.119   6.414   6.034
 2528SOL     OW 8482   6.418   4.839   0.367
 2528SOL    HW1 8483   6.345   4.864   0.430
 2528SOL    HW2 8484   6.397   4.873   0.275
 2529SOL     OW 8485   6.306   6.418   6.504
 2529SOL    HW1 8486   6.356   6.500   6.479
 2529SOL    HW2 8487   6.370   6.351   6.543
 2530SOL     OW 8488   2.907   6.110   4.397
 2530SOL    HW1 8489   2.822   6.056   4.387
 2530SOL    HW2 8490   2.896   6.198   4.352
 2531SOL     OW 8491   5.549   5.941   4.454
 2531SOL    HW1 8492   5.540   5.873   4.527
 2531SOL    HW2 8493   5.520   6.030   4.488
 2532SOL     OW 8494   0.310   5.910   0.438
 2532SOL    HW1 8495   0.342   5.977   0.371
 2532SOL    HW2 8496   0.288   5.956   0.524
 2533SOL     OW 8497   4.086   6.968   4.077
 2533SOL    HW1 8498   3.986   6.964   4.087
 2533SOL    HW2 8499   4.110   0.018   4.019
 2534SOL     OW 8500   3.725   1.099   2.168
 2534SOL    HW1 8501   3.669   1.023   2.201
 2534SOL    HW2 8502   3.686   1.186   2.199
 2535SOL     OW 8503   2.965   3.090   5.478
 2535SOL    HW1 8504   2.903   3.028   5.430
 2535SOL    HW2 8505   3.058   3.054   5.473
 2536SOL     OW 8506   1.041   1.649   5.107
 2536SOL    HW1 8507   1.028   1.741   5.145
 2536SOL    HW2 8508   1.112   1.652   5.038
 2537SOL     OW 8509   3.454   0.102   6.300
 2537SOL    HW1 8510   3.374   0.077   6.355
 2537SOL    HW2 8511   3.430   0.179   6.240
 2538SOL     OW 8512   0.847   4.027   3.426
 2538SOL    HW1 8513   0.923   4.004   3.487
 2538SOL    HW2 8514   0.777   3.956   3.432
 2539SOL     OW 8515   5.829   0.847   4.777
 2539SOL    HW1 8516   5.820   0.821   4.681
 2539SOL    HW2 8517   5.892   0.786   4.823
 2540SOL     OW 8518   3.983   1.934   2.756
 2540SOL    HW1 8519   4.011   2.015   2.806
 2540SOL    HW2 8520   3.917   1.959   2.685
 2541SOL     OW 8521   2.590   0.498   4.780
 2541SOL    HW1 8522   2.565   0.515   4.875
 2541SOL    HW2 8523   2.617   0.584   4.737
 2542SOL     OW 8524   2.917   2.879   5.985
 2542SOL    HW1 8525   2.825   2.842   5.996
 2542SOL    HW2 8526   2.970   2.821   5.924
 2543SOL     OW 8527   0.569   0.734   3.175
 2543SOL    HW1 8528   0.509   0.750   3.097
 2543SOL    HW2 8529   0.574   0.817   3.230
 2544SOL     OW 8530   0.724   5.759   1.254
 2544SOL    HW1 8531   0.660   5.825   1.213
 2544SOL    HW2 8532   0.693   5.666   1.233
 2545SOL     OW 8533   0.749   6.912   2.165
 2545SOL    HW1 8534   0.760   6.816   2.139
 2545SOL    HW2 8535   0.753   6.970   2.083
 2546SOL     OW 8536   6.462   1.153   2.194
 2546SOL    HW1 8537   6.517   1.149   2.278
 2546SOL    HW2 8538   6.375   1.107   2.209
 2547SOL     OW 8539   6.540   4.397   0.262
 2547SOL    HW1 8540   6.635   4.424   0.279
 2547SOL    HW2 8541   6.539   4.308   0.215
 2548SOL     OW 8542   0.621   0.015   5.484
 2548SOL    HW1 8543   0.598   0.096   5.429
 2548SOL    HW2 8544   0.546   7.022   5.546
 2549SOL     OW 8545   1.678   0.048   1.208
 2549SOL    HW1 8546   1.703   0.138   1.244
 2549SOL    HW2 8547   1.594   0.056   1.154
 2550SOL     OW 8548   0.438   0.769   6.896
 2550SOL    HW1 8549   0.376   0.691   6.910
 2550SOL    HW2 8550   0.455   0.781   6.798
 2551SOL     OW 8551   3.370   4.764   0.110
 2551SOL    HW1 8552   3.330   4.809   0.029
 2551SOL    HW2 8553   3.305   4.697   0.146
 2552SOL     OW 8554   1.871   6.047   4.349
 2552SOL    HW1 8555   1.813   6.118   4.310
 2552SOL    HW2 8556   1.922   6.084   4.427
 2553SOL     OW 8557   4.824   3.497   5.945
 2553SOL    HW1 8558   4.735   3.455   5.963
 2553SOL    HW2 8559   4.894   3.453   6.001
 2554SOL     OW 8560   2.203   0.031   0.089
 2554SOL    HW1 8561   2.137   6.999   0.136
 2554SOL    HW2 8562   2.167   0.055   7.027
 2555SOL     OW 8563   5.725   0.129   5.079
 2555SOL    HW1 8564   5.683   0.198   5.137
 2555SOL    HW2 8565   5.655   0.085   5.023
 2556SOL     OW 8566   4.126   6.153   6.988
 2556SOL    HW1 8567   4.185   6.119   0.033
 2556SOL    HW2 8568   4.178   6.213   6.927
 2557SOL     OW 8569   2.304   4.542   6.498
 2557SOL    HW1 8570   2.301   4.642   6.495
 2557SOL    HW2 8571   2.210   4.506   6.504
 2558SOL     OW 8572   5.116   1.597   5.209
 2558SOL    HW1 8573   5.101   1.597   5.110
 2558SOL    HW2 8574   5.165   1.514   5.235
 2559SOL     OW 8575   0.599   3.778   5.108
 2559SOL    HW1 8576   0.684   3.822   5.137
 2559SOL    HW2 8577   0.600   3.765   5.009
 2560SOL     OW 8578   5.521   3.070   4.596
 2560SOL    HW1 8579   5.498   3.002   4.665
 2560SOL    HW2 8580   5.494   3.161   4.629
 2561SOL     OW 8581   3.227   6.007   4.997
 2561SOL    HW1 8582   3.263   5.987   4.906
 2561SOL    HW2 8583   3.134   6.043   4.989
 2562SOL     OW 8584   2.300   4.999   1.359
 2562SOL    HW1 8585   2.220   4.939   1.359
 2562SOL    HW2 8586   2.293   5.063   1.436
 2563SOL     OW 8587   3.702   2.134   0.383
 2563SOL    HW1 8588   3.721   2.108   0.478
 2563SOL    HW2 8589   3.665   2.227   0.381
 2564SOL     OW 8590   2.476   5.571   6.523
 2564SOL    HW1 8591   2.557   5.517   6.500
 2564SOL    HW2 8592   2.428   5.528   6.600
 2565SOL     OW 8593   1.563   6.973   0.103
 2565SOL    HW1 8594   1.566   6.962   0.003
 2565SOL    HW2 8595   1.469   6.992   0.131
 2566SOL     OW 8596   2.379   6.864   1.243
 2566SOL    HW1 8597   2.330   6.803   1.181
 2566SOL    HW2 8598   2.403   6.948   1.195
 2567SOL     OW 8599   1.158   0.356   0.751
 2567SOL    HW1 8600   1.077   0.413   0.741
 2567SOL    HW2 8601   1.131   0.260   0.756
 2568SOL     OW 8602   4.471   1.059   0.059
 2568SOL    HW1 8603   4.402   1.093   7.023
 2568SOL    HW2 8604   4.462   1.105   0.147
 2569SOL     OW 8605   3.018   0.816   2.359
 2569SOL    HW1 8606   2.926   0.804   2.394
 2569SOL    HW2 8607   3.016   0.816   2.259
 2570SOL     OW 8608   5.717   0.079   6.746
 2570SOL    HW1 8609   5.803   0.125   6.770
 2570SOL    HW2 8610   5.716   7.016   6.787
 2571SOL     OW 8611   2.427   4.416   5.235
 2571SOL    HW1 8612   2.522   4.385   5.242
 2571SOL    HW2 8613   2.391   4.395   5.144
 2572SOL     OW 8614   2.332   6.300   0.678
 2572SOL    HW1 8615   2.265   6.291   0.604
 2572SOL    HW2 8616   2.422   6.275   0.643
 2573SOL     OW 8617   0.237   1.484   1.649
 2573SOL    HW1 8618   0.331   1.483   1.614
 2573SOL    HW2 8619   0.237   1.454   1.745
 2574SOL     OW 8620   5.739   3.851   0.485
 2574SOL    HW1 8621   5.649   3.892   0.468
 2574SOL    HW2 8622   5.800   3.919   0.526
 2575SOL     OW 8623   5.034   5.516   1.101
 2575SOL    HW1 8624   5.028   5.514   1.201
 2575SOL    HW2 8625   4.966   5.580   1.065
 2576SOL     OW 8626   4.513   6.633   4.906
 2576SOL    HW1 8627   4.501   6.721   4.951
 2576SOL    HW2 8628   4.610   6.617   4.889
 2577SOL     OW 8629   3.846   6.417   2.439
 2577SOL    HW1 8630   3.857   6.472   2.356
 2577SOL    HW2 8631   3.755   6.431   2.478
 2578SOL     OW 8632   4.688   1.612   4.752
 2578SOL    HW1 8633   4.734   1.541   4.805
 2578SOL    HW2 8634   4.628   1.665   4.812
 2579SOL     OW 8635   1.352   6.811   3.579
 2579SOL    HW1 8636   1.341   6.789   3.676
 2579SOL    HW2 8637   1.300   6.894   3.559
 2580SOL     OW 8638   3.322   4.688   6.413
 2580SOL    HW1 8639   3.276   4.608   6.374
 2580SOL    HW2 8640   3.383   4.659   6.486
 2581SOL     OW 8641   2.340   4.858   1.929
 2581SOL    HW1 8642   2.371   4.917   2.004
 2581SOL    HW2 8643   2.340   4.911   1.844
 2582SOL     OW 8644   0.506   4.393   1.303
 2582SOL    HW1 8645   0.478   4.381   1.208
 2582SOL    HW2 8646   0.547   4.308   1.337
 2583SOL     OW 8647   1.312   1.797   6.214
 2583SOL    HW1 8648   1.292   1.796   6.116
 2583SOL    HW2 8649   1.361   1.881   6.237
 2584SOL     OW 8650   5.071   5.300   6.131
 2584SOL    HW1 8651   4.983   5.339   6.157
 2584SOL    HW2 8652   5.056   5.218   6.076
 2585SOL     OW 8653   3.607   3.367   1.044
 2585SOL    HW1 8654   3.582   3.448   0.990
 2585SOL    HW2 8655   3.703   3.374   1.071
 2586SOL     OW 8656   3.275   0.620   4.987
 2586SOL    HW1 8657   3.241   0.528   5.008
 2586SOL    HW2 8658   3.200   0.677   4.954
 2587SOL     OW 8659   6.140   0.897   3.617
 2587SOL    HW1 8660   6.122   0.994   3.602
 2587SOL    HW2 8661   6.062   0.856   3.666
 2588SOL     OW 8662   4.643   2.226   6.235
 2588SOL    HW1 8663   4.582   2.186   6.166
 2588SOL    HW2 8664   4.727   2.259   6.191
 2589SOL     OW 8665   1.546   6.550   5.585
 2589SOL    HW1 8666   1.497   6.525   5.501
 2589SOL    HW2 8667   1.598   6.633   5.569
 2590SOL     OW 8668   3.813   5.004   0.032
 2590SOL    HW1 8669   3.876   5.066   7.012
 2590SOL    HW2 8670   3.740   5.058   0.074
 2591SOL     OW 8671   6.410   4.467   3.230
 2591SOL    HW1 8672   6.364   4.536   3.286
 2591SOL    HW2 8673   6.452   4.399   3.289
 2592SOL     OW 8674   3.324   4.983   0.276
 2592SOL    HW1 8675   3.226   5.001   0.274
 2592SOL    HW2 8676   3.346   4.910   0.212
 2593SOL     OW 8677   4.329   6.095   0.139
 2593SOL    HW1 8678   4.319   6.030   0.214
 2593SOL    HW2 8679   4.397   6.060   0.074
 2594SOL     OW 8680   1.883   3.991   5.926
 2594SOL    HW1 8681   1.895   4.061   5.856
 2594SOL    HW2 8682   1.972   3.949   5.947
 2595SOL     OW 8683   0.114   0.654   3.992
 2595SOL    HW1 8684   0.198   0.707   3.999
 2595SOL    HW2 8685   0.084   0.628   4.084
 2596SOL     OW 8686   3.035   2.368   1.687
 2596SOL    HW1 8687   3.121   2.415   1.706
 2596SOL    HW2 8688   2.970   2.385   1.761
 2597SOL     OW 8689   0.490   5.353   6.436
 2597SOL    HW1 8690   0.451   5.423   6.495
 2597SOL    HW2 8691   0.417   5.296   6.398
 2598SOL     OW 8692   6.068   1.572   2.946
 2598SOL    HW1 8693   6.142   1.637   2.963
 2598SOL    HW2 8694   5.996   1.616   2.892
 2599SOL     OW 8695   1.421   5.918   0.966
 2599SOL    HW1 8696   1.413   5.984   0.891
 2599SOL    HW2 8697   1.437   5.827   0.929
 2600SOL     OW 8698   5.721   2.834   4.437
 2600SOL    HW1 8699   5.706   2.878   4.525
 2600SOL    HW2 8700   5.636   2.790   4.406
 2601SOL     OW 8701   1.378   1.475   1.457
 2601SOL    HW1 8702   1.286   1.511   1.473
 2601SOL    HW2 8703   1.445   1.532   1.504
 2602SOL     OW 8704   1.014   4.487   4.915
 2602SOL    HW1 8705   1.038   4.577   4.878
 2602SOL    HW2 8706   1.067   4.416   4.867
 2603SOL     OW 8707   2.957   1.381   3.054
 2603SOL    HW1 8708   2.970   1.466   3.105
 2603SOL    HW2 8709   2.869   1.340   3.079
 2604SOL     OW 8710   4.663   1.840   2.881
 2604SOL    HW1 8711   4.647   1.833   2.782
 2604SOL    HW2 8712   4.688   1.934   2.904
 2605SOL     OW 8713   1.586   3.370   2.608
 2605SOL    HW1 8714   1.609   3.423   2.527
 2605SOL    HW2 8715   1.493   3.393   2.638
 2606SOL     OW 8716   6.128   5.023   1.647
 2606SOL    HW1 8717   6.044   4.979   1.614
 2606SOL    HW2 8718   6.115   5.122   1.648
 2607SOL     OW 8719   0.863   1.070   1.094
 2607SOL    HW1 8720   0.936   1.138   1.099
 2607SOL    HW2 8721   0.818   1.064   1.183
 2608SOL     OW 8722   3.846   5.219   0.469
 2608SOL    HW1 8723   3.881   5.275   0.393
 2608SOL    HW2 8724   3.828   5.126   0.436
 2609SOL     OW 8725   6.100   1.527   2.319
 2609SOL    HW1 8726   6.187   1.571   2.340
 2609SOL    HW2 8727   6.039   1.533   2.398
 2610SOL     OW 8728   0.895   4.575   4.479
 2610SOL    HW1 8729   0.970   4.514   4.452
 2610SOL    HW2 8730   0.928   4.670   4.480
 2611SOL     OW 8731   4.619   6.285   0.519
 2611SOL    HW1 8732   4.593   6.280   0.616
 2611SOL    HW2 8733   4.592   6.374   0.482
 2612SOL     OW 8734   6.003   6.499   4.628
 2612SOL    HW1 8735   6.083   6.482   4.571
 2612SOL    HW2 8736   6.013   6.451   4.715
 2613SOL     OW 8737   2.574   5.323   6.256
 2613SOL    HW1 8738   2.478   5.348   6.263
 2613SOL    HW2 8739   2.620   5.342   6.342
 2614SOL     OW 8740   6.667   2.035   0.259
 2614SOL    HW1 8741   6.619   2.114   0.221
 2614SOL    HW2 8742   6.601   1.963   0.280
 2615SOL     OW 8743   0.904   3.488   1.760
 2615SOL    HW1 8744   0.960   3.408   1.780
 2615SOL    HW2 8745   0.812   3.474   1.796
 2616SOL     OW 8746   1.843   1.944   5.894
 2616SOL    HW1 8747   1.905   1.867   5.910
 2616SOL    HW2 8748   1.896   2.028   5.882
 2617SOL     OW 8749   4.489   1.329   0.814
 2617SOL    HW1 8750   4.553   1.260   0.779
 2617SOL    HW2 8751   4.505   1.341   0.912
 2618SOL     OW 8752   6.943   6.975   4.294
 2618SOL    HW1 8753   6.949   6.893   4.236
 2618SOL    HW2 8754   7.018   6.974   4.360
 2619SOL     OW 8755   4.452   1.653   1.819
 2619SOL    HW1 8756   4.371   1.637   1.875
 2619SOL    HW2 8757   4.427   1.702   1.736
 2620SOL     OW 8758   6.707   0.413   3.014
 2620SOL    HW1 8759   6.613   0.382   3.028
 2620SOL    HW2 8760   6.770   0.340   3.039
 2621SOL     OW 8761   1.155   5.252   2.671
 2621SOL    HW1 8762   1.225   5.311   2.713
 2621SOL    HW2 8763   1.087   5.229   2.740
 2622SOL     OW 8764   2.621   3.681   6.105
 2622SOL    HW1 8765   2.720   3.667   6.106
 2622SOL    HW2 8766   2.584   3.651   6.017
 2623SOL     OW 8767   0.837   0.930   4.959
 2623SOL    HW1 8768   0.873   0.972   5.042
 2623SOL    HW2 8769   0.879   0.973   4.879
 2624SOL     OW 8770   0.164   2.132   5.104
 2624SOL    HW1 8771   0.130   2.053   5.155
 2624SOL    HW2 8772   0.087   2.191   5.078
 2625SOL     OW 8773   2.583   3.714   5.712
 2625SOL    HW1 8774   2.656   3.652   5.681
 2625SOL    HW2 8775   2.591   3.801   5.663
 2626SOL     OW 8776   6.616   0.294   6.269
 2626SOL    HW1 8777   6.549   0.347   6.320
 2626SOL    HW2 8778   6.583   0.278   6.176
 2627SOL     OW 8779   1.732   0.856   5.771
 2627SOL    HW1 8780   1.798   0.887   5.840
 2627SOL    HW2 8781   1.698   0.934   5.719
 2628SOL     OW 8782   1.945   3.773   5.237
 2628SOL    HW1 8783   1.972   3.869   5.249
 2628SOL    HW2 8784   1.962   3.745   5.142
 2629SOL     OW 8785   4.114   3.746   2.838
 2629SOL    HW1 8786   4.109   3.722   2.935
 2629SOL    HW2 8787   4.119   3.663   2.783
 2630SOL     OW 8788   3.622   1.599   3.334
 2630SOL    HW1 8789   3.655   1.619   3.242
 2630SOL    HW2 8790   3.698   1.606   3.399
 2631SOL     OW 8791   5.252   0.974   6.242
 2631SOL    HW1 8792   5.252   1.017   6.332
 2631SOL    HW2 8793   5.343   0.939   6.221
 2632SOL     OW 8794   5.708   3.590   0.325
 2632SOL    HW1 8795   5.758   3.666   0.367
 2632SOL    HW2 8796   5.773   3.518   0.300
 2633SOL     OW 8797   6.659   1.989   4.763
 2633SOL    HW1 8798   6.587   1.975   4.695
 2633SOL    HW2 8799   6.729   1.919   4.751
 2634SOL     OW 8800   0.414   5.555   3.594
 2634SOL    HW1 8801   0.388   5.605   3.512
 2634SOL    HW2 8802   0.342   5.566   3.663
 2635SOL     OW 8803   6.553   5.256   4.009
 2635SOL    HW1 8804   6.495   5.337   4.005
 2635SOL    HW2 8805   6.637   5.277   4.059
 2636SOL     OW 8806   3.956   0.968   6.685
 2636SOL    HW1 8807   3.993   1.054   6.719
 2636SOL    HW2 8808   4.029   0.917   6.638
 2637SOL     OW 8809   6.221   1.635   4.015
 2637SOL    HW1 8810   6.166   1.718   4.001
 2637SOL    HW2 8811   6.308   1.660   4.059
 2638SOL     OW 8812   0.117   0.136   4.543
 2638SOL    HW1 8813   0.206   0.111   4.581
 2638SOL    HW2 8814   0.046   0.116   4.610
 2639SOL     OW 8815   6.456   5.723   6.457
 2639SOL    HW1 8816   6.446   5.630   6.422
 2639SOL    HW2 8817   6.371   5.750   6.503
 2640SOL     OW 8818   6.512   0.088   5.155
 2640SOL    HW1 8819   6.585   0.068   5.220
 2640SOL    HW2 8820   6.466   0.173   5.182
 2641SOL     OW 8821   5.070   1.771   1.379
 2641SOL    HW1 8822   5.022   1.717   1.310
 2641SOL    HW2 8823   5.090   1.712   1.458
 2642SOL     OW 8824   6.384   0.054   4.084
 2642SOL    HW1 8825   6.304   0.088   4.035
 2642SOL    HW2 8826   6.464   0.061   4.024
 2643SOL     OW 8827   1.399   3.111   3.688
 2643SOL    HW1 8828   1.361   3.201   3.711
 2643SOL    HW2 8829   1.336   3.064   3.627
 2644SOL     OW 8830   4.402   5.322   5.118
 2644SOL    HW1 8831   4.345   5.347   5.197
 2644SOL    HW2 8832   4.498   5.340   5.140
 2645SOL     OW 8833   5.423   4.900   3.732
 2645SOL    HW1 8834   5.327   4.874   3.729
 2645SOL    HW2 8835   5.449   4.920   3.827
 2646SOL     OW 8836   6.893   3.049   0.253
 2646SOL    HW1 8837   6.850   3.057   0.343
 2646SOL    HW2 8838   6.894   2.953   0.225
 2647SOL     OW 8839   5.865   0.084   1.693
 2647SOL    HW1 8840   5.849   0.180   1.668
 2647SOL    HW2 8841   5.787   0.050   1.745
 2648SOL     OW 8842   0.073   6.828   4.551
 2648SOL    HW1 8843   0.140   6.847   4.479
 2648SOL    HW2 8844   0.094   6.884   4.631
 2649SOL     OW 8845   6.206   3.251   1.889
 2649SOL    HW1 8846   6.206   3.287   1.982
 2649SOL    HW2 8847   6.163   3.316   1.827
 2650SOL     OW 8848   2.494   5.882   4.563
 2650SOL    HW1 8849   2.397   5.903   4.570
 2650SOL    HW2 8850   2.509   5.785   4.579
 2651SOL     OW 8851   3.210   0.806   0.375
 2651SOL    HW1 8852   3.195   0.825   0.472
 2651SOL    HW2 8853   3.133   0.754   0.339
 2652SOL     OW 8854   5.001   3.304   5.747
 2652SOL    HW1 8855   5.032   3.247   5.823
 2652SOL    HW2 8856   4.955   3.385   5.784
 2653SOL     OW 8857   4.578   5.926   5.902
 2653SOL    HW1 8858   4.562   5.905   5.805
 2653SOL    HW2 8859   4.529   6.009   5.926
 2654SOL     OW 8860   5.128   6.034   1.198
 2654SOL    HW1 8861   5.029   6.030   1.180
 2654SOL    HW2 8862   5.166   6.116   1.154
 2655SOL     OW 8863   4.863   4.982   4.080
 2655SOL    HW1 8864   4.782   4.954   4.028
 2655SOL    HW2 8865   4.936   4.916   4.063
 2656SOL     OW 8866   3.467   5.041   3.428
 2656SOL    HW1 8867   3.492   4.977   3.501
 2656SOL    HW2 8868   3.465   5.134   3.465
 2657SOL     OW 8869   2.076   3.503   0.758
 2657SOL    HW1 8870   2.031   3.549   0.682
 2657SOL    HW2 8871   2.007   3.465   0.820
 2658SOL     OW 8872   4.895   4.772   0.151
 2658SOL    HW1 8873   4.798   4.791   0.160
 2658SOL    HW2 8874   4.911   4.674   0.164
 2659SOL     OW 8875   4.728   3.072   5.271
 2659SOL    HW1 8876   4.800   3.043   5.333
 2659SOL    HW2 8877   4.701   3.166   5.291
 2660SOL     OW 8878   0.810   0.623   1.402
 2660SOL    HW1 8879   0.830   0.590   1.310
 2660SOL    HW2 8880   0.712   0.612   1.421
 2661SOL     OW 8881   1.990   0.006   1.438
 2661SOL    HW1 8882   1.969   7.006   1.344
 2661SOL    HW2 8883   2.030   0.097   1.437
 2662SOL     OW 8884   2.644   0.285   3.795
 2662SOL    HW1 8885   2.560   0.304   3.744
 2662SOL    HW2 8886   2.664   0.362   3.856
 2663SOL     OW 8887   4.505   5.464   6.034
 2663SOL    HW1 8888   4.569   5.538   6.055
 2663SOL    HW2 8889   4.427   5.468   6.096
 2664SOL     OW 8890   4.072   3.077   5.469
 2664SOL    HW1 8891   4.015   3.122   5.400
 2664SOL    HW2 8892   4.131   3.011   5.424
 2665SOL     OW 8893   2.312   3.293   5.336
 2665SOL    HW1 8894   2.242   3.337   5.280
 2665SOL    HW2 8895   2.377   3.361   5.369
 2666SOL     OW 8896   1.462   4.142   1.520
 2666SOL    HW1 8897   1.465   4.139   1.420
 2666SOL    HW2 8898   1.368   4.156   1.551
 2667SOL     OW 8899   0.890   5.339   4.156
 2667SOL    HW1 8900   0.942   5.406   4.210
 2667SOL    HW2 8901   0.854   5.383   4.074
 2668SOL     OW 8902   5.776   3.249   4.336
 2668SOL    HW1 8903   5.760   3.300   4.421
 2668SOL    HW2 8904   5.842   3.299   4.279
 2669SOL     OW 8905   3.255   5.824   6.733
 2669SOL    HW1 8906   3.315   5.744   6.729
 2669SOL    HW2 8907   3.296   5.893   6.793
 2670SOL     OW 8908   6.751   2.578   4.792
 2670SOL    HW1 8909   6.759   2.675   4.769
 2670SOL    HW2 8910   6.735   2.526   4.708
 2671SOL     OW 8911   4.851   5.446   5.897
 2671SOL    HW1 8912   4.935   5.475   5.851
 2671SOL    HW2 8913   4.842   5.495   5.984
 2672SOL     OW 8914   3.162   0.011   1.704
 2672SOL    HW1 8915   3.237   0.077   1.704
 2672SOL    HW2 8916   3.079   0.054   1.669
 2673SOL     OW 8917   5.553   1.996   2.281
 2673SOL    HW1 8918   5.512   1.905   2.278
 2673SOL    HW2 8919   5.649   1.989   2.253
 2674SOL     OW 8920   1.338   4.822   4.061
 2674SOL    HW1 8921   1.396   4.809   3.981
 2674SOL    HW2 8922   1.277   4.899   4.046
 2675SOL     OW 8923   0.190   6.563   4.197
 2675SOL    HW1 8924   0.271   6.505   4.188
 2675SOL    HW2 8925   0.135   6.531   4.274
 2676SOL     OW 8926   3.761   3.623   2.556
 2676SOL    HW1 8927   3.725   3.580   2.473
 2676SOL    HW2 8928   3.850   3.583   2.579
 2677SOL     OW 8929   2.802   4.870   1.381
 2677SOL    HW1 8930   2.826   4.808   1.455
 2677SOL    HW2 8931   2.704   4.892   1.386
 2678SOL     OW 8932   0.270   2.474   2.102
 2678SOL    HW1 8933   0.206   2.528   2.047
 2678SOL    HW2 8934   0.308   2.532   2.174
 2679SOL     OW 8935   1.839   5.048   2.770
 2679SOL    HW1 8936   1.930   5.047   2.729
 2679SOL    HW2 8937   1.794   4.960   2.754
 2680SOL     OW 8938   1.286   2.421   6.963
 2680SOL    HW1 8939   1.262   2.473   0.018
 2680SOL    HW2 8940   1.382   2.396   6.966
 2681SOL     OW 8941   1.422   2.619   4.804
 2681SOL    HW1 8942   1.487   2.628   4.729
 2681SOL    HW2 8943   1.349   2.688   4.794
 2682SOL     OW 8944   5.356   3.655   3.242
 2682SOL    HW1 8945   5.377   3.557   3.249
 2682SOL    HW2 8946   5.431   3.708   3.282
 2683SOL     OW 8947   2.191   4.491   2.181
 2683SOL    HW1 8948   2.120   4.423   2.160
 2683SOL    HW2 8949   2.269   4.445   2.224
 2684SOL     OW 8950   5.212   6.962   1.361
 2684SOL    HW1 8951   5.293   6.994   1.409
 2684SOL    HW2 8952   5.166   0.012   1.317
 2685SOL     OW 8953   6.380   4.735   5.059
 2685SOL    HW1 8954   6.334   4.742   5.147
 2685SOL    HW2 8955   6.391   4.639   5.034
 2686SOL     OW 8956   0.862   1.231   5.313
 2686SOL    HW1 8957   0.883   1.263   5.405
 2686SOL    HW2 8958   0.850   1.310   5.253
 2687SOL     OW 8959   3.417   6.519   0.934
 2687SOL    HW1 8960   3.481   6.543   1.007
 2687SOL    HW2 8961   3.356   6.596   0.917
 2688SOL     OW 8962   3.131   1.795   0.405
 2688SOL    HW1 8963   3.089   1.884   0.386
 2688SOL    HW2 8964   3.225   1.808   0.436
 2689SOL     OW 8965   0.398   4.144   2.817
 2689SOL    HW1 8966   0.485   4.108   2.782
 2689SOL    HW2 8967   0.324   4.080   2.795
 2690SOL     OW 8968   3.021   3.356   6.764
 2690SOL    HW1 8969   3.005   3.264   6.729
 2690SOL    HW2 8970   2.996   3.422   6.693
 2691SOL     OW 8971   0.097   4.275   3.698
 2691SOL    HW1 8972   0.011   4.301   3.742
 2691SOL    HW2 8973   0.080   4.204   3.630
 2692SOL     OW 8974   2.289   6.410   3.190
 2692SOL    HW1 8975   2.379   6.366   3.196
 2692SOL    HW2 8976   2.278   6.473   3.267
 2693SOL     OW 8977   1.942   4.752   3.903
 2693SOL    HW1 8978   1.984   4.719   3.988
 2693SOL    HW2 8979   1.980   4.701   3.826
 2694SOL     OW 8980   4.155   6.911   3.206
 2694SOL    HW1 8981   4.088   6.959   3.148
 2694SOL    HW2 8982   4.210   6.850   3.150
 2695SOL     OW 8983   5.856   6.966   2.951
 2695SOL    HW1 8984   5.944   6.962   2.998
 2695SOL    HW2 8985   5.868   7.009   2.862
 2696SOL     OW 8986   4.736   3.965   6.143
 2696SOL    HW1 8987   4.725   4.064   6.158
 2696SOL    HW2 8988   4.757   3.949   6.047
 2697SOL     OW 8989   4.630   1.450   2.439
 2697SOL    HW1 8990   4.608   1.379   2.506
 2697SOL    HW2 8991   4.579   1.434   2.355
 2698SOL     OW 8992   1.975   4.841   6.874
 2698SOL    HW1 8993   1.893   4.829   6.929
 2698SOL    HW2 8994   2.055   4.841   6.934
 2699SOL     OW 8995   2.666   6.028   0.733
 2699SOL    HW1 8996   2.764   6.019   0.751
 2699SOL    HW2 8997   2.614   6.000   0.813
 2700SOL     OW 8998   2.812   1.691   0.887
 2700SOL    HW1 8999   2.791   1.729   0.977
 2700SOL    HW2 9000   2.868   1.609   0.898
 2701SOL     OW 9001   5.248   2.539   5.788
 2701SOL    HW1 9002   5.193   2.555   5.706
 2701SOL    HW2 9003   5.200   2.575   5.868
 2702SOL     OW 9004   1.332   2.133   3.003
 2702SOL    HW1 9005   1.373   2.211   3.050
 2702SOL    HW2 9006   1.277   2.165   2.925
 2703SOL     OW 9007   1.734   5.468   1.631
 2703SOL    HW1 9008   1.756   5.565   1.640
 2703SOL    HW2 9009   1.670   5.455   1.555
 2704SOL     OW 9010   6.895   5.694   2.355
 2704SOL    HW1 9011   6.801   5.682   2.387
 2704SOL    HW2 9012   6.910   5.789   2.328
 2705SOL     OW 9013   6.538   1.467   5.256
 2705SOL    HW1 9014   6.593   1.461   5.339
 2705SOL    HW2 9015   6.578   1.536   5.195
 2706SOL     OW 9016   6.243   4.318   4.701
 2706SOL    HW1 9017   6.164   4.275   4.658
 2706SOL    HW2 9018   6.213   4.399   4.752
 2707SOL     OW 9019   4.261   0.039   4.342
 2707SOL    HW1 9020   4.332   0.022   4.273
 2707SOL    HW2 9021   4.171   0.041   4.297
 2708SOL     OW 9022   6.585   2.646   0.792
 2708SOL    HW1 9023   6.629   2.727   0.754
 2708SOL    HW2 9024   6.496   2.632   0.749
 2709SOL     OW 9025   4.904   6.824   6.714
 2709SOL    HW1 9026   4.993   6.855   6.748
 2709SOL    HW2 9027   4.889   6.861   6.622
 2710SOL     OW 9028   1.977   2.538   3.712
 2710SOL    HW1 9029   1.908   2.555   3.783
 2710SOL    HW2 9030   2.051   2.605   3.721
 2711SOL     OW 9031   3.010   1.169   3.434
 2711SOL    HW1 9032   3.074   1.122   3.495
 2711SOL    HW2 9033   3.059   1.236   3.379
 2712SOL     OW 9034   3.040   5.387   1.956
 2712SOL    HW1 9035   3.078   5.382   2.048
 2712SOL    HW2 9036   3.110   5.421   1.893
 2713SOL     OW 9037   4.000   4.120   6.647
 2713SOL    HW1 9038   4.083   4.116   6.591
 2713SOL    HW2 9039   3.957   4.030   6.651
 2714SOL     OW 9040   4.169   4.152   0.138
 2714SOL    HW1 9041   4.257   4.187   0.171
 2714SOL    HW2 9042   4.125   4.099   0.210
 2715SOL     OW 9043   5.499   2.423   0.953
 2715SOL    HW1 9044   5.578   2.473   0.990
 2715SOL    HW2 9045   5.415   2.464   0.987
 2716SOL     OW 9046   4.805   3.047   3.393
 2716SOL    HW1 9047   4.836   3.079   3.483
 2716SOL    HW2 9048   4.753   2.962   3.405
 2717SOL     OW 9049   0.751   6.627   2.147
 2717SOL    HW1 9050   0.684   6.640   2.075
 2717SOL    HW2 9051   0.705   6.605   2.233
 2718SOL     OW 9052   0.025   1.061   4.842
 2718SOL    HW1 9053   6.957   1.078   4.819
 2718SOL    HW2 9054   0.049   0.967   4.816
 2719SOL     OW 9055   1.398   4.364   2.055
 2719SOL    HW1 9056   1.329   4.434   2.034
 2719SOL    HW2 9057   1.380   4.325   2.145
 2720SOL     OW 9058   0.945   0.031   4.138
 2720SOL    HW1 9059   0.976   7.021   4.226
 2720SOL    HW2 9060   0.846   0.035   4.137
 2721SOL     OW 9061   3.292   6.626   3.035
 2721SOL    HW1 9062   3.389   6.615   3.056
 2721SOL    HW2 9063   3.250   6.689   3.100
 2722SOL     OW 9064   4.858   5.355   6.455
 2722SOL    HW1 9065   4.851   5.361   6.356
 2722SOL    HW2 9066   4.954   5.364   6.483
 2723SOL     OW 9067   2.193   6.276   6.582
 2723SOL    HW1 9068   2.156   6.299   6.672
 2723SOL    HW2 9069   2.262   6.344   6.557
 2724SOL     OW 9070   1.758   6.269   6.634
 2724SOL    HW1 9071   1.689   6.197   6.626
 2724SOL    HW2 9072   1.813   6.270   6.551
 2725SOL     OW 9073   5.527   3.837   4.570
 2725SOL    HW1 9074   5.560   3.795   4.485
 2725SOL    HW2 9075   5.482   3.767   4.626
 2726SOL     OW 9076   0.846   1.948   1.939
 2726SOL    HW1 9077   0.871   2.040   1.909
 2726SOL    HW2 9078   0.762   1.920   1.894
 2727SOL     OW 9079   1.642   3.989   4.391
 2727SOL    HW1 9080   1.666   3.902   4.432
 2727SOL    HW2 9081   1.698   4.062   4.431
 2728SOL     OW 9082   5.226   6.090   6.466
 2728SOL    HW1 9083   5.134   6.069   6.499
 2728SOL    HW2 9084   5.276   6.141   6.535
 2729SOL     OW 9085   6.709   6.448   7.009
 2729SOL    HW1 9086   6.761   6.507   6.947
 2729SOL    HW2 9087   6.697   6.358   6.967
 2730SOL     OW 9088   0.735   5.811   1.527
 2730SOL    HW1 9089   0.694   5.742   1.586
 2730SOL    HW2 9090   0.717   5.788   1.431
 2731SOL     OW 9091   3.186   3.452   3.039
 2731SOL    HW1 9092   3.161   3.357   3.056
 2731SOL    HW2 9093   3.105   3.504   3.013
 2732SOL     OW 9094   6.071   2.294   1.743
 2732SOL    HW1 9095   6.081   2.290   1.644
 2732SOL    HW2 9096   6.013   2.372   1.767
 2733SOL     OW 9097   0.317   1.788   4.824
 2733SOL    HW1 9098   0.304   1.886   4.813
 2733SOL    HW2 9099   0.233   1.746   4.858
 2734SOL     OW 9100   3.556   5.750   1.547
 2734SOL    HW1 9101   3.547   5.787   1.455
 2734SOL    HW2 9102   3.643   5.782   1.587
 2735SOL     OW 9103   1.611   2.469   1.055
 2735SOL    HW1 9104   1.598   2.439   0.960
 2735SOL    HW2 9105   1.703   2.446   1.085
 2736SOL     OW 9106   6.088   6.338   4.858
 2736SOL    HW1 9107   6.154   6.274   4.820
 2736SOL    HW2 9108   6.109   6.356   4.954
 2737SOL     OW 9109   2.720   2.852   5.743
 2737SOL    HW1 9110   2.770   2.867   5.658
 2737SOL    HW2 9111   2.692   2.940   5.781
 2738SOL     OW 9112   6.310   6.618   2.513
 2738SOL    HW1 9113   6.282   6.713   2.496
 2738SOL    HW2 9114   6.242   6.556   2.473
 2739SOL     OW 9115   0.726   5.188   1.182
 2739SOL    HW1 9116   0.802   5.180   1.118
 2739SOL    HW2 9117   0.760   5.175   1.275
 2740SOL     OW 9118   6.611   5.173   2.034
 2740SOL    HW1 9119   6.663   5.178   2.119
 2740SOL    HW2 9120   6.615   5.080   1.998
 2741SOL     OW 9121   0.296   2.056   4.896
 2741SOL    HW1 9122   0.323   2.132   4.837
 2741SOL    HW2 9123   0.242   2.091   4.973
 2742SOL     OW 9124   2.349   5.182   1.549
 2742SOL    HW1 9125   2.440   5.224   1.557
 2742SOL    HW2 9126   2.280   5.250   1.575
 2743SOL     OW 9127   6.679   4.376   2.217
 2743SOL    HW1 9128   6.691   4.445   2.288
 2743SOL    HW2 9129   6.593   4.327   2.232
 2744SOL     OW 9130   4.151   3.261   1.953
 2744SOL    HW1 9131   4.087   3.251   1.877
 2744SOL    HW2 9132   4.237   3.214   1.932
 2745SOL     OW 9133   6.766   1.491   5.434
 2745SOL    HW1 9134   6.775   1.581   5.476
 2745SOL    HW2 9135   6.781   1.420   5.503
 2746SOL     OW 9136   0.653   2.368   4.199
 2746SOL    HW1 9137   0.687   2.312   4.123
 2746SOL    HW2 9138   0.562   2.402   4.177
 2747SOL     OW 9139   4.638   5.474   6.556
 2747SOL    HW1 9140   4.564   5.410   6.575
 2747SOL    HW2 9141   4.722   5.423   6.538
 2748SOL     OW 9142   4.743   0.640   1.756
 2748SOL    HW1 9143   4.804   0.719   1.743
 2748SOL    HW2 9144   4.730   0.594   1.668
 2749SOL     OW 9145   0.388   4.989   0.687
 2749SOL    HW1 9146   0.449   4.982   0.766
 2749SOL    HW2 9147   0.357   5.084   0.677
 2750SOL     OW 9148   2.005   4.311   2.132
 2750SOL    HW1 9149   2.001   4.213   2.115
 2750SOL    HW2 9150   1.930   4.357   2.085
 2751SOL     OW 9151   1.615   2.603   1.501
 2751SOL    HW1 9152   1.584   2.508   1.505
 2751SOL    HW2 9153   1.713   2.607   1.522
 2752SOL     OW 9154   3.377   4.332   5.823
 2752SOL    HW1 9155   3.439   4.302   5.896
 2752SOL    HW2 9156   3.295   4.372   5.863
 2753SOL     OW 9157   6.948   6.210   4.956
 2753SOL    HW1 9158   0.016   6.199   4.980
 2753SOL    HW2 9159   6.900   6.123   4.965
 2754SOL     OW 9160   0.527   0.053   0.346
 2754SOL    HW1 9161   0.441   0.053   0.295
 2754SOL    HW2 9162   0.511   0.020   0.439
 2755SOL     OW 9163   3.982   0.299   3.204
 2755SOL    HW1 9164   3.912   0.364   3.231
 2755SOL    HW2 9165   3.997   0.233   3.278
 2756SOL     OW 9166   4.118   6.219   0.349
 2756SOL    HW1 9167   4.168   6.302   0.371
 2756SOL    HW2 9168   4.181   6.152   0.310
 2757SOL     OW 9169   1.793   6.626   0.853
 2757SOL    HW1 9170   1.693   6.627   0.856
 2757SOL    HW2 9171   1.827   6.715   0.822
 2758SOL     OW 9172   5.228   0.150   4.814
 2758SOL    HW1 9173   5.199   0.105   4.898
 2758SOL    HW2 9174   5.201   0.247   4.816
 2759SOL     OW 9175   5.490   6.579   5.390
 2759SOL    HW1 9176   5.565   6.584   5.324
 2759SOL    HW2 9177   5.419   6.645   5.364
 2760SOL     OW 9178   1.269   5.642   1.546
 2760SOL    HW1 9179   1.356   5.625   1.593
 2760SOL    HW2 9180   1.205   5.686   1.609
 2761SOL     OW 9181   2.751   4.696   4.431
 2761SOL    HW1 9182   2.678   4.654   4.376
 2761SOL    HW2 9183   2.787   4.629   4.495
 2762SOL     OW 9184   1.069   1.226   4.925
 2762SOL    HW1 9185   1.004   1.208   4.998
 2762SOL    HW2 9186   1.144   1.282   4.960
 2763SOL     OW 9187   5.767   1.578   3.914
 2763SOL    HW1 9188   5.761   1.658   3.974
 2763SOL    HW2 9189   5.855   1.580   3.865
 2764SOL     OW 9190   6.224   0.307   1.135
 2764SOL    HW1 9191   6.208   0.331   1.040
 2764SOL    HW2 9192   6.159   0.236   1.163
 2765SOL     OW 9193   5.422   0.276   0.743
 2765SOL    HW1 9194   5.461   0.364   0.718
 2765SOL    HW2 9195   5.493   0.217   0.780
 2766SOL     OW 9196   5.085   2.655   0.463
 2766SOL    HW1 9197   4.991   2.687   0.476
 2766SOL    HW2 9198   5.148   2.715   0.513
 2767SOL     OW 9199   6.970   4.869   6.479
 2767SOL    HW1 9200   7.009   4.922   6.404
 2767SOL    HW2 9201   7.021   4.887   6.563
 2768SOL     OW 9202   4.724   0.676   0.309
 2768SOL    HW1 9203   4.801   0.621   0.341
 2768SOL    HW2 9204   4.759   0.758   0.264
 2769SOL     OW 9205   0.033   4.166   4.217
 2769SOL    HW1 9206   0.074   4.109   4.289
 2769SOL    HW2 9207   0.104   4.203   4.158
 2770SOL     OW 9208   2.263   5.725   6.282
 2770SOL    HW1 9209   2.258   5.644   6.339
 2770SOL    HW2 9210   2.191   5.722   6.213
 2771SOL     OW 9211   5.619   1.270   2.084
 2771SOL    HW1 9212   5.677   1.337   2.130
 2771SOL    HW2 9213   5.533   1.261   2.133
 2772SOL     OW 9214   4.625   1.920   0.921
 2772SOL    HW1 9215   4.545   1.879   0.964
 2772SOL    HW2 9216   4.617   1.915   0.822
 2773SOL     OW 9217   5.653   3.157   5.563
 2773SOL    HW1 9218   5.607   3.135   5.477
 2773SOL    HW2 9219   5.703   3.076   5.596
 2774SOL     OW 9220   6.638   3.108   2.751
 2774SOL    HW1 9221   6.711   3.109   2.684
 2774SOL    HW2 9222   6.648   3.028   2.811
 2775SOL     OW 9223   0.016   5.185   7.025
 2775SOL    HW1 9224   6.985   5.257   6.990
 2775SOL    HW2 9225   0.049   5.128   6.950
 2776SOL     OW 9226   5.124   5.024   5.491
 2776SOL    HW1 9227   5.160   5.051   5.402
 2776SOL    HW2 9228   5.174   4.944   5.524
 2777SOL     OW 9229   2.766   1.220   1.910
 2777SOL    HW1 9230   2.703   1.142   1.908
 2777SOL    HW2 9231   2.847   1.196   1.963
 2778SOL     OW 9232   1.169   1.108   4.701
 2778SOL    HW1 9233   1.127   1.143   4.784
 2778SOL    HW2 9234   1.181   1.009   4.708
 2779SOL     OW 9235   5.124   6.747   0.811
 2779SOL    HW1 9236   5.041   6.757   0.756
 2779SOL    HW2 9237   5.168   6.660   0.791
 2780SOL     OW 9238   0.020   5.615   6.410
 2780SOL    HW1 9239   6.996   5.617   6.325
 2780SOL    HW2 9240   0.118   5.612   6.390
 2781SOL     OW 9241   6.168   5.675   1.731
 2781SOL    HW1 9242   6.142   5.642   1.822
 2781SOL    HW2 9243   6.168   5.775   1.730
 2782SOL     OW 9244   3.005   2.099   5.735
 2782SOL    HW1 9245   3.054   2.019   5.699
 2782SOL    HW2 9246   2.942   2.069   5.806
 2783SOL     OW 9247   6.119   3.097   4.863
 2783SOL    HW1 9248   6.039   3.140   4.903
 2783SOL    HW2 9249   6.180   3.166   4.825
 2784SOL     OW 9250   3.118   1.915   1.083
 2784SOL    HW1 9251   3.023   1.915   1.111
 2784SOL    HW2 9252   3.156   1.822   1.094
 2785SOL     OW 9253   5.543   1.315   0.669
 2785SOL    HW1 9254   5.616   1.368   0.711
 2785SOL    HW2 9255   5.533   1.228   0.716
 2786SOL     OW 9256   4.046   5.769   1.895
 2786SOL    HW1 9257   3.992   5.792   1.975
 2786SOL    HW2 9258   4.135   5.815   1.900
 2787SOL     OW 9259   2.774   2.690   6.606
 2787SOL    HW1 9260   2.732   2.724   6.521
 2787SOL    HW2 9261   2.726   2.730   6.684
 2788SOL     OW 9262   2.416   4.432   6.824
 2788SOL    HW1 9263   2.395   4.354   6.764
 2788SOL    HW2 9264   2.336   4.453   6.880
 2789SOL     OW 9265   2.105   3.133   3.305
 2789SOL    HW1 9266   2.131   3.137   3.402
 2789SOL    HW2 9267   2.075   3.040   3.283
 2790SOL     OW 9268   3.015   5.508   2.413
 2790SOL    HW1 9269   2.933   5.539   2.462
 2790SOL    HW2 9270   2.990   5.435   2.350
 2791SOL     OW 9271   1.242   4.113   4.591
 2791SOL    HW1 9272   1.286   4.171   4.524
 2791SOL    HW2 9273   1.309   4.050   4.631
 2792SOL     OW 9274   0.638   6.887   4.898
 2792SOL    HW1 9275   0.544   6.880   4.933
 2792SOL    HW2 9276   0.702   6.855   4.968
 2793SOL     OW 9277   4.663   2.735   2.730
 2793SOL    HW1 9278   4.759   2.746   2.756
 2793SOL    HW2 9279   4.632   2.817   2.682
 2794SOL     OW 9280   6.830   2.052   0.841
 2794SOL    HW1 9281   6.846   2.135   0.895
 2794SOL    HW2 9282   6.755   2.068   0.777
 2795SOL     OW 9283   2.262   3.364   0.598
 2795SOL    HW1 9284   2.279   3.449   0.548
 2795SOL    HW2 9285   2.204   3.383   0.677
 2796SOL     OW 9286   6.812   5.148   2.844
 2796SOL    HW1 9287   6.785   5.073   2.785
 2796SOL    HW2 9288   6.735   5.210   2.858
 2797SOL     OW 9289   4.928   5.569   4.281
 2797SOL    HW1 9290   4.846   5.606   4.238
 2797SOL    HW2 9291   5.009   5.605   4.234
 2798SOL     OW 9292   1.299   4.750   2.013
 2798SOL    HW1 9293   1.274   4.842   1.984
 2798SOL    HW2 9294   1.396   4.735   1.995
 2799SOL     OW 9295   6.881   5.870   6.855
 2799SOL    HW1 9296   6.858   5.810   6.778
 2799SOL    HW2 9297   6.824   5.847   6.933
 2800SOL     OW 9298   4.520   5.266   6.691
 2800SOL    HW1 9299   4.490   5.275   6.785
 2800SOL    HW2 9300   4.567   5.179   6.679
 2801SOL     OW 9301   4.646   5.837   4.491
 2801SOL    HW1 9302   4.703   5.837   4.408
 2801SOL    HW2 9303   4.590   5.920   4.492
 2802SOL     OW 9304   4.606   3.001   6.244
 2802SOL    HW1 9305   4.555   2.967   6.166
 2802SOL    HW2 9306   4.561   3.082   6.281
 2803SOL     OW 9307   3.536   6.344   6.272
 2803SOL    HW1 9308   3.445   6.384   6.281
 2803SOL    HW2 9309   3.563   6.302   6.359
 2804SOL     OW 9310   6.987   4.882   4.783
 2804SOL    HW1 9311   6.924   4.805   4.789
 2804SOL    HW2 9312   0.006   4.894   4.870
 2805SOL     OW 9313   5.049   2.600   1.724
 2805SOL    HW1 9314   5.069   2.512   1.768
 2805SOL    HW2 9315   5.035   2.670   1.794
 2806SOL     OW 9316   6.467   4.721   4.334
 2806SOL    HW1 9317   6.505   4.808   4.302
 2806SOL    HW2 9318   6.378   4.737   4.378
 2807SOL     OW 9319   6.138   5.281   4.194
 2807SOL    HW1 9320   6.174   5.364   4.237
 2807SOL    HW2 9321   6.043   5.267   4.225
 2808SOL     OW 9322   5.003   2.765   2.492
 2808SOL    HW1 9323   4.956   2.679   2.474
 2808SOL    HW2 9324   4.947   2.822   2.551
 2809SOL     OW 9325   6.008   2.619   1.880
 2809SOL    HW1 9326   5.952   2.676   1.819
 2809SOL    HW2 9327   6.093   2.667   1.901
 2810SOL     OW 9328   2.850   6.308   4.238
 2810SOL    HW1 9329   2.907   6.344   4.164
 2810SOL    HW2 9330   2.773   6.258   4.200
 2811SOL     OW 9331   0.584   0.963   2.848
 2811SOL    HW1 9332   0.565   1.018   2.929
 2811SOL    HW2 9333   0.523   0.884   2.847
 2812SOL     OW 9334   5.503   3.493   0.150
 2812SOL    HW1 9335   5.522   3.402   0.113
 2812SOL    HW2 9336   5.566   3.513   0.225
 2813SOL     OW 9337   6.343   0.113   6.021
 2813SOL    HW1 9338   6.259   0.127   5.968
 2813SOL    HW2 9339   6.407   0.058   5.967
 2814SOL     OW 9340   4.866   3.180   6.726
 2814SOL    HW1 9341   4.961   3.196   6.698
 2814SOL    HW2 9342   4.805   3.233   6.668
 2815SOL     OW 9343   7.010   1.511   5.809
 2815SOL    HW1 9344   6.982   1.423   5.849
 2815SOL    HW2 9345   6.930   1.569   5.798
 2816SOL     OW 9346   6.662   5.985   3.473
 2816SOL    HW1 9347   6.694   5.988   3.378
 2816SOL    HW2 9348   6.684   6.071   3.518
 2817SOL     OW 9349   2.002   0.281   1.186
 2817SOL    HW1 9350   1.953   0.369   1.183
 2817SOL    HW2 9351   2.099   0.297   1.201
 2818SOL     OW 9352   0.089   6.546   0.029
 2818SOL    HW1 9353   0.153   6.591   6.995
 2818SOL    HW2 9354   0.000   6.536   7.011
 2819SOL     OW 9355   0.222   1.258   1.291
 2819SOL    HW1 9356   0.140   1.314   1.303
 2819SOL    HW2 9357   0.269   1.248   1.379
 2820SOL     OW 9358   1.398   1.804   2.875
 2820SOL    HW1 9359   1.404   1.718   2.926
 2820SOL    HW2 9360   1.441   1.877   2.928
 2821SOL     OW 9361   3.970   3.769   0.057
 2821SOL    HW1 9362   3.992   3.842   0.122
 2821SOL    HW2 9363   4.047   3.754   7.024
 2822SOL     OW 9364   4.155   2.237   6.760
 2822SOL    HW1 9365   4.251   2.265   6.750
 2822SOL    HW2 9366   4.129   2.243   6.856
 2823SOL     OW 9367   3.171   6.772   0.422
 2823SOL    HW1 9368   3.229   6.837   0.471
 2823SOL    HW2 9369   3.082   6.815   0.403
 2824SOL     OW 9370   2.672   1.224   4.484
 2824SOL    HW1 9371   2.575   1.212   4.506
 2824SOL    HW2 9372   2.680   1.272   4.396
 2825SOL     OW 9373   7.004   0.565   6.840
 2825SOL    HW1 9374   7.016   0.477   6.794
 2825SOL    HW2 9375   6.966   0.631   6.775
 2826SOL     OW 9376   5.393   2.184   0.129
 2826SOL    HW1 9377   5.427   2.174   0.222
 2826SOL    HW2 9378   5.421   2.273   0.092
 2827SOL     OW 9379   5.793   0.757   5.215
 2827SOL    HW1 9380   5.817   0.672   5.168
 2827SOL    HW2 9381   5.792   0.833   5.150
 2828SOL     OW 9382   3.136   0.335   0.068
 2828SOL    HW1 9383   3.230   0.306   0.085
 2828SOL    HW2 9384   3.135   0.398   7.019
 2829SOL     OW 9385   3.616   3.861   6.105
 2829SOL    HW1 9386   3.713   3.882   6.095
 2829SOL    HW2 9387   3.569   3.873   6.017
 2830SOL     OW 9388   0.903   3.278   0.086
 2830SOL    HW1 9389   0.914   3.184   0.053
 2830SOL    HW2 9390   0.983   3.332   0.060
 2831SOL     OW 9391   0.509   5.802   3.946
 2831SOL    HW1 9392   0.564   5.769   4.023
 2831SOL    HW2 9393   0.569   5.848   3.880
 2832SOL     OW 9394   0.684   1.120   2.375
 2832SOL    HW1 9395   0.764   1.066   2.349
 2832SOL    HW2 9396   0.704   1.217   2.361
 2833SOL     OW 9397   4.444   2.340   2.502
 2833SOL    HW1 9398   4.345   2.352   2.503
 2833SOL    HW2 9399   4.473   2.302   2.414
 2834SOL     OW 9400   2.700   6.687   5.291
 2834SOL    HW1 9401   2.674   6.744   5.213
 2834SOL    HW2 9402   2.755   6.741   5.354
 2835SOL     OW 9403   6.643   0.651   2.157
 2835SOL    HW1 9404   6.558   0.611   2.191
 2835SOL    HW2 9405   6.694   0.690   2.234
 2836SOL     OW 9406   6.124   6.956   1.618
 2836SOL    HW1 9407   6.068   0.008   1.639
 2836SOL    HW2 9408   6.204   6.954   1.678
 2837SOL     OW 9409   5.791   3.523   2.983
 2837SOL    HW1 9410   5.844   3.475   2.913
 2837SOL    HW2 9411   5.787   3.620   2.960
 2838SOL     OW 9412   1.985   4.278   1.110
 2838SOL    HW1 9413   1.894   4.319   1.105
 2838SOL    HW2 9414   1.981   4.184   1.074
 2839SOL     OW 9415   5.723   1.639   1.962
 2839SOL    HW1 9416   5.761   1.701   1.893
 2839SOL    HW2 9417   5.799   1.594   2.011
 2840SOL     OW 9418   1.152   1.141   3.423
 2840SOL    HW1 9419   1.213   1.211   3.386
 2840SOL    HW2 9420   1.064   1.183   3.447
 2841SOL     OW 9421   0.646   1.112   5.888
 2841SOL    HW1 9422   0.614   1.039   5.828
 2841SOL    HW2 9423   0.719   1.164   5.843
 2842SOL     OW 9424   6.864   3.148   4.396
 2842SOL    HW1 9425   6.829   3.078   4.458
 2842SOL    HW2 9426   6.899   3.105   4.313
 2843SOL     OW 9427   2.969   1.862   3.082
 2843SOL    HW1 9428   2.956   1.829   2.988
 2843SOL    HW2 9429   2.915   1.944   3.096
 2844SOL     OW 9430   1.153   5.456   0.438
 2844SOL    HW1 9431   1.089   5.524   0.404
 2844SOL    HW2 9432   1.145   5.373   0.383
 2845SOL     OW 9433   0.920   2.751   0.965
 2845SOL    HW1 9434   0.969   2.801   1.037
 2845SOL    HW2 9435   0.961   2.661   0.953
 2846SOL     OW 9436   4.186   1.236   6.599
 2846SOL    HW1 9437   4.214   1.331   6.581
 2846SOL    HW2 9438   4.184   1.185   6.513
 2847SOL     OW 9439   5.135   3.154   3.058
 2847SOL    HW1 9440   5.151   3.234   3.000
 2847SOL    HW2 9441   5.039   3.127   3.051
 2848SOL     OW 9442   1.435   3.401   6.488
 2848SOL    HW1 9443   1.390   3.311   6.483
 2848SOL    HW2 9444   1.475   3.414   6.578
 2849SOL     OW 9445   3.672   6.502   1.073
 2849SOL    HW1 9446   3.731   6.522   0.994
 2849SOL    HW2 9447   3.702   6.557   1.151
 2850SOL     OW 9448   3.526   0.099   2.509
 2850SOL    HW1 9449   3.431   0.129   2.515
 2850SOL    HW2 9450   3.530   0.007   2.470
 2851SOL     OW 9451   0.382   2.932   5.836
 2851SOL    HW1 9452   0.317   2.986   5.890
 2851SOL    HW2 9453   0.476   2.953   5.866
 2852SOL     OW 9454   5.410   4.139   0.313
 2852SOL    HW1 9455   5.506   4.123   0.292
 2852SOL    HW2 9456   5.400   4.226   0.360
 2853SOL     OW 9457   2.068   2.683   0.170
 2853SOL    HW1 9458   2.125   2.764   0.181
 2853SOL    HW2 9459   2.056   2.639   0.259
 2854SOL     OW 9460   3.872   1.544   5.009
 2854SOL    HW1 9461   3.817   1.619   5.045
 2854SOL    HW2 9462   3.812   1.466   4.989
 2855SOL     OW 9463   2.514   1.085   6.138
 2855SOL    HW1 9464   2.481   1.023   6.209
 2855SOL    HW2 9465   2.527   1.176   6.178
 2856SOL     OW 9466   1.756   2.927   5.686
 2856SOL    HW1 9467   1.710   3.015   5.679
 2856SOL    HW2 9468   1.803   2.921   5.774
 2857SOL     OW 9469   3.260   1.730   2.258
 2857SOL    HW1 9470   3.188   1.799   2.268
 2857SOL    HW2 9471   3.317   1.730   2.340
 2858SOL     OW 9472   5.779   3.704   1.509
 2858SOL    HW1 9473   5.726   3.781   1.474
 2858SOL    HW2 9474   5.716   3.637   1.551
 2859SOL     OW 9475   5.157   2.076   0.417
 2859SOL    HW1 9476   5.092   2.061   0.343
 2859SOL    HW2 9477   5.201   1.990   0.440
 2860SOL     OW 9478   3.629   1.915   1.219
 2860SOL    HW1 9479   3.703   1.939   1.156
 2860SOL    HW2 9480   3.587   1.999   1.254
 2861SOL     OW 9481   4.658   4.778   5.900
 2861SOL    HW1 9482   4.629   4.684   5.921
 2861SOL    HW2 9483   4.577   4.836   5.890
 2862SOL     OW 9484   5.005   1.809   3.123
 2862SOL    HW1 9485   4.920   1.802   3.174
 2862SOL    HW2 9486   5.081   1.778   3.180
 2863SOL     OW 9487   5.166   1.461   7.014
 2863SOL    HW1 9488   5.198   1.433   6.924
 2863SOL    HW2 9489   5.177   1.559   7.025
 2864SOL     OW 9490   4.075   1.120   1.614
 2864SOL    HW1 9491   4.110   1.177   1.540
 2864SOL    HW2 9492   4.066   1.025   1.583
 2865SOL     OW 9493   5.516   4.701   5.545
 2865SOL    HW1 9494   5.584   4.774   5.553
 2865SOL    HW2 9495   5.426   4.737   5.568
 2866SOL     OW 9496   6.370   6.136   6.898
 2866SOL    HW1 9497   6.281   6.173   6.925
 2866SOL    HW2 9498   6.361   6.089   6.810
 2867SOL     OW 9499   5.592   3.814   2.074
 2867SOL    HW1 9500   5.595   3.827   2.174
 2867SOL    HW2 9501   5.518   3.869   2.036
 2868SOL     OW 9502   0.475   2.921   5.301
 2868SOL    HW1 9503   0.444   2.836   5.259
 2868SOL    HW2 9504   0.444   2.924   5.396
 2869SOL     OW 9505   5.931   1.158   4.087
 2869SOL    HW1 9506   5.924   1.161   4.187
 2869SOL    HW2 9507   5.883   1.236   4.048
 2870SOL     OW 9508   0.582   1.434   4.324
 2870SOL    HW1 9509   0.618   1.521   4.357
 2870SOL    HW2 9510   0.517   1.398   4.392
 2871SOL     OW 9511   1.128   1.817   0.053
 2871SOL    HW1 9512   1.220   1.778   0.053
 2871SOL    HW2 9513   1.076   1.780   7.004
 2872SOL     OW 9514   2.830   1.377   3.327
 2872SOL    HW1 9515   2.914   1.426   3.303
 2872SOL    HW2 9516   2.840   1.281   3.302
 2873SOL     OW 9517   0.312   4.792   2.698
 2873SOL    HW1 9518   0.236   4.829   2.751
 2873SOL    HW2 9519   0.398   4.836   2.726
 2874SOL     OW 9520   4.063   6.481   3.429
 2874SOL    HW1 9521   4.114   6.405   3.469
 2874SOL    HW2 9522   4.033   6.456   3.336
 2875SOL     OW 9523   4.897   6.339   0.481
 2875SOL    HW1 9524   4.798   6.326   0.490
 2875SOL    HW2 9525   4.918   6.437   0.482
 2876SOL     OW 9526   0.889   0.337   2.011
 2876SOL    HW1 9527   0.836   0.367   2.090
 2876SOL    HW2 9528   0.979   0.305   2.041
 2877SOL     OW 9529   3.810   2.856   5.235
 2877SOL    HW1 9530   3.780   2.929   5.297
 2877SOL    HW2 9531   3.897   2.819   5.268
 2878SOL     OW 9532   3.915   5.305   4.453
 2878SOL    HW1 9533   3.847   5.232   4.457
 2878SOL    HW2 9534   4.007   5.267   4.463
 2879SOL     OW 9535   5.255   4.688   0.868
 2879SOL    HW1 9536   5.281   4.593   0.850
 2879SOL    HW2 9537   5.216   4.695   0.959
 2880SOL     OW 9538   5.843   6.927   0.947
 2880SOL    HW1 9539   5.837   6.938   0.848
 2880SOL    HW2 9540   5.764   6.971   0.991
 2881SOL     OW 9541   5.788   6.224   0.830
 2881SOL    HW1 9542   5.837   6.302   0.867
 2881SOL    HW2 9543   5.846   6.142   0.834
 2882SOL     OW 9544   0.631   4.294   2.622
 2882SOL    HW1 9545   0.573   4.236   2.679
 2882SOL    HW2 9546   0.578   4.327   2.543
 2883SOL     OW 9547   5.302   6.293   3.963
 2883SOL    HW1 9548   5.360   6.236   4.022
 2883SOL    HW2 9549   5.348   6.380   3.946
 2884SOL     OW 9550   0.662   5.695   3.002
 2884SOL    HW1 9551   0.618   5.770   2.952
 2884SOL    HW2 9552   0.753   5.723   3.031
 2885SOL     OW 9553   0.718   3.438   2.170
 2885SOL    HW1 9554   0.640   3.501   2.176
 2885SOL    HW2 9555   0.801   3.488   2.195
 2886SOL     OW 9556   2.432   4.094   6.376
 2886SOL    HW1 9557   2.415   4.048   6.289
 2886SOL    HW2 9558   2.530   4.114   6.385
 2887SOL     OW 9559   1.164   0.058   4.536
 2887SOL    HW1 9560   1.189   0.110   4.454
 2887SOL    HW2 9561   1.210   6.997   4.534
 2888SOL     OW 9562   0.823   4.608   6.824
 2888SOL    HW1 9563   0.756   4.610   6.898
 2888SOL    HW2 9564   0.915   4.603   6.864
 2889SOL     OW 9565   1.858   0.047   2.867
 2889SOL    HW1 9566   1.771   0.045   2.915
 2889SOL    HW2 9567   1.852   0.111   2.790
 2890SOL     OW 9568   2.747   0.338   1.063
 2890SOL    HW1 9569   2.765   0.250   1.020
 2890SOL    HW2 9570   2.725   0.325   1.159
 2891SOL     OW 9571   2.020   3.995   3.997
 2891SOL    HW1 9572   1.961   3.955   3.927
 2891SOL    HW2 9573   2.063   4.078   3.961
 2892SOL     OW 9574   5.407   3.739   6.932
 2892SOL    HW1 9575   5.319   3.724   6.887
 2892SOL    HW2 9576   5.413   3.679   7.012
 2893SOL     OW 9577   6.892   6.432   4.752
 2893SOL    HW1 9578   6.984   6.393   4.746
 2893SOL    HW2 9579   6.897   6.522   4.795
 2894SOL     OW 9580   3.118   2.877   0.135
 2894SOL    HW1 9581   3.163   2.875   0.046
 2894SOL    HW2 9582   3.123   2.786   0.176
 2895SOL     OW 9583   3.799   2.775   6.689
 2895SOL    HW1 9584   3.791   2.781   6.590
 2895SOL    HW2 9585   3.836   2.860   6.726
 2896SOL     OW 9586   3.380   5.339   6.724
 2896SOL    HW1 9587   3.360   5.349   6.626
 2896SOL    HW2 9588   3.326   5.264   6.762
 2897SOL     OW 9589   3.105   6.060   3.162
 2897SOL    HW1 9590   3.056   6.010   3.090
 2897SOL    HW2 9591   3.131   6.150   3.127
 2898SOL     OW 9592   4.612   4.935   3.921
 2898SOL    HW1 9593   4.568   4.882   3.994
 2898SOL    HW2 9594   4.597   5.032   3.938
 2899SOL     OW 9595   0.563   1.938   6.897
 2899SOL    HW1 9596   0.643   1.978   6.941
 2899SOL    HW2 9597   0.552   1.843   6.927
 2900SOL     OW 9598   2.110   4.983   5.234
 2900SOL    HW1 9599   2.142   4.913   5.170
 2900SOL    HW2 9600   2.036   4.946   5.290
 2901SOL     OW 9601   2.029   0.479   3.208
 2901SOL    HW1 9602   2.114   0.430   3.228
 2901SOL    HW2 9603   1.953   0.415   3.206
 2902SOL     OW 9604   5.374   6.243   1.895
 2902SOL    HW1 9605   5.395   6.185   1.816
 2902SOL    HW2 9606   5.283   6.219   1.931
 2903SOL     OW 9607   3.052   0.348   1.085
 2903SOL    HW1 9608   3.126   0.289   1.118
 2903SOL    HW2 9609   2.973   0.340   1.145
 2904SOL     OW 9610   1.680   3.400   5.324
 2904SOL    HW1 9611   1.676   3.485   5.378
 2904SOL    HW2 9612   1.642   3.325   5.377
 2905SOL     OW 9613   1.747   2.338   3.484
 2905SOL    HW1 9614   1.726   2.254   3.434
 2905SOL    HW2 9615   1.845   2.359   3.474
 2906SOL     OW 9616   5.248   5.463   2.860
 2906SOL    HW1 9617   5.213   5.480   2.768
 2906SOL    HW2 9618   5.284   5.548   2.898
 2907SOL     OW 9619   0.448   1.172   4.225
 2907SOL    HW1 9620   0.521   1.239   4.213
 2907SOL    HW2 9621   0.454   1.132   4.316
 2908SOL     OW 9622   4.424   7.004   4.138
 2908SOL    HW1 9623   4.364   0.043   4.095
 2908SOL    HW2 9624   4.501   6.983   4.078
 2909SOL     OW 9625   0.676   6.185   3.816
 2909SOL    HW1 9626   0.687   6.109   3.752
 2909SOL    HW2 9627   0.578   6.202   3.830
 2910SOL     OW 9628   4.765   5.954   4.284
 2910SOL    HW1 9629   4.704   5.995   4.217
 2910SOL    HW2 9630   4.854   5.936   4.243
 2911SOL     OW 9631   1.679   5.612   3.786
 2911SOL    HW1 9632   1.625   5.695   3.771
 2911SOL    HW2 9633   1.620   5.532   3.785
 2912SOL     OW 9634   4.140   6.783   6.427
 2912SOL    HW1 9635   4.082   6.702   6.416
 2912SOL    HW2 9636   4.183   6.805   6.340
 2913SOL     OW 9637   2.321   5.182   2.146
 2913SOL    HW1 9638   2.398   5.150   2.090
 2913SOL    HW2 9639   2.252   5.225   2.088
 2914SOL     OW 9640   6.400   6.360   5.831
 2914SOL    HW1 9641   6.301   6.358   5.840
 2914SOL    HW2 9642   6.426   6.334   5.738
 2915SOL     OW 9643   5.362   1.492   5.059
 2915SOL    HW1 9644   5.406   1.582   5.067
 2915SOL    HW2 9645   5.389   1.435   5.136
 2916SOL     OW 9646   6.520   5.605   5.984
 2916SOL    HW1 9647   6.594   5.570   6.041
 2916SOL    HW2 9648   6.432   5.585   6.028
 2917SOL     OW 9649   4.236   6.952   1.717
 2917SOL    HW1 9650   4.287   6.998   1.644
 2917SOL    HW2 9651   4.274   6.978   1.806
 2918SOL     OW 9652   7.006   4.142   3.499
 2918SOL    HW1 9653   0.039   4.084   3.445
 2918SOL    HW2 9654   6.930   4.174   3.442
 2919SOL     OW 9655   6.521   0.789   0.648
 2919SOL    HW1 9656   6.489   0.858   0.582
 2919SOL    HW2 9657   6.519   0.699   0.605
 2920SOL     OW 9658   3.042   1.887   2.308
 2920SOL    HW1 9659   2.974   1.831   2.354
 2920SOL    HW2 9660   3.026   1.984   2.328
 2921SOL     OW 9661   0.756   0.076   2.867
 2921SOL    HW1 9662   0.659   0.061   2.849
 2921SOL    HW2 9663   0.801   7.016   2.879
 2922SOL     OW 9664   5.810   6.938   6.933
 2922SOL    HW1 9665   5.899   6.933   6.977
 2922SOL    HW2 9666   5.754   6.859   6.960
 2923SOL     OW 9667   6.933   4.565   1.844
 2923SOL    HW1 9668   7.006   4.533   1.784
 2923SOL    HW2 9669   6.856   4.502   1.839
 2924SOL     OW 9670   0.251   2.198   6.625
 2924SOL    HW1 9671   0.199   2.239   6.550
 2924SOL    HW2 9672   0.216   2.232   6.713
 2925SOL     OW 9673   5.306   0.873   3.565
 2925SOL    HW1 9674   5.381   0.939   3.580
 2925SOL    HW2 9675   5.317   0.830   3.476
 2926SOL     OW 9676   0.212   1.164   4.675
 2926SOL    HW1 9677   0.177   1.145   4.767
 2926SOL    HW2 9678   0.258   1.083   4.639
 2927SOL     OW 9679   1.644   1.713   2.198
 2927SOL    HW1 9680   1.744   1.711   2.208
 2927SOL    HW2 9681   1.614   1.806   2.178
 2928SOL     OW 9682   6.680   2.406   5.938
 2928SOL    HW1 9683   6.714   2.315   5.962
 2928SOL    HW2 9684   6.729   2.439   5.857
 2929SOL     OW 9685   0.748   0.925   6.427
 2929SOL    HW1 9686   0.812   0.894   6.496
 2929SOL    HW2 9687   0.693   0.846   6.396
 2930SOL     OW 9688   4.833   6.370   5.073
 2930SOL    HW1 9689   4.748   6.317   5.078
 2930SOL    HW2 9690   4.886   6.341   4.994
 2931SOL     OW 9691   5.854   5.703   0.403
 2931SOL    HW1 9692   5.765   5.669   0.372
 2931SOL    HW2 9693   5.920   5.696   0.328
 2932SOL     OW 9694   1.542   5.445   1.913
 2932SOL    HW1 9695   1.539   5.510   1.989
 2932SOL    HW2 9696   1.634   5.408   1.903
 2933SOL     OW 9697   6.148   3.153   3.172
 2933SOL    HW1 9698   6.113   3.214   3.244
 2933SOL    HW2 9699   6.192   3.074   3.215
 2934SOL     OW 9700   4.001   1.482   0.284
 2934SOL    HW1 9701   3.945   1.442   0.356
 2934SOL    HW2 9702   3.944   1.503   0.204
 2935SOL     OW 9703   6.443   3.326   1.492
 2935SOL    HW1 9704   6.363   3.377   1.523
 2935SOL    HW2 9705   6.413   3.248   1.437
 2936SOL     OW 9706   4.724   5.271   2.301
 2936SOL    HW1 9707   4.766   5.181   2.302
 2936SOL    HW2 9708   4.774   5.332   2.362
 2937SOL     OW 9709   4.342   5.045   0.219
 2937SOL    HW1 9710   4.317   5.139   0.194
 2937SOL    HW2 9711   4.403   5.047   0.299
 2938SOL     OW 9712   5.578   4.930   5.702
 2938SOL    HW1 9713   5.546   5.022   5.725
 2938SOL    HW2 9714   5.676   4.923   5.722
 2939SOL     OW 9715   0.539   0.227   4.738
 2939SOL    HW1 9716   0.565   0.200   4.831
 2939SOL    HW2 9717   0.557   0.151   4.676
 2940SOL     OW 9718   5.609   6.881   6.247
 2940SOL    HW1 9719   5.631   6.967   6.200
 2940SOL    HW2 9720   5.692   6.839   6.281
 2941SOL     OW 9721   2.201   2.013   4.638
 2941SOL    HW1 9722   2.260   2.092   4.651
 2941SOL    HW2 9723   2.234   1.936   4.693
 2942SOL     OW 9724   2.634   1.780   1.255
 2942SOL    HW1 9725   2.606   1.866   1.297
 2942SOL    HW2 9726   2.583   1.705   1.296
 2943SOL     OW 9727   5.973   3.746   2.716
 2943SOL    HW1 9728   6.028   3.694   2.781
 2943SOL    HW2 9729   5.900   3.793   2.764
 2944SOL     OW 9730   2.521   5.917   5.201
 2944SOL    HW1 9731   2.617   5.943   5.203
 2944SOL    HW2 9732   2.487   5.923   5.107
 2945SOL     OW 9733   3.804   4.079   3.844
 2945SOL    HW1 9734   3.799   4.029   3.931
 2945SOL    HW2 9735   3.875   4.039   3.786
 2946SOL     OW 9736   0.341   5.565   6.564
 2946SOL    HW1 9737   0.392   5.617   6.495
 2946SOL    HW2 9738   0.317   5.625   6.640
 2947SOL     OW 9739   0.773   4.120   6.967
 2947SOL    HW1 9740   0.867   4.096   6.943
 2947SOL    HW2 9741   0.709   4.065   6.913
 2948SOL     OW 9742   0.322   4.743   5.442
 2948SOL    HW1 9743   0.364   4.834   5.447
 2948SOL    HW2 9744   0.308   4.708   5.535
 2949SOL     OW 9745   1.834   6.274   1.299
 2949SOL    HW1 9746   1.883   6.277   1.212
 2949SOL    HW2 9747   1.744   6.234   1.285
 2950SOL     OW 9748   4.873   3.692   4.457
 2950SOL    HW1 9749   4.916   3.782   4.466
 2950SOL    HW2 9750   4.879   3.644   4.545
 2951SOL     OW 9751   6.888   2.518   1.334
 2951SOL    HW1 9752   6.973   2.466   1.346
 2951SOL    HW2 9753   6.810   2.463   1.363
 2952SOL     OW 9754   0.911   6.287   5.082
 2952SOL    HW1 9755   0.910   6.386   5.066
 2952SOL    HW2 9756   0.938   6.240   4.998
 2953SOL     OW 9757   4.813   2.967   2.859
 2953SOL    HW1 9758   4.867   2.884   2.845
 2953SOL    HW2 9759   4.788   2.974   2.955
 2954SOL     OW 9760   0.830   5.222   1.938
 2954SOL    HW1 9761   0.926   5.194   1.933
 2954SOL    HW2 9762   0.790   5.189   2.023
 2955SOL     OW 9763   1.200   3.644   0.884
 2955SOL    HW1 9764   1.279   3.583   0.877
 2955SOL    HW2 9765   1.144   3.618   0.962
 2956SOL     OW 9766   6.341   6.110   3.032
 2956SOL    HW1 9767   6.409   6.049   2.990
 2956SOL    HW2 9768   6.327   6.085   3.127
 2957SOL     OW 9769   6.893   3.130   1.720
 2957SOL    HW1 9770   6.917   3.040   1.684
 2957SOL    HW2 9771   6.827   3.174   1.659
 2958SOL     OW 9772   2.475   4.479   4.803
 2958SOL    HW1 9773   2.429   4.426   4.873
 2958SOL    HW2 9774   2.518   4.560   4.844
 2959SOL     OW 9775   4.290   4.314   0.705
 2959SOL    HW1 9776   4.207   4.348   0.749
 2959SOL    HW2 9777   4.370   4.352   0.751
 2960SOL     OW 9778   3.519   0.090   6.822
 2960SOL    HW1 9779   3.498   0.135   6.908
 2960SOL    HW2 9780   3.617   0.098   6.802
 2961SOL     OW 9781   5.392   2.825   4.695
 2961SOL    HW1 9782   5.325   2.770   4.744
 2961SOL    HW2 9783   5.467   2.766   4.663
 2962SOL     OW 9784   4.246   1.066   4.091
 2962SOL    HW1 9785   4.345   1.049   4.096
 2962SOL    HW2 9786   4.227   1.155   4.131
 2963SOL     OW 9787   2.170   1.365   5.641
 2963SOL    HW1 9788   2.197   1.269   5.629
 2963SOL    HW2 9789   2.144   1.403   5.552
 2964SOL     OW 9790   0.480   0.151   2.150
 2964SOL    HW1 9791   0.513   0.080   2.212
 2964SOL    HW2 9792   0.548   0.223   2.143
 2965SOL     OW 9793   6.864   0.969   4.581
 2965SOL    HW1 9794   6.907   1.059   4.588
 2965SOL    HW2 9795   6.885   0.916   4.663
 2966SOL     OW 9796   5.689   5.028   4.428
 2966SOL    HW1 9797   5.742   4.975   4.361
 2966SOL    HW2 9798   5.605   4.979   4.450
 2967SOL     OW 9799   6.254   2.141   4.463
 2967SOL    HW1 9800   6.280   2.087   4.383
 2967SOL    HW2 9801   6.159   2.173   4.452
 2968SOL     OW 9802   1.222   4.018   6.202
 2968SOL    HW1 9803   1.263   4.043   6.290
 2968SOL    HW2 9804   1.250   3.926   6.176
 2969SOL     OW 9805   5.568   1.057   4.553
 2969SOL    HW1 9806   5.634   1.076   4.480
 2969SOL    HW2 9807   5.614   1.058   4.642
 2970SOL     OW 9808   1.260   3.663   6.671
 2970SOL    HW1 9809   1.218   3.572   6.674
 2970SOL    HW2 9810   1.326   3.667   6.596
 2971SOL     OW 9811   5.304   3.332   6.097
 2971SOL    HW1 9812   5.352   3.256   6.141
 2971SOL    HW2 9813   5.311   3.414   6.155
 2972SOL     OW 9814   6.737   5.020   6.451
 2972SOL    HW1 9815   6.776   5.091   6.392
 2972SOL    HW2 9816   6.789   4.935   6.441
 2973SOL     OW 9817   5.455   1.280   4.430
 2973SOL    HW1 9818   5.484   1.197   4.477
 2973SOL    HW2 9819   5.523   1.306   4.361
 2974SOL     OW 9820   0.609   3.962   2.824
 2974SOL    HW1 9821   0.649   3.963   2.732
 2974SOL    HW2 9822   0.595   3.867   2.852
 2975SOL     OW 9823   0.667   2.598   4.826
 2975SOL    HW1 9824   0.670   2.502   4.855
 2975SOL    HW2 9825   0.688   2.604   4.728
 2976SOL     OW 9826   4.169   1.512   3.035
 2976SOL    HW1 9827   4.145   1.430   2.984
 2976SOL    HW2 9828   4.178   1.589   2.971
 2977SOL     OW 9829   1.785   6.705   4.492
 2977SOL    HW1 9830   1.869   6.744   4.455
 2977SOL    HW2 9831   1.752   6.632   4.432
 2978SOL     OW 9832   4.236   5.057   6.721
 2978SOL    HW1 9833   4.253   5.098   6.631
 2978SOL    HW2 9834   4.183   4.973   6.709
 2979SOL     OW 9835   4.935   6.631   4.302
 2979SOL    HW1 9836   4.916   6.654   4.397
 2979SOL    HW2 9837   5.016   6.680   4.270
 2980SOL     OW 9838   1.134   6.006   3.930
 2980SOL    HW1 9839   1.149   5.913   3.965
 2980SOL    HW2 9840   1.051   6.043   3.970
 2981SOL     OW 9841   0.990   1.279   5.576
 2981SOL    HW1 9842   0.996   1.182   5.601
 2981SOL    HW2 9843   0.914   1.321   5.625
 2982SOL     OW 9844   5.013   6.148   3.295
 2982SOL    HW1 9845   4.933   6.179   3.244
 2982SOL    HW2 9846   4.988   6.138   3.392
 2983SOL     OW 9847   0.796   1.277   4.247
 2983SOL    HW1 9848   0.854   1.302   4.170
 2983SOL    HW2 9849   0.723   1.344   4.258
 2984SOL     OW 9850   4.728   5.607   1.800
 2984SOL    HW1 9851   4.766   5.515   1.812
 2984SOL    HW2 9852   4.651   5.619   1.862
 2985SOL     OW 9853   0.959   2.739   4.714
 2985SOL    HW1 9854   0.877   2.706   4.666
 2985SOL    HW2 9855   0.932   2.806   4.783
 2986SOL     OW 9856   2.176   3.467   6.290
 2986SOL    HW1 9857   2.187   3.469   6.389
 2986SOL    HW2 9858   2.264   3.484   6.246
 2987SOL     OW 9859   5.106   0.616   3.966
 2987SOL    HW1 9860   5.071   0.528   3.936
 2987SOL    HW2 9861   5.164   0.655   3.894
 2988SOL     OW 9862   0.499   6.771   2.822
 2988SOL    HW1 9863   0.453   6.816   2.745
 2988SOL    HW2 9864   0.533   6.682   2.793
 2989SOL     OW 9865   6.447   6.264   0.569
 2989SOL    HW1 9866   6.512   6.298   0.501
 2989SOL    HW2 9867   6.496   6.205   0.634
 2990SOL     OW 9868   4.350   1.274   3.689
 2990SOL    HW1 9869   4.409   1.194   3.700
 2990SOL    HW2 9870   4.378   1.326   3.608
 2991SOL     OW 9871   6.683   3.990   7.024
 2991SOL    HW1 9872   6.645   3.960   6.936
 2991SOL    HW2 9873   6.721   3.911   0.044
 2992SOL     OW 9874   2.391   4.949   5.951
 2992SOL    HW1 9875   2.331   4.875   5.921
 2992SOL    HW2 9876   2.444   4.983   5.874
 2993SOL     OW 9877   1.070   5.135   1.900
 2993SOL    HW1 9878   1.103   5.167   1.811
 2993SOL    HW2 9879   1.015   5.052   1.888
 2994SOL     OW 9880   3.853   0.065   0.787
 2994SOL    HW1 9881   3.883   0.149   0.742
 2994SOL    HW2 9882   3.932   0.016   0.823
 2995SOL     OW 9883   1.802   3.521   6.854
 2995SOL    HW1 9884   1.794   3.468   6.938
 2995SOL    HW2 9885   1.723   3.503   6.796
 2996SOL     OW 9886   2.279   6.267   3.560
 2996SOL    HW1 9887   2.274   6.213   3.644
 2996SOL    HW2 9888   2.206   6.335   3.559
 2997SOL     OW 9889   5.076   0.169   1.981
 2997SOL    HW1 9890   5.159   0.143   1.932
 2997SOL    HW2 9891   5.041   0.090   2.032
 2998SOL     OW 9892   5.715   6.277   5.061
 2998SOL    HW1 9893   5.718   6.374   5.085
 2998SOL    HW2 9894   5.629   6.237   5.095
 2999SOL     OW 9895   3.197   5.261   3.751
 2999SOL    HW1 9896   3.186   5.162   3.764
 2999SOL    HW2 9897   3.108   5.305   3.745
 3000SOL     OW 9898   1.980   3.668   6.675
 3000SOL    HW1 9899   1.941   3.615   6.750
 3000SOL    HW2 9900   1.913   3.678   6.602
 3001SOL     OW 9901   5.646   6.534   6.684
 3001SOL    HW1 9902   5.715   6.464   6.666
 3001SOL    HW2 9903   5.681   6.624   6.655
 3002SOL     OW 9904   4.410   0.499   6.157
 3002SOL    HW1 9905   4.314   0.508   6.184
 3002SOL    HW2 9906   4.462   0.576   6.193
 3003SOL     OW 9907   2.632   0.098   6.301
 3003SOL    HW1 9908   2.693   0.032   6.256
 3003SOL    HW2 9909   2.544   0.055   6.318
 3004SOL     OW 9910   0.922   5.253   3.731
 3004SOL    HW1 9911   0.889   5.190   3.802
 3004SOL    HW2 9912   0.857   5.328   3.720
 3005SOL     OW 9913   3.268   2.725   6.899
 3005SOL    HW1 9914   3.299   2.709   6.806
 3005SOL    HW2 9915   3.325   2.673   6.963
 3006SOL     OW 9916   6.071   2.029   6.756
 3006SOL    HW1 9917   6.143   2.017   6.824
 3006SOL    HW2 9918   6.106   2.005   6.666
 3007SOL     OW 9919   6.095   4.724   2.050
 3007SOL    HW1 9920   6.028   4.676   2.107
 3007SOL    HW2 9921   6.153   4.657   2.004
 3008SOL     OW 9922   3.369   0.579   6.449
 3008SOL    HW1 9923   3.467   0.568   6.461
 3008SOL    HW2 9924   3.345   0.563   6.353
 3009SOL     OW 9925   0.265   6.522   2.913
 3009SOL    HW1 9926   0.215   6.481   2.990
 3009SOL    HW2 9927   0.363   6.502   2.923
 3010SOL     OW 9928   3.690   6.533   3.507
 3010SOL    HW1 9929   3.701   6.625   3.545
 3010SOL    HW2 9930   3.710   6.535   3.409
 3011SOL     OW 9931   5.707   1.745   0.023
 3011SOL    HW1 9932   5.669   1.720   0.112
 3011SOL    HW2 9933   5.634   1.747   6.983
 3012SOL     OW 9934   1.253   3.341   5.193
 3012SOL    HW1 9935   1.157   3.325   5.168
 3012SOL    HW2 9936   1.260   3.426   5.245
 3013SOL     OW 9937   5.403   5.489   4.757
 3013SOL    HW1 9938   5.467   5.416   4.732
 3013SOL    HW2 9939   5.325   5.487   4.694
 3014SOL     OW 9940   5.063   3.453   4.040
 3014SOL    HW1 9941   4.978   3.463   4.091
 3014SOL    HW2 9942   5.133   3.412   4.099
 3015SOL     OW 9943   3.216   2.605   0.274
 3015SOL    HW1 9944   3.155   2.530   0.248
 3015SOL    HW2 9945   3.283   2.620   0.202
 3016SOL     OW 9946   2.799   5.791   3.825
 3016SOL    HW1 9947   2.837   5.838   3.904
 3016SOL    HW2 9948   2.706   5.824   3.807
 3017SOL     OW 9949   0.735   5.005   2.117
 3017SOL    HW1 9950   0.823   4.958   2.112
 3017SOL    HW2 9951   0.676   4.959   2.184
 3018SOL     OW 9952   2.240   0.122   4.712
 3018SOL    HW1 9953   2.233   0.068   4.796
 3018SOL    HW2 9954   2.159   0.106   4.655
 3019SOL     OW 9955   1.855   6.970   0.769
 3019SOL    HW1 9956   1.845   6.987   0.671
 3019SOL    HW2 9957   1.790   7.027   0.819
 3020SOL     OW 9958   3.631   4.144   1.485
 3020SOL    HW1 9959   3.721   4.140   1.527
 3020SOL    HW2 9960   3.566   4.092   1.541
 3021SOL     OW 9961   3.331   0.690   0.126
 3021SOL    HW1 9962   3.299   0.775   0.170
 3021SOL    HW2 9963   3.424   0.670   0.156
 3022SOL     OW 9964   3.953   5.440   3.897
 3022SOL    HW1 9965   3.855   5.422   3.905
 3022SOL    HW2 9966   3.968   5.539   3.889
 3023SOL     OW 9967   4.434   6.847   2.564
 3023SOL    HW1 9968   4.411   6.850   2.467
 3023SOL    HW2 9969   4.525   6.807   2.575
 3024SOL     OW 9970   4.276   6.943   5.865
 3024SOL    HW1 9971   4.228   7.023   5.901
 3024SOL    HW2 9972   4.260   6.936   5.767
 3025SOL     OW 9973   3.754   2.000   0.158
 3025SOL    HW1 9974   3.710   2.067   0.218
 3025SOL    HW2 9975   3.852   1.996   0.178
 3026SOL     OW 9976   2.093   2.176   0.462
 3026SOL    HW1 9977   2.187   2.150   0.437
 3026SOL    HW2 9978   2.031   2.150   0.388
 3027SOL     OW 9979   4.380   0.448   1.952
 3027SOL    HW1 9980   4.369   0.506   2.033
 3027SOL    HW2 9981   4.292   0.438   1.905
 3028SOL     OW 9982   1.882   3.753   5.709
 3028SOL    HW1 9983   1.874   3.831   5.771
 3028SOL    HW2 9984   1.857   3.669   5.757
 3029SOL     OW 9985   0.324   5.342   5.350
 3029SOL    HW1 9986   0.244   5.303   5.304
 3029SOL    HW2 9987   0.294   5.413   5.414
 3030SOL     OW 9988   1.055   2.389   6.251
 3030SOL    HW1 9989   1.023   2.456   6.317
 3030SOL    HW2 9990   1.067   2.433   6.162
 3031SOL     OW 9991   7.022   3.688   0.899
 3031SOL    HW1 9992   6.952   3.742   0.852
 3031SOL    HW2 9993   0.043   3.632   0.832
 3032SOL     OW 9994   4.515   6.618   1.122
 3032SOL    HW1 9995   4.432   6.674   1.119
 3032SOL    HW2 9996   4.561   6.631   1.210
 3033SOL     OW 9997   0.464   2.784   1.428
 3033SOL    HW1 9998   0.564   2.780   1.429
 3033SOL    HW2 9999   0.430   2.735   1.348
 3034SOL     OW10000   1.701   5.443   3.422
 3034SOL    HW110001   1.758   5.402   3.350
 3034SOL    HW210002   1.673   5.534   3.394
 3035SOL     OW10003   6.856   3.083   0.527
 3035SOL    HW110004   6.825   3.077   0.622
 3035SOL    HW210005   6.942   3.033   0.516
 3036SOL     OW10006   1.449   3.123   6.381
 3036SOL    HW110007   1.409   3.039   6.419
 3036SOL    HW210008   1.539   3.138   6.420
 3037SOL     OW10009   6.751   5.627   4.218
 3037SOL    HW110010   6.765   5.542   4.168
 3037SOL    HW210011   6.665   5.669   4.189
 3038SOL     OW10012   5.858   6.451   6.495
 3038SOL    HW110013   5.777   6.449   6.437
 3038SOL    HW210014   5.940   6.437   6.439
 3039SOL     OW10015   6.594   3.726   1.963
 3039SOL    HW110016   6.604   3.744   1.865
 3039SOL    HW210017   6.515   3.777   1.998
 3040SOL     OW10018   4.919   3.396   6.193
 3040SOL    HW110019   4.843   3.347   6.237
 3040SOL    HW210020   4.922   3.490   6.226
 3041SOL     OW10021   2.152   2.974   5.236
 3041SOL    HW110022   2.190   3.049   5.290
 3041SOL    HW210023   2.219   2.946   5.167
 3042SOL     OW10024   5.602   6.942   1.537
 3042SOL    HW110025   5.592   6.856   1.488
 3042SOL    HW210026   5.697   6.956   1.563
 3043SOL     OW10027   0.831   5.167   1.417
 3043SOL    HW110028   0.923   5.129   1.433
 3043SOL    HW210029   0.779   5.163   1.503
 3044SOL     OW10030   2.997   4.520   6.151
 3044SOL    HW110031   2.915   4.533   6.206
 3044SOL    HW210032   3.034   4.610   6.127
 3045SOL     OW10033   4.846   0.652   3.178
 3045SOL    HW110034   4.902   0.680   3.256
 3045SOL    HW210035   4.750   0.649   3.206
 3046SOL     OW10036   2.579   1.963   6.805
 3046SOL    HW110037   2.635   1.890   6.764
 3046SOL    HW210038   2.583   1.956   6.905
 3047SOL     OW10039   5.705   6.652   2.153
 3047SOL    HW110040   5.742   6.745   2.155
 3047SOL    HW210041   5.769   6.591   2.106
 3048SOL     OW10042   3.861   2.831   1.820
 3048SOL    HW110043   3.785   2.774   1.853
 3048SOL    HW210044   3.826   2.920   1.791
 3049SOL     OW10045   1.632   6.522   1.745
 3049SOL    HW110046   1.640   6.564   1.654
 3049SOL    HW210047   1.630   6.422   1.734
 3050SOL     OW10048   3.448   1.269   2.926
 3050SOL    HW110049   3.439   1.366   2.903
 3050SOL    HW210050   3.358   1.229   2.936
 3051SOL     OW10051   2.198   3.910   0.055
 3051SOL    HW110052   2.270   3.937   0.118
 3051SOL    HW210053   2.165   3.990   0.005
 3052SOL     OW10054   4.232   0.718   2.469
 3052SOL    HW110055   4.163   0.756   2.407
 3052SOL    HW210056   4.237   0.773   2.552
 3053SOL     OW10057   0.017   1.096   6.627
 3053SOL    HW110058   0.077   1.169   6.593
 3053SOL    HW210059   0.040   1.010   6.580
 3054SOL     OW10060   0.122   2.432   1.237
 3054SOL    HW110061   0.104   2.334   1.231
 3054SOL    HW210062   0.139   2.457   1.333
 3055SOL     OW10063   5.021   6.887   3.931
 3055SOL    HW110064   4.966   6.822   3.878
 3055SOL    HW210065   5.098   6.839   3.972
 3056SOL     OW10066   6.913   1.278   5.924
 3056SOL    HW110067   6.924   1.267   6.023
 3056SOL    HW210068   6.825   1.319   5.904
 3057SOL     OW10069   4.276   6.021   3.595
 3057SOL    HW110070   4.317   6.013   3.686
 3057SOL    HW210071   4.200   5.957   3.588
 3058SOL     OW10072   0.127   5.390   1.104
 3058SOL    HW110073   0.148   5.403   1.201
 3058SOL    HW210074   0.157   5.471   1.052
 3059SOL     OW10075   2.390   2.216   4.655
 3059SOL    HW110076   2.377   2.311   4.684
 3059SOL    HW210077   2.474   2.180   4.694
 3060SOL     OW10078   0.886   6.065   0.558
 3060SOL    HW110079   0.885   6.129   0.481
 3060SOL    HW210080   0.816   6.092   0.624
 3061SOL     OW10081   6.016   0.963   5.240
 3061SOL    HW110082   5.991   0.870   5.266
 3061SOL    HW210083   6.115   0.974   5.249
 3062SOL     OW10084   1.319   6.822   6.887
 3062SOL    HW110085   1.319   6.722   6.882
 3062SOL    HW210086   1.408   6.858   6.860
 3063SOL     OW10087   2.710   5.593   1.289
 3063SOL    HW110088   2.700   5.537   1.372
 3063SOL    HW210089   2.726   5.688   1.315
 3064SOL     OW10090   5.232   3.711   3.996
 3064SOL    HW110091   5.169   3.635   4.014
 3064SOL    HW210092   5.237   3.770   4.076
 3065SOL     OW10093   2.066   1.210   6.666
 3065SOL    HW110094   2.036   1.263   6.746
 3065SOL    HW210095   2.089   1.117   6.695
 3066SOL     OW10096   4.868   4.902   0.848
 3066SOL    HW110097   4.835   4.867   0.760
 3066SOL    HW210098   4.951   4.957   0.832
 3067SOL     OW10099   4.121   2.143   4.555
 3067SOL    HW110100   4.112   2.146   4.654
 3067SOL    HW210101   4.185   2.213   4.525
 3068SOL     OW10102   5.532   5.494   0.963
 3068SOL    HW110103   5.452   5.449   1.001
 3068SOL    HW210104   5.568   5.561   1.029
 3069SOL     OW10105   6.742   6.360   1.874
 3069SOL    HW110106   6.816   6.315   1.925
 3069SOL    HW210107   6.727   6.451   1.913
 3070SOL     OW10108   1.515   1.041   2.256
 3070SOL    HW110109   1.524   1.136   2.229
 3070SOL    HW210110   1.420   1.023   2.284
 3071SOL     OW10111   6.057   6.030   3.424
 3071SOL    HW110112   5.991   6.082   3.369
 3071SOL    HW210113   6.098   6.090   3.493
 3072SOL     OW10114   1.122   6.076   0.683
 3072SOL    HW110115   1.030   6.090   0.645
 3072SOL    HW210116   1.189   6.077   0.610
 3073SOL     OW10117   1.004   3.264   5.118
 3073SOL    HW110118   0.935   3.321   5.161
 3073SOL    HW210119   0.990   3.262   5.019
 3074SOL     OW10120   5.882   2.454   1.224
 3074SOL    HW110121   5.971   2.423   1.190
 3074SOL    HW210122   5.890   2.485   1.318
 3075SOL     OW10123   2.118   6.593   1.279
 3075SOL    HW110124   2.152   6.499   1.277
 3075SOL    HW210125   2.096   6.619   1.373
 3076SOL     OW10126   6.877   1.449   4.492
 3076SOL    HW110127   6.786   1.423   4.524
 3076SOL    HW210128   6.869   1.507   4.412
 3077SOL     OW10129   5.172   5.276   2.624
 3077SOL    HW110130   5.269   5.285   2.644
 3077SOL    HW210131   5.159   5.223   2.541
 3078SOL     OW10132   1.237   3.407   1.345
 3078SOL    HW110133   1.180   3.449   1.415
 3078SOL    HW210134   1.253   3.473   1.271
 3079SOL     OW10135   2.404   1.955   3.922
 3079SOL    HW110136   2.404   2.050   3.953
 3079SOL    HW210137   2.496   1.918   3.926
 3080SOL     OW10138   5.307   4.440   3.157
 3080SOL    HW110139   5.304   4.534   3.122
 3080SOL    HW210140   5.223   4.392   3.131
 3081SOL     OW10141   0.404   3.003   6.239
 3081SOL    HW110142   0.448   2.999   6.149
 3081SOL    HW210143   0.396   2.911   6.277
 3082SOL     OW10144   3.369   6.874   3.643
 3082SOL    HW110145   3.426   6.899   3.721
 3082SOL    HW210146   3.424   6.827   3.575
 3083SOL     OW10147   4.191   6.309   3.565
 3083SOL    HW110148   4.130   6.321   3.644
 3083SOL    HW210149   4.211   6.212   3.553
 3084SOL     OW10150   4.814   3.987   4.862
 3084SOL    HW110151   4.789   4.044   4.785
 3084SOL    HW210152   4.734   3.935   4.893
 3085SOL     OW10153   0.642   4.705   2.179
 3085SOL    HW110154   0.716   4.655   2.225
 3085SOL    HW210155   0.677   4.746   2.095
 3086SOL     OW10156   3.968   1.540   2.283
 3086SOL    HW110157   3.985   1.629   2.326
 3086SOL    HW210158   3.872   1.535   2.256
 3087SOL     OW10159   1.064   5.051   4.185
 3087SOL    HW110160   1.139   5.098   4.231
 3087SOL    HW210161   0.990   5.116   4.167
 3088SOL     OW10162   2.308   5.198   5.981
 3088SOL    HW110163   2.379   5.267   5.993
 3088SOL    HW210164   2.350   5.111   5.954
 3089SOL     OW10165   1.054   3.169   0.731
 3089SOL    HW110166   1.007   3.154   0.644
 3089SOL    HW210167   1.152   3.153   0.718
 3090SOL     OW10168   2.107   2.486   1.822
 3090SOL    HW110169   2.162   2.402   1.821
 3090SOL    HW210170   2.022   2.470   1.873
 3091SOL     OW10171   2.094   6.657   0.212
 3091SOL    HW110172   2.179   6.604   0.210
 3091SOL    HW210173   2.115   6.754   0.226
 3092SOL     OW10174   5.124   6.983   0.220
 3092SOL    HW110175   5.110   7.016   0.126
 3092SOL    HW210176   5.054   7.023   0.279
 3093SOL     OW10177   5.423   5.649   5.653
 3093SOL    HW110178   5.486   5.580   5.618
 3093SOL    HW210179   5.363   5.681   5.580
 3094SOL     OW10180   3.143   6.432   4.254
 3094SOL    HW110181   3.098   6.405   4.169
 3094SOL    HW210182   3.079   6.421   4.330
 3095SOL     OW10183   2.631   5.619   4.550
 3095SOL    HW110184   2.688   5.639   4.630
 3095SOL    HW210185   2.662   5.534   4.507
 3096SOL     OW10186   0.906   0.562   4.810
 3096SOL    HW110187   1.003   0.551   4.788
 3096SOL    HW210188   0.858   0.596   4.729
 3097SOL     OW10189   0.307   2.147   1.095
 3097SOL    HW110190   0.273   2.215   1.160
 3097SOL    HW210191   0.254   2.063   1.103
 3098SOL     OW10192   2.348   3.908   1.153
 3098SOL    HW110193   2.400   3.988   1.181
 3098SOL    HW210194   2.278   3.889   1.221
 3099SOL     OW10195   0.108   5.688   4.814
 3099SOL    HW110196   0.045   5.633   4.869
 3099SOL    HW210197   0.082   5.681   4.717
 3100SOL     OW10198   6.228   0.136   4.778
 3100SOL    HW110199   6.198   0.166   4.688
 3100SOL    HW210200   6.328   0.141   4.783
 3101SOL     OW10201   5.297   6.082   6.048
 3101SOL    HW110202   5.323   6.061   5.954
 3101SOL    HW210203   5.219   6.025   6.075
 3102SOL     OW10204   0.418   5.219   2.967
 3102SOL    HW110205   0.484   5.211   3.041
 3102SOL    HW210206   0.464   5.207   2.879
 3103SOL     OW10207   3.370   1.221   1.738
 3103SOL    HW110208   3.462   1.229   1.776
 3103SOL    HW210209   3.355   1.293   1.671
 3104SOL     OW10210   5.917   6.638   4.978
 3104SOL    HW110211   5.925   6.723   5.030
 3104SOL    HW210212   5.874   6.657   4.890
 3105SOL     OW10213   6.162   4.278   2.189
 3105SOL    HW110214   6.135   4.320   2.276
 3105SOL    HW210215   6.094   4.301   2.119
 3106SOL     OW10216   6.278   0.646   3.120
 3106SOL    HW110217   6.294   0.614   3.213
 3106SOL    HW210218   6.200   0.709   3.120
 3107SOL     OW10219   4.375   0.983   3.732
 3107SOL    HW110220   4.368   0.885   3.711
 3107SOL    HW210221   4.285   1.017   3.758
 3108SOL     OW10222   1.231   0.416   4.489
 3108SOL    HW110223   1.306   0.356   4.515
 3108SOL    HW210224   1.249   0.455   4.399
 3109SOL     OW10225   5.605   5.591   2.732
 3109SOL    HW110226   5.700   5.615   2.711
 3109SOL    HW210227   5.556   5.671   2.765
 3110SOL     OW10228   1.179   1.495   3.517
 3110SOL    HW110229   1.186   1.590   3.490
 3110SOL    HW210230   1.157   1.489   3.615
 3111SOL     OW10231   6.663   5.516   3.835
 3111SOL    HW110232   6.596   5.587   3.855
 3111SOL    HW210233   6.716   5.542   3.755
 3112SOL     OW10234   4.982   2.435   6.252
 3112SOL    HW110235   5.070   2.457   6.210
 3112SOL    HW210236   4.932   2.371   6.195
 3113SOL     OW10237   1.805   6.661   4.769
 3113SOL    HW110238   1.769   6.673   4.676
 3113SOL    HW210239   1.728   6.645   4.832
 3114SOL     OW10240   4.268   2.801   6.743
 3114SOL    HW110241   4.230   2.749   6.819
 3114SOL    HW210242   4.367   2.783   6.737
 3115SOL     OW10243   4.537   3.095   6.838
 3115SOL    HW110244   4.617   3.082   6.896
 3115SOL    HW210245   4.552   3.052   6.749
 3116SOL     OW10246   6.709   3.768   0.165
 3116SOL    HW110247   6.704   3.774   0.264
 3116SOL    HW210248   6.658   3.689   0.132
 3117SOL     OW10249   4.557   3.679   5.362
 3117SOL    HW110250   4.462   3.653   5.378
 3117SOL    HW210251   4.593   3.626   5.285
 3118SOL     OW10252   0.465   4.537   0.216
 3118SOL    HW110253   0.385   4.592   0.240
 3118SOL    HW210254   0.539   4.598   0.188
 3119SOL     OW10255   1.322   3.159   5.661
 3119SOL    HW110256   1.225   3.141   5.678
 3119SOL    HW210257   1.352   3.105   5.583
 3120SOL     OW10258   2.331   6.679   4.128
 3120SOL    HW110259   2.330   6.744   4.052
 3120SOL    HW210260   2.316   6.586   4.093
 3121SOL     OW10261   0.760   1.728   2.833
 3121SOL    HW110262   0.781   1.647   2.887
 3121SOL    HW210263   0.802   1.721   2.743
 3122SOL     OW10264   2.706   6.108   5.894
 3122SOL    HW110265   2.789   6.111   5.949
 3122SOL    HW210266   2.640   6.174   5.930
 3123SOL     OW10267   3.328   0.346   4.217
 3123SOL    HW110268   3.411   0.398   4.198
 3123SOL    HW210269   3.301   0.360   4.312
 3124SOL     OW10270   4.366   7.001   4.580
 3124SOL    HW110271   4.377   6.905   4.605
 3124SOL    HW210272   4.323   7.008   4.490
 3125SOL     OW10273   6.201   1.917   5.602
 3125SOL    HW110274   6.257   1.894   5.522
 3125SOL    HW210275   6.108   1.938   5.572
 3126SOL     OW10276   5.216   4.876   6.247
 3126SOL    HW110277   5.160   4.920   6.316
 3126SOL    HW210278   5.212   4.928   6.162
 3127SOL     OW10279   1.373   2.390   3.081
 3127SOL    HW110280   1.387   2.443   2.998
 3127SOL    HW210281   1.436   2.422   3.152
 3128SOL     OW10282   2.075   0.204   6.545
 3128SOL    HW110283   2.086   0.303   6.547
 3128SOL    HW210284   2.160   0.162   6.512
 3129SOL     OW10285   1.436   4.052   6.380
 3129SOL    HW110286   1.506   3.987   6.352
 3129SOL    HW210287   1.469   4.105   6.458
 3130SOL     OW10288   1.770   4.458   1.785
 3130SOL    HW110289   1.730   4.510   1.709
 3130SOL    HW210290   1.711   4.381   1.807
 3131SOL     OW10291   0.747   2.286   1.775
 3131SOL    HW110292   0.666   2.338   1.749
 3131SOL    HW210293   0.765   2.216   1.706
 3132SOL     OW10294   5.512   5.227   5.794
 3132SOL    HW110295   5.577   5.236   5.870
 3132SOL    HW210296   5.522   5.304   5.732
 3133SOL     OW10297   3.195   2.057   3.434
 3133SOL    HW110298   3.292   2.036   3.439
 3133SOL    HW210299   3.164   2.048   3.339
 3134SOL     OW10300   4.743   4.688   1.483
 3134SOL    HW110301   4.776   4.781   1.466
 3134SOL    HW210302   4.817   4.623   1.464
 3135SOL     OW10303   4.844   1.302   5.282
 3135SOL    HW110304   4.849   1.218   5.228
 3135SOL    HW210305   4.751   1.340   5.276
 3136SOL     OW10306   5.609   0.567   6.631
 3136SOL    HW110307   5.634   0.653   6.677
 3136SOL    HW210308   5.681   0.542   6.566
 3137SOL     OW10309   5.973   0.050   3.717
 3137SOL    HW110310   5.968   0.032   3.815
 3137SOL    HW210311   5.884   0.033   3.676
 3138SOL     OW10312   6.650   2.275   4.003
 3138SOL    HW110313   6.615   2.189   3.965
 3138SOL    HW210314   6.582   2.314   4.064
 3139SOL     OW10315   4.284   7.002   0.050
 3139SOL    HW110316   4.230   6.987   6.995
 3139SOL    HW210317   4.226   6.989   0.131
 3140SOL     OW10318   6.009   6.911   6.523
 3140SOL    HW110319   6.042   6.877   6.611
 3140SOL    HW210320   6.017   7.010   6.520
 3141SOL     OW10321   0.953   6.567   5.964
 3141SOL    HW110322   0.878   6.508   5.993
 3141SOL    HW210323   0.978   6.629   6.038
 3142SOL     OW10324   4.719   6.213   1.606
 3142SOL    HW110325   4.750   6.251   1.693
 3142SOL    HW210326   4.692   6.288   1.546
 3143SOL     OW10327   0.385   2.652   6.879
 3143SOL    HW110328   0.306   2.703   6.915
 3143SOL    HW210329   0.449   2.715   6.836
 3144SOL     OW10330   2.668   4.038   1.467
 3144SOL    HW110331   2.641   4.111   1.529
 3144SOL    HW210332   2.727   4.075   1.395
 3145SOL     OW10333   1.806   4.786   2.471
 3145SOL    HW110334   1.843   4.696   2.494
 3145SOL    HW210335   1.753   4.821   2.548
 3146SOL     OW10336   1.007   6.895   3.339
 3146SOL    HW110337   0.991   6.953   3.258
 3146SOL    HW210338   1.011   6.953   3.421
 3147SOL     OW10339   4.418   5.318   0.123
 3147SOL    HW110340   4.492   5.262   0.087
 3147SOL    HW210341   4.341   5.316   0.060
 3148SOL     OW10342   5.164   5.456   4.618
 3148SOL    HW110343   5.100   5.533   4.612
 3148SOL    HW210344   5.189   5.427   4.526
 3149SOL     OW10345   3.626   0.396   5.263
 3149SOL    HW110346   3.614   0.410   5.165
 3149SOL    HW210347   3.555   0.335   5.297
 3150SOL     OW10348   6.389   5.508   4.048
 3150SOL    HW110349   6.410   5.592   4.098
 3150SOL    HW210350   6.299   5.516   4.005
 3151SOL     OW10351   3.883   0.885   6.941
 3151SOL    HW110352   3.792   0.852   6.969
 3151SOL    HW210353   3.878   0.923   6.849
 3152SOL     OW10354   1.329   5.107   2.081
 3152SOL    HW110355   1.253   5.085   2.020
 3152SOL    HW210356   1.363   5.022   2.123
 3153SOL     OW10357   6.821   3.855   1.548
 3153SOL    HW110358   6.777   3.902   1.472
 3153SOL    HW210359   6.756   3.792   1.591
 3154SOL     OW10360   5.963   1.746   0.278
 3154SOL    HW110361   5.897   1.678   0.309
 3154SOL    HW210362   5.936   1.837   0.312
 3155SOL     OW10363   6.940   5.459   1.384
 3155SOL    HW110364   6.877   5.525   1.343
 3155SOL    HW210365   6.915   5.444   1.480
 3156SOL     OW10366   3.996   3.305   3.644
 3156SOL    HW110367   3.898   3.313   3.621
 3156SOL    HW210368   4.016   3.210   3.668
 3157SOL     OW10369   1.915   3.348   4.956
 3157SOL    HW110370   1.983   3.295   5.006
 3157SOL    HW210371   1.834   3.362   5.013
 3158SOL     OW10372   4.889   7.007   1.371
 3158SOL    HW110373   4.921   6.919   1.405
 3158SOL    HW210374   4.941   0.004   1.289
 3159SOL     OW10375   5.676   0.553   0.242
 3159SOL    HW110376   5.757   0.565   0.299
 3159SOL    HW210377   5.651   0.456   0.240
 3160SOL     OW10378   6.503   5.514   5.709
 3160SOL    HW110379   6.444   5.433   5.696
 3160SOL    HW210380   6.528   5.521   5.806
 3161SOL     OW10381   0.893   1.489   2.628
 3161SOL    HW110382   0.850   1.498   2.718
 3161SOL    HW210383   0.988   1.520   2.633
 3162SOL     OW10384   0.576   5.434   0.134
 3162SOL    HW110385   0.661   5.380   0.129
 3162SOL    HW210386   0.597   5.525   0.169
 3163SOL     OW10387   3.335   2.483   6.698
 3163SOL    HW110388   3.418   2.536   6.677
 3163SOL    HW210389   3.255   2.538   6.673
 3164SOL     OW10390   4.697   4.120   1.446
 3164SOL    HW110391   4.672   4.176   1.524
 3164SOL    HW210392   4.750   4.174   1.381
 3165SOL     OW10393   0.963   6.641   1.648
 3165SOL    HW110394   0.956   6.579   1.726
 3165SOL    HW210395   1.022   6.718   1.673
 3166SOL     OW10396   4.989   2.476   6.518
 3166SOL    HW110397   4.964   2.467   6.422
 3166SOL    HW210398   5.037   2.394   6.548
 3167SOL     OW10399   0.228   4.744   1.728
 3167SOL    HW110400   0.190   4.776   1.814
 3167SOL    HW210401   0.287   4.665   1.744
 3168SOL     OW10402   5.212   2.906   0.539
 3168SOL    HW110403   5.246   2.956   0.619
 3168SOL    HW210404   5.290   2.865   0.490
 3169SOL     OW10405   0.686   2.605   5.987
 3169SOL    HW110406   0.758   2.584   5.921
 3169SOL    HW210407   0.606   2.639   5.938
 3170SOL     OW10408   3.846   0.469   0.229
 3170SOL    HW110409   3.890   0.430   0.310
 3170SOL    HW210410   3.841   0.568   0.238
 3171SOL     OW10411   6.946   6.823   0.981
 3171SOL    HW110412   6.880   6.779   0.920
 3171SOL    HW210413   6.973   6.759   1.052
 3172SOL     OW10414   0.740   5.879   5.440
 3172SOL    HW110415   0.739   5.976   5.416
 3172SOL    HW210416   0.699   5.866   5.530
 3173SOL     OW10417   3.090   1.789   1.426
 3173SOL    HW110418   3.113   1.716   1.361
 3173SOL    HW210419   3.001   1.828   1.401
 3174SOL     OW10420   2.439   2.953   6.633
 3174SOL    HW110421   2.369   3.006   6.681
 3174SOL    HW210422   2.463   2.872   6.687
 3175SOL     OW10423   6.864   6.141   0.108
 3175SOL    HW110424   6.799   6.106   0.175
 3175SOL    HW210425   6.815   6.174   0.027
 3176SOL     OW10426   2.165   5.343   4.913
 3176SOL    HW110427   2.199   5.259   4.954
 3176SOL    HW210428   2.241   5.397   4.877
 3177SOL     OW10429   5.279   5.761   5.430
 3177SOL    HW110430   5.199   5.745   5.488
 3177SOL    HW210431   5.285   5.690   5.360
 3178SOL     OW10432   6.862   3.341   1.326
 3178SOL    HW110433   6.827   3.322   1.234
 3178SOL    HW210434   6.945   3.287   1.342
 3179SOL     OW10435   2.130   2.881   1.587
 3179SOL    HW110436   2.076   2.911   1.666
 3179SOL    HW210437   2.212   2.938   1.580
 3180SOL     OW10438   4.090   0.699   6.560
 3180SOL    HW110439   4.072   0.691   6.658
 3180SOL    HW210440   4.037   0.630   6.511
 3181SOL     OW10441   0.510   7.025   2.920
 3181SOL    HW110442   0.451   0.063   2.873
 3181SOL    HW210443   0.489   6.933   2.887
 3182SOL     OW10444   0.996   1.009   5.762
 3182SOL    HW110445   0.907   0.996   5.718
 3182SOL    HW210446   1.057   0.935   5.735
 3183SOL     OW10447   4.822   3.964   1.707
 3183SOL    HW110448   4.831   4.009   1.618
 3183SOL    HW210449   4.726   3.956   1.731
 3184SOL     OW10450   2.750   2.354   2.455
 3184SOL    HW110451   2.688   2.304   2.395
 3184SOL    HW210452   2.762   2.447   2.420
 3185SOL     OW10453   6.127   0.448   6.536
 3185SOL    HW110454   6.065   0.510   6.583
 3185SOL    HW210455   6.214   0.445   6.585
 3186SOL     OW10456   3.170   1.230   2.984
 3186SOL    HW110457   3.154   1.131   2.974
 3186SOL    HW210458   3.091   1.272   3.028
 3187SOL     OW10459   4.040   4.597   6.852
 3187SOL    HW110460   3.965   4.532   6.863
 3187SOL    HW210461   4.046   4.655   6.934
 3188SOL     OW10462   3.587   5.863   3.113
 3188SOL    HW110463   3.623   5.923   3.185
 3188SOL    HW210464   3.629   5.773   3.122
 3189SOL     OW10465   2.227   1.334   3.136
 3189SOL    HW110466   2.231   1.421   3.086
 3189SOL    HW210467   2.281   1.340   3.219
 3190SOL     OW10468   0.831   6.524   1.402
 3190SOL    HW110469   0.906   6.501   1.341
 3190SOL    HW210470   0.866   6.539   1.494
 3191SOL     OW10471   3.258   6.771   0.877
 3191SOL    HW110472   3.241   6.761   0.975
 3191SOL    HW210473   3.174   6.801   0.832
 3192SOL     OW10474   0.536   1.934   1.136
 3192SOL    HW110475   0.587   1.853   1.165
 3192SOL    HW210476   0.460   1.949   1.199
 3193SOL     OW10477   4.032   2.556   6.445
 3193SOL    HW110478   4.014   2.507   6.360
 3193SOL    HW210479   4.130   2.562   6.460
 3194SOL     OW10480   1.385   2.579   6.724
 3194SOL    HW110481   1.480   2.550   6.739
 3194SOL    HW210482   1.323   2.509   6.759
 3195SOL     OW10483   2.096   2.760   3.009
 3195SOL    HW110484   2.056   2.836   3.060
 3195SOL    HW210485   2.028   2.721   2.948
 3196SOL     OW10486   6.702   0.756   5.064
 3196SOL    HW110487   6.721   0.658   5.052
 3196SOL    HW210488   6.757   0.791   5.140
 3197SOL     OW10489   1.362   5.818   3.321
 3197SOL    HW110490   1.398   5.908   3.343
 3197SOL    HW210491   1.433   5.764   3.275
 3198SOL     OW10492   6.392   2.422   6.954
 3198SOL    HW110493   6.372   2.519   6.969
 3198SOL    HW210494   6.352   2.393   6.868
 3199SOL     OW10495   4.647   2.524   2.182
 3199SOL    HW110496   4.611   2.549   2.271
 3199SOL    HW210497   4.696   2.602   2.143
 3200SOL     OW10498   0.082   2.103   1.490
 3200SOL    HW110499   0.169   2.130   1.450
 3200SOL    HW210500   0.014   2.092   1.418
 3201SOL     OW10501   5.066   4.105   3.983
 3201SOL    HW110502   5.033   4.057   4.064
 3201SOL    HW210503   5.094   4.038   3.913
 3202SOL     OW10504   1.641   4.457   2.128
 3202SOL    HW110505   1.595   4.409   2.053
 3202SOL    HW210506   1.718   4.508   2.092
 3203SOL     OW10507   5.588   1.066   0.812
 3203SOL    HW110508   5.526   1.003   0.858
 3203SOL    HW210509   5.682   1.030   0.816
 3204SOL     OW10510   5.777   6.195   1.948
 3204SOL    HW110511   5.698   6.237   1.993
 3204SOL    HW210512   5.832   6.266   1.905
 3205SOL     OW10513   0.335   4.072   6.895
 3205SOL    HW110514   0.242   4.037   6.902
 3205SOL    HW210515   0.343   4.157   6.947
 3206SOL     OW10516   6.922   0.278   6.119
 3206SOL    HW110517   6.994   0.333   6.076
 3206SOL    HW210518   6.925   0.291   6.218
 3207SOL     OW10519   0.256   1.419   5.977
 3207SOL    HW110520   0.245   1.401   5.880
 3207SOL    HW210521   0.182   1.376   6.028
 3208SOL     OW10522   4.573   6.214   5.150
 3208SOL    HW110523   4.499   6.254   5.205
 3208SOL    HW210524   4.549   6.221   5.053
 3209SOL     OW10525   2.724   6.521   3.680
 3209SOL    HW110526   2.722   6.585   3.603
 3209SOL    HW210527   2.657   6.449   3.664
 3210SOL     OW10528   0.474   3.576   2.243
 3210SOL    HW110529   0.400   3.546   2.183
 3210SOL    HW210530   0.483   3.513   2.320
 3211SOL     OW10531   2.263   4.829   6.969
 3211SOL    HW110532   2.351   4.850   7.010
 3211SOL    HW210533   2.276   4.796   6.876
 3212SOL     OW10534   4.552   1.733   0.012
 3212SOL    HW110535   4.526   1.662   6.974
 3212SOL    HW210536   4.482   1.805   0.013
 3213SOL     OW10537   6.137   5.004   2.793
 3213SOL    HW110538   6.176   4.939   2.728
 3213SOL    HW210539   6.037   5.002   2.785
 3214SOL     OW10540   4.588   6.196   0.256
 3214SOL    HW110541   4.493   6.189   0.224
 3214SOL    HW210542   4.588   6.209   0.355
 3215SOL     OW10543   6.197   2.968   0.922
 3215SOL    HW110544   6.292   3.000   0.927
 3215SOL    HW210545   6.149   2.993   1.007
 3216SOL     OW10546   5.630   5.431   2.467
 3216SOL    HW110547   5.570   5.377   2.526
 3216SOL    HW210548   5.704   5.471   2.521
 3217SOL     OW10549   1.335   4.285   3.243
 3217SOL    HW110550   1.310   4.188   3.241
 3217SOL    HW210551   1.279   4.335   3.176
 3218SOL     OW10552   4.375   6.560   3.455
 3218SOL    HW110553   4.428   6.491   3.505
 3218SOL    HW210554   4.292   6.583   3.507
 3219SOL     OW10555   6.923   0.229   3.388
 3219SOL    HW110556   7.003   0.253   3.443
 3219SOL    HW210557   6.863   0.170   3.441
 3220SOL     OW10558   6.667   4.684   5.762
 3220SOL    HW110559   6.689   4.782   5.760
 3220SOL    HW210560   6.622   4.663   5.849
 3221SOL     OW10561   2.762   6.254   2.491
 3221SOL    HW110562   2.833   6.193   2.524
 3221SOL    HW210563   2.748   6.241   2.393
 3222SOL     OW10564   4.923   2.154   3.412
 3222SOL    HW110565   4.978   2.202   3.344
 3222SOL    HW210566   4.975   2.144   3.497
 3223SOL     OW10567   2.710   5.321   6.841
 3223SOL    HW110568   2.622   5.279   6.817
 3223SOL    HW210569   2.721   5.322   6.940
 3224SOL     OW10570   4.733   5.041   6.017
 3224SOL    HW110571   4.804   5.066   5.951
 3224SOL    HW210572   4.709   4.944   6.004
 3225SOL     OW10573   4.409   2.407   6.103
 3225SOL    HW110574   4.479   2.477   6.117
 3225SOL    HW210575   4.328   2.449   6.062
 3226SOL     OW10576   2.199   1.316   4.137
 3226SOL    HW110577   2.149   1.378   4.197
 3226SOL    HW210578   2.140   1.289   4.060
 3227SOL     OW10579   2.860   2.118   6.470
 3227SOL    HW110580   2.860   2.019   6.482
 3227SOL    HW210581   2.831   2.162   6.556
 3228SOL     OW10582   5.421   3.110   4.323
 3228SOL    HW110583   5.482   3.110   4.402
 3228SOL    HW210584   5.471   3.076   4.243
 3229SOL     OW10585   3.239   1.694   5.403
 3229SOL    HW110586   3.202   1.618   5.350
 3229SOL    HW210587   3.297   1.751   5.345
 3230SOL     OW10588   0.383   1.927   3.149
 3230SOL    HW110589   0.445   1.936   3.071
 3230SOL    HW210590   0.366   1.830   3.167
 3231SOL     OW10591   4.462   5.772   1.725
 3231SOL    HW110592   4.514   5.850   1.691
 3231SOL    HW210593   4.513   5.687   1.706
 3232SOL     OW10594   4.377   4.978   4.777
 3232SOL    HW110595   4.402   5.070   4.808
 3232SOL    HW210596   4.448   4.913   4.802
 3233SOL     OW10597   0.861   4.240   0.797
 3233SOL    HW110598   0.790   4.189   0.846
 3233SOL    HW210599   0.889   4.319   0.851
 3234SOL     OW10600   6.983   2.513   0.449
 3234SOL    HW110601   6.977   2.600   0.498
 3234SOL    HW210602   7.017   2.442   0.510
 3235SOL     OW10603   6.014   5.826   2.443
 3235SOL    HW110604   6.103   5.781   2.455
 3235SOL    HW210605   6.011   5.910   2.496
 3236SOL     OW10606   1.705   3.612   1.770
 3236SOL    HW110607   1.647   3.651   1.699
 3236SOL    HW210608   1.700   3.668   1.853
 3237SOL     OW10609   4.991   0.144   3.888
 3237SOL    HW110610   4.909   0.106   3.844
 3237SOL    HW210611   5.048   0.069   3.922
 3238SOL     OW10612   0.507   5.984   6.783
 3238SOL    HW110613   0.561   5.906   6.814
 3238SOL    HW210614   0.440   6.007   6.853
 3239SOL     OW10615   5.695   1.607   0.440
 3239SOL    HW110616   5.635   1.620   0.361
 3239SOL    HW210617   5.683   1.515   0.477
 3240SOL     OW10618   0.361   6.908   4.843
 3240SOL    HW110619   0.354   6.931   4.746
 3240SOL    HW210620   0.310   6.976   4.897
 3241SOL     OW10621   4.932   1.408   4.315
 3241SOL    HW110622   4.937   1.337   4.386
 3241SOL    HW210623   4.981   1.377   4.234
 3242SOL     OW10624   3.312   5.124   0.811
 3242SOL    HW110625   3.376   5.199   0.823
 3242SOL    HW210626   3.313   5.095   0.715
 3243SOL     OW10627   5.466   5.356   0.258
 3243SOL    HW110628   5.520   5.312   0.330
 3243SOL    HW210629   5.526   5.385   0.184
 3244SOL     OW10630   5.399   5.649   5.987
 3244SOL    HW110631   5.372   5.699   6.069
 3244SOL    HW210632   5.412   5.713   5.911
 3245SOL     OW10633   3.707   2.807   6.229
 3245SOL    HW110634   3.802   2.813   6.261
 3245SOL    HW210635   3.694   2.723   6.178
 3246SOL     OW10636   5.356   0.539   3.037
 3246SOL    HW110637   5.324   0.628   3.069
 3246SOL    HW210638   5.403   0.491   3.112
 3247SOL     OW10639   0.301   4.453   2.652
 3247SOL    HW110640   0.292   4.544   2.610
 3247SOL    HW210641   0.335   4.389   2.584
 3248SOL     OW10642   5.740   3.587   2.011
 3248SOL    HW110643   5.700   3.676   2.035
 3248SOL    HW210644   5.788   3.594   1.924
 3249SOL     OW10645   4.017   4.793   5.347
 3249SOL    HW110646   3.966   4.710   5.372
 3249SOL    HW210647   4.115   4.776   5.361
 3250SOL     OW10648   5.576   6.877   3.045
 3250SOL    HW110649   5.498   6.862   2.984
 3250SOL    HW210650   5.633   6.951   3.008
 3251SOL     OW10651   3.472   1.525   2.861
 3251SOL    HW110652   3.386   1.555   2.820
 3251SOL    HW210653   3.470   1.540   2.960
 3252SOL     OW10654   3.442   0.869   2.768
 3252SOL    HW110655   3.381   0.942   2.739
 3252SOL    HW210656   3.487   0.896   2.853
 3253SOL     OW10657   4.800   2.408   1.937
 3253SOL    HW110658   4.861   2.485   1.957
 3253SOL    HW210659   4.705   2.435   1.957
 3254SOL     OW10660   3.644   4.877   3.958
 3254SOL    HW110661   3.591   4.828   3.889
 3254SOL    HW210662   3.729   4.911   3.918
 3255SOL     OW10663   4.807   5.247   0.799
 3255SOL    HW110664   4.743   5.189   0.850
 3255SOL    HW210665   4.759   5.324   0.759
 3256SOL     OW10666   5.495   6.786   6.501
 3256SOL    HW110667   5.503   6.839   6.417
 3256SOL    HW210668   5.585   6.777   6.543
 3257SOL     OW10669   1.458   2.350   0.815
 3257SOL    HW110670   1.482   2.339   0.719
 3257SOL    HW210671   1.362   2.377   0.823
 3258SOL     OW10672   4.887   6.751   1.454
 3258SOL    HW110673   4.857   6.771   1.548
 3258SOL    HW210674   4.984   6.728   1.455
 3259SOL     OW10675   4.376   5.837   4.175
 3259SOL    HW110676   4.388   5.740   4.197
 3259SOL    HW210677   4.299   5.874   4.225
 3260SOL     OW10678   1.974   1.737   0.462
 3260SOL    HW110679   1.928   1.677   0.528
 3260SOL    HW210680   2.024   1.809   0.512
 3261SOL     OW10681   3.790   6.125   0.676
 3261SOL    HW110682   3.745   6.045   0.716
 3261SOL    HW210683   3.742   6.152   0.592
 3262SOL     OW10684   4.141   1.534   3.313
 3262SOL    HW110685   4.221   1.510   3.368
 3262SOL    HW210686   4.165   1.527   3.216
 3263SOL     OW10687   4.832   6.915   3.030
 3263SOL    HW110688   4.743   6.873   3.012
 3263SOL    HW210689   4.830   7.011   3.002
 3264SOL     OW10690   0.255   5.252   0.159
 3264SOL    HW110691   0.158   5.253   0.135
 3264SOL    HW210692   0.307   5.209   0.086
 3265SOL     OW10693   4.007   2.187   6.543
 3265SOL    HW110694   3.911   2.188   6.572
 3265SOL    HW210695   4.062   2.237   6.609
 3266SOL     OW10696   0.196   2.175   0.151
 3266SOL    HW110697   0.223   2.238   0.224
 3266SOL    HW210698   0.272   2.163   0.087
 3267SOL     OW10699   3.157   2.652   1.333
 3267SOL    HW110700   3.229   2.607   1.386
 3267SOL    HW210701   3.149   2.747   1.360
 3268SOL     OW10702   1.049   3.948   0.252
 3268SOL    HW110703   1.056   3.853   0.284
 3268SOL    HW210704   1.053   3.950   0.152
 3269SOL     OW10705   4.851   4.852   1.736
 3269SOL    HW110706   4.850   4.864   1.637
 3269SOL    HW210707   4.770   4.895   1.776
 3270SOL     OW10708   0.522   5.358   3.768
 3270SOL    HW110709   0.520   5.268   3.724
 3270SOL    HW210710   0.509   5.428   3.698
 3271SOL     OW10711   5.597   2.050   2.758
 3271SOL    HW110712   5.546   1.984   2.703
 3271SOL    HW210713   5.695   2.042   2.736
 3272SOL     OW10714   3.385   6.631   0.091
 3272SOL    HW110715   3.451   6.637   0.016
 3272SOL    HW210716   3.311   6.569   0.066
 3273SOL     OW10717   0.930   6.440   1.853
 3273SOL    HW110718   0.967   6.349   1.834
 3273SOL    HW210719   0.951   6.466   1.947
 3274SOL     OW10720   3.454   1.892   6.835
 3274SOL    HW110721   3.383   1.870   6.901
 3274SOL    HW210722   3.542   1.897   6.882
 3275SOL     OW10723   1.867   0.327   0.197
 3275SOL    HW110724   1.950   0.332   0.142
 3275SOL    HW210725   1.826   0.418   0.203
 3276SOL     OW10726   3.575   5.315   6.917
 3276SOL    HW110727   3.655   5.255   6.910
 3276SOL    HW210728   3.529   5.320   6.829
 3277SOL     OW10729   6.205   6.909   6.291
 3277SOL    HW110730   6.133   6.884   6.355
 3277SOL    HW210731   6.209   7.009   6.283
 3278SOL     OW10732   0.013   1.495   5.130
 3278SOL    HW110733   0.056   1.418   5.083
 3278SOL    HW210734   0.031   1.489   5.228
 3279SOL     OW10735   6.985   0.032   0.820
 3279SOL    HW110736   6.898   0.057   0.777
 3279SOL    HW210737   6.969   6.995   0.894
 3280SOL     OW10738   2.440   5.047   6.422
 3280SOL    HW110739   2.420   4.991   6.342
 3280SOL    HW210740   2.538   5.066   6.427
 3281SOL     OW10741   1.752   5.706   1.055
 3281SOL    HW110742   1.752   5.799   1.020
 3281SOL    HW210743   1.838   5.688   1.103
 3282SOL     OW10744   3.331   6.205   4.337
 3282SOL    HW110745   3.270   6.125   4.338
 3282SOL    HW210746   3.278   6.287   4.316
 3283SOL     OW10747   2.984   1.596   3.202
 3283SOL    HW110748   3.049   1.605   3.278
 3283SOL    HW210749   2.962   1.687   3.166
 3284SOL     OW10750   7.001   6.795   0.145
 3284SOL    HW110751   0.014   6.709   0.116
 3284SOL    HW210752   6.935   6.825   0.076
 3285SOL     OW10753   0.239   2.773   3.295
 3285SOL    HW110754   0.206   2.679   3.286
 3285SOL    HW210755   0.188   2.820   3.366
 3286SOL     OW10756   3.877   3.659   3.663
 3286SOL    HW110757   3.956   3.623   3.613
 3286SOL    HW210758   3.861   3.754   3.635
 3287SOL     OW10759   1.095   5.643   0.076
 3287SOL    HW110760   1.188   5.671   0.052
 3287SOL    HW210761   1.071   5.681   0.165
 3288SOL     OW10762   0.398   6.348   6.991
 3288SOL    HW110763   0.384   6.389   0.053
 3288SOL    HW210764   0.359   6.256   6.991
 3289SOL     OW10765   1.465   6.506   5.350
 3289SOL    HW110766   1.450   6.435   5.281
 3289SOL    HW210767   1.520   6.580   5.311
 3290SOL     OW10768   0.827   5.945   1.909
 3290SOL    HW110769   0.742   5.993   1.931
 3290SOL    HW210770   0.846   5.951   1.811
 3291SOL     OW10771   1.724   6.535   6.424
 3291SOL    HW110772   1.639   6.491   6.395
 3291SOL    HW210773   1.703   6.603   6.495
 3292SOL     OW10774   0.346   1.093   6.991
 3292SOL    HW110775   0.412   1.019   6.986
 3292SOL    HW210776   0.269   1.066   0.021
 3293SOL     OW10777   6.921   1.608   3.419
 3293SOL    HW110778   6.968   1.639   3.502
 3293SOL    HW210779   6.948   1.666   3.342
 3294SOL     OW10780   6.560   0.632   6.657
 3294SOL    HW110781   6.591   0.725   6.674
 3294SOL    HW210782   6.632   0.581   6.610
 3295SOL     OW10783   2.736   1.940   0.780
 3295SOL    HW110784   2.704   1.920   0.688
 3295SOL    HW210785   2.767   1.855   0.823
 3296SOL     OW10786   2.328   6.932   1.977
 3296SOL    HW110787   2.343   6.842   1.935
 3296SOL    HW210788   2.413   6.964   2.019
 3297SOL     OW10789   3.093   2.037   5.169
 3297SOL    HW110790   3.090   2.124   5.121
 3297SOL    HW210791   3.066   2.050   5.264
 3298SOL     OW10792   6.227   3.000   2.799
 3298SOL    HW110793   6.133   3.021   2.828
 3298SOL    HW210794   6.282   3.083   2.803
 3299SOL     OW10795   1.780   0.211   3.798
 3299SOL    HW110796   1.845   0.229   3.725
 3299SOL    HW210797   1.688   0.203   3.759
 3300SOL     OW10798   6.594   0.675   5.942
 3300SOL    HW110799   6.501   0.639   5.931
 3300SOL    HW210800   6.661   0.606   5.913
 3301SOL     OW10801   1.423   3.963   3.766
 3301SOL    HW110802   1.509   3.971   3.816
 3301SOL    HW210803   1.355   4.024   3.807
 3302SOL     OW10804   1.459   4.801   4.466
 3302SOL    HW110805   1.508   4.748   4.398
 3302SOL    HW210806   1.520   4.870   4.506
 3303SOL     OW10807   3.538   2.895   2.687
 3303SOL    HW110808   3.607   2.859   2.750
 3303SOL    HW210809   3.452   2.908   2.736
 3304SOL     OW10810   0.922   4.847   3.742
 3304SOL    HW110811   0.882   4.888   3.824
 3304SOL    HW210812   0.947   4.919   3.678
 3305SOL     OW10813   1.877   1.135   1.931
 3305SOL    HW110814   1.817   1.110   1.854
 3305SOL    HW210815   1.834   1.107   2.017
 3306SOL     OW10816   2.143   3.865   3.150
 3306SOL    HW110817   2.137   3.916   3.235
 3306SOL    HW210818   2.176   3.926   3.077
 3307SOL     OW10819   0.042   5.844   0.293
 3307SOL    HW110820   0.034   5.874   0.198
 3307SOL    HW210821   0.139   5.838   0.318
 3308SOL     OW10822   4.563   5.934   0.490
 3308SOL    HW110823   4.620   6.016   0.485
 3308SOL    HW210824   4.601   5.871   0.558
 3309SOL     OW10825   0.884   5.104   2.601
 3309SOL    HW110826   0.894   5.190   2.651
 3309SOL    HW210827   0.846   5.034   2.662
 3310SOL     OW10828   0.350   3.702   3.060
 3310SOL    HW110829   0.417   3.694   3.134
 3310SOL    HW210830   0.345   3.615   3.010
 3311SOL     OW10831   2.823   5.745   0.604
 3311SOL    HW110832   2.897   5.697   0.651
 3311SOL    HW210833   2.749   5.763   0.668
 3312SOL     OW10834   3.177   4.473   6.335
 3312SOL    HW110835   3.106   4.482   6.265
 3312SOL    HW210836   3.209   4.378   6.337
 3313SOL     OW10837   1.204   5.313   3.851
 3313SOL    HW110838   1.151   5.382   3.899
 3313SOL    HW210839   1.144   5.260   3.791
 3314SOL     OW10840   1.590   3.007   4.827
 3314SOL    HW110841   1.628   3.052   4.746
 3314SOL    HW210842   1.490   3.020   4.828
 3315SOL     OW10843   6.523   3.075   3.943
 3315SOL    HW110844   6.470   3.098   4.025
 3315SOL    HW210845   6.618   3.101   3.956
 3316SOL     OW10846   4.176   2.198   6.298
 3316SOL    HW110847   4.258   2.143   6.310
 3316SOL    HW210848   4.120   2.193   6.381
 3317SOL     OW10849   4.413   2.554   1.855
 3317SOL    HW110850   4.493   2.605   1.887
 3317SOL    HW210851   4.403   2.470   1.907
 3318SOL     OW10852   2.549   6.234   6.086
 3318SOL    HW110853   2.491   6.161   6.123
 3318SOL    HW210854   2.585   6.289   6.161
 3319SOL     OW10855   0.037   6.278   4.352
 3319SOL    HW110856   0.097   6.218   4.300
 3319SOL    HW210857   0.091   6.336   4.413
 3320SOL     OW10858   5.694   1.407   5.363
 3320SOL    HW110859   5.718   1.385   5.458
 3320SOL    HW210860   5.768   1.377   5.303
 3321SOL     OW10861   3.893   2.958   2.487
 3321SOL    HW110862   3.829   2.916   2.423
 3321SOL    HW210863   3.959   3.014   2.436
 3322SOL     OW10864   4.876   2.005   1.021
 3322SOL    HW110865   4.850   2.070   1.092
 3322SOL    HW210866   4.795   1.975   0.971
 3323SOL     OW10867   2.047   4.377   6.548
 3323SOL    HW110868   2.016   4.322   6.626
 3323SOL    HW210869   2.012   4.470   6.556
 3324SOL     OW10870   1.460   4.038   0.494
 3324SOL    HW110871   1.467   3.960   0.557
 3324SOL    HW210872   1.364   4.062   0.481
 3325SOL     OW10873   2.484   3.564   0.081
 3325SOL    HW110874   2.420   3.605   0.017
 3325SOL    HW210875   2.444   3.480   0.118
 3326SOL     OW10876   5.834   2.237   2.096
 3326SOL    HW110877   5.927   2.201   2.106
 3326SOL    HW210878   5.840   2.333   2.068
 3327SOL     OW10879   2.430   6.670   1.916
 3327SOL    HW110880   2.394   6.589   1.869
 3327SOL    HW210881   2.464   6.643   2.006
 3328SOL     OW10882   4.413   0.960   1.741
 3328SOL    HW110883   4.347   0.886   1.724
 3328SOL    HW210884   4.419   1.018   1.660
 3329SOL     OW10885   4.192   0.625   4.917
 3329SOL    HW110886   4.178   0.610   4.819
 3329SOL    HW210887   4.276   0.678   4.931
 3330SOL     OW10888   5.951   6.852   2.073
 3330SOL    HW110889   5.904   6.912   2.138
 3330SOL    HW210890   6.008   6.786   2.123
 3331SOL     OW10891   1.815   3.601   2.852
 3331SOL    HW110892   1.746   3.671   2.836
 3331SOL    HW210893   1.870   3.625   2.932
 3332SOL     OW10894   5.359   4.914   0.365
 3332SOL    HW110895   5.421   4.985   0.398
 3332SOL    HW210896   5.412   4.834   0.338
 3333SOL     OW10897   3.201   3.976   1.144
 3333SOL    HW110898   3.137   3.903   1.120
 3333SOL    HW210899   3.294   3.940   1.150
 3334SOL     OW10900   1.380   2.790   2.125
 3334SOL    HW110901   1.415   2.766   2.034
 3334SOL    HW210902   1.379   2.709   2.183
 3335SOL     OW10903   3.555   4.525   5.728
 3335SOL    HW110904   3.614   4.580   5.788
 3335SOL    HW210905   3.486   4.479   5.783
 3336SOL     OW10906   2.556   0.157   4.035
 3336SOL    HW110907   2.610   0.222   3.981
 3336SOL    HW210908   2.617   0.103   4.092
 3337SOL     OW10909   3.616   3.465   2.401
 3337SOL    HW110910   3.527   3.505   2.424
 3337SOL    HW210911   3.603   3.388   2.339
 3338SOL     OW10912   1.173   2.082   1.543
 3338SOL    HW110913   1.122   2.022   1.605
 3338SOL    HW210914   1.168   2.046   1.450
 3339SOL     OW10915   1.894   0.022   5.639
 3339SOL    HW110916   1.845   0.106   5.614
 3339SOL    HW210917   1.981   0.046   5.683
 3340SOL     OW10918   4.605   0.791   4.383
 3340SOL    HW110919   4.605   0.889   4.399
 3340SOL    HW210920   4.698   0.759   4.367
 3341SOL     OW10921   2.144   4.677   2.602
 3341SOL    HW110922   2.187   4.609   2.660
 3341SOL    HW210923   2.047   4.655   2.591
 3342SOL     OW10924   6.252   0.321   3.375
 3342SOL    HW110925   6.220   0.269   3.454
 3342SOL    HW210926   6.274   0.414   3.403
 3343SOL     OW10927   5.132   5.381   6.588
 3343SOL    HW110928   5.183   5.417   6.510
 3343SOL    HW210929   5.164   5.425   6.672
 3344SOL     OW10930   6.308   2.639   2.292
 3344SOL    HW110931   6.346   2.613   2.381
 3344SOL    HW210932   6.382   2.662   2.229
 3345SOL     OW10933   0.719   3.715   0.496
 3345SOL    HW110934   0.810   3.687   0.526
 3345SOL    HW210935   0.656   3.638   0.506
 3346SOL     OW10936   2.484   1.114   0.246
 3346SOL    HW110937   2.465   1.092   0.342
 3346SOL    HW210938   2.463   1.035   0.189
 3347SOL     OW10939   1.080   3.019   6.371
 3347SOL    HW110940   1.018   2.956   6.416
 3347SOL    HW210941   1.140   2.969   6.309
 3348SOL     OW10942   3.539   4.354   6.307
 3348SOL    HW110943   3.625   4.402   6.292
 3348SOL    HW210944   3.552   4.286   6.380
 3349SOL     OW10945   2.144   4.249   3.933
 3349SOL    HW110946   2.053   4.281   3.958
 3349SOL    HW210947   2.212   4.318   3.958
 3350SOL     OW10948   0.764   4.183   5.730
 3350SOL    HW110949   0.789   4.264   5.676
 3350SOL    HW210950   0.666   4.186   5.751
 3351SOL     OW10951   5.365   0.705   1.345
 3351SOL    HW110952   5.352   0.801   1.369
 3351SOL    HW210953   5.277   0.663   1.322
 3352SOL     OW10954   5.569   2.953   0.935
 3352SOL    HW110955   5.531   3.037   0.974
 3352SOL    HW210956   5.627   2.908   1.003
 3353SOL     OW10957   1.766   0.173   1.651
 3353SOL    HW110958   1.764   0.173   1.551
 3353SOL    HW210959   1.851   0.214   1.684
 3354SOL     OW10960   4.099   3.386   5.774
 3354SOL    HW110961   4.081   3.473   5.727
 3354SOL    HW210962   4.029   3.320   5.749
 3355SOL     OW10963   2.007   1.455   5.127
 3355SOL    HW110964   2.003   1.525   5.055
 3355SOL    HW210965   1.919   1.450   5.173
 3356SOL     OW10966   1.092   6.983   6.108
 3356SOL    HW110967   1.070   0.001   6.194
 3356SOL    HW210968   1.146   0.017   6.051
 3357SOL     OW10969   3.144   3.578   1.931
 3357SOL    HW110970   3.086   3.596   1.851
 3357SOL    HW210971   3.120   3.489   1.970
 3358SOL     OW10972   5.488   1.319   3.524
 3358SOL    HW110973   5.399   1.311   3.569
 3358SOL    HW210974   5.560   1.324   3.593
 3359SOL     OW10975   0.457   5.371   4.167
 3359SOL    HW110976   0.434   5.274   4.171
 3359SOL    HW210977   0.374   5.426   4.183
 3360SOL     OW10978   0.743   2.367   6.106
 3360SOL    HW110979   0.710   2.444   6.051
 3360SOL    HW210980   0.787   2.401   6.188
 3361SOL     OW10981   0.856   0.002   4.444
 3361SOL    HW110982   0.791   0.069   4.408
 3361SOL    HW210983   0.923   0.048   4.502
 3362SOL     OW10984   4.003   1.881   4.136
 3362SOL    HW110985   3.934   1.817   4.102
 3362SOL    HW210986   4.072   1.831   4.188
 3363SOL     OW10987   7.003   2.961   1.516
 3363SOL    HW110988   0.007   2.870   1.542
 3363SOL    HW210989   0.007   2.982   1.424
 3364SOL     OW10990   1.276   4.080   2.684
 3364SOL    HW110991   1.256   4.147   2.612
 3364SOL    HW210992   1.195   4.068   2.742
 3365SOL     OW10993   2.183   3.218   4.594
 3365SOL    HW110994   2.203   3.136   4.648
 3365SOL    HW210995   2.149   3.290   4.653
 3366SOL     OW10996   0.103   3.540   4.485
 3366SOL    HW110997   0.023   3.511   4.432
 3366SOL    HW210998   0.089   3.633   4.518
 3367SOL     OW10999   3.621   3.623   4.356
 3367SOL    HW111000   3.578   3.713   4.369
 3367SOL    HW211001   3.623   3.602   4.258
 3368SOL     OW11002   1.577   6.620   6.690
 3368SOL    HW111003   1.491   6.648   6.647
 3368SOL    HW211004   1.559   6.591   6.784
 3369SOL     OW11005   4.265   1.660   1.275
 3369SOL    HW111006   4.306   1.751   1.275
 3369SOL    HW211007   4.213   1.648   1.359
 3370SOL     OW11008   6.503   6.215   1.503
 3370SOL    HW111009   6.509   6.124   1.544
 3370SOL    HW211010   6.568   6.222   1.427
 3371SOL     OW11011   2.137   3.476   2.319
 3371SOL    HW111012   2.169   3.385   2.344
 3371SOL    HW211013   2.157   3.493   2.223
 3372SOL     OW11014   6.720   2.897   1.458
 3372SOL    HW111015   6.809   2.936   1.478
 3372SOL    HW211016   6.651   2.941   1.517
 3373SOL     OW11017   0.556   1.527   1.934
 3373SOL    HW111018   0.527   1.593   2.004
 3373SOL    HW211019   0.476   1.496   1.883
 3374SOL     OW11020   0.398   6.753   4.163
 3374SOL    HW111021   0.322   6.700   4.128
 3374SOL    HW211022   0.483   6.725   4.118
 3375SOL     OW11023   6.912   4.699   6.904
 3375SOL    HW111024   6.935   4.622   6.845
 3375SOL    HW211025   6.934   4.784   6.858
 3376SOL     OW11026   2.323   3.327   5.685
 3376SOL    HW111027   2.294   3.402   5.744
 3376SOL    HW211028   2.260   3.319   5.608
 3377SOL     OW11029   6.561   5.003   4.720
 3377SOL    HW111030   6.561   4.903   4.712
 3377SOL    HW211031   6.656   5.036   4.713
 3378SOL     OW11032   0.637   6.629   0.043
 3378SOL    HW111033   0.622   6.717   0.088
 3378SOL    HW211034   0.549   6.583   0.030
 3379SOL     OW11035   1.273   3.241   4.553
 3379SOL    HW111036   1.344   3.253   4.484
 3379SOL    HW211037   1.254   3.329   4.597
 3380SOL     OW11038   3.886   4.619   5.634
 3380SOL    HW111039   3.876   4.549   5.562
 3380SOL    HW211040   3.856   4.707   5.599
 3381SOL     OW11041   0.616   2.603   1.947
 3381SOL    HW111042   0.531   2.655   1.955
 3381SOL    HW211043   0.684   2.659   1.900
 3382SOL     OW11044   6.792   2.262   1.005
 3382SOL    HW111045   6.799   2.350   0.959
 3382SOL    HW211046   6.704   2.256   1.053
 3383SOL     OW11047   3.321   5.032   0.559
 3383SOL    HW111048   3.353   5.019   0.466
 3383SOL    HW211049   3.297   4.944   0.599
 3384SOL     OW11050   2.526   5.047   0.486
 3384SOL    HW111051   2.624   5.029   0.475
 3384SOL    HW211052   2.510   5.095   0.573
 3385SOL     OW11053   0.271   2.419   3.732
 3385SOL    HW111054   0.294   2.473   3.650
 3385SOL    HW211055   0.230   2.479   3.801
 3386SOL     OW11056   6.691   4.484   0.007
 3386SOL    HW111057   6.753   4.408   0.027
 3386SOL    HW211058   6.627   4.496   0.083
 3387SOL     OW11059   5.477   1.243   3.252
 3387SOL    HW111060   5.480   1.271   3.348
 3387SOL    HW211061   5.422   1.160   3.243
 3388SOL     OW11062   4.990   3.941   1.438
 3388SOL    HW111063   5.077   3.973   1.403
 3388SOL    HW211064   4.917   4.001   1.406
 3389SOL     OW11065   6.091   6.173   0.174
 3389SOL    HW111066   6.150   6.171   0.094
 3389SOL    HW211067   6.139   6.215   0.251
 3390SOL     OW11068   3.886   6.663   5.911
 3390SOL    HW111069   3.956   6.664   5.983
 3390SOL    HW211070   3.918   6.719   5.834
 3391SOL     OW11071   5.615   2.815   3.852
 3391SOL    HW111072   5.604   2.915   3.856
 3391SOL    HW211073   5.533   2.774   3.814
 3392SOL     OW11074   4.241   7.019   4.818
 3392SOL    HW111075   4.149   0.020   4.792
 3392SOL    HW211076   4.307   0.028   4.754
 3393SOL     OW11077   5.021   7.026   0.620
 3393SOL    HW111078   4.932   0.037   0.595
 3393SOL    HW211079   5.084   0.009   0.543
 3394SOL     OW11080   3.461   5.135   1.358
 3394SOL    HW111081   3.510   5.217   1.328
 3394SOL    HW211082   3.371   5.132   1.315
 3395SOL     OW11083   4.326   0.805   3.098
 3395SOL    HW111084   4.425   0.806   3.088
 3395SOL    HW211085   4.289   0.897   3.081
 3396SOL     OW11086   5.703   0.884   3.894
 3396SOL    HW111087   5.695   0.798   3.944
 3396SOL    HW211088   5.640   0.951   3.933
 3397SOL     OW11089   2.548   5.736   6.148
 3397SOL    HW111090   2.462   5.719   6.197
 3397SOL    HW211091   2.619   5.676   6.184
 3398SOL     OW11092   0.599   1.573   5.420
 3398SOL    HW111093   0.535   1.576   5.343
 3398SOL    HW211094   0.681   1.624   5.396
 3399SOL     OW11095   0.100   4.800   3.191
 3399SOL    HW111096   0.007   4.783   3.158
 3399SOL    HW211097   0.099   4.807   3.291
 3400SOL     OW11098   5.668   3.354   6.048
 3400SOL    HW111099   5.621   3.295   5.982
 3400SOL    HW211100   5.693   3.300   6.129
 3401SOL     OW11101   6.619   3.841   6.064
 3401SOL    HW111102   6.637   3.844   6.163
 3401SOL    HW211103   6.639   3.749   6.030
 3402SOL     OW11104   6.789   5.030   1.122
 3402SOL    HW111105   6.850   4.986   1.057
 3402SOL    HW211106   6.837   5.104   1.169
 3403SOL     OW11107   4.487   6.456   6.282
 3403SOL    HW111108   4.393   6.477   6.309
 3403SOL    HW211109   4.545   6.455   6.364
 3404SOL     OW11110   5.067   3.217   6.028
 3404SOL    HW111111   5.145   3.276   6.048
 3404SOL    HW211112   4.989   3.244   6.083
 3405SOL     OW11113   5.502   6.255   6.056
 3405SOL    HW111114   5.582   6.205   6.088
 3405SOL    HW211115   5.424   6.192   6.051
 3406SOL     OW11116   1.881   3.482   2.443
 3406SOL    HW111117   1.976   3.488   2.412
 3406SOL    HW211118   1.859   3.563   2.497
 3407SOL     OW11119   2.474   4.408   0.633
 3407SOL    HW111120   2.502   4.487   0.578
 3407SOL    HW211121   2.464   4.436   0.729
 3408SOL     OW11122   4.382   2.434   4.065
 3408SOL    HW111123   4.289   2.400   4.053
 3408SOL    HW211124   4.446   2.357   4.063
 3409SOL     OW11125   4.065   6.552   0.138
 3409SOL    HW111126   4.010   6.635   0.148
 3409SOL    HW211127   4.014   6.484   0.087
 3410SOL     OW11128   5.943   6.663   2.809
 3410SOL    HW111129   5.887   6.741   2.781
 3410SOL    HW211130   5.960   6.667   2.908
 3411SOL     OW11131   6.690   1.760   0.771
 3411SOL    HW111132   6.662   1.854   0.753
 3411SOL    HW211133   6.775   1.759   0.824
 3412SOL     OW11134   4.851   3.061   1.519
 3412SOL    HW111135   4.941   3.063   1.563
 3412SOL    HW211136   4.853   3.117   1.436
 3413SOL     OW11137   6.441   1.545   6.575
 3413SOL    HW111138   6.470   1.472   6.638
 3413SOL    HW211139   6.448   1.633   6.621
 3414SOL     OW11140   3.942   3.094   0.110
 3414SOL    HW111141   4.019   3.037   0.081
 3414SOL    HW211142   3.894   3.129   0.030
 3415SOL     OW11143   2.427   2.225   4.014
 3415SOL    HW111144   2.376   2.294   4.065
 3415SOL    HW211145   2.428   2.250   3.917
 3416SOL     OW11146   6.068   0.014   0.288
 3416SOL    HW111147   6.152   0.018   0.344
 3416SOL    HW211148   6.010   0.092   0.311
 3417SOL     OW11149   0.582   0.360   3.391
 3417SOL    HW111150   0.525   0.437   3.421
 3417SOL    HW211151   0.609   0.375   3.296
 3418SOL     OW11152   4.162   5.374   3.068
 3418SOL    HW111153   4.140   5.285   3.028
 3418SOL    HW211154   4.185   5.438   2.994
 3419SOL     OW11155   3.952   5.693   5.780
 3419SOL    HW111156   3.895   5.734   5.709
 3419SOL    HW211157   3.926   5.598   5.794
 3420SOL     OW11158   4.733   2.887   3.999
 3420SOL    HW111159   4.680   2.804   4.020
 3420SOL    HW211160   4.808   2.896   4.065
 3421SOL     OW11161   5.582   1.721   3.583
 3421SOL    HW111162   5.561   1.672   3.498
 3421SOL    HW211163   5.507   1.782   3.605
 3422SOL     OW11164   2.375   0.071   6.740
 3422SOL    HW111165   2.409   0.157   6.778
 3422SOL    HW211166   2.435   7.024   6.767
 3423SOL     OW11167   0.751   4.671   6.128
 3423SOL    HW111168   0.799   4.629   6.052
 3423SOL    HW211169   0.733   4.767   6.108
 3424SOL     OW11170   4.148   6.625   1.463
 3424SOL    HW111171   4.141   6.710   1.410
 3424SOL    HW211172   4.119   6.548   1.406
 3425SOL     OW11173   5.014   4.435   1.932
 3425SOL    HW111174   5.017   4.422   2.032
 3425SOL    HW211175   5.024   4.346   1.887
 3426SOL     OW11176   4.909   3.506   0.731
 3426SOL    HW111177   4.991   3.474   0.684
 3426SOL    HW211178   4.889   3.445   0.808
 3427SOL     OW11179   1.602   2.689   1.236
 3427SOL    HW111180   1.627   2.664   1.330
 3427SOL    HW211181   1.592   2.606   1.181
 3428SOL     OW11182   4.889   5.009   5.628
 3428SOL    HW111183   4.965   4.988   5.568
 3428SOL    HW211184   4.912   5.088   5.685
 3429SOL     OW11185   0.375   0.747   1.101
 3429SOL    HW111186   0.410   0.840   1.109
 3429SOL    HW211187   0.433   0.694   1.040
 3430SOL     OW11188   2.071   4.809   5.548
 3430SOL    HW111189   1.995   4.845   5.492
 3430SOL    HW211190   2.076   4.861   5.633
 3431SOL     OW11191   2.002   6.491   2.491
 3431SOL    HW111192   1.945   6.437   2.430
 3431SOL    HW211193   2.091   6.447   2.503
 3432SOL     OW11194   2.223   4.842   6.522
 3432SOL    HW111195   2.291   4.834   6.595
 3432SOL    HW211196   2.179   4.932   6.527
 3433SOL     OW11197   2.685   0.739   6.595
 3433SOL    HW111198   2.697   0.825   6.546
 3433SOL    HW211199   2.759   0.677   6.570
 3434SOL     OW11200   2.800   2.168   1.863
 3434SOL    HW111201   2.817   2.250   1.917
 3434SOL    HW211202   2.884   2.143   1.814
 3435SOL     OW11203   2.287   0.938   0.371
 3435SOL    HW111204   2.236   1.002   0.428
 3435SOL    HW211205   2.256   0.945   0.276
 3436SOL     OW11206   4.323   5.492   0.295
 3436SOL    HW111207   4.382   5.438   0.235
 3436SOL    HW211208   4.248   5.434   0.328
 3437SOL     OW11209   1.309   6.646   6.097
 3437SOL    HW111210   1.368   6.576   6.138
 3437SOL    HW211211   1.347   6.673   6.008
 3438SOL     OW11212   0.483   3.512   1.531
 3438SOL    HW111213   0.509   3.440   1.594
 3438SOL    HW211214   0.384   3.514   1.520
 3439SOL     OW11215   2.130   5.949   2.829
 3439SOL    HW111216   2.108   5.907   2.917
 3439SOL    HW211217   2.177   5.882   2.771
 3440SOL     OW11218   3.742   2.884   4.969
 3440SOL    HW111219   3.751   2.786   4.955
 3440SOL    HW211220   3.756   2.906   5.066
 3441SOL     OW11221   6.610   5.880   6.269
 3441SOL    HW111222   6.529   5.826   6.293
 3441SOL    HW211223   6.692   5.827   6.287
 3442SOL     OW11224   3.191   4.175   1.527
 3442SOL    HW111225   3.253   4.221   1.591
 3442SOL    HW211226   3.116   4.132   1.577
 3443SOL     OW11227   3.061   5.956   2.717
 3443SOL    HW111228   3.025   5.864   2.706
 3443SOL    HW211229   3.003   6.008   2.780
 3444SOL     OW11230   5.352   4.646   1.362
 3444SOL    HW111231   5.380   4.550   1.358
 3444SOL    HW211232   5.431   4.703   1.387
 3445SOL     OW11233   6.645   4.895   4.188
 3445SOL    HW111234   6.619   4.801   4.166
 3445SOL    HW211235   6.564   4.953   4.185
 3446SOL     OW11236   5.680   0.187   1.997
 3446SOL    HW111237   5.676   0.148   1.905
 3446SOL    HW211238   5.621   0.134   2.058
 3447SOL     OW11239   5.282   0.393   0.087
 3447SOL    HW111240   5.321   0.374   0.177
 3447SOL    HW211241   5.356   0.411   0.022
 3448SOL     OW11242   1.940   6.573   5.523
 3448SOL    HW111243   1.901   6.520   5.598
 3448SOL    HW211244   1.886   6.558   5.440
 3449SOL     OW11245   5.974   5.465   5.069
 3449SOL    HW111246   5.998   5.537   5.003
 3449SOL    HW211247   6.030   5.384   5.052
 3450SOL     OW11248   1.301   0.151   6.568
 3450SOL    HW111249   1.310   0.056   6.538
 3450SOL    HW211250   1.325   0.159   6.664
 3451SOL     OW11251   1.770   5.833   0.552
 3451SOL    HW111252   1.833   5.845   0.475
 3451SOL    HW211253   1.781   5.910   0.615
 3452SOL     OW11254   5.502   0.959   5.467
 3452SOL    HW111255   5.574   1.012   5.423
 3452SOL    HW211256   5.413   0.992   5.437
 3453SOL     OW11257   5.676   6.516   6.037
 3453SOL    HW111258   5.604   6.584   6.052
 3453SOL    HW211259   5.639   6.441   5.983
 3454SOL     OW11260   1.542   3.057   2.845
 3454SOL    HW111261   1.477   2.985   2.866
 3454SOL    HW211262   1.493   3.140   2.817
 3455SOL     OW11263   1.635   2.625   4.620
 3455SOL    HW111264   1.722   2.672   4.639
 3455SOL    HW211265   1.586   2.674   4.548
 3456SOL     OW11266   4.524   4.549   1.948
 3456SOL    HW111267   4.575   4.593   1.874
 3456SOL    HW211268   4.563   4.458   1.966
 3457SOL     OW11269   3.908   5.117   4.840
 3457SOL    HW111270   3.821   5.080   4.807
 3457SOL    HW211271   3.983   5.077   4.789
 3458SOL     OW11272   4.478   1.675   2.428
 3458SOL    HW111273   4.536   1.594   2.436
 3458SOL    HW211274   4.400   1.667   2.490
 3459SOL     OW11275   4.145   1.304   2.845
 3459SOL    HW111276   4.150   1.208   2.873
 3459SOL    HW211277   4.153   1.311   2.745
 3460SOL     OW11278   3.531   1.631   5.859
 3460SOL    HW111279   3.530   1.599   5.764
 3460SOL    HW211280   3.446   1.680   5.878
 3461SOL     OW11281   5.564   5.116   6.554
 3461SOL    HW111282   5.505   5.172   6.497
 3461SOL    HW211283   5.512   5.082   6.632
 3462SOL     OW11284   2.183   3.490   6.575
 3462SOL    HW111285   2.096   3.460   6.614
 3462SOL    HW211286   2.206   3.581   6.610
 3463SOL     OW11287   6.975   4.111   0.813
 3463SOL    HW111288   7.018   4.199   0.793
 3463SOL    HW211289   0.018   4.041   0.819
 3464SOL     OW11290   0.218   4.487   6.592
 3464SOL    HW111291   0.259   4.478   6.502
 3464SOL    HW211292   0.290   4.485   6.662
 3465SOL     OW11293   2.191   1.436   1.437
 3465SOL    HW111294   2.185   1.536   1.429
 3465SOL    HW211295   2.134   1.394   1.367
 3466SOL     OW11296   0.205   4.916   5.947
 3466SOL    HW111297   0.255   4.915   6.034
 3466SOL    HW211298   0.174   4.824   5.925
 3467SOL     OW11299   2.077   2.293   6.658
 3467SOL    HW111300   2.088   2.232   6.736
 3467SOL    HW211301   2.105   2.246   6.574
 3468SOL     OW11302   2.555   5.890   3.791
 3468SOL    HW111303   2.555   5.988   3.807
 3468SOL    HW211304   2.472   5.864   3.742
 3469SOL     OW11305   6.911   2.385   3.993
 3469SOL    HW111306   6.813   2.370   3.982
 3469SOL    HW211307   6.932   2.398   4.090
 3470SOL     OW11308   0.614   4.961   1.590
 3470SOL    HW111309   0.554   4.930   1.664
 3470SOL    HW211310   0.569   5.036   1.541
 3471SOL     OW11311   4.566   5.723   5.289
 3471SOL    HW111312   4.470   5.748   5.294
 3471SOL    HW211313   4.619   5.799   5.251
 3472SOL     OW11314   2.386   1.221   4.471
 3472SOL    HW111315   2.370   1.169   4.555
 3472SOL    HW211316   2.392   1.158   4.394
 3473SOL     OW11317   5.635   1.715   5.709
 3473SOL    HW111318   5.565   1.662   5.661
 3473SOL    HW211319   5.680   1.657   5.777
 3474SOL     OW11320   3.384   4.903   2.137
 3474SOL    HW111321   3.352   4.984   2.086
 3474SOL    HW211322   3.454   4.856   2.083
 3475SOL     OW11323   0.932   6.630   3.990
 3475SOL    HW111324   0.980   6.664   4.071
 3475SOL    HW211325   0.840   6.668   3.987
 3476SOL     OW11326   4.458   1.054   4.606
 3476SOL    HW111327   4.531   1.028   4.669
 3476SOL    HW211328   4.399   1.122   4.650
 3477SOL     OW11329   3.642   5.957   0.837
 3477SOL    HW111330   3.680   5.962   0.929
 3477SOL    HW211331   3.582   6.036   0.821
 3478SOL     OW11332   3.077   5.922   5.967
 3478SOL    HW111333   3.087   5.927   5.867
 3478SOL    HW211334   3.008   5.988   5.996
 3479SOL     OW11335   0.443   0.773   2.381
 3479SOL    HW111336   0.521   0.726   2.423
 3479SOL    HW211337   0.475   0.832   2.307
 3480SOL     OW11338   6.683   1.576   3.880
 3480SOL    HW111339   6.754   1.506   3.865
 3480SOL    HW211340   6.599   1.532   3.912
 3481SOL     OW11341   3.264   6.591   6.630
 3481SOL    HW111342   3.209   6.514   6.665
 3481SOL    HW211343   3.347   6.556   6.588
 3482SOL     OW11344   6.167   1.862   1.751
 3482SOL    HW111345   6.264   1.873   1.772
 3482SOL    HW211346   6.135   1.773   1.784
 3483SOL     OW11347   2.304   0.638   1.635
 3483SOL    HW111348   2.304   0.592   1.547
 3483SOL    HW211349   2.237   0.713   1.633
 3484SOL     OW11350   3.262   2.958   3.416
 3484SOL    HW111351   3.222   2.871   3.443
 3484SOL    HW211352   3.360   2.947   3.404
 3485SOL     OW11353   2.096   1.737   4.764
 3485SOL    HW111354   2.056   1.781   4.684
 3485SOL    HW211355   2.034   1.664   4.796
 3486SOL     OW11356   4.167   1.268   1.407
 3486SOL    HW111357   4.188   1.350   1.460
 3486SOL    HW211358   4.248   1.240   1.356
 3487SOL     OW11359   5.732   1.337   6.755
 3487SOL    HW111360   5.657   1.399   6.777
 3487SOL    HW211361   5.708   1.282   6.675
 3488SOL     OW11362   6.173   3.356   4.475
 3488SOL    HW111363   6.194   3.355   4.377
 3488SOL    HW211364   6.130   3.269   4.500
 3489SOL     OW11365   3.050   6.884   0.722
 3489SOL    HW111366   2.955   6.858   0.701
 3489SOL    HW211367   3.058   6.983   0.722
 3490SOL     OW11368   5.316   4.268   0.010
 3490SOL    HW111369   5.302   4.175   7.005
 3490SOL    HW211370   5.414   4.283   0.025
 3491SOL     OW11371   0.346   2.881   5.567
 3491SOL    HW111372   0.258   2.921   5.543
 3491SOL    HW211373   0.367   2.901   5.662
 3492SOL     OW11374   0.657   5.776   6.843
 3492SOL    HW111375   0.738   5.791   6.786
 3492SOL    HW211376   0.647   5.678   6.861
 3493SOL     OW11377   6.151   4.841   1.072
 3493SOL    HW111378   6.250   4.828   1.060
 3493SOL    HW211379   6.134   4.927   1.119
 3494SOL     OW11380   3.852   0.092   1.291
 3494SOL    HW111381   3.913   0.171   1.298
 3494SOL    HW211382   3.887   0.018   1.349
 3495SOL     OW11383   4.117   5.516   2.235
 3495SOL    HW111384   4.026   5.476   2.232
 3495SOL    HW211385   4.157   5.515   2.143
 3496SOL     OW11386   1.851   3.161   1.060
 3496SOL    HW111387   1.866   3.077   1.008
 3496SOL    HW211388   1.916   3.165   1.136
 3497SOL     OW11389   4.409   0.853   3.341
 3497SOL    HW111390   4.349   0.868   3.420
 3497SOL    HW211391   4.354   0.825   3.262
 3498SOL     OW11392   3.033   1.423   1.127
 3498SOL    HW111393   3.013   1.405   1.031
 3498SOL    HW211394   2.963   1.484   1.164
 3499SOL     OW11395   0.536   3.444   3.778
 3499SOL    HW111396   0.441   3.469   3.762
 3499SOL    HW211397   0.574   3.401   3.696
 3500SOL     OW11398   6.379   3.777   6.441
 3500SOL    HW111399   6.301   3.731   6.485
 3500SOL    HW211400   6.345   3.837   6.369
 3501SOL     OW11401   1.025   4.660   5.335
 3501SOL    HW111402   0.978   4.651   5.423
 3501SOL    HW211403   0.990   4.591   5.272
 3502SOL     OW11404   0.763   1.586   1.719
 3502SOL    HW111405   0.783   1.504   1.666
 3502SOL    HW211406   0.718   1.561   1.804
 3503SOL     OW11407   4.600   5.514   5.699
 3503SOL    HW111408   4.604   5.417   5.675
 3503SOL    HW211409   4.651   5.530   5.784
 3504SOL     OW11410   2.988   3.671   1.331
 3504SOL    HW111411   2.974   3.606   1.406
 3504SOL    HW211412   2.900   3.692   1.288
 3505SOL     OW11413   5.460   6.209   5.193
 3505SOL    HW111414   5.501   6.182   5.280
 3505SOL    HW211415   5.371   6.250   5.209
 3506SOL     OW11416   4.186   5.409   4.303
 3506SOL    HW111417   4.171   5.340   4.373
 3506SOL    HW211418   4.119   5.483   4.314
 3507SOL     OW11419   1.215   0.335   6.249
 3507SOL    HW111420   1.237   0.376   6.160
 3507SOL    HW211421   1.291   0.278   6.280
 3508SOL     OW11422   5.446   2.532   0.520
 3508SOL    HW111423   5.353   2.509   0.493
 3508SOL    HW211424   5.446   2.573   0.612
 3509SOL     OW11425   5.878   6.165   6.806
 3509SOL    HW111426   5.933   6.147   6.724
 3509SOL    HW211427   5.788   6.125   6.794
 3510SOL     OW11428   2.111   2.225   1.552
 3510SOL    HW111429   2.058   2.259   1.630
 3510SOL    HW211430   2.050   2.181   1.486
 3511SOL     OW11431   0.965   3.055   6.729
 3511SOL    HW111432   0.906   3.128   6.696
 3511SOL    HW211433   0.947   3.039   6.827
 3512SOL     OW11434   1.818   3.382   0.272
 3512SOL    HW111435   1.842   3.321   0.196
 3512SOL    HW211436   1.781   3.467   0.236
 3513SOL     OW11437   6.470   4.205   0.709
 3513SOL    HW111438   6.484   4.299   0.680
 3513SOL    HW211439   6.390   4.200   0.769
 3514SOL     OW11440   0.404   6.584   1.202
 3514SOL    HW111441   0.362   6.658   1.255
 3514SOL    HW211442   0.386   6.497   1.246
 3515SOL     OW11443   2.884   6.088   2.858
 3515SOL    HW111444   2.862   6.184   2.837
 3515SOL    HW211445   2.813   6.050   2.916
 3516SOL     OW11446   3.422   0.858   0.758
 3516SOL    HW111447   3.323   0.849   0.749
 3516SOL    HW211448   3.460   0.773   0.794
 3517SOL     OW11449   1.123   1.550   0.404
 3517SOL    HW111450   1.212   1.561   0.448
 3517SOL    HW211451   1.135   1.516   0.311
 3518SOL     OW11452   4.505   3.703   6.692
 3518SOL    HW111453   4.484   3.672   6.785
 3518SOL    HW211454   4.597   3.743   6.691
 3519SOL     OW11455   0.782   6.853   6.886
 3519SOL    HW111456   0.742   6.770   6.849
 3519SOL    HW211457   0.783   6.924   6.816
 3520SOL     OW11458   4.011   4.627   0.955
 3520SOL    HW111459   3.923   4.674   0.954
 3520SOL    HW211460   4.016   4.568   1.035
 3521SOL     OW11461   5.559   2.785   1.889
 3521SOL    HW111462   5.626   2.825   1.827
 3521SOL    HW211463   5.533   2.852   1.959
 3522SOL     OW11464   2.616   4.971   1.717
 3522SOL    HW111465   2.596   4.892   1.660
 3522SOL    HW211466   2.676   4.945   1.792
 3523SOL     OW11467   2.952   4.870   4.941
 3523SOL    HW111468   3.034   4.832   4.899
 3523SOL    HW211469   2.892   4.796   4.970
 3524SOL     OW11470   2.408   0.639   1.183
 3524SOL    HW111471   2.341   0.694   1.134
 3524SOL    HW211472   2.482   0.613   1.120
 3525SOL     OW11473   0.402   2.794   1.992
 3525SOL    HW111474   0.396   2.875   2.050
 3525SOL    HW211475   0.381   2.819   1.897
 3526SOL     OW11476   0.434   0.740   2.881
 3526SOL    HW111477   0.335   0.746   2.893
 3526SOL    HW211478   0.460   0.645   2.866
 3527SOL     OW11479   5.530   2.844   6.386
 3527SOL    HW111480   5.477   2.910   6.332
 3527SOL    HW211481   5.502   2.850   6.482
 3528SOL     OW11482   0.725   5.624   3.407
 3528SOL    HW111483   0.664   5.594   3.334
 3528SOL    HW211484   0.685   5.702   3.455
 3529SOL     OW11485   4.799   6.907   5.813
 3529SOL    HW111486   4.756   6.997   5.817
 3529SOL    HW211487   4.736   6.842   5.769
 3530SOL     OW11488   2.725   5.575   2.452
 3530SOL    HW111489   2.681   5.512   2.515
 3530SOL    HW211490   2.678   5.664   2.456
 3531SOL     OW11491   5.468   4.643   0.301
 3531SOL    HW111492   5.402   4.569   0.313
 3531SOL    HW211493   5.558   4.613   0.333
 3532SOL     OW11494   2.783   0.871   0.034
 3532SOL    HW111495   2.798   0.925   6.979
 3532SOL    HW211496   2.836   0.786   0.028
 3533SOL     OW11497   1.182   1.856   3.499
 3533SOL    HW111498   1.114   1.923   3.530
 3533SOL    HW211499   1.206   1.875   3.404
 3534SOL     OW11500   5.492   1.629   5.329
 3534SOL    HW111501   5.481   1.676   5.241
 3534SOL    HW211502   5.547   1.547   5.316
 3535SOL     OW11503   6.477   5.138   6.461
 3535SOL    HW111504   6.563   5.103   6.498
 3535SOL    HW211505   6.406   5.135   6.532
 3536SOL     OW11506   2.202   3.193   3.068
 3536SOL    HW111507   2.187   3.176   3.165
 3536SOL    HW211508   2.171   3.286   3.045
 3537SOL     OW11509   2.511   5.844   0.637
 3537SOL    HW111510   2.558   5.930   0.659
 3537SOL    HW211511   2.512   5.830   0.538
 3538SOL     OW11512   3.160   6.634   2.557
 3538SOL    HW111513   3.201   6.709   2.610
 3538SOL    HW211514   3.226   6.599   2.492
 3539SOL     OW11515   5.829   4.871   5.797
 3539SOL    HW111516   5.830   4.941   5.869
 3539SOL    HW211517   5.852   4.782   5.837
 3540SOL     OW11518   2.204   3.069   6.745
 3540SOL    HW111519   2.142   3.128   6.692
 3540SOL    HW211520   2.235   3.118   6.826
 3541SOL     OW11521   2.901   3.433   0.778
 3541SOL    HW111522   2.836   3.401   0.847
 3541SOL    HW211523   2.935   3.355   0.726
 3542SOL     OW11524   5.383   2.793   0.179
 3542SOL    HW111525   5.461   2.797   0.117
 3542SOL    HW211526   5.300   2.822   0.131
 3543SOL     OW11527   1.790   3.138   2.915
 3543SOL    HW111528   1.819   3.215   2.858
 3543SOL    HW211529   1.699   3.109   2.887
 3544SOL     OW11530   2.815   4.285   6.184
 3544SOL    HW111531   2.809   4.385   6.191
 3544SOL    HW211532   2.793   4.245   6.273
 3545SOL     OW11533   3.470   6.204   0.762
 3545SOL    HW111534   3.447   6.141   0.688
 3545SOL    HW211535   3.399   6.200   0.832
 3546SOL     OW11536   6.329   3.567   3.135
 3546SOL    HW111537   6.360   3.477   3.102
 3546SOL    HW211538   6.362   3.638   3.074
 3547SOL     OW11539   0.366   3.194   5.526
 3547SOL    HW111540   0.418   3.109   5.533
 3547SOL    HW211541   0.372   3.228   5.432
 3548SOL     OW11542   5.086   1.623   6.272
 3548SOL    HW111543   5.085   1.721   6.291
 3548SOL    HW211544   4.992   1.590   6.260
 3549SOL     OW11545   2.278   5.791   6.855
 3549SOL    HW111546   2.261   5.888   6.873
 3549SOL    HW211547   2.255   5.737   6.936
 3550SOL     OW11548   5.243   2.071   5.277
 3550SOL    HW111549   5.152   2.085   5.236
 3550SOL    HW211550   5.275   1.979   5.255
 3551SOL     OW11551   3.840   2.265   5.674
 3551SOL    HW111552   3.780   2.265   5.594
 3551SOL    HW211553   3.798   2.317   5.748
 3552SOL     OW11554   7.024   5.924   1.676
 3552SOL    HW111555   6.938   5.973   1.663
 3552SOL    HW211556   7.006   5.835   1.717
 3553SOL     OW11557   3.949   6.023   5.948
 3553SOL    HW111558   3.947   6.096   6.016
 3553SOL    HW211559   4.022   6.042   5.882
 3554SOL     OW11560   3.978   3.952   1.312
 3554SOL    HW111561   3.943   3.997   1.230
 3554SOL    HW211562   4.070   3.918   1.294
 3555SOL     OW11563   1.741   2.045   3.850
 3555SOL    HW111564   1.699   2.117   3.794
 3555SOL    HW211565   1.761   2.080   3.941
 3556SOL     OW11566   3.789   1.046   5.202
 3556SOL    HW111567   3.757   1.079   5.290
 3556SOL    HW211568   3.827   1.122   5.149
 3557SOL     OW11569   0.214   0.640   2.426
 3557SOL    HW111570   0.204   0.594   2.514
 3557SOL    HW211571   0.295   0.698   2.427
 3558SOL     OW11572   2.828   6.376   0.313
 3558SOL    HW111573   2.859   6.389   0.407
 3558SOL    HW211574   2.732   6.401   0.305
 3559SOL     OW11575   3.937   6.397   4.592
 3559SOL    HW111576   3.975   6.442   4.672
 3559SOL    HW211577   3.941   6.298   4.604
 3560SOL     OW11578   1.985   5.467   5.097
 3560SOL    HW111579   1.957   5.422   5.181
 3560SOL    HW211580   2.078   5.437   5.072
 3561SOL     OW11581   4.759   4.537   5.270
 3561SOL    HW111582   4.668   4.576   5.254
 3561SOL    HW211583   4.750   4.441   5.296
 3562SOL     OW11584   2.605   1.561   4.701
 3562SOL    HW111585   2.620   1.465   4.722
 3562SOL    HW211586   2.629   1.617   4.781
 3563SOL     OW11587   6.073   2.188   6.040
 3563SOL    HW111588   6.062   2.285   6.019
 3563SOL    HW211589   6.007   2.135   5.987
 3564SOL     OW11590   6.981   4.130   2.530
 3564SOL    HW111591   6.971   4.035   2.561
 3564SOL    HW211592   6.920   4.189   2.582
 3565SOL     OW11593   3.510   5.303   3.271
 3565SOL    HW111594   3.452   5.224   3.250
 3565SOL    HW211595   3.600   5.289   3.229
 3566SOL     OW11596   6.833   1.327   5.227
 3566SOL    HW111597   6.804   1.386   5.302
 3566SOL    HW211598   6.871   1.382   5.153
 3567SOL     OW11599   0.708   3.736   6.974
 3567SOL    HW111600   0.654   3.724   0.029
 3567SOL    HW211601   0.683   3.821   6.929
 3568SOL     OW11602   6.840   3.670   5.826
 3568SOL    HW111603   6.860   3.768   5.828
 3568SOL    HW211604   6.926   3.618   5.820
 3569SOL     OW11605   2.705   1.759   5.923
 3569SOL    HW111606   2.616   1.783   5.885
 3569SOL    HW211607   2.754   1.843   5.949
 3570SOL     OW11608   5.565   0.940   4.259
 3570SOL    HW111609   5.576   0.984   4.170
 3570SOL    HW211610   5.468   0.923   4.276
 3571SOL     OW11611   6.695   5.790   6.571
 3571SOL    HW111612   6.621   5.767   6.508
 3571SOL    HW211613   6.742   5.872   6.540
 3572SOL     OW11614   5.392   3.805   3.811
 3572SOL    HW111615   5.393   3.743   3.733
 3572SOL    HW211616   5.327   3.772   3.880
 3573SOL     OW11617   0.621   4.307   4.199
 3573SOL    HW111618   0.628   4.325   4.100
 3573SOL    HW211619   0.701   4.256   4.228
 3574SOL     OW11620   0.554   5.167   0.375
 3574SOL    HW111621   0.511   5.257   0.383
 3574SOL    HW211622   0.497   5.108   0.317
 3575SOL     OW11623   5.780   5.297   3.028
 3575SOL    HW111624   5.717   5.372   3.047
 3575SOL    HW211625   5.868   5.315   3.070
 3576SOL     OW11626   1.360   1.386   6.112
 3576SOL    HW111627   1.364   1.367   6.013
 3576SOL    HW211628   1.268   1.370   6.145
 3577SOL     OW11629   0.869   2.571   6.592
 3577SOL    HW111630   0.930   2.493   6.577
 3577SOL    HW211631   0.826   2.562   6.682
 3578SOL     OW11632   3.653   3.982   6.727
 3578SOL    HW111633   3.609   4.027   6.805
 3578SOL    HW211634   3.655   4.044   6.649
 3579SOL     OW11635   6.556   3.878   5.182
 3579SOL    HW111636   6.550   3.970   5.222
 3579SOL    HW211637   6.591   3.815   5.252
 3580SOL     OW11638   5.611   2.158   1.678
 3580SOL    HW111639   5.638   2.157   1.774
 3580SOL    HW211640   5.644   2.242   1.634
 3581SOL     OW11641   6.811   6.931   3.206
 3581SOL    HW111642   6.888   6.931   3.269
 3581SOL    HW211643   6.817   6.851   3.146
 3582SOL     OW11644   1.199   1.780   5.742
 3582SOL    HW111645   1.252   1.753   5.823
 3582SOL    HW211646   1.187   1.700   5.683
 3583SOL     OW11647   0.833   4.383   0.040
 3583SOL    HW111648   0.912   4.405   0.096
 3583SOL    HW211649   0.850   4.298   7.017
 3584SOL     OW11650   6.082   6.371   6.361
 3584SOL    HW111651   6.093   6.412   6.271
 3584SOL    HW211652   6.161   6.394   6.418
 3585SOL     OW11653   3.683   4.951   5.065
 3585SOL    HW111654   3.593   4.915   5.090
 3585SOL    HW211655   3.678   4.995   4.976
 3586SOL     OW11656   6.155   2.821   5.523
 3586SOL    HW111657   6.132   2.901   5.578
 3586SOL    HW211658   6.173   2.743   5.584
 3587SOL     OW11659   2.837   6.807   1.363
 3587SOL    HW111660   2.760   6.764   1.315
 3587SOL    HW211661   2.907   6.738   1.382
 3588SOL     OW11662   1.570   2.113   5.389
 3588SOL    HW111663   1.601   2.052   5.463
 3588SOL    HW211664   1.483   2.154   5.415
 3589SOL     OW11665   3.583   0.881   4.309
 3589SOL    HW111666   3.583   0.921   4.400
 3589SOL    HW211667   3.602   0.952   4.241
 3590SOL     OW11668   1.074   4.731   6.541
 3590SOL    HW111669   1.075   4.658   6.473
 3590SOL    HW211670   1.004   4.799   6.517
 3591SOL     OW11671   5.751   3.213   6.270
 3591SOL    HW111672   5.663   3.233   6.312
 3591SOL    HW211673   5.773   3.116   6.281
 3592SOL     OW11674   5.262   2.946   2.765
 3592SOL    HW111675   5.285   2.908   2.676
 3592SOL    HW211676   5.207   3.029   2.754
 3593SOL     OW11677   2.823   6.485   4.614
 3593SOL    HW111678   2.876   6.552   4.667
 3593SOL    HW211679   2.762   6.534   4.551
 3594SOL     OW11680   3.350   0.979   3.158
 3594SOL    HW111681   3.393   1.018   3.239
 3594SOL    HW211682   3.315   0.887   3.180
 3595SOL     OW11683   2.734   6.395   5.274
 3595SOL    HW111684   2.811   6.406   5.212
 3595SOL    HW211685   2.698   6.485   5.299
 3596SOL     OW11686   6.265   0.903   2.784
 3596SOL    HW111687   6.282   0.805   2.790
 3596SOL    HW211688   6.331   0.945   2.722
 3597SOL     OW11689   3.588   6.271   4.436
 3597SOL    HW111690   3.493   6.252   4.411
 3597SOL    HW211691   3.635   6.315   4.360
 3598SOL     OW11692   0.710   0.695   5.509
 3598SOL    HW111693   0.685   0.678   5.604
 3598SOL    HW211694   0.677   0.619   5.453
 3599SOL     OW11695   0.856   1.818   5.902
 3599SOL    HW111696   0.854   1.917   5.893
 3599SOL    HW211697   0.903   1.794   5.987
 3600SOL     OW11698   6.856   3.038   0.807
 3600SOL    HW111699   6.952   3.065   0.817
 3600SOL    HW211700   6.822   3.005   0.894
 3601SOL     OW11701   6.897   4.278   0.581
 3601SOL    HW111702   6.961   4.218   0.630
 3601SOL    HW211703   6.817   4.225   0.554
 3602SOL     OW11704   2.263   1.021   0.641
 3602SOL    HW111705   2.165   1.001   0.651
 3602SOL    HW211706   2.313   0.936   0.626
 3603SOL     OW11707   4.024   5.709   3.858
 3603SOL    HW111708   4.121   5.688   3.861
 3603SOL    HW211709   4.001   5.773   3.931
 3604SOL     OW11710   6.866   3.131   2.610
 3604SOL    HW111711   6.894   3.226   2.620
 3604SOL    HW211712   6.892   3.098   2.519
 3605SOL     OW11713   6.599   4.570   5.999
 3605SOL    HW111714   6.675   4.505   6.003
 3605SOL    HW211715   6.582   4.607   6.090
 3606SOL     OW11716   0.358   5.206   6.172
 3606SOL    HW111717   0.286   5.198   6.240
 3606SOL    HW211718   0.321   5.248   6.089
 3607SOL     OW11719   5.103   0.311   0.482
 3607SOL    HW111720   5.098   0.329   0.580
 3607SOL    HW211721   5.192   0.342   0.447
 3608SOL     OW11722   6.995   1.562   1.967
 3608SOL    HW111723   6.905   1.548   2.010
 3608SOL    HW211724   6.989   1.541   1.870
 3609SOL     OW11725   6.273   0.726   4.096
 3609SOL    HW111726   6.249   0.808   4.044
 3609SOL    HW211727   6.190   0.686   4.135
 3610SOL     OW11728   0.547   0.323   5.074
 3610SOL    HW111729   0.486   0.401   5.086
 3610SOL    HW211730   0.633   0.354   5.032
 3611SOL     OW11731   3.764   4.915   5.329
 3611SOL    HW111732   3.755   4.933   5.232
 3611SOL    HW211733   3.848   4.862   5.346
 3612SOL     OW11734   0.737   6.453   6.107
 3612SOL    HW111735   0.660   6.517   6.114
 3612SOL    HW211736   0.750   6.407   6.195
 3613SOL     OW11737   5.260   4.971   0.935
 3613SOL    HW111738   5.236   4.976   1.032
 3613SOL    HW211739   5.291   4.879   0.912
 3614SOL     OW11740   3.401   3.475   3.399
 3614SOL    HW111741   3.451   3.394   3.429
 3614SOL    HW211742   3.461   3.555   3.402
 3615SOL     OW11743   6.029   6.100   5.819
 3615SOL    HW111744   6.064   6.048   5.741
 3615SOL    HW211745   5.932   6.119   5.807
 3616SOL     OW11746   6.299   2.405   6.649
 3616SOL    HW111747   6.314   2.306   6.655
 3616SOL    HW211748   6.251   2.427   6.564
 3617SOL     OW11749   5.518   1.729   6.115
 3617SOL    HW111750   5.617   1.727   6.129
 3617SOL    HW211751   5.472   1.731   6.204
 3618SOL     OW11752   1.611   1.910   5.184
 3618SOL    HW111753   1.596   1.989   5.243
 3618SOL    HW211754   1.699   1.868   5.205
 3619SOL     OW11755   6.265   2.196   3.747
 3619SOL    HW111756   6.304   2.111   3.784
 3619SOL    HW211757   6.176   2.213   3.788
 3620SOL     OW11758   5.776   6.181   6.070
 3620SOL    HW111759   5.863   6.226   6.089
 3620SOL    HW211760   5.772   6.155   5.974
 3621SOL     OW11761   2.418   2.369   6.201
 3621SOL    HW111762   2.499   2.391   6.146
 3621SOL    HW211763   2.433   2.284   6.251
 3622SOL     OW11764   1.462   1.716   3.265
 3622SOL    HW111765   1.522   1.671   3.331
 3622SOL    HW211766   1.455   1.659   3.183
 3623SOL     OW11767   6.215   5.023   4.123
 3623SOL    HW111768   6.158   4.974   4.057
 3623SOL    HW211769   6.174   5.112   4.142
 3624SOL     OW11770   1.929   5.724   2.461
 3624SOL    HW111771   1.841   5.762   2.434
 3624SOL    HW211772   1.917   5.630   2.493
 3625SOL     OW11773   6.307   2.964   6.465
 3625SOL    HW111774   6.310   2.942   6.562
 3625SOL    HW211775   6.214   2.991   6.440
 3626SOL     OW11776   2.380   3.574   5.911
 3626SOL    HW111777   2.285   3.566   5.878
 3626SOL    HW211778   2.436   3.616   5.840
 3627SOL     OW11779   4.110   3.528   3.583
 3627SOL    HW111780   4.055   3.451   3.614
 3627SOL    HW211781   4.180   3.549   3.652
 3628SOL     OW11782   1.782   6.879   2.267
 3628SOL    HW111783   1.691   6.879   2.227
 3628SOL    HW211784   1.782   6.823   2.350
 3629SOL     OW11785   6.707   2.098   5.017
 3629SOL    HW111786   6.649   2.112   5.097
 3629SOL    HW211787   6.657   2.044   4.949
 3630SOL     OW11788   5.612   3.015   4.146
 3630SOL    HW111789   5.613   3.115   4.134
 3630SOL    HW211790   5.706   2.983   4.161
 3631SOL     OW11791   1.966   0.364   4.101
 3631SOL    HW111792   1.993   0.389   4.194
 3631SOL    HW211793   1.896   0.292   4.106
 3632SOL     OW11794   5.122   0.746   0.841
 3632SOL    HW111795   5.088   0.825   0.891
 3632SOL    HW211796   5.067   0.732   0.758
 3633SOL     OW11797   3.055   2.309   6.069
 3633SOL    HW111798   2.973   2.317   6.125
 3633SOL    HW211799   3.040   2.355   5.981
 3634SOL     OW11800   0.731   5.655   4.964
 3634SOL    HW111801   0.758   5.699   5.049
 3634SOL    HW211802   0.753   5.558   4.968
 3635SOL     OW11803   3.886   0.326   5.259
 3635SOL    HW111804   3.798   0.370   5.239
 3635SOL    HW211805   3.953   0.352   5.190
 3636SOL     OW11806   0.930   6.364   5.453
 3636SOL    HW111807   0.958   6.411   5.536
 3636SOL    HW211808   0.943   6.265   5.464
 3637SOL     OW11809   6.477   1.798   1.441
 3637SOL    HW111810   6.400   1.851   1.406
 3637SOL    HW211811   6.504   1.832   1.531
 3638SOL     OW11812   6.479   4.432   4.349
 3638SOL    HW111813   6.495   4.529   4.333
 3638SOL    HW211814   6.551   4.395   4.408
 3639SOL     OW11815   4.350   3.972   1.017
 3639SOL    HW111816   4.307   3.988   0.928
 3639SOL    HW211817   4.432   3.916   1.006
 3640SOL     OW11818   3.532   6.549   6.535
 3640SOL    HW111819   3.614   6.605   6.539
 3640SOL    HW211820   3.557   6.452   6.538
 3641SOL     OW11821   4.333   2.200   5.114
 3641SOL    HW111822   4.360   2.205   5.210
 3641SOL    HW211823   4.275   2.278   5.091
 3642SOL     OW11824   4.923   1.878   6.067
 3642SOL    HW111825   4.960   1.878   6.160
 3642SOL    HW211826   4.993   1.844   6.004
 3643SOL     OW11827   2.824   6.075   4.797
 3643SOL    HW111828   2.753   6.118   4.741
 3643SOL    HW211829   2.800   5.978   4.812
 3644SOL     OW11830   0.003   1.265   1.672
 3644SOL    HW111831   6.987   1.214   1.745
 3644SOL    HW211832   7.005   1.361   1.678
 3645SOL     OW11833   5.258   1.036   3.965
 3645SOL    HW111834   5.263   1.101   4.041
 3645SOL    HW211835   5.277   1.084   3.879
 3646SOL     OW11836   0.402   4.941   6.168
 3646SOL    HW111837   0.454   4.905   6.245
 3646SOL    HW211838   0.395   5.041   6.176
 3647SOL     OW11839   1.846   4.054   0.567
 3647SOL    HW111840   1.810   4.024   0.478
 3647SOL    HW211841   1.913   3.987   0.599
 3648SOL     OW11842   3.289   6.075   2.764
 3648SOL    HW111843   3.331   6.062   2.853
 3648SOL    HW211844   3.203   6.024   2.759
 3649SOL     OW11845   4.262   3.246   1.536
 3649SOL    HW111846   4.221   3.177   1.476
 3649SOL    HW211847   4.294   3.202   1.620
 3650SOL     OW11848   6.912   5.370   0.961
 3650SOL    HW111849   6.855   5.442   0.922
 3650SOL    HW211850   6.999   5.409   0.990
 3651SOL     OW11851   0.604   6.039   3.051
 3651SOL    HW111852   0.657   6.044   2.966
 3651SOL    HW211853   0.508   6.060   3.032
 3652SOL     OW11854   5.176   5.921   3.202
 3652SOL    HW111855   5.210   5.962   3.118
 3652SOL    HW211856   5.136   5.992   3.260
 3653SOL     OW11857   6.623   0.698   3.373
 3653SOL    HW111858   6.557   0.769   3.400
 3653SOL    HW211859   6.683   0.735   3.302
 3654SOL     OW11860   1.907   6.966   6.847
 3654SOL    HW111861   1.981   0.006   6.849
 3654SOL    HW211862   1.940   6.880   6.887
 3655SOL     OW11863   1.103   6.820   3.888
 3655SOL    HW111864   1.041   6.745   3.914
 3655SOL    HW211865   1.048   6.901   3.865
 3656SOL     OW11866   1.639   3.089   1.521
 3656SOL    HW111867   1.620   3.174   1.471
 3656SOL    HW211868   1.634   3.107   1.619
 3657SOL     OW11869   5.002   5.786   5.832
 3657SOL    HW111870   4.925   5.774   5.895
 3657SOL    HW211871   5.036   5.696   5.804
 3658SOL     OW11872   1.463   5.537   4.040
 3658SOL    HW111873   1.494   5.493   3.956
 3658SOL    HW211874   1.462   5.471   4.114
 3659SOL     OW11875   3.310   3.671   5.670
 3659SOL    HW111876   3.323   3.632   5.579
 3659SOL    HW211877   3.304   3.596   5.737
 3660SOL     OW11878   5.137   6.427   2.087
 3660SOL    HW111879   5.116   6.510   2.139
 3660SOL    HW211880   5.096   6.348   2.133
 3661SOL     OW11881   4.554   2.366   6.497
 3661SOL    HW111882   4.634   2.406   6.542
 3661SOL    HW211883   4.583   2.310   6.420
 3662SOL     OW11884   3.333   0.926   3.907
 3662SOL    HW111885   3.236   0.914   3.924
 3662SOL    HW211886   3.349   1.013   3.861
 3663SOL     OW11887   1.600   1.415   0.318
 3663SOL    HW111888   1.621   1.501   0.365
 3663SOL    HW211889   1.635   1.338   0.371
 3664SOL     OW11890   4.930   2.215   1.546
 3664SOL    HW111891   4.946   2.216   1.645
 3664SOL    HW211892   5.009   2.173   1.500
 3665SOL     OW11893   0.619   6.371   5.431
 3665SOL    HW111894   0.711   6.353   5.466
 3665SOL    HW211895   0.625   6.397   5.335
 3666SOL     OW11896   2.070   4.068   3.351
 3666SOL    HW111897   2.102   4.095   3.442
 3666SOL    HW211898   1.972   4.082   3.345
 3667SOL     OW11899   6.514   0.233   0.484
 3667SOL    HW111900   6.549   0.263   0.573
 3667SOL    HW211901   6.590   0.204   0.426
 3668SOL     OW11902   1.413   0.273   1.468
 3668SOL    HW111903   1.351   0.209   1.423
 3668SOL    HW211904   1.466   0.322   1.400
 3669SOL     OW11905   5.978   1.117   4.750
 3669SOL    HW111906   5.985   1.104   4.849
 3669SOL    HW211907   5.942   1.033   4.708
 3670SOL     OW11908   1.961   5.066   0.562
 3670SOL    HW111909   2.049   5.105   0.538
 3670SOL    HW211910   1.959   5.045   0.660
 3671SOL     OW11911   6.013   0.491   3.490
 3671SOL    HW111912   5.994   0.442   3.405
 3671SOL    HW211913   5.944   0.561   3.505
 3672SOL     OW11914   5.803   1.592   1.159
 3672SOL    HW111915   5.879   1.654   1.181
 3672SOL    HW211916   5.716   1.641   1.166
 3673SOL     OW11917   2.998   0.527   5.823
 3673SOL    HW111918   2.945   0.610   5.838
 3673SOL    HW211919   2.938   0.447   5.829
 3674SOL     OW11920   0.363   0.551   5.619
 3674SOL    HW111921   0.447   0.560   5.672
 3674SOL    HW211922   0.286   0.535   5.681
 3675SOL     OW11923   1.902   2.977   4.954
 3675SOL    HW111924   1.862   2.968   5.046
 3675SOL    HW211925   1.829   2.976   4.886
 3676SOL     OW11926   4.414   4.655   4.358
 3676SOL    HW111927   4.325   4.699   4.350
 3676SOL    HW211928   4.416   4.599   4.441
 3677SOL     OW11929   1.063   6.144   3.126
 3677SOL    HW111930   1.103   6.187   3.207
 3677SOL    HW211931   1.110   6.058   3.106
 3678SOL     OW11932   1.001   3.243   4.036
 3678SOL    HW111933   0.957   3.326   4.003
 3678SOL    HW211934   0.940   3.196   4.100
 3679SOL     OW11935   1.135   0.825   2.716
 3679SOL    HW111936   1.063   0.790   2.775
 3679SOL    HW211937   1.109   0.814   2.620
 3680SOL     OW11938   5.935   2.980   3.486
 3680SOL    HW111939   5.844   3.004   3.519
 3680SOL    HW211940   5.975   2.911   3.546
 3681SOL     OW11941   0.272   0.524   5.273
 3681SOL    HW111942   0.359   0.572   5.264
 3681SOL    HW211943   0.288   0.430   5.301
 3682SOL     OW11944   6.508   2.596   6.072
 3682SOL    HW111945   6.419   2.553   6.090
 3682SOL    HW211946   6.569   2.530   6.029
 3683SOL     OW11947   0.038   0.378   4.626
 3683SOL    HW111948   7.006   0.395   4.547
 3683SOL    HW211949   0.108   0.312   4.600
 3684SOL     OW11950   1.606   3.740   0.432
 3684SOL    HW111951   1.556   3.777   0.510
 3684SOL    HW211952   1.646   3.815   0.379
 3685SOL     OW11953   6.508   6.463   6.142
 3685SOL    HW111954   6.453   6.456   6.058
 3685SOL    HW211955   6.605   6.474   6.117
 3686SOL     OW11956   6.451   5.280   3.646
 3686SOL    HW111957   6.477   5.199   3.699
 3686SOL    HW211958   6.512   5.290   3.568
 3687SOL     OW11959   3.197   5.993   5.487
 3687SOL    HW111960   3.280   5.962   5.534
 3687SOL    HW211961   3.119   5.990   5.549
 3688SOL     OW11962   1.510   3.492   6.745
 3688SOL    HW111963   1.429   3.551   6.744
 3688SOL    HW211964   1.512   3.440   6.830
 3689SOL     OW11965   1.411   0.720   5.756
 3689SOL    HW111966   1.448   0.712   5.663
 3689SOL    HW211967   1.485   0.729   5.821
 3690SOL     OW11968   3.927   0.099   6.259
 3690SOL    HW111969   3.956   0.139   6.172
 3690SOL    HW211970   3.960   0.005   6.265
 3691SOL     OW11971   2.180   3.030   0.583
 3691SOL    HW111972   2.131   2.959   0.532
 3691SOL    HW211973   2.137   3.119   0.566
 3692SOL     OW11974   1.133   6.110   5.199
 3692SOL    HW111975   1.086   6.026   5.227
 3692SOL    HW211976   1.066   6.174   5.161
 3693SOL     OW11977   1.913   3.200   2.454
 3693SOL    HW111978   1.886   3.294   2.476
 3693SOL    HW211979   1.989   3.173   2.512
 3694SOL     OW11980   1.182   5.819   2.370
 3694SOL    HW111981   1.209   5.768   2.451
 3694SOL    HW211982   1.209   5.768   2.288
 3695SOL     OW11983   0.240   2.833   2.557
 3695SOL    HW111984   0.324   2.785   2.580
 3695SOL    HW211985   0.189   2.779   2.490
 3696SOL     OW11986   4.311   5.526   4.961
 3696SOL    HW111987   4.229   5.549   5.013
 3696SOL    HW211988   4.353   5.444   5.000
 3697SOL     OW11989   7.022   5.418   3.820
 3697SOL    HW111990   6.953   5.350   3.796
 3697SOL    HW211991   0.085   5.378   3.812
 3698SOL     OW11992   3.630   6.424   4.793
 3698SOL    HW111993   3.626   6.506   4.736
 3698SOL    HW211994   3.695   6.359   4.752
 3699SOL     OW11995   6.395   3.885   2.737
 3699SOL    HW111996   6.296   3.900   2.737
 3699SOL    HW211997   6.440   3.964   2.695
 3700SOL     OW11998   6.501   0.589   4.198
 3700SOL    HW111999   6.413   0.630   4.175
 3700SOL    HW212000   6.571   0.620   4.133
 3701SOL     OW12001   0.647   0.976   3.306
 3701SOL    HW112002   0.637   0.909   3.380
 3701SOL    HW212003   0.600   1.061   3.332
 3702SOL     OW12004   4.092   0.411   2.378
 3702SOL    HW112005   4.131   0.352   2.449
 3702SOL    HW212006   4.038   0.484   2.420
 3703SOL     OW12007   4.344   3.113   6.382
 3703SOL    HW112008   4.398   3.162   6.450
 3703SOL    HW212009   4.269   3.064   6.427
 3704SOL     OW12010   3.113   0.414   1.418
 3704SOL    HW112011   3.146   0.320   1.418
 3704SOL    HW212012   3.096   0.444   1.512
 3705SOL     OW12013   4.836   6.386   4.267
 3705SOL    HW112014   4.883   6.312   4.221
 3705SOL    HW212015   4.893   6.468   4.268
 3706SOL     OW12016   0.856   3.266   4.608
 3706SOL    HW112017   0.773   3.248   4.554
 3706SOL    HW212018   0.923   3.194   4.589
 3707SOL     OW12019   5.615   4.059   5.549
 3707SOL    HW112020   5.624   4.127   5.476
 3707SOL    HW212021   5.644   3.970   5.514
 3708SOL     OW12022   6.000   0.952   6.655
 3708SOL    HW112023   5.989   1.051   6.659
 3708SOL    HW212024   6.053   0.927   6.574
 3709SOL     OW12025   3.662   0.710   0.214
 3709SOL    HW112026   3.587   0.691   0.277
 3709SOL    HW212027   3.716   0.787   0.249
 3710SOL     OW12028   6.591   5.508   0.122
 3710SOL    HW112029   6.667   5.508   0.187
 3710SOL    HW212030   6.572   5.414   0.093
 3711SOL     OW12031   6.932   6.194   1.998
 3711SOL    HW112032   7.007   6.182   1.934
 3711SOL    HW212033   6.967   6.227   2.086
 3712SOL     OW12034   6.901   6.120   6.719
 3712SOL    HW112035   6.930   6.101   6.626
 3712SOL    HW212036   6.899   6.034   6.771
 3713SOL     OW12037   1.597   6.093   4.694
 3713SOL    HW112038   1.578   6.187   4.665
 3713SOL    HW212039   1.568   6.029   4.623
 3714SOL     OW12040   4.715   6.027   4.745
 3714SOL    HW112041   4.738   6.069   4.658
 3714SOL    HW212042   4.616   6.018   4.753
 3715SOL     OW12043   6.064   3.967   4.528
 3715SOL    HW112044   6.014   3.920   4.456
 3715SOL    HW212045   6.158   3.933   4.531
 3716SOL     OW12046   6.125   0.061   5.046
 3716SOL    HW112047   6.172   0.089   4.962
 3716SOL    HW212048   6.188   0.008   5.103
 3717SOL     OW12049   6.242   5.101   6.606
 3717SOL    HW112050   6.225   5.058   6.695
 3717SOL    HW212051   6.169   5.165   6.585
 3718SOL     OW12052   2.405   6.742   5.461
 3718SOL    HW112053   2.449   6.720   5.374
 3718SOL    HW212054   2.390   6.659   5.514
 3719SOL     OW12055   4.953   4.566   0.750
 3719SOL    HW112056   5.052   4.555   0.743
 3719SOL    HW212057   4.923   4.632   0.681
 3720SOL     OW12058   5.372   2.054   5.713
 3720SOL    HW112059   5.370   2.002   5.798
 3720SOL    HW212060   5.466   2.057   5.679
 3721SOL     OW12061   5.202   4.732   0.593
 3721SOL    HW112062   5.248   4.815   0.561
 3721SOL    HW212063   5.208   4.728   0.693
 3722SOL     OW12064   6.979   0.383   2.269
 3722SOL    HW112065   7.025   0.411   2.354
 3722SOL    HW212066   6.928   0.299   2.285
 3723SOL     OW12067   6.805   6.336   1.615
 3723SOL    HW112068   6.760   6.357   1.702
 3723SOL    HW212069   6.768   6.395   1.543
 3724SOL     OW12070   2.462   5.225   6.717
 3724SOL    HW112071   2.440   5.317   6.749
 3724SOL    HW212072   2.385   5.190   6.663
 3725SOL     OW12073   5.358   6.256   0.261
 3725SOL    HW112074   5.297   6.259   0.182
 3725SOL    HW212075   5.304   6.258   0.345
 3726SOL     OW12076   6.453   4.934   1.415
 3726SOL    HW112077   6.396   4.898   1.488
 3726SOL    HW212078   6.429   4.888   1.329
 3727SOL     OW12079   6.986   3.039   5.806
 3727SOL    HW112080   6.958   3.115   5.865
 3727SOL    HW212081   7.022   2.964   5.862
 3728SOL     OW12082   1.743   3.847   0.016
 3728SOL    HW112083   1.749   3.945   0.034
 3728SOL    HW212084   1.710   3.832   6.951
 3729SOL     OW12085   1.157   2.328   3.520
 3729SOL    HW112086   1.237   2.276   3.548
 3729SOL    HW212087   1.184   2.421   3.494
 3730SOL     OW12088   2.819   5.654   6.515
 3730SOL    HW112089   2.762   5.643   6.596
 3730SOL    HW212090   2.915   5.662   6.542
 3731SOL     OW12091   4.437   0.110   0.602
 3731SOL    HW112092   4.409   0.036   0.664
 3731SOL    HW212093   4.530   0.093   0.570
 3732SOL     OW12094   1.529   2.878   0.075
 3732SOL    HW112095   1.448   2.926   0.041
 3732SOL    HW212096   1.582   2.843   7.026
 3733SOL     OW12097   1.456   3.796   1.116
 3733SOL    HW112098   1.512   3.715   1.104
 3733SOL    HW212099   1.475   3.862   1.043
 3734SOL     OW12100   4.176   1.440   1.631
 3734SOL    HW112101   4.173   1.535   1.662
 3734SOL    HW212102   4.159   1.379   1.709
 3735SOL     OW12103   1.600   1.856   3.718
 3735SOL    HW112104   1.647   1.928   3.769
 3735SOL    HW212105   1.631   1.856   3.623
 3736SOL     OW12106   0.124   3.299   0.654
 3736SOL    HW112107   0.034   3.340   0.639
 3736SOL    HW212108   0.113   3.208   0.693
 3737SOL     OW12109   5.522   0.155   3.029
 3737SOL    HW112110   5.485   0.241   3.063
 3737SOL    HW212111   5.448   0.091   3.010
 3738SOL     OW12112   6.711   6.442   3.342
 3738SOL    HW112113   6.718   6.369   3.411
 3738SOL    HW212114   6.646   6.511   3.374
 3739SOL     OW12115   1.880   4.534   2.010
 3739SOL    HW112116   1.836   4.527   1.920
 3739SOL    HW212117   1.977   4.553   1.998
 3740SOL     OW12118   4.482   0.147   0.161
 3740SOL    HW112119   4.409   0.093   0.119
 3740SOL    HW212120   4.551   0.169   0.092
 3741SOL     OW12121   4.529   3.311   1.673
 3741SOL    HW112122   4.604   3.269   1.724
 3741SOL    HW212123   4.446   3.256   1.685
 3742SOL     OW12124   2.724   1.993   5.289
 3742SOL    HW112125   2.662   2.066   5.317
 3742SOL    HW212126   2.815   2.010   5.329
 3743SOL     OW12127   5.365   4.402   1.058
 3743SOL    HW112128   5.428   4.324   1.052
 3743SOL    HW212129   5.415   4.482   1.093
 3744SOL     OW12130   0.985   5.682   3.326
 3744SOL    HW112131   1.024   5.717   3.411
 3744SOL    HW212132   0.887   5.666   3.339
 3745SOL     OW12133   3.508   5.462   2.299
 3745SOL    HW112134   3.416   5.489   2.328
 3745SOL    HW212135   3.514   5.466   2.199
 3746SOL     OW12136   4.466   1.345   2.204
 3746SOL    HW112137   4.506   1.301   2.123
 3746SOL    HW212138   4.374   1.379   2.182
 3747SOL     OW12139   3.575   7.026   6.045
 3747SOL    HW112140   3.559   0.046   6.131
 3747SOL    HW212141   3.578   0.064   5.970
 3748SOL     OW12142   5.433   0.480   1.836
 3748SOL    HW112143   5.438   0.555   1.770
 3748SOL    HW212144   5.338   0.470   1.867
 3749SOL     OW12145   1.382   6.401   3.881
 3749SOL    HW112146   1.415   6.457   3.957
 3749SOL    HW212147   1.327   6.457   3.819
 3750SOL     OW12148   1.981   4.198   0.176
 3750SOL    HW112149   2.062   4.245   0.210
 3750SOL    HW212150   1.993   4.099   0.184
 3751SOL     OW12151   6.477   3.551   2.428
 3751SOL    HW112152   6.496   3.497   2.345
 3751SOL    HW212153   6.448   3.643   2.402
 3752SOL     OW12154   4.842   0.779   5.308
 3752SOL    HW112155   4.839   0.814   5.214
 3752SOL    HW212156   4.825   0.680   5.307
 3753SOL     OW12157   6.061   0.389   4.766
 3753SOL    HW112158   6.006   0.307   4.777
 3753SOL    HW212159   6.026   0.461   4.826
 3754SOL     OW12160   2.343   1.095   2.027
 3754SOL    HW112161   2.264   1.063   1.976
 3754SOL    HW212162   2.426   1.051   1.992
 3755SOL     OW12163   3.179   5.709   4.485
 3755SOL    HW112164   3.082   5.730   4.502
 3755SOL    HW212165   3.185   5.623   4.435
 3756SOL     OW12166   3.011   5.449   6.646
 3756SOL    HW112167   2.940   5.403   6.592
 3756SOL    HW212168   3.049   5.525   6.593
 3757SOL     OW12169   6.484   5.130   1.757
 3757SOL    HW112170   6.433   5.171   1.832
 3757SOL    HW212171   6.503   5.034   1.778
 3758SOL     OW12172   2.029   1.351   4.711
 3758SOL    HW112173   2.001   1.266   4.666
 3758SOL    HW212174   2.125   1.369   4.692
 3759SOL     OW12175   4.157   1.022   5.220
 3759SOL    HW112176   4.254   1.000   5.232
 3759SOL    HW212177   4.121   0.969   5.144
 3760SOL     OW12178   6.985   6.865   3.423
 3760SOL    HW112179   0.043   6.915   3.419
 3760SOL    HW212180   6.930   6.898   3.500
 3761SOL     OW12181   6.392   1.175   4.313
 3761SOL    HW112182   6.340   1.158   4.397
 3761SOL    HW212183   6.490   1.161   4.331
 3762SOL     OW12184   1.400   3.929   2.500
 3762SOL    HW112185   1.346   3.849   2.473
 3762SOL    HW212186   1.345   3.987   2.560
 3763SOL     OW12187   6.107   3.778   0.420
 3763SOL    HW112188   6.205   3.789   0.439
 3763SOL    HW212189   6.096   3.722   0.339
 3764SOL     OW12190   1.976   0.748   3.192
 3764SOL    HW112191   1.908   0.747   3.118
 3764SOL    HW212192   2.010   0.656   3.207
 3765SOL     OW12193   5.907   1.675   1.493
 3765SOL    HW112194   5.906   1.576   1.507
 3765SOL    HW212195   6.002   1.705   1.482
 3766SOL     OW12196   2.083   2.162   4.004
 3766SOL    HW112197   2.126   2.088   4.057
 3766SOL    HW212198   2.081   2.137   3.907
 3767SOL     OW12199   3.415   4.249   6.098
 3767SOL    HW112200   3.444   4.270   6.191
 3767SOL    HW212201   3.315   4.247   6.094
 3768SOL     OW12202   0.966   0.592   4.486
 3768SOL    HW112203   0.991   0.684   4.456
 3768SOL    HW212204   1.038   0.527   4.461
 3769SOL     OW12205   5.571   5.581   5.355
 3769SOL    HW112206   5.622   5.647   5.301
 3769SOL    HW212207   5.473   5.587   5.332
 3770SOL     OW12208   1.332   1.076   6.977
 3770SOL    HW112209   1.326   1.176   6.979
 3770SOL    HW212210   1.244   1.038   6.950
 3771SOL     OW12211   5.810   4.624   0.148
 3771SOL    HW112212   5.889   4.650   0.204
 3771SOL    HW212213   5.741   4.696   0.152
 3772SOL     OW12214   1.251   6.896   0.126
 3772SOL    HW112215   1.249   6.886   0.026
 3772SOL    HW212216   1.160   6.921   0.158
 3773SOL     OW12217   5.254   3.928   5.823
 3773SOL    HW112218   5.272   3.981   5.740
 3773SOL    HW212219   5.159   3.941   5.850
 3774SOL     OW12220   5.747   4.749   1.509
 3774SOL    HW112221   5.654   4.773   1.484
 3774SOL    HW212222   5.757   4.749   1.608
 3775SOL     OW12223   3.904   4.842   3.498
 3775SOL    HW112224   3.834   4.838   3.428
 3775SOL    HW212225   3.994   4.828   3.457
 3776SOL     OW12226   3.319   2.929   6.139
 3776SOL    HW112227   3.379   2.934   6.219
 3776SOL    HW212228   3.334   3.010   6.082
 3777SOL     OW12229   2.523   6.141   3.088
 3777SOL    HW112230   2.484   6.206   3.022
 3777SOL    HW212231   2.457   6.126   3.162
 3778SOL     OW12232   1.751   6.266   4.271
 3778SOL    HW112233   1.682   6.230   4.209
 3778SOL    HW212234   1.720   6.352   4.310
 3779SOL     OW12235   0.153   4.888   0.568
 3779SOL    HW112236   0.225   4.943   0.611
 3779SOL    HW212237   0.103   4.944   0.503
 3780SOL     OW12238   0.458   2.892   3.141
 3780SOL    HW112239   0.399   2.834   3.197
 3780SOL    HW212240   0.543   2.911   3.190
 3781SOL     OW12241   0.694   6.511   4.704
 3781SOL    HW112242   0.768   6.566   4.666
 3781SOL    HW212243   0.606   6.545   4.671
 3782SOL     OW12244   3.591   6.468   2.538
 3782SOL    HW112245   3.544   6.551   2.508
 3782SOL    HW212246   3.541   6.387   2.506
 3783SOL     OW12247   5.595   4.923   5.166
 3783SOL    HW112248   5.598   4.850   5.098
 3783SOL    HW212249   5.554   5.005   5.125
 3784SOL     OW12250   5.433   2.616   2.172
 3784SOL    HW112251   5.446   2.539   2.234
 3784SOL    HW212252   5.379   2.586   2.093
 3785SOL     OW12253   0.954   2.952   5.139
 3785SOL    HW112254   0.954   2.890   5.218
 3785SOL    HW212255   0.926   3.043   5.170
 3786SOL     OW12256   2.002   2.996   3.092
 3786SOL    HW112257   1.907   3.024   3.100
 3786SOL    HW212258   2.058   3.074   3.065
 3787SOL     OW12259   4.852   0.174   2.954
 3787SOL    HW112260   4.940   0.191   2.998
 3787SOL    HW212261   4.785   0.241   2.985
 3788SOL     OW12262   6.223   4.680   5.279
 3788SOL    HW112263   6.202   4.691   5.376
 3788SOL    HW212264   6.292   4.609   5.268
 3789SOL     OW12265   6.647   3.556   2.945
 3789SOL    HW112266   6.584   3.483   2.971
 3789SOL    HW212267   6.657   3.558   2.846
 3790SOL     OW12268   1.033   5.608   6.658
 3790SOL    HW112269   0.958   5.673   6.664
 3790SOL    HW212270   1.116   5.649   6.697
 3791SOL     OW12271   5.177   2.009   6.828
 3791SOL    HW112272   5.168   2.106   6.805
 3791SOL    HW212273   5.146   1.954   6.750
 3792SOL     OW12274   1.345   1.251   4.252
 3792SOL    HW112275   1.355   1.301   4.337
 3792SOL    HW212276   1.249   1.256   4.222
 3793SOL     OW12277   5.487   6.287   1.252
 3793SOL    HW112278   5.506   6.299   1.155
 3793SOL    HW212279   5.485   6.376   1.297
 3794SOL     OW12280   2.435   2.958   1.414
 3794SOL    HW112281   2.513   2.946   1.476
 3794SOL    HW212282   2.395   2.868   1.394
 3795SOL     OW12283   3.115   5.367   1.023
 3795SOL    HW112284   3.054   5.431   1.070
 3795SOL    HW212285   3.210   5.397   1.035
 3796SOL     OW12286   4.341   1.951   1.311
 3796SOL    HW112287   4.297   1.987   1.393
 3796SOL    HW212288   4.410   2.016   1.278
 3797SOL     OW12289   1.197   3.882   3.468
 3797SOL    HW112290   1.280   3.849   3.513
 3797SOL    HW212291   1.157   3.957   3.521
 3798SOL     OW12292   2.901   6.630   2.352
 3798SOL    HW112293   2.989   6.654   2.393
 3798SOL    HW212294   2.844   6.585   2.420
 3799SOL     OW12295   0.099   2.545   3.930
 3799SOL    HW112296   0.013   2.495   3.932
 3799SOL    HW212297   0.088   2.633   3.977
 3800SOL     OW12298   5.055   1.842   3.603
 3800SOL    HW112299   5.152   1.863   3.593
 3800SOL    HW212300   5.036   1.752   3.561
 3801SOL     OW12301   5.285   0.062   1.844
 3801SOL    HW112302   5.261   6.996   1.819
 3801SOL    HW212303   5.381   0.066   1.871
 3802SOL     OW12304   0.377   1.770   2.712
 3802SOL    HW112305   0.283   1.758   2.744
 3802SOL    HW212306   0.426   1.831   2.774
 3803SOL     OW12307   4.027   3.705   3.924
 3803SOL    HW112308   4.009   3.732   3.829
 3803SOL    HW212309   4.063   3.612   3.925
 3804SOL     OW12310   3.100   1.769   3.950
 3804SOL    HW112311   3.181   1.727   3.908
 3804SOL    HW212312   3.116   1.784   4.047
 3805SOL     OW12313   1.871   2.602   1.573
 3805SOL    HW112314   1.914   2.686   1.539
 3805SOL    HW212315   1.942   2.540   1.604
 3806SOL     OW12316   3.886   3.521   6.539
 3806SOL    HW112317   3.976   3.499   6.576
 3806SOL    HW212318   3.831   3.567   6.608
 3807SOL     OW12319   1.716   4.413   4.787
 3807SOL    HW112320   1.769   4.329   4.791
 3807SOL    HW212321   1.738   4.462   4.702
 3808SOL     OW12322   4.783   0.571   6.188
 3808SOL    HW112323   4.799   0.495   6.252
 3808SOL    HW212324   4.696   0.615   6.209
 3809SOL     OW12325   5.853   1.862   2.217
 3809SOL    HW112326   5.854   1.784   2.155
 3809SOL    HW212327   5.923   1.927   2.189
 3810SOL     OW12328   0.072   2.457   3.333
 3810SOL    HW112329   0.039   2.363   3.333
 3810SOL    HW212330   0.142   2.468   3.404
 3811SOL     OW12331   0.217   6.116   4.235
 3811SOL    HW112332   0.277   6.096   4.312
 3811SOL    HW212333   0.238   6.055   4.159
 3812SOL     OW12334   3.070   5.283   6.205
 3812SOL    HW112335   3.009   5.253   6.131
 3812SOL    HW212336   3.119   5.365   6.176
 3813SOL     OW12337   5.485   3.993   0.761
 3813SOL    HW112338   5.490   3.966   0.664
 3813SOL    HW212339   5.557   4.059   0.781
 3814SOL     OW12340   0.062   0.069   3.841
 3814SOL    HW112341   0.076   0.003   3.914
 3814SOL    HW212342   0.150   0.096   3.803
 3815SOL     OW12343   4.474   2.666   0.927
 3815SOL    HW112344   4.437   2.664   1.020
 3815SOL    HW212345   4.437   2.746   0.878
 3816SOL     OW12346   0.965   5.376   4.992
 3816SOL    HW112347   0.995   5.285   5.020
 3816SOL    HW212348   0.876   5.370   4.947
 3817SOL     OW12349   4.804   3.197   1.763
 3817SOL    HW112350   4.810   3.145   1.678
 3817SOL    HW212351   4.758   3.143   1.833
 3818SOL     OW12352   0.098   0.822   1.082
 3818SOL    HW112353   0.039   0.755   1.126
 3818SOL    HW212354   0.192   0.788   1.080
 3819SOL     OW12355   6.338   4.173   2.452
 3819SOL    HW112356   6.308   4.268   2.466
 3819SOL    HW212357   6.266   4.121   2.407
 3820SOL     OW12358   5.863   6.386   3.596
 3820SOL    HW112359   5.888   6.427   3.508
 3820SOL    HW212360   5.906   6.436   3.671
 3821SOL     OW12361   1.101   0.631   1.070
 3821SOL    HW112362   1.054   0.712   1.033
 3821SOL    HW212363   1.156   0.589   0.997
 3822SOL     OW12364   2.550   0.356   6.227
 3822SOL    HW112365   2.589   0.265   6.240
 3822SOL    HW212366   2.625   0.422   6.216
 3823SOL     OW12367   4.594   4.359   6.410
 3823SOL    HW112368   4.577   4.457   6.410
 3823SOL    HW212369   4.509   4.309   6.397
 3824SOL     OW12370   0.557   2.478   1.099
 3824SOL    HW112371   0.617   2.527   1.036
 3824SOL    HW212372   0.581   2.381   1.100
 3825SOL     OW12373   0.742   4.049   0.960
 3825SOL    HW112374   0.799   3.992   1.018
 3825SOL    HW212375   0.658   3.999   0.938
 3826SOL     OW12376   6.834   3.517   1.635
 3826SOL    HW112377   6.923   3.532   1.592
 3826SOL    HW212378   6.800   3.426   1.610
 3827SOL     OW12379   0.398   0.334   1.271
 3827SOL    HW112380   0.488   0.301   1.302
 3827SOL    HW212381   0.390   0.432   1.292
 3828SOL     OW12382   3.657   3.792   4.681
 3828SOL    HW112383   3.740   3.747   4.648
 3828SOL    HW212384   3.678   3.841   4.766
 3829SOL     OW12385   0.517   5.132   1.924
 3829SOL    HW112386   0.606   5.095   1.950
 3829SOL    HW212387   0.476   5.178   2.003
 3830SOL     OW12388   0.515   1.342   5.590
 3830SOL    HW112389   0.536   1.380   5.500
 3830SOL    HW212390   0.425   1.374   5.619
 3831SOL     OW12391   4.280   2.113   2.617
 3831SOL    HW112392   4.368   2.077   2.588
 3831SOL    HW212393   4.241   2.170   2.545
 3832SOL     OW12394   6.865   0.516   2.806
 3832SOL    HW112395   6.943   0.459   2.778
 3832SOL    HW212396   6.816   0.472   2.881
 3833SOL     OW12397   0.930   6.677   6.440
 3833SOL    HW112398   0.978   6.627   6.512
 3833SOL    HW212399   0.997   6.713   6.374
 3834SOL     OW12400   3.953   4.435   1.158
 3834SOL    HW112401   3.899   4.358   1.123
 3834SOL    HW212402   3.891   4.507   1.188
 3835SOL     OW12403   4.006   5.773   5.232
 3835SOL    HW112404   4.072   5.707   5.195
 3835SOL    HW212405   3.925   5.775   5.174
 3836SOL     OW12406   0.248   5.299   5.917
 3836SOL    HW112407   0.170   5.242   5.891
 3836SOL    HW212408   0.214   5.382   5.963
 3837SOL     OW12409   4.613   5.081   5.436
 3837SOL    HW112410   4.711   5.092   5.415
 3837SOL    HW212411   4.577   5.004   5.383
 3838SOL     OW12412   1.560   2.566   3.206
 3838SOL    HW112413   1.582   2.532   3.297
 3838SOL    HW212414   1.606   2.653   3.190
 3839SOL     OW12415   4.657   1.238   2.622
 3839SOL    HW112416   4.589   1.172   2.589
 3839SOL    HW212417   4.744   1.192   2.637
 3840SOL     OW12418   3.119   2.063   6.519
 3840SOL    HW112419   3.040   2.110   6.480
 3840SOL    HW212420   3.179   2.030   6.446
 3841SOL     OW12421   0.796   3.870   4.616
 3841SOL    HW112422   0.736   3.842   4.541
 3841SOL    HW212423   0.863   3.936   4.582
 3842SOL     OW12424   2.542   2.566   3.936
 3842SOL    HW112425   2.446   2.540   3.923
 3842SOL    HW212426   2.562   2.568   4.034
 3843SOL     OW12427   5.117   3.022   1.617
 3843SOL    HW112428   5.130   3.121   1.621
 3843SOL    HW212429   5.083   2.989   1.705
 3844SOL     OW12430   1.465   3.644   6.378
 3844SOL    HW112431   1.446   3.548   6.400
 3844SOL    HW212432   1.385   3.683   6.331
 3845SOL     OW12433   2.801   5.463   6.006
 3845SOL    HW112434   2.877   5.504   5.956
 3845SOL    HW212435   2.795   5.503   6.097
 3846SOL     OW12436   0.905   3.812   4.221
 3846SOL    HW112437   0.946   3.902   4.206
 3846SOL    HW212438   0.928   3.779   4.313
 3847SOL     OW12439   5.191   2.782   4.353
 3847SOL    HW112440   5.113   2.819   4.301
 3847SOL    HW212441   5.263   2.754   4.290
 3848SOL     OW12442   4.859   4.048   2.406
 3848SOL    HW112443   4.854   4.017   2.311
 3848SOL    HW212444   4.911   3.982   2.460
 3849SOL     OW12445   0.950   0.826   5.981
 3849SOL    HW112446   0.867   0.826   6.037
 3849SOL    HW212447   0.937   0.889   5.903
 3850SOL     OW12448   2.763   3.458   1.907
 3850SOL    HW112449   2.666   3.463   1.884
 3850SOL    HW212450   2.809   3.396   1.843
 3851SOL     OW12451   6.645   4.674   3.255
 3851SOL    HW112452   6.608   4.663   3.162
 3851SOL    HW212453   6.612   4.760   3.293
 3852SOL     OW12454   3.216   5.856   3.613
 3852SOL    HW112455   3.270   5.919   3.668
 3852SOL    HW212456   3.119   5.867   3.634
 3853SOL     OW12457   1.119   3.267   3.408
 3853SOL    HW112458   1.046   3.204   3.435
 3853SOL    HW212459   1.187   3.218   3.354
 3854SOL     OW12460   1.233   2.642   2.545
 3854SOL    HW112461   1.250   2.603   2.455
 3854SOL    HW212462   1.320   2.674   2.584
 3855SOL     OW12463   4.528   6.191   6.687
 3855SOL    HW112464   4.497   6.145   6.604
 3855SOL    HW212465   4.450   6.209   6.747
 3856SOL     OW12466   0.699   1.165   6.298
 3856SOL    HW112467   0.737   1.095   6.357
 3856SOL    HW212468   0.654   1.235   6.353
 3857SOL     OW12469   0.861   6.473   0.033
 3857SOL    HW112470   0.771   6.516   0.037
 3857SOL    HW212471   0.852   6.375   0.050
 3858SOL     OW12472   3.317   1.310   6.061
 3858SOL    HW112473   3.327   1.409   6.049
 3858SOL    HW212474   3.395   1.264   6.019
 3859SOL     OW12475   6.232   1.083   1.752
 3859SOL    HW112476   6.195   1.024   1.681
 3859SOL    HW212477   6.329   1.062   1.766
 3860SOL     OW12478   1.885   1.175   4.513
 3860SOL    HW112479   1.817   1.244   4.537
 3860SOL    HW212480   1.845   1.084   4.523
 3861SOL     OW12481   4.622   5.216   3.969
 3861SOL    HW112482   4.685   5.292   3.986
 3861SOL    HW212483   4.557   5.209   4.045
 3862SOL     OW12484   0.522   0.836   4.588
 3862SOL    HW112485   0.423   0.830   4.602
 3862SOL    HW212486   0.564   0.875   4.670
 3863SOL     OW12487   6.267   2.099   6.924
 3863SOL    HW112488   6.217   2.148   6.995
 3863SOL    HW212489   6.328   2.032   6.966
 3864SOL     OW12490   2.168   0.764   5.380
 3864SOL    HW112491   2.258   0.809   5.384
 3864SOL    HW212492   2.167   0.687   5.443
 3865SOL     OW12493   4.313   0.867   1.133
 3865SOL    HW112494   4.215   0.888   1.135
 3865SOL    HW212495   4.355   0.893   1.220
 3866SOL     OW12496   3.891   0.341   0.474
 3866SOL    HW112497   3.940   0.309   0.555
 3866SOL    HW212498   3.824   0.411   0.500
 3867SOL     OW12499   0.727   4.655   3.626
 3867SOL    HW112500   0.632   4.665   3.656
 3867SOL    HW212501   0.784   4.723   3.672
 3868SOL     OW12502   3.329   0.306   0.395
 3868SOL    HW112503   3.409   0.254   0.426
 3868SOL    HW212504   3.335   0.321   0.296
 3869SOL     OW12505   6.509   3.040   4.276
 3869SOL    HW112506   6.571   3.101   4.226
 3869SOL    HW212507   6.528   3.046   4.374
 3870SOL     OW12508   6.993   6.517   0.858
 3870SOL    HW112509   6.939   6.594   0.822
 3870SOL    HW212510   0.062   6.534   0.840
 3871SOL     OW12511   3.503   0.693   3.322
 3871SOL    HW112512   3.550   0.770   3.279
 3871SOL    HW212513   3.432   0.659   3.260
 3872SOL     OW12514   3.155   3.013   4.772
 3872SOL    HW112515   3.194   2.950   4.839
 3872SOL    HW212516   3.158   2.971   4.682
 3873SOL     OW12517   5.667   3.730   1.044
 3873SOL    HW112518   5.749   3.778   1.013
 3873SOL    HW212519   5.683   3.631   1.040
 3874SOL     OW12520   4.530   6.517   0.306
 3874SOL    HW112521   4.461   6.476   0.246
 3874SOL    HW212522   4.526   6.616   0.299
 3875SOL     OW12523   2.091   3.424   2.924
 3875SOL    HW112524   2.093   3.436   2.825
 3875SOL    HW212525   2.060   3.509   2.968
 3876SOL     OW12526   3.771   5.061   1.124
 3876SOL    HW112527   3.719   5.139   1.088
 3876SOL    HW212528   3.858   5.094   1.161
 3877SOL     OW12529   6.126   2.330   1.478
 3877SOL    HW112530   6.165   2.358   1.390
 3877SOL    HW212531   6.108   2.232   1.476
 3878SOL     OW12532   4.343   6.406   4.776
 3878SOL    HW112533   4.308   6.416   4.683
 3878SOL    HW212534   4.383   6.492   4.806
 3879SOL     OW12535   6.249   5.374   1.180
 3879SOL    HW112536   6.327   5.427   1.214
 3879SOL    HW212537   6.177   5.371   1.250
 3880SOL     OW12538   5.096   4.122   4.598
 3880SOL    HW112539   5.128   4.191   4.663
 3880SOL    HW212540   5.092   4.162   4.506
 3881SOL     OW12541   1.014   3.564   1.499
 3881SOL    HW112542   0.945   3.547   1.428
 3881SOL    HW212543   0.974   3.548   1.589
 3882SOL     OW12544   0.963   1.468   5.898
 3882SOL    HW112545   0.954   1.545   5.960
 3882SOL    HW212546   1.020   1.397   5.940
 3883SOL     OW12547   3.984   1.217   2.113
 3883SOL    HW112548   4.020   1.277   2.185
 3883SOL    HW212549   3.908   1.164   2.150
 3884SOL     OW12550   0.892   6.133   2.078
 3884SOL    HW112551   0.888   6.066   2.003
 3884SOL    HW212552   0.800   6.156   2.107
 3885SOL     OW12553   6.148   5.620   2.658
 3885SOL    HW112554   6.147   5.713   2.695
 3885SOL    HW212555   6.223   5.611   2.594
 3886SOL     OW12556   5.087   5.645   4.885
 3886SOL    HW112557   5.001   5.697   4.873
 3886SOL    HW212558   5.066   5.548   4.896
 3887SOL     OW12559   1.395   0.379   6.730
 3887SOL    HW112560   1.301   0.349   6.749
 3887SOL    HW212561   1.427   0.340   6.644
 3888SOL     OW12562   6.809   0.683   5.436
 3888SOL    HW112563   6.810   0.749   5.360
 3888SOL    HW212564   6.782   0.730   5.520
 3889SOL     OW12565   6.983   3.917   0.063
 3889SOL    HW112566   7.002   3.981   0.137
 3889SOL    HW212567   6.910   3.855   0.090
 3890SOL     OW12568   6.525   4.673   2.999
 3890SOL    HW112569   6.472   4.612   3.058
 3890SOL    HW212570   6.475   4.759   2.987
 3891SOL     OW12571   5.284   3.886   4.208
 3891SOL    HW112572   5.270   3.843   4.297
 3891SOL    HW212573   5.379   3.875   4.179
 3892SOL     OW12574   0.086   1.619   1.467
 3892SOL    HW112575   0.157   1.575   1.524
 3892SOL    HW212576   0.099   1.592   1.372
 3893SOL     OW12577   4.377   4.286   0.251
 3893SOL    HW112578   4.423   4.238   0.325
 3893SOL    HW212579   4.443   4.338   0.198
 3894SOL     OW12580   4.032   1.111   0.576
 3894SOL    HW112581   4.082   1.100   0.491
 3894SOL    HW212582   4.091   1.150   0.646
 3895SOL     OW12583   1.916   0.707   5.664
 3895SOL    HW112584   1.844   0.754   5.714
 3895SOL    HW212585   1.924   0.747   5.573
 3896SOL     OW12586   0.113   1.230   5.031
 3896SOL    HW112587   0.068   1.166   4.969
 3896SOL    HW212588   0.188   1.183   5.078
 3897SOL     OW12589   3.526   5.817   2.760
 3897SOL    HW112590   3.430   5.841   2.742
 3897SOL    HW212591   3.550   5.847   2.853
 3898SOL     OW12592   2.139   3.237   5.954
 3898SOL    HW112593   2.174   3.162   5.899
 3898SOL    HW212594   2.212   3.270   6.015
 3899SOL     OW12595   4.563   6.480   5.490
 3899SOL    HW112596   4.592   6.543   5.418
 3899SOL    HW212597   4.634   6.475   5.560
 3900SOL     OW12598   4.707   2.794   3.739
 3900SOL    HW112599   4.609   2.778   3.731
 3900SOL    HW212600   4.730   2.819   3.833
 3901SOL     OW12601   2.637   0.213   5.299
 3901SOL    HW112602   2.587   0.274   5.360
 3901SOL    HW212603   2.713   0.171   5.349
 3902SOL     OW12604   5.822   3.091   1.545
 3902SOL    HW112605   5.815   3.175   1.598
 3902SOL    HW212606   5.798   3.013   1.603
 3903SOL     OW12607   3.924   6.311   6.087
 3903SOL    HW112608   3.933   6.298   6.186
 3903SOL    HW212609   3.869   6.392   6.068
 3904SOL     OW12610   2.860   1.504   5.466
 3904SOL    HW112611   2.765   1.532   5.476
 3904SOL    HW212612   2.877   1.475   5.372
 3905SOL     OW12613   0.558   0.009   6.950
 3905SOL    HW112614   0.614   6.955   6.951
 3905SOL    HW212615   0.614   0.088   6.976
 3906SOL     OW12616   5.754   6.092   5.792
 3906SOL    HW112617   5.746   6.164   5.723
 3906SOL    HW212618   5.713   6.008   5.757
 3907SOL     OW12619   5.792   0.918   3.597
 3907SOL    HW112620   5.804   0.832   3.548
 3907SOL    HW212621   5.805   0.903   3.695
 3908SOL     OW12622   1.342   2.502   0.544
 3908SOL    HW112623   1.411   2.437   0.511
 3908SOL    HW212624   1.292   2.540   0.466
 3909SOL     OW12625   6.817   5.885   5.465
 3909SOL    HW112626   6.731   5.833   5.468
 3909SOL    HW212627   6.892   5.827   5.497
 3910SOL     OW12628   3.502   3.195   2.568
 3910SOL    HW112629   3.473   3.107   2.606
 3910SOL    HW212630   3.551   3.179   2.482
 3911SOL     OW12631   4.692   1.757   6.382
 3911SOL    HW112632   4.743   1.725   6.302
 3911SOL    HW212633   4.639   1.681   6.420
 3912SOL     OW12634   4.275   0.567   5.246
 3912SOL    HW112635   4.229   0.582   5.334
 3912SOL    HW212636   4.346   0.637   5.234
 3913SOL     OW12637   1.897   0.136   6.260
 3913SOL    HW112638   1.901   0.190   6.343
 3913SOL    HW212639   1.942   0.048   6.275
 3914SOL     OW12640   3.102   0.684   0.942
 3914SOL    HW112641   3.098   0.769   0.995
 3914SOL    HW212642   3.126   0.608   1.004
 3915SOL     OW12643   3.896   5.050   2.233
 3915SOL    HW112644   3.845   4.965   2.251
 3915SOL    HW212645   3.833   5.121   2.202
 3916SOL     OW12646   1.455   6.600   4.096
 3916SOL    HW112647   1.493   6.679   4.145
 3916SOL    HW212648   1.417   6.535   4.161
 3917SOL     OW12649   6.297   5.675   0.095
 3917SOL    HW112650   6.342   5.692   0.183
 3917SOL    HW212651   6.363   5.641   0.029
 3918SOL     OW12652   4.571   6.523   1.795
 3918SOL    HW112653   4.549   6.613   1.833
 3918SOL    HW212654   4.515   6.507   1.713
 3919SOL     OW12655   2.299   6.560   6.197
 3919SOL    HW112656   2.261   6.643   6.239
 3919SOL    HW212657   2.235   6.525   6.129
 3920SOL     OW12658   3.361   2.762   0.836
 3920SOL    HW112659   3.319   2.817   0.907
 3920SOL    HW212660   3.453   2.735   0.865
 3921SOL     OW12661   0.300   3.166   1.517
 3921SOL    HW112662   0.327   3.089   1.576
 3921SOL    HW212663   0.350   3.160   1.430
 3922SOL     OW12664   5.869   3.685   1.783
 3922SOL    HW112665   5.855   3.666   1.686
 3922SOL    HW212666   5.835   3.776   1.805
 3923SOL     OW12667   6.502   1.756   6.757
 3923SOL    HW112668   6.586   1.720   6.798
 3923SOL    HW212669   6.524   1.837   6.703
 3924SOL     OW12670   0.203   4.641   3.579
 3924SOL    HW112671   0.271   4.612   3.511
 3924SOL    HW212672   0.114   4.654   3.534
 3925SOL     OW12673   2.926   5.160   0.915
 3925SOL    HW112674   2.985   5.082   0.935
 3925SOL    HW212675   2.983   5.242   0.902
 3926SOL     OW12676   6.874   5.835   3.234
 3926SOL    HW112677   6.896   5.758   3.295
 3926SOL    HW212678   6.878   5.804   3.139
 3927SOL     OW12679   6.425   2.958   3.700
 3927SOL    HW112680   6.427   3.019   3.620
 3927SOL    HW212681   6.479   3.000   3.774
 3928SOL     OW12682   3.587   6.197   5.629
 3928SOL    HW112683   3.617   6.193   5.724
 3928SOL    HW212684   3.490   6.220   5.625
 3929SOL     OW12685   0.100   1.187   5.557
 3929SOL    HW112686   0.153   1.102   5.566
 3929SOL    HW212687   0.065   1.196   5.464
 3930SOL     OW12688   2.462   1.602   3.466
 3930SOL    HW112689   2.418   1.585   3.554
 3930SOL    HW212690   2.559   1.582   3.473
 3931SOL     OW12691   1.736   1.385   1.853
 3931SOL    HW112692   1.708   1.458   1.915
 3931SOL    HW212693   1.819   1.341   1.889
 3932SOL     OW12694   1.689   4.211   2.934
 3932SOL    HW112695   1.610   4.180   2.882
 3932SOL    HW212696   1.725   4.135   2.989
 3933SOL     OW12697   1.919   6.317   0.317
 3933SOL    HW112698   1.870   6.371   0.386
 3933SOL    HW212699   1.912   6.220   0.339
 3934SOL     OW12700   6.721   1.286   0.618
 3934SOL    HW112701   6.820   1.289   0.627
 3934SOL    HW212702   6.696   1.234   0.536
 3935SOL     OW12703   2.929   6.876   6.481
 3935SOL    HW112704   3.028   6.883   6.467
 3935SOL    HW212705   2.910   6.831   6.569
 3936SOL     OW12706   0.226   5.094   5.555
 3936SOL    HW112707   0.302   5.076   5.492
 3936SOL    HW212708   0.263   5.135   5.640
 3937SOL     OW12709   6.795   1.066   2.901
 3937SOL    HW112710   6.880   1.020   2.928
 3937SOL    HW212711   6.757   1.020   2.820
 3938SOL     OW12712   0.171   1.246   4.245
 3938SOL    HW112713   0.271   1.248   4.236
 3938SOL    HW212714   0.141   1.152   4.262
 3939SOL     OW12715   2.216   1.786   2.352
 3939SOL    HW112716   2.271   1.783   2.268
 3939SOL    HW212717   2.164   1.871   2.354
 3940SOL     OW12718   4.488   5.191   1.900
 3940SOL    HW112719   4.550   5.250   1.951
 3940SOL    HW212720   4.461   5.236   1.815
 3941SOL     OW12721   4.449   2.781   6.372
 3941SOL    HW112722   4.518   2.795   6.301
 3941SOL    HW212723   4.417   2.686   6.368
 3942SOL     OW12724   0.392   0.433   6.981
 3942SOL    HW112725   0.360   0.351   6.934
 3942SOL    HW212726   0.315   0.494   6.998
 3943SOL     OW12727   6.739   3.734   3.104
 3943SOL    HW112728   6.769   3.814   3.052
 3943SOL    HW212729   6.693   3.670   3.043
 3944SOL     OW12730   5.089   3.064   5.031
 3944SOL    HW112731   4.990   3.074   5.030
 3944SOL    HW212732   5.116   3.007   5.109
 3945SOL     OW12733   0.617   1.683   1.229
 3945SOL    HW112734   0.599   1.728   1.316
 3945SOL    HW212735   0.635   1.585   1.245
 3946SOL     OW12736   5.777   5.926   6.213
 3946SOL    HW112737   5.712   5.904   6.285
 3946SOL    HW212738   5.755   6.016   6.175
 3947SOL     OW12739   5.915   5.526   0.859
 3947SOL    HW112740   5.836   5.466   0.869
 3947SOL    HW212741   5.922   5.585   0.940
 3948SOL     OW12742   1.345   5.946   1.761
 3948SOL    HW112743   1.391   5.866   1.798
 3948SOL    HW212744   1.255   5.920   1.726
 3949SOL     OW12745   5.245   0.293   2.974
 3949SOL    HW112746   5.290   0.382   2.988
 3949SOL    HW212747   5.173   0.281   3.042
 3950SOL     OW12748   1.895   4.203   1.583
 3950SOL    HW112749   1.903   4.151   1.498
 3950SOL    HW212750   1.820   4.269   1.574
 3951SOL     OW12751   6.172   6.582   0.476
 3951SOL    HW112752   6.130   6.641   0.546
 3951SOL    HW212753   6.115   6.502   0.461
 3952SOL     OW12754   6.060   3.357   2.495
 3952SOL    HW112755   6.049   3.457   2.500
 3952SOL    HW212756   6.155   3.333   2.513
 3953SOL     OW12757   4.139   4.681   1.714
 3953SOL    HW112758   4.149   4.582   1.703
 3953SOL    HW212759   4.045   4.708   1.693
 3954SOL     OW12760   4.619   4.824   5.293
 3954SOL    HW112761   4.623   4.870   5.205
 3954SOL    HW212762   4.600   4.727   5.279
 3955SOL     OW12763   3.285   5.378   6.453
 3955SOL    HW112764   3.297   5.473   6.423
 3955SOL    HW212765   3.195   5.345   6.424
 3956SOL     OW12766   6.859   0.926   3.782
 3956SOL    HW112767   6.823   0.914   3.874
 3956SOL    HW212768   6.887   0.838   3.744
 3957SOL     OW12769   4.532   6.301   3.864
 3957SOL    HW112770   4.473   6.223   3.885
 3957SOL    HW212771   4.534   6.364   3.941
 3958SOL     OW12772   5.867   0.507   5.100
 3958SOL    HW112773   5.831   0.511   5.007
 3958SOL    HW212774   5.824   0.432   5.150
 3959SOL     OW12775   4.397   6.052   0.892
 3959SOL    HW112776   4.404   5.987   0.816
 3959SOL    HW212777   4.304   6.090   0.894
 3960SOL     OW12778   4.648   1.383   6.741
 3960SOL    HW112779   4.599   1.449   6.798
 3960SOL    HW212780   4.664   1.300   6.794
 3961SOL     OW12781   5.111   2.204   2.815
 3961SOL    HW112782   5.180   2.275   2.800
 3961SOL    HW212783   5.089   2.198   2.912
 3962SOL     OW12784   2.347   4.216   0.120
 3962SOL    HW112785   2.323   4.182   0.029
 3962SOL    HW212786   2.428   4.274   0.114
 3963SOL     OW12787   4.490   4.749   4.092
 3963SOL    HW112788   4.576   4.717   4.054
 3963SOL    HW212789   4.492   4.742   4.191
 3964SOL     OW12790   4.421   5.193   3.482
 3964SOL    HW112791   4.401   5.263   3.551
 3964SOL    HW212792   4.411   5.103   3.523
 3965SOL     OW12793   4.952   2.971   5.956
 3965SOL    HW112794   4.877   3.027   5.920
 3965SOL    HW212795   5.015   3.030   6.007
 3966SOL     OW12796   5.294   5.753   0.064
 3966SOL    HW112797   5.393   5.738   0.053
 3966SOL    HW212798   5.250   5.669   0.093
 3967SOL     OW12799   1.652   3.880   1.940
 3967SOL    HW112800   1.556   3.855   1.951
 3967SOL    HW212801   1.670   3.903   1.844
 3968SOL     OW12802   5.098   0.615   1.313
 3968SOL    HW112803   5.043   0.555   1.256
 3968SOL    HW212804   5.103   0.578   1.406
 3969SOL     OW12805   1.394   4.004   2.176
 3969SOL    HW112806   1.381   3.956   2.089
 3969SOL    HW212807   1.478   3.970   2.220
 3970SOL     OW12808   6.424   6.204   3.341
 3970SOL    HW112809   6.480   6.234   3.264
 3970SOL    HW212810   6.376   6.120   3.316
 3971SOL     OW12811   2.565   4.734   2.271
 3971SOL    HW112812   2.662   4.754   2.256
 3971SOL    HW212813   2.536   4.659   2.212
 3972SOL     OW12814   1.292   4.572   0.726
 3972SOL    HW112815   1.254   4.483   0.698
 3972SOL    HW212816   1.222   4.643   0.713
 3973SOL     OW12817   1.879   5.084   6.767
 3973SOL    HW112818   1.951   5.030   6.810
 3973SOL    HW212819   1.906   5.106   6.673
 3974SOL     OW12820   2.390   1.090   4.228
 3974SOL    HW112821   2.332   1.015   4.196
 3974SOL    HW212822   2.345   1.178   4.211
 3975SOL     OW12823   5.577   0.964   5.142
 3975SOL    HW112824   5.540   0.885   5.191
 3975SOL    HW212825   5.639   1.015   5.202
 3976SOL     OW12826   1.910   6.709   1.756
 3976SOL    HW112827   1.871   6.772   1.690
 3976SOL    HW212828   1.848   6.701   1.835
 3977SOL     OW12829   2.647   3.931   5.525
 3977SOL    HW112830   2.555   3.955   5.495
 3977SOL    HW212831   2.709   4.008   5.510
 3978SOL     OW12832   5.476   5.155   5.070
 3978SOL    HW112833   5.405   5.126   5.006
 3978SOL    HW212834   5.550   5.199   5.019
 3979SOL     OW12835   2.922   6.304   0.998
 3979SOL    HW112836   3.020   6.314   1.016
 3979SOL    HW212837   2.885   6.231   1.055
 3980SOL     OW12838   6.776   5.515   0.361
 3980SOL    HW112839   6.854   5.494   0.302
 3980SOL    HW212840   6.724   5.431   0.378
 3981SOL     OW12841   2.479   0.555   0.129
 3981SOL    HW112842   2.562   0.560   0.073
 3981SOL    HW212843   2.400   0.577   0.072
 3982SOL     OW12844   2.343   0.248   3.906
 3982SOL    HW112845   2.342   0.210   3.813
 3982SOL    HW212846   2.408   0.196   3.962
 3983SOL     OW12847   5.423   4.691   3.968
 3983SOL    HW112848   5.396   4.652   4.056
 3983SOL    HW212849   5.408   4.790   3.970
 3984SOL     OW12850   6.303   1.338   3.084
 3984SOL    HW112851   6.240   1.277   3.131
 3984SOL    HW212852   6.384   1.287   3.055
 3985SOL     OW12853   3.149   4.505   6.608
 3985SOL    HW112854   3.136   4.510   6.509
 3985SOL    HW212855   3.176   4.412   6.633
 3986SOL     OW12856   6.227   2.717   3.143
 3986SOL    HW112857   6.230   2.623   3.177
 3986SOL    HW212858   6.137   2.756   3.162
 3987SOL     OW12859   3.321   5.309   3.996
 3987SOL    HW112860   3.245   5.299   3.931
 3987SOL    HW212861   3.389   5.237   3.979
 3988SOL     OW12862   3.896   4.208   0.064
 3988SOL    HW112863   3.844   4.190   0.148
 3988SOL    HW212864   3.991   4.179   0.076
 3989SOL     OW12865   6.584   2.926   6.951
 3989SOL    HW112866   6.552   2.840   6.989
 3989SOL    HW212867   6.606   2.989   7.025
 3990SOL     OW12868   4.948   2.116   2.621
 3990SOL    HW112869   5.006   2.140   2.543
 3990SOL    HW212870   4.986   2.157   2.704
 3991SOL     OW12871   5.934   0.936   2.762
 3991SOL    HW112872   6.004   0.953   2.693
 3991SOL    HW212873   5.851   0.986   2.737
 3992SOL     OW12874   4.052   2.624   0.545
 3992SOL    HW112875   3.969   2.678   0.549
 3992SOL    HW212876   4.043   2.555   0.473
 3993SOL     OW12877   1.503   1.887   2.628
 3993SOL    HW112878   1.472   1.841   2.711
 3993SOL    HW212879   1.543   1.821   2.566
 3994SOL     OW12880   1.158   0.812   5.642
 3994SOL    HW112881   1.244   0.769   5.669
 3994SOL    HW212882   1.085   0.744   5.642
 3995SOL     OW12883   2.148   3.635   5.753
 3995SOL    HW112884   2.180   3.624   5.659
 3995SOL    HW212885   2.050   3.656   5.752
 3996SOL     OW12886   1.080   0.284   4.302
 3996SOL    HW112887   1.141   0.213   4.267
 3996SOL    HW212888   1.129   0.339   4.370
 3997SOL     OW12889   5.260   1.432   4.522
 3997SOL    HW112890   5.294   1.447   4.614
 3997SOL    HW212891   5.320   1.367   4.474
 3998SOL     OW12892   4.214   1.315   4.229
 3998SOL    HW112893   4.293   1.317   4.290
 3998SOL    HW212894   4.172   1.406   4.226
 3999SOL     OW12895   5.931   3.410   4.164
 3999SOL    HW112896   5.968   3.498   4.191
 3999SOL    HW212897   5.968   3.384   4.075
 4000SOL     OW12898   2.924   5.911   3.322
 4000SOL    HW112899   2.936   5.919   3.421
 4000SOL    HW212900   2.989   5.971   3.276
 4001SOL     OW12901   2.668   2.078   3.615
 4001SOL    HW112902   2.680   2.110   3.521
 4001SOL    HW212903   2.659   1.978   3.615
 4002SOL     OW12904   2.983   3.612   0.468
 4002SOL    HW112905   3.048   3.610   0.392
 4002SOL    HW212906   3.032   3.627   0.554
 4003SOL     OW12907   2.992   6.587   3.698
 4003SOL    HW112908   2.893   6.602   3.698
 4003SOL    HW212909   3.036   6.655   3.640
 4004SOL     OW12910   5.001   1.661   4.654
 4004SOL    HW112911   4.901   1.652   4.650
 4004SOL    HW212912   5.038   1.668   4.562
 4005SOL     OW12913   5.103   5.175   0.534
 4005SOL    HW112914   5.104   5.102   0.466
 4005SOL    HW212915   5.074   5.137   0.622
 4006SOL     OW12916   4.153   4.975   2.609
 4006SOL    HW112917   4.112   5.043   2.670
 4006SOL    HW212918   4.248   5.000   2.590
 4007SOL     OW12919   0.512   1.746   0.735
 4007SOL    HW112920   0.526   1.831   0.785
 4007SOL    HW212921   0.528   1.668   0.796
 4008SOL     OW12922   3.225   2.052   3.910
 4008SOL    HW112923   3.169   1.973   3.933
 4008SOL    HW212924   3.188   2.098   3.829
 4009SOL     OW12925   4.716   3.652   0.944
 4009SOL    HW112926   4.786   3.612   0.886
 4009SOL    HW212927   4.714   3.605   1.033
 4010SOL     OW12928   2.748   3.330   1.473
 4010SOL    HW112929   2.742   3.304   1.377
 4010SOL    HW212930   2.826   3.391   1.487
 4011SOL     OW12931   0.593   1.144   2.034
 4011SOL    HW112932   0.689   1.142   2.007
 4011SOL    HW212933   0.585   1.117   2.130
 4012SOL     OW12934   5.296   5.175   1.678
 4012SOL    HW112935   5.321   5.231   1.599
 4012SOL    HW212936   5.305   5.230   1.762
 4013SOL     OW12937   2.546   1.029   5.165
 4013SOL    HW112938   2.527   1.108   5.222
 4013SOL    HW212939   2.629   1.045   5.112
 4014SOL     OW12940   4.798   6.468   2.138
 4014SOL    HW112941   4.703   6.461   2.108
 4014SOL    HW212942   4.856   6.411   2.080
 4015SOL     OW12943   5.378   4.938   5.992
 4015SOL    HW112944   5.421   5.027   6.008
 4015SOL    HW212945   5.446   4.866   6.001
 4016SOL     OW12946   2.353   6.068   6.466
 4016SOL    HW112947   2.303   6.105   6.544
 4016SOL    HW212948   2.395   5.981   6.491
 4017SOL     OW12949   0.516   5.685   0.444
 4017SOL    HW112950   0.429   5.734   0.447
 4017SOL    HW212951   0.568   5.715   0.365
 4018SOL     OW12952   4.353   6.285   3.061
 4018SOL    HW112953   4.408   6.367   3.079
 4018SOL    HW212954   4.380   6.244   2.974
 4019SOL     OW12955   5.472   3.258   2.784
 4019SOL    HW112956   5.527   3.300   2.712
 4019SOL    HW212957   5.385   3.306   2.792
 4020SOL     OW12958   4.719   1.970   5.522
 4020SOL    HW112959   4.789   1.928   5.580
 4020SOL    HW212960   4.734   2.068   5.519
 4021SOL     OW12961   3.812   4.789   6.155
 4021SOL    HW112962   3.824   4.757   6.249
 4021SOL    HW212963   3.818   4.889   6.153
 4022SOL     OW12964   4.644   0.718   6.757
 4022SOL    HW112965   4.618   0.638   6.810
 4022SOL    HW212966   4.571   0.786   6.761
 4023SOL     OW12967   5.854   2.007   4.405
 4023SOL    HW112968   5.799   2.042   4.329
 4023SOL    HW212969   5.797   1.952   4.466
 4024SOL     OW12970   3.516   6.325   3.662
 4024SOL    HW112971   3.575   6.393   3.619
 4024SOL    HW212972   3.432   6.315   3.609
 4025SOL     OW12973   0.730   5.977   4.209
 4025SOL    HW112974   0.784   5.903   4.168
 4025SOL    HW212975   0.767   6.000   4.299
 4026SOL     OW12976   5.861   5.410   4.335
 4026SOL    HW112977   5.918   5.455   4.404
 4026SOL    HW212978   5.834   5.475   4.265
 4027SOL     OW12979   3.600   4.365   1.737
 4027SOL    HW112980   3.596   4.443   1.800
 4027SOL    HW212981   3.614   4.397   1.644
 4028SOL     OW12982   1.498   2.503   4.146
 4028SOL    HW112983   1.592   2.468   4.151
 4028SOL    HW212984   1.492   2.588   4.199
 4029SOL     OW12985   2.315   4.289   6.120
 4029SOL    HW112986   2.340   4.209   6.176
 4029SOL    HW212987   2.392   4.352   6.116
 4030SOL     OW12988   0.974   2.153   5.564
 4030SOL    HW112989   1.017   2.243   5.567
 4030SOL    HW212990   0.883   2.159   5.605
 4031SOL     OW12991   5.026   5.492   3.869
 4031SOL    HW112992   5.026   5.418   3.802
 4031SOL    HW212993   5.084   5.466   3.947
 4032SOL     OW12994   6.523   6.550   3.769
 4032SOL    HW112995   6.527   6.527   3.672
 4032SOL    HW212996   6.571   6.636   3.785
 4033SOL     OW12997   3.477   3.270   3.576
 4033SOL    HW112998   3.442   3.314   3.659
 4033SOL    HW212999   3.419   3.192   3.553
 4034SOL     OW13000   5.845   1.299   5.154
 4034SOL    HW113001   5.926   1.333   5.202
 4034SOL    HW213002   5.804   1.373   5.101
 4035SOL     OW13003   0.148   3.558   0.725
 4035SOL    HW113004   0.184   3.613   0.649
 4035SOL    HW213005   0.163   3.461   0.706
 4036SOL     OW13006   6.114   6.440   2.435
 4036SOL    HW113007   6.017   6.432   2.457
 4036SOL    HW213008   6.160   6.353   2.455
 4037SOL     OW13009   1.679   2.805   6.890
 4037SOL    HW113010   1.719   2.754   6.813
 4037SOL    HW213011   1.735   2.792   6.971
 4038SOL     OW13012   4.720   4.902   2.104
 4038SOL    HW113013   4.651   4.918   2.034
 4038SOL    HW213014   4.762   4.813   2.089
 4039SOL     OW13015   5.204   5.649   0.629
 4039SOL    HW113016   5.176   5.558   0.660
 4039SOL    HW213017   5.293   5.671   0.669
 4040SOL     OW13018   2.765   6.756   0.413
 4040SOL    HW113019   2.690   6.793   0.357
 4040SOL    HW213020   2.846   6.746   0.355
 4041SOL     OW13021   1.455   5.897   2.605
 4041SOL    HW113022   1.365   5.854   2.605
 4041SOL    HW213023   1.457   5.973   2.540
 4042SOL     OW13024   6.320   5.296   2.275
 4042SOL    HW113025   6.418   5.311   2.289
 4042SOL    HW213026   6.270   5.328   2.356
 4043SOL     OW13027   5.308   1.906   3.571
 4043SOL    HW113028   5.345   1.938   3.484
 4043SOL    HW213029   5.374   1.924   3.644
 4044SOL     OW13030   6.192   0.218   3.965
 4044SOL    HW113031   6.148   0.304   3.989
 4044SOL    HW213032   6.280   0.236   3.922
 4045SOL     OW13033   2.888   4.213   5.850
 4045SOL    HW113034   2.946   4.144   5.892
 4045SOL    HW213035   2.803   4.222   5.901
 4046SOL     OW13036   1.072   1.861   2.343
 4046SOL    HW113037   1.098   1.932   2.409
 4046SOL    HW213038   1.021   1.903   2.268
 4047SOL     OW13039   3.222   3.823   0.860
 4047SOL    HW113040   3.174   3.788   0.940
 4047SOL    HW213041   3.156   3.857   0.794
 4048SOL     OW13042   5.428   0.601   1.583
 4048SOL    HW113043   5.503   0.663   1.606
 4048SOL    HW213044   5.409   0.609   1.485
 4049SOL     OW13045   6.514   6.545   6.402
 4049SOL    HW113046   6.498   6.526   6.305
 4049SOL    HW213047   6.591   6.490   6.434
 4050SOL     OW13048   1.554   6.525   6.976
 4050SOL    HW113049   1.612   6.597   7.014
 4050SOL    HW213050   1.459   6.542   7.002
 4051SOL     OW13051   2.977   4.213   0.701
 4051SOL    HW113052   2.984   4.114   0.698
 4051SOL    HW213053   2.915   4.240   0.775
 4052SOL     OW13054   1.069   0.245   1.049
 4052SOL    HW113055   0.973   0.263   1.068
 4052SOL    HW213056   1.078   0.200   0.960
 4053SOL     OW13057   2.696   4.879   3.682
 4053SOL    HW113058   2.790   4.910   3.692
 4053SOL    HW213059   2.675   4.811   3.752
 4054SOL     OW13060   2.672   2.914   0.505
 4054SOL    HW113061   2.733   2.960   0.440
 4054SOL    HW213062   2.693   2.944   0.598
 4055SOL     OW13063   2.469   3.000   5.979
 4055SOL    HW113064   2.453   3.021   5.883
 4055SOL    HW213065   2.413   3.059   6.037
 4056SOL     OW13066   4.034   3.338   6.883
 4056SOL    HW113067   3.954   3.294   6.924
 4056SOL    HW213068   4.005   3.422   6.837
 4057SOL     OW13069   5.422   3.283   0.616
 4057SOL    HW113070   5.445   3.188   0.592
 4057SOL    HW213071   5.471   3.345   0.555
 4058SOL     OW13072   2.649   1.621   4.431
 4058SOL    HW113073   2.694   1.546   4.383
 4058SOL    HW213074   2.670   1.615   4.529
 4059SOL     OW13075   2.055   2.025   3.528
 4059SOL    HW113076   2.029   2.024   3.625
 4059SOL    HW213077   2.155   2.025   3.520
 4060SOL     OW13078   3.787   5.401   4.232
 4060SOL    HW113079   3.810   5.387   4.328
 4060SOL    HW213080   3.693   5.434   4.225
 4061SOL     OW13081   3.332   4.535   1.662
 4061SOL    HW113082   3.336   4.445   1.706
 4061SOL    HW213083   3.424   4.575   1.661
 4062SOL     OW13084   3.877   1.461   2.649
 4062SOL    HW113085   3.885   1.378   2.705
 4062SOL    HW213086   3.963   1.512   2.654
 4063SOL     OW13087   3.953   6.837   5.702
 4063SOL    HW113088   3.888   6.840   5.626
 4063SOL    HW213089   3.924   6.902   5.773
 4064SOL     OW13090   1.650   0.911   2.756
 4064SOL    HW113091   1.717   0.840   2.737
 4064SOL    HW213092   1.558   0.871   2.757
 4065SOL     OW13093   0.126   6.959   1.214
 4065SOL    HW113094   0.195   6.981   1.283
 4065SOL    HW213095   0.048   7.020   1.223
 4066SOL     OW13096   5.496   4.396   1.344
 4066SOL    HW113097   5.464   4.302   1.338
 4066SOL    HW213098   5.596   4.399   1.343
 4067SOL     OW13099   5.265   1.729   3.245
 4067SOL    HW113100   5.312   1.650   3.207
 4067SOL    HW213101   5.324   1.809   3.240
 4068SOL     OW13102   4.887   0.455   4.815
 4068SOL    HW113103   4.824   0.529   4.840
 4068SOL    HW213104   4.865   0.374   4.869
 4069SOL     OW13105   5.035   4.503   1.093
 4069SOL    HW113106   4.961   4.562   1.060
 4069SOL    HW213107   5.118   4.558   1.105
 4070SOL     OW13108   1.891   3.721   2.583
 4070SOL    HW113109   1.885   3.721   2.683
 4070SOL    HW213110   1.852   3.806   2.547
 4071SOL     OW13111   1.286   0.940   4.973
 4071SOL    HW113112   1.229   0.912   5.050
 4071SOL    HW213113   1.262   0.887   4.892
 4072SOL     OW13114   1.994   6.328   4.148
 4072SOL    HW113115   1.900   6.325   4.184
 4072SOL    HW213116   2.042   6.405   4.190
 4073SOL     OW13117   2.085   5.988   6.285
 4073SOL    HW113118   2.052   6.064   6.341
 4073SOL    HW213119   2.170   5.953   6.324
 4074SOL     OW13120   0.634   1.819   1.780
 4074SOL    HW113121   0.681   1.743   1.735
 4074SOL    HW213122   0.535   1.804   1.774
 4075SOL     OW13123   4.305   1.762   2.243
 4075SOL    HW113124   4.372   1.717   2.303
 4075SOL    HW213125   4.353   1.801   2.164
 4076SOL     OW13126   2.254   3.806   5.290
 4076SOL    HW113127   2.205   3.838   5.371
 4076SOL    HW213128   2.305   3.882   5.250
 4077SOL     OW13129   2.761   6.853   0.703
 4077SOL    HW113130   2.682   6.797   0.727
 4077SOL    HW213131   2.734   6.923   0.636
 4078SOL     OW13132   6.352   4.291   1.880
 4078SOL    HW113133   6.412   4.212   1.867
 4078SOL    HW213134   6.257   4.260   1.880
 4079SOL     OW13135   0.951   1.316   3.497
 4079SOL    HW113136   0.885   1.328   3.423
 4079SOL    HW213137   1.011   1.396   3.501
 4080SOL     OW13138   3.080   3.972   0.661
 4080SOL    HW113139   3.136   4.032   0.605
 4080SOL    HW213140   3.009   3.930   0.605
 4081SOL     OW13141   2.283   1.422   4.619
 4081SOL    HW113142   2.364   1.450   4.670
 4081SOL    HW213143   2.310   1.365   4.541
 4082SOL     OW13144   1.041   2.271   5.881
 4082SOL    HW113145   1.070   2.190   5.830
 4082SOL    HW213146   1.121   2.316   5.920
 4083SOL     OW13147   5.919   4.489   3.112
 4083SOL    HW113148   5.958   4.398   3.121
 4083SOL    HW213149   5.838   4.485   3.053
 4084SOL     OW13150   4.653   2.551   2.936
 4084SOL    HW113151   4.625   2.622   2.870
 4084SOL    HW213152   4.640   2.585   3.029
 4085SOL     OW13153   2.754   5.413   1.521
 4085SOL    HW113154   2.725   5.317   1.516
 4085SOL    HW213155   2.718   5.454   1.604
 4086SOL     OW13156   6.657   5.485   6.600
 4086SOL    HW113157   6.674   5.582   6.617
 4086SOL    HW213158   6.572   5.474   6.549
 4087SOL     OW13159   2.681   0.267   2.644
 4087SOL    HW113160   2.722   0.345   2.691
 4087SOL    HW213161   2.661   0.292   2.549
 4088SOL     OW13162   6.711   1.016   5.486
 4088SOL    HW113163   6.713   0.941   5.553
 4088SOL    HW213164   6.616   1.045   5.472
 4089SOL     OW13165   0.062   5.854   4.328
 4089SOL    HW113166   0.132   5.926   4.325
 4089SOL    HW213167   0.080   5.794   4.407
 4090SOL     OW13168   2.221   6.608   4.600
 4090SOL    HW113169   2.312   6.614   4.640
 4090SOL    HW213170   2.169   6.691   4.623
 4091SOL     OW13171   1.173   4.910   1.056
 4091SOL    HW113172   1.257   4.920   1.110
 4091SOL    HW213173   1.192   4.937   0.962
 4092SOL     OW13174   4.729   2.925   4.784
 4092SOL    HW113175   4.757   2.994   4.717
 4092SOL    HW213176   4.725   2.836   4.740
 4093SOL     OW13177   5.968   5.393   2.115
 4093SOL    HW113178   5.974   5.293   2.124
 4093SOL    HW213179   5.986   5.435   2.204
 4094SOL     OW13180   0.325   4.842   0.086
 4094SOL    HW113181   0.413   4.883   0.110
 4094SOL    HW213182   0.335   4.788   0.002
 4095SOL     OW13183   0.473   3.763   0.124
 4095SOL    HW113184   0.414   3.829   0.076
 4095SOL    HW213185   0.432   3.672   0.120
 4096SOL     OW13186   1.975   1.586   6.425
 4096SOL    HW113187   2.032   1.504   6.430
 4096SOL    HW213188   2.019   1.654   6.366
 4097SOL     OW13189   0.088   4.195   5.106
 4097SOL    HW113190   0.080   4.207   5.008
 4097SOL    HW213191   0.009   4.237   5.152
 4098SOL     OW13192   2.250   4.099   2.233
 4098SOL    HW113193   2.314   4.035   2.191
 4098SOL    HW213194   2.235   4.177   2.171
 4099SOL     OW13195   4.464   4.695   6.730
 4099SOL    HW113196   4.412   4.611   6.747
 4099SOL    HW213197   4.546   4.695   6.788
 4100SOL     OW13198   1.385   1.511   3.772
 4100SOL    HW113199   1.342   1.599   3.752
 4100SOL    HW213200   1.451   1.489   3.700
 4101SOL     OW13201   6.587   0.907   6.661
 4101SOL    HW113202   6.553   0.893   6.568
 4101SOL    HW213203   6.658   0.977   6.660
 4102SOL     OW13204   2.084   0.666   0.139
 4102SOL    HW113205   2.103   0.763   0.154
 4102SOL    HW213206   2.001   0.657   0.083
 4103SOL     OW13207   0.450   6.497   2.104
 4103SOL    HW113208   0.435   6.400   2.082
 4103SOL    HW213209   0.498   6.541   2.029
 4104SOL     OW13210   0.316   6.128   3.020
 4104SOL    HW113211   0.256   6.127   2.940
 4104SOL    HW213212   0.266   6.094   3.099
 4105SOL     OW13213   4.668   1.266   1.505
 4105SOL    HW113214   4.582   1.294   1.548
 4105SOL    HW213215   4.741   1.329   1.532
 4106SOL     OW13216   0.293   2.018   3.964
 4106SOL    HW113217   0.298   1.922   3.991
 4106SOL    HW213218   0.197   2.048   3.966
 4107SOL     OW13219   0.736   6.145   6.329
 4107SOL    HW113220   0.643   6.181   6.332
 4107SOL    HW213221   0.801   6.219   6.345
 4108SOL     OW13222   0.385   4.752   4.265
 4108SOL    HW113223   0.297   4.743   4.312
 4108SOL    HW213224   0.449   4.802   4.323
 4109SOL     OW13225   6.243   5.823   3.030
 4109SOL    HW113226   6.253   5.725   3.016
 4109SOL    HW213227   6.207   5.866   2.947
 4110SOL     OW13228   4.600   2.908   0.077
 4110SOL    HW113229   4.667   2.979   0.055
 4110SOL    HW213230   4.632   2.855   0.156
 4111SOL     OW13231   6.782   5.076   6.096
 4111SOL    HW113232   6.688   5.069   6.064
 4111SOL    HW213233   6.830   5.146   6.042
 4112SOL     OW13234   4.863   6.666   4.965
 4112SOL    HW113235   4.840   6.649   4.869
 4112SOL    HW213236   4.852   6.582   5.018
 4113SOL     OW13237   4.387   4.685   4.805
 4113SOL    HW113238   4.349   4.619   4.871
 4113SOL    HW213239   4.322   4.759   4.791
 4114SOL     OW13240   6.013   1.683   3.439
 4114SOL    HW113241   5.986   1.776   3.467
 4114SOL    HW213242   6.111   1.671   3.454
 4115SOL     OW13243   2.834   5.342   2.802
 4115SOL    HW113244   2.818   5.244   2.817
 4115SOL    HW213245   2.904   5.374   2.866
 4116SOL     OW13246   5.379   2.673   3.247
 4116SOL    HW113247   5.409   2.766   3.228
 4116SOL    HW213248   5.391   2.617   3.166
 4117SOL     OW13249   1.438   2.059   2.437
 4117SOL    HW113250   1.341   2.057   2.460
 4117SOL    HW213251   1.488   1.992   2.493
 4118SOL     OW13252   6.536   6.161   6.595
 4118SOL    HW113253   6.442   6.129   6.593
 4118SOL    HW213254   6.563   6.177   6.690
 4119SOL     OW13255   2.634   0.999   3.209
 4119SOL    HW113256   2.608   0.920   3.153
 4119SOL    HW213257   2.579   1.000   3.293
 4120SOL     OW13258   3.190   1.506   6.432
 4120SOL    HW113259   3.256   1.430   6.428
 4120SOL    HW213260   3.185   1.550   6.342
 4121SOL     OW13261   6.946   6.761   2.799
 4121SOL    HW113262   0.002   6.789   2.846
 4121SOL    HW213263   6.890   6.842   2.780
 4122SOL     OW13264   0.253   5.612   4.534
 4122SOL    HW113265   0.268   5.606   4.436
 4122SOL    HW213266   0.207   5.699   4.556
 4123SOL     OW13267   3.977   5.167   3.527
 4123SOL    HW113268   3.983   5.076   3.568
 4123SOL    HW213269   3.978   5.236   3.599
 4124SOL     OW13270   6.830   6.261   0.834
 4124SOL    HW113271   6.872   6.349   0.855
 4124SOL    HW213272   6.901   6.196   0.804
 4125SOL     OW13273   4.872   2.486   2.614
 4125SOL    HW113274   4.889   2.437   2.529
 4125SOL    HW213275   4.790   2.449   2.658
 4126SOL     OW13276   1.156   2.985   2.053
 4126SOL    HW113277   1.236   2.925   2.058
 4126SOL    HW213278   1.178   3.066   1.999
 4127SOL     OW13279   3.768   2.138   3.882
 4127SOL    HW113280   3.826   2.149   3.963
 4127SOL    HW213281   3.684   2.091   3.907
 4128SOL     OW13282   0.743   2.997   1.837
 4128SOL    HW113283   0.840   3.021   1.834
 4128SOL    HW213284   0.696   3.056   1.903
 4129SOL     OW13285   3.519   2.636   0.559
 4129SOL    HW113286   3.474   2.686   0.485
 4129SOL    HW213287   3.450   2.602   0.623
 4130SOL     OW13288   6.520   2.710   1.410
 4130SOL    HW113289   6.483   2.650   1.481
 4130SOL    HW213290   6.593   2.767   1.448
 4131SOL     OW13291   5.919   0.581   2.629
 4131SOL    HW113292   5.920   0.586   2.728
 4131SOL    HW213293   6.003   0.620   2.592
 4132SOL     OW13294   6.509   4.289   4.671
 4132SOL    HW113295   6.525   4.258   4.765
 4132SOL    HW213296   6.415   4.322   4.663
 4133SOL     OW13297   5.288   6.485   1.622
 4133SOL    HW113298   5.200   6.465   1.579
 4133SOL    HW213299   5.337   6.399   1.639
 4134SOL     OW13300   2.711   3.799   1.314
 4134SOL    HW113301   2.691   3.731   1.384
 4134SOL    HW213302   2.705   3.891   1.353
 4135SOL     OW13303   0.616   2.170   2.186
 4135SOL    HW113304   0.607   2.204   2.280
 4135SOL    HW213305   0.616   2.247   2.123
 4136SOL     OW13306   0.281   4.121   1.118
 4136SOL    HW113307   0.362   4.075   1.154
 4136SOL    HW213308   0.307   4.176   1.039
 4137SOL     OW13309   1.979   2.860   0.485
 4137SOL    HW113310   1.948   2.910   0.404
 4137SOL    HW213311   1.901   2.818   0.531
 4138SOL     OW13312   4.342   5.844   0.706
 4138SOL    HW113313   4.351   5.760   0.654
 4138SOL    HW213314   4.256   5.889   0.681
 4139SOL     OW13315   1.573   1.993   3.023
 4139SOL    HW113316   1.656   2.019   3.072
 4139SOL    HW213317   1.501   2.060   3.040
 4140SOL     OW13318   2.786   2.378   4.072
 4140SOL    HW113319   2.765   2.447   4.004
 4140SOL    HW213320   2.875   2.337   4.053
 4141SOL     OW13321   4.124   0.005   6.581
 4141SOL    HW113322   4.128   6.939   6.547
 4141SOL    HW213323   4.142   0.068   6.506
 4142SOL     OW13324   6.384   3.921   1.998
 4142SOL    HW113325   6.444   3.999   1.980
 4142SOL    HW213326   6.290   3.946   1.977
 4143SOL     OW13327   6.124   3.297   0.734
 4143SOL    HW113328   6.166   3.216   0.693
 4143SOL    HW213329   6.050   3.269   0.795
 4144SOL     OW13330   5.491   1.578   0.994
 4144SOL    HW113331   5.580   1.534   0.979
 4144SOL    HW213332   5.424   1.541   0.930
 4145SOL     OW13333   1.220   6.417   1.000
 4145SOL    HW113334   1.169   6.360   1.065
 4145SOL    HW213335   1.160   6.442   0.923
 4146SOL     OW13336   5.737   6.765   3.903
 4146SOL    HW113337   5.816   6.797   3.851
 4146SOL    HW213338   5.672   6.720   3.842
 4147SOL     OW13339   5.521   4.567   5.815
 4147SOL    HW113340   5.512   4.628   5.894
 4147SOL    HW213341   5.536   4.621   5.732
 4148SOL     OW13342   3.374   6.963   5.497
 4148SOL    HW113343   3.375   6.981   5.596
 4148SOL    HW213344   3.322   6.879   5.480
 4149SOL     OW13345   1.891   2.704   0.912
 4149SOL    HW113346   1.965   2.640   0.896
 4149SOL    HW213347   1.918   2.795   0.881
 4150SOL     OW13348   6.225   3.086   5.872
 4150SOL    HW113349   6.220   3.029   5.954
 4150SOL    HW213350   6.184   3.176   5.891
 4151SOL     OW13351   2.476   0.087   4.606
 4151SOL    HW113352   2.383   0.099   4.640
 4151SOL    HW213353   2.530   0.168   4.627
 4152SOL     OW13354   3.576   5.513   2.014
 4152SOL    HW113355   3.621   5.452   1.949
 4152SOL    HW213356   3.485   5.538   1.979
 4153SOL     OW13357   6.735   4.648   1.212
 4153SOL    HW113358   6.777   4.719   1.155
 4153SOL    HW213359   6.797   4.623   1.286
 4154SOL     OW13360   6.940   5.547   3.562
 4154SOL    HW113361   6.849   5.588   3.570
 4154SOL    HW213362   6.957   5.490   3.642
 4155SOL     OW13363   0.080   2.250   1.729
 4155SOL    HW113364   0.095   2.179   1.798
 4155SOL    HW213365   0.078   2.208   1.638
 4156SOL     OW13366   0.010   4.952   5.080
 4156SOL    HW113367   0.004   5.052   5.079
 4156SOL    HW213368   6.979   4.917   5.153
 4157SOL     OW13369   6.663   6.690   2.327
 4157SOL    HW113370   6.712   6.774   2.302
 4157SOL    HW213371   6.634   6.695   2.422
 4158SOL     OW13372   2.307   2.014   1.678
 4158SOL    HW113373   2.393   2.065   1.681
 4158SOL    HW213374   2.233   2.074   1.649
 4159SOL     OW13375   2.821   2.137   2.933
 4159SOL    HW113376   2.857   2.200   3.002
 4159SOL    HW213377   2.854   2.164   2.843
 4160SOL     OW13378   6.689   0.104   6.838
 4160SOL    HW113379   6.595   0.076   6.820
 4160SOL    HW213380   6.690   0.189   6.889
 4161SOL     OW13381   1.952   2.168   0.713
 4161SOL    HW113382   2.013   2.103   0.758
 4161SOL    HW213383   1.988   2.190   0.622
 4162SOL     OW13384   6.692   5.941   0.593
 4162SOL    HW113385   6.752   5.935   0.513
 4162SOL    HW213386   6.735   5.894   0.670
 4163SOL     OW13387   4.997   0.593   2.282
 4163SOL    HW113388   4.972   0.519   2.220
 4163SOL    HW213389   4.926   0.604   2.352
 4164SOL     OW13390   6.967   0.000   5.428
 4164SOL    HW113391   0.010   6.968   5.463
 4164SOL    HW213392   6.922   0.046   5.505
 4165SOL     OW13393   4.253   0.198   5.931
 4165SOL    HW113394   4.332   0.223   5.988
 4165SOL    HW213395   4.250   0.256   5.850
 4166SOL     OW13396   6.028   1.262   2.105
 4166SOL    HW113397   5.943   1.277   2.054
 4166SOL    HW213398   6.098   1.325   2.071
 4167SOL     OW13399   2.280   4.707   5.888
 4167SOL    HW113400   2.229   4.650   5.952
 4167SOL    HW213401   2.297   4.656   5.804
 4168SOL     OW13402   6.797   4.405   0.364
 4168SOL    HW113403   6.784   4.503   0.372
 4168SOL    HW213404   6.846   4.371   0.444
 4169SOL     OW13405   6.002   4.140   5.319
 4169SOL    HW113406   6.073   4.088   5.271
 4169SOL    HW213407   6.027   4.236   5.323
 4170SOL     OW13408   4.813   3.121   4.611
 4170SOL    HW113409   4.761   3.192   4.658
 4170SOL    HW213410   4.903   3.156   4.586
 4171SOL     OW13411   1.170   4.491   1.468
 4171SOL    HW113412   1.083   4.501   1.517
 4171SOL    HW213413   1.244   4.481   1.534
 4172SOL     OW13414   2.959   3.234   0.437
 4172SOL    HW113415   2.879   3.276   0.394
 4172SOL    HW213416   3.043   3.273   0.398
 4173SOL     OW13417   4.273   2.907   5.683
 4173SOL    HW113418   4.340   2.846   5.726
 4173SOL    HW213419   4.264   2.991   5.736
 4174SOL     OW13420   4.422   0.452   3.631
 4174SOL    HW113421   4.371   0.424   3.550
 4174SOL    HW213422   4.371   0.523   3.679
 4175SOL     OW13423   1.728   4.711   5.849
 4175SOL    HW113424   1.762   4.763   5.771
 4175SOL    HW213425   1.806   4.672   5.899
 4176SOL     OW13426   4.827   6.194   0.883
 4176SOL    HW113427   4.872   6.284   0.881
 4176SOL    HW213428   4.734   6.203   0.846
 4177SOL     OW13429   5.009   4.862   4.599
 4177SOL    HW113430   5.052   4.886   4.686
 4177SOL    HW213431   5.056   4.783   4.559
 4178SOL     OW13432   4.374   6.192   2.810
 4178SOL    HW113433   4.380   6.279   2.761
 4178SOL    HW213434   4.354   6.119   2.746
 4179SOL     OW13435   5.093   3.962   3.507
 4179SOL    HW113436   5.160   4.035   3.523
 4179SOL    HW213437   5.129   3.896   3.442
 4180SOL     OW13438   5.394   3.454   0.924
 4180SOL    HW113439   5.441   3.539   0.902
 4180SOL    HW213440   5.305   3.475   0.965
 4181SOL     OW13441   5.486   0.379   6.319
 4181SOL    HW113442   5.390   0.408   6.320
 4181SOL    HW213443   5.497   0.301   6.381
 4182SOL     OW13444   0.439   5.124   3.648
 4182SOL    HW113445   0.463   5.147   3.554
 4182SOL    HW213446   0.346   5.089   3.652
 4183SOL     OW13447   2.442   0.883   0.854
 4183SOL    HW113448   2.356   0.838   0.832
 4183SOL    HW213449   2.517   0.838   0.806
 4184SOL     OW13450   3.694   0.061   1.939
 4184SOL    HW113451   3.661   0.073   1.845
 4184SOL    HW213452   3.791   0.088   1.943
 4185SOL     OW13453   0.498   4.050   3.254
 4185SOL    HW113454   0.529   4.139   3.286
 4185SOL    HW213455   0.559   3.979   3.290
 4186SOL     OW13456   2.516   5.841   6.511
 4186SOL    HW113457   2.577   5.857   6.434
 4186SOL    HW213458   2.492   5.744   6.515
 4187SOL     OW13459   2.738   3.596   0.166
 4187SOL    HW113460   2.643   3.603   0.138
 4187SOL    HW213461   2.746   3.531   0.242
 4188SOL     OW13462   5.364   0.369   5.118
 4188SOL    HW113463   5.268   0.377   5.144
 4188SOL    HW213464   5.377   0.408   5.027
 4189SOL     OW13465   3.684   5.172   3.747
 4189SOL    HW113466   3.623   5.218   3.682
 4189SOL    HW213467   3.775   5.161   3.706
 4190SOL     OW13468   0.316   6.329   0.930
 4190SOL    HW113469   0.374   6.306   0.852
 4190SOL    HW213470   0.299   6.428   0.930
 4191SOL     OW13471   5.553   4.243   5.884
 4191SOL    HW113472   5.461   4.219   5.915
 4191SOL    HW213473   5.616   4.168   5.905
 4192SOL     OW13474   1.199   1.461   1.800
 4192SOL    HW113475   1.103   1.444   1.822
 4192SOL    HW213476   1.244   1.375   1.778
 4193SOL     OW13477   5.370   0.407   0.363
 4193SOL    HW113478   5.402   0.497   0.391
 4193SOL    HW213479   5.443   0.340   0.376
 4194SOL     OW13480   4.804   0.016   4.463
 4194SOL    HW113481   4.757   0.067   4.391
 4194SOL    HW213482   4.746   0.013   4.545
 4195SOL     OW13483   4.274   6.033   1.515
 4195SOL    HW113484   4.243   6.107   1.576
 4195SOL    HW213485   4.264   6.062   1.420
 4196SOL     OW13486   0.312   2.571   3.491
 4196SOL    HW113487   0.347   2.477   3.484
 4196SOL    HW213488   0.373   2.633   3.443
 4197SOL     OW13489   4.232   5.856   5.397
 4197SOL    HW113490   4.150   5.829   5.346
 4197SOL    HW213491   4.231   5.812   5.487
 4198SOL     OW13492   6.964   1.321   2.668
 4198SOL    HW113493   6.869   1.343   2.692
 4198SOL    HW213494   6.986   1.230   2.704
 4199SOL     OW13495   1.157   2.420   5.583
 4199SOL    HW113496   1.184   2.498   5.640
 4199SOL    HW213497   1.100   2.451   5.507
 4200SOL     OW13498   3.189   0.239   5.918
 4200SOL    HW113499   3.213   0.164   5.856
 4200SOL    HW213500   3.206   0.326   5.872
 4201SOL     OW13501   6.331   6.812   2.931
 4201SOL    HW113502   6.305   6.907   2.943
 4201SOL    HW213503   6.327   6.764   3.019
 4202SOL     OW13504   3.169   5.912   6.338
 4202SOL    HW113505   3.234   5.857   6.285
 4202SOL    HW213506   3.201   6.006   6.342
 4203SOL     OW13507   5.149   4.468   0.526
 4203SOL    HW113508   5.167   4.567   0.530
 4203SOL    HW213509   5.059   4.452   0.486
 4204SOL     OW13510   3.906   3.379   5.441
 4204SOL    HW113511   3.951   3.466   5.420
 4204SOL    HW213512   3.854   3.388   5.526
 4205SOL     OW13513   3.711   5.476   4.558
 4205SOL    HW113514   3.695   5.547   4.489
 4205SOL    HW213515   3.796   5.427   4.538
 4206SOL     OW13516   6.688   1.702   4.818
 4206SOL    HW113517   6.745   1.726   4.740
 4206SOL    HW213518   6.679   1.602   4.823
 4207SOL     OW13519   2.312   2.687   1.353
 4207SOL    HW113520   2.287   2.604   1.403
 4207SOL    HW213521   2.244   2.704   1.281
 4208SOL     OW13522   0.840   3.742   6.080
 4208SOL    HW113523   0.767   3.718   6.015
 4208SOL    HW213524   0.926   3.753   6.031
 4209SOL     OW13525   6.836   6.108   2.843
 4209SOL    HW113526   6.912   6.089   2.781
 4209SOL    HW213527   6.834   6.205   2.866
 4210SOL     OW13528   4.038   3.326   3.020
 4210SOL    HW113529   4.035   3.299   3.116
 4210SOL    HW213530   4.068   3.421   3.013
 4211SOL     OW13531   3.610   1.517   5.391
 4211SOL    HW113532   3.555   1.539   5.471
 4211SOL    HW213533   3.704   1.550   5.405
 4212SOL     OW13534   6.379   1.970   3.832
 4212SOL    HW113535   6.462   1.946   3.881
 4212SOL    HW213536   6.392   1.955   3.734
 4213SOL     OW13537   2.490   0.136   3.084
 4213SOL    HW113538   2.481   0.041   3.114
 4213SOL    HW213539   2.559   0.141   3.012
 4214SOL     OW13540   0.268   5.902   4.861
 4214SOL    HW113541   0.203   5.829   4.881
 4214SOL    HW213542   0.351   5.889   4.916
 4215SOL     OW13543   5.407   6.850   5.289
 4215SOL    HW113544   5.471   6.814   5.221
 4215SOL    HW213545   5.457   6.884   5.368
 4216SOL     OW13546   1.372   0.816   2.020
 4216SOL    HW113547   1.370   0.914   1.999
 4216SOL    HW213548   1.448   0.773   1.972
 4217SOL     OW13549   1.156   0.826   1.861
 4217SOL    HW113550   1.174   0.786   1.771
 4217SOL    HW213551   1.243   0.847   1.905
 4218SOL     OW13552   3.569   0.481   1.359
 4218SOL    HW113553   3.590   0.383   1.367
 4218SOL    HW213554   3.535   0.501   1.268
 4219SOL     OW13555   4.613   6.405   4.416
 4219SOL    HW113556   4.700   6.382   4.372
 4219SOL    HW213557   4.613   6.502   4.441
 4220SOL     OW13558   5.716   3.277   2.272
 4220SOL    HW113559   5.741   3.225   2.354
 4220SOL    HW213560   5.756   3.369   2.277
 4221SOL     OW13561   6.136   4.475   6.123
 4221SOL    HW113562   6.195   4.459   6.044
 4221SOL    HW213563   6.098   4.388   6.155
 4222SOL     OW13564   6.583   1.121   3.181
 4222SOL    HW113565   6.531   1.134   3.266
 4222SOL    HW213566   6.542   1.046   3.128
 4223SOL     OW13567   4.004   3.723   0.943
 4223SOL    HW113568   4.055   3.670   1.011
 4223SOL    HW213569   4.063   3.791   0.902
 4224SOL     OW13570   5.056   4.922   4.886
 4224SOL    HW113571   5.027   5.012   4.919
 4224SOL    HW213572   4.987   4.853   4.911
 4225SOL     OW13573   1.832   2.194   5.281
 4225SOL    HW113574   1.824   2.293   5.295
 4225SOL    HW213575   1.742   2.152   5.283
 4226SOL     OW13576   1.275   5.375   3.480
 4226SOL    HW113577   1.259   5.291   3.530
 4226SOL    HW213578   1.317   5.354   3.391
 4227SOL     OW13579   4.847   6.389   1.799
 4227SOL    HW113580   4.770   6.453   1.791
 4227SOL    HW213581   4.930   6.440   1.821
 4228SOL     OW13582   0.022   6.572   5.587
 4228SOL    HW113583   0.054   6.545   5.678
 4228SOL    HW213584   0.024   6.493   5.526
 4229SOL     OW13585   4.576   5.435   5.346
 4229SOL    HW113586   4.531   5.399   5.427
 4229SOL    HW213587   4.589   5.533   5.356
 4230SOL     OW13588   1.198   6.416   3.672
 4230SOL    HW113589   1.188   6.334   3.616
 4230SOL    HW213590   1.109   6.457   3.689
 4231SOL     OW13591   5.073   0.371   5.890
 4231SOL    HW113592   5.041   0.287   5.847
 4231SOL    HW213593   5.085   0.356   5.988
 4232SOL     OW13594   1.516   4.779   3.841
 4232SOL    HW113595   1.577   4.834   3.896
 4232SOL    HW213596   1.556   4.764   3.750
 4233SOL     OW13597   6.969   0.796   4.792
 4233SOL    HW113598   6.949   0.806   4.889
 4233SOL    HW213599   7.009   0.706   4.774
 4234SOL     OW13600   2.209   5.545   5.461
 4234SOL    HW113601   2.159   5.631   5.453
 4234SOL    HW213602   2.157   5.472   5.416
 4235SOL     OW13603   0.035   4.678   6.210
 4235SOL    HW113604   7.004   4.598   6.222
 4235SOL    HW213605   0.121   4.664   6.259
 4236SOL     OW13606   6.576   4.122   2.009
 4236SOL    HW113607   6.673   4.136   1.987
 4236SOL    HW213608   6.552   4.177   2.089
 4237SOL     OW13609   6.913   4.067   3.999
 4237SOL    HW113610   6.873   4.143   3.948
 4237SOL    HW213611   6.957   4.102   4.082
 4238SOL     OW13612   1.099   0.309   3.075
 4238SOL    HW113613   1.145   0.333   3.160
 4238SOL    HW213614   1.164   0.268   3.012
 4239SOL     OW13615   4.187   1.324   2.564
 4239SOL    HW113616   4.184   1.424   2.571
 4239SOL    HW213617   4.251   1.298   2.492
 4240SOL     OW13618   2.162   5.527   0.342
 4240SOL    HW113619   2.259   5.513   0.323
 4240SOL    HW213620   2.150   5.613   0.391
 4241SOL     OW13621   5.541   0.748   0.588
 4241SOL    HW113622   5.593   0.833   0.577
 4241SOL    HW213623   5.483   0.735   0.507
 4242SOL     OW13624   3.259   2.174   4.155
 4242SOL    HW113625   3.174   2.198   4.201
 4242SOL    HW213626   3.239   2.133   4.067
 4243SOL     OW13627   5.436   1.715   2.957
 4243SOL    HW113628   5.401   1.631   2.914
 4243SOL    HW213629   5.363   1.784   2.958
 4244SOL     OW13630   3.672   4.413   1.444
 4244SOL    HW113631   3.770   4.429   1.458
 4244SOL    HW213632   3.650   4.319   1.468
 4245SOL     OW13633   6.326   2.501   6.277
 4245SOL    HW113634   6.234   2.487   6.312
 4245SOL    HW213635   6.391   2.445   6.330
 4246SOL     OW13636   6.326   4.136   3.616
 4246SOL    HW113637   6.233   4.144   3.651
 4246SOL    HW213638   6.368   4.053   3.651
 4247SOL     OW13639   1.695   6.825   3.466
 4247SOL    HW113640   1.764   6.756   3.485
 4247SOL    HW213641   1.630   6.790   3.399
 4248SOL     OW13642   2.716   2.080   4.367
 4248SOL    HW113643   2.636   2.133   4.339
 4248SOL    HW213644   2.793   2.141   4.385
 4249SOL     OW13645   6.465   2.667   5.118
 4249SOL    HW113646   6.468   2.752   5.066
 4249SOL    HW213647   6.552   2.618   5.108
 4250SOL     OW13648   0.062   4.495   3.125
 4250SOL    HW113649   0.115   4.427   3.175
 4250SOL    HW213650   6.994   4.490   3.153
 4251SOL     OW13651   5.704   4.752   0.682
 4251SOL    HW113652   5.626   4.775   0.740
 4251SOL    HW213653   5.789   4.781   0.726
 4252SOL     OW13654   6.063   6.568   5.675
 4252SOL    HW113655   6.159   6.566   5.647
 4252SOL    HW213656   6.029   6.662   5.675
 4253SOL     OW13657   2.586   0.219   1.622
 4253SOL    HW113658   2.631   0.149   1.567
 4253SOL    HW213659   2.488   0.204   1.623
 4254SOL     OW13660   0.990   2.490   2.692
 4254SOL    HW113661   0.936   2.440   2.626
 4254SOL    HW213662   1.082   2.507   2.655
 4255SOL     OW13663   5.600   3.170   3.424
 4255SOL    HW113664   5.627   3.252   3.474
 4255SOL    HW213665   5.666   3.152   3.351
 4256SOL     OW13666   1.500   6.634   0.958
 4256SOL    HW113667   1.439   6.628   1.038
 4256SOL    HW213668   1.459   6.585   0.881
 4257SOL     OW13669   3.865   0.442   4.769
 4257SOL    HW113670   3.835   0.517   4.829
 4257SOL    HW213671   3.801   0.366   4.777
 4258SOL     OW13672   5.875   6.294   1.474
 4258SOL    HW113673   5.804   6.360   1.497
 4258SOL    HW213674   5.911   6.315   1.383
 4259SOL     OW13675   3.111   0.228   6.598
 4259SOL    HW113676   3.159   0.191   6.678
 4259SOL    HW213677   3.013   0.232   6.617
 4260SOL     OW13678   5.205   6.711   5.398
 4260SOL    HW113679   5.125   6.717   5.338
 4260SOL    HW213680   5.278   6.769   5.362
 4261SOL     OW13681   1.838   0.829   1.690
 4261SOL    HW113682   1.848   0.736   1.656
 4261SOL    HW213683   1.928   0.871   1.699
 4262SOL     OW13684   1.119   4.686   5.970
 4262SOL    HW113685   1.040   4.636   5.933
 4262SOL    HW213686   1.186   4.701   5.897
 4263SOL     OW13687   2.568   6.304   3.574
 4263SOL    HW113688   2.472   6.323   3.596
 4263SOL    HW213689   2.574   6.263   3.483
 4264SOL     OW13690   6.797   1.974   2.916
 4264SOL    HW113691   6.830   2.068   2.917
 4264SOL    HW213692   6.792   1.942   2.821
 4265SOL     OW13693   5.623   1.346   0.383
 4265SOL    HW113694   5.617   1.339   0.483
 4265SOL    HW213695   5.533   1.370   0.346
 4266SOL     OW13696   1.986   5.537   0.844
 4266SOL    HW113697   1.909   5.484   0.881
 4266SOL    HW213698   2.002   5.512   0.749
 4267SOL     OW13699   1.689   3.660   5.415
 4267SOL    HW113700   1.758   3.713   5.365
 4267SOL    HW213701   1.598   3.698   5.397
 4268SOL     OW13702   1.450   6.430   6.427
 4268SOL    HW113703   1.437   6.355   6.492
 4268SOL    HW213704   1.410   6.514   6.465
 4269SOL     OW13705   2.320   1.421   0.870
 4269SOL    HW113706   2.265   1.475   0.807
 4269SOL    HW213707   2.333   1.473   0.955
 4270SOL     OW13708   3.604   2.950   4.202
 4270SOL    HW113709   3.507   2.941   4.227
 4270SOL    HW213710   3.659   2.956   4.286
 4271SOL     OW13711   0.572   1.388   6.426
 4271SOL    HW113712   0.507   1.454   6.389
 4271SOL    HW213713   0.607   1.421   6.514
 4272SOL     OW13714   0.742   4.570   4.972
 4272SOL    HW113715   0.689   4.550   4.889
 4272SOL    HW213716   0.838   4.545   4.957
 4273SOL     OW13717   4.926   6.196   4.867
 4273SOL    HW113718   4.995   6.124   4.870
 4273SOL    HW213719   4.836   6.156   4.850
 4274SOL     OW13720   1.321   0.229   2.950
 4274SOL    HW113721   1.361   0.205   2.862
 4274SOL    HW213722   1.394   0.253   3.014
 4275SOL     OW13723   6.925   1.937   5.011
 4275SOL    HW113724   6.985   1.951   4.932
 4275SOL    HW213725   6.851   2.004   5.011
 4276SOL     OW13726   1.016   4.250   3.949
 4276SOL    HW113727   1.077   4.312   3.900
 4276SOL    HW213728   0.922   4.265   3.918
 4277SOL     OW13729   6.127   4.474   4.446
 4277SOL    HW113730   6.226   4.462   4.446
 4277SOL    HW213731   6.084   4.400   4.498
 4278SOL     OW13732   6.934   0.858   4.335
 4278SOL    HW113733   6.896   0.881   4.425
 4278SOL    HW213734   6.923   0.759   4.319
 4279SOL     OW13735   3.724   6.823   5.518
 4279SOL    HW113736   3.668   6.755   5.471
 4279SOL    HW213737   3.734   6.904   5.460
 4280SOL     OW13738   5.279   1.076   5.395
 4280SOL    HW113739   5.242   1.118   5.479
 4280SOL    HW213740   5.205   1.032   5.344
 4281SOL     OW13741   2.431   4.657   4.599
 4281SOL    HW113742   2.411   4.599   4.678
 4281SOL    HW213743   2.495   4.729   4.626
 4282SOL     OW13744   3.165   2.313   0.514
 4282SOL    HW113745   3.148   2.327   0.417
 4282SOL    HW213746   3.222   2.387   0.549
 4283SOL     OW13747   1.872   1.114   3.644
 4283SOL    HW113748   1.839   1.185   3.707
 4283SOL    HW213749   1.891   1.030   3.694
 4284SOL     OW13750   4.936   5.907   1.995
 4284SOL    HW113751   4.981   5.842   2.056
 4284SOL    HW213752   4.916   5.863   1.907
 4285SOL     OW13753   0.636   0.662   5.997
 4285SOL    HW113754   0.629   0.762   5.995
 4285SOL    HW213755   0.550   0.623   6.032
 4286SOL     OW13756   5.219   5.714   6.647
 4286SOL    HW113757   5.308   5.751   6.671
 4286SOL    HW213758   5.192   5.644   6.714
 4287SOL     OW13759   5.789   0.938   6.418
 4287SOL    HW113760   5.777   0.838   6.413
 4287SOL    HW213761   5.886   0.960   6.413
 4288SOL     OW13762   1.128   5.478   3.125
 4288SOL    HW113763   1.104   5.567   3.163
 4288SOL    HW213764   1.204   5.439   3.178
 4289SOL     OW13765   6.109   3.098   1.131
 4289SOL    HW113766   6.015   3.116   1.103
 4289SOL    HW213767   6.163   3.182   1.121
 4290SOL     OW13768   2.817   6.540   2.109
 4290SOL    HW113769   2.885   6.531   2.036
 4290SOL    HW213770   2.862   6.551   2.197
 4291SOL     OW13771   4.585   3.726   1.644
 4291SOL    HW113772   4.577   3.811   1.695
 4291SOL    HW213773   4.499   3.675   1.651
 4292SOL     OW13774   6.565   4.682   6.237
 4292SOL    HW113775   6.478   4.678   6.286
 4292SOL    HW213776   6.640   4.690   6.302
 4293SOL     OW13777   0.152   2.945   0.487
 4293SOL    HW113778   0.163   2.970   0.390
 4293SOL    HW213779   0.241   2.930   0.528
 4294SOL     OW13780   3.839   3.017   0.353
 4294SOL    HW113781   3.864   3.089   0.418
 4294SOL    HW213782   3.879   3.038   0.263
 4295SOL     OW13783   3.725   5.906   4.731
 4295SOL    HW113784   3.816   5.863   4.728
 4295SOL    HW213785   3.670   5.861   4.802
 4296SOL     OW13786   3.596   1.120   0.005
 4296SOL    HW113787   3.499   1.101   0.020
 4296SOL    HW213788   3.606   1.208   6.987
 4297SOL     OW13789   5.397   0.728   6.070
 4297SOL    HW113790   5.416   0.825   6.056
 4297SOL    HW213791   5.327   0.698   6.006
 4298SOL     OW13792   2.727   5.109   6.372
 4298SOL    HW113793   2.803   5.044   6.377
 4298SOL    HW213794   2.713   5.136   6.277
 4299SOL     OW13795   0.454   3.093   0.461
 4299SOL    HW113796   0.390   3.164   0.431
 4299SOL    HW213797   0.541   3.103   0.412
 4300SOL     OW13798   4.008   1.278   6.798
 4300SOL    HW113799   4.078   1.261   6.728
 4300SOL    HW213800   3.917   1.278   6.755
 4301SOL     OW13801   2.917   1.406   0.523
 4301SOL    HW113802   3.015   1.428   0.526
 4301SOL    HW213803   2.905   1.307   0.530
 4302SOL     OW13804   0.709   6.819   5.356
 4302SOL    HW113805   0.695   6.907   5.402
 4302SOL    HW213806   0.625   6.764   5.362
 4303SOL     OW13807   5.767   4.946   3.839
 4303SOL    HW113808   5.735   4.907   3.925
 4303SOL    HW213809   5.754   5.045   3.841
 4304SOL     OW13810   2.936   3.550   4.153
 4304SOL    HW113811   2.921   3.600   4.067
 4304SOL    HW213812   2.956   3.615   4.226
 4305SOL     OW13813   5.907   0.838   4.124
 4305SOL    HW113814   5.897   0.913   4.058
 4305SOL    HW213815   5.919   0.876   4.215
 4306SOL     OW13816   6.613   3.656   6.509
 4306SOL    HW113817   6.520   3.694   6.505
 4306SOL    HW213818   6.678   3.724   6.477
 4307SOL     OW13819   5.188   4.130   6.710
 4307SOL    HW113820   5.134   4.081   6.779
 4307SOL    HW213821   5.126   4.171   6.642
 4308SOL     OW13822   5.670   5.150   6.283
 4308SOL    HW113823   5.594   5.088   6.301
 4308SOL    HW213824   5.753   5.115   6.326
 4309SOL     OW13825   1.335   0.730   0.407
 4309SOL    HW113826   1.277   0.803   0.443
 4309SOL    HW213827   1.287   0.681   0.335
 4310SOL     OW13828   2.182   2.281   3.158
 4310SOL    HW113829   2.112   2.234   3.212
 4310SOL    HW213830   2.149   2.371   3.133
 4311SOL     OW13831   1.496   5.710   3.099
 4311SOL    HW113832   1.524   5.617   3.078
 4311SOL    HW213833   1.492   5.764   3.015
 4312SOL     OW13834   1.783   5.441   1.010
 4312SOL    HW113835   1.754   5.532   1.040
 4312SOL    HW213836   1.727   5.412   0.932
 4313SOL     OW13837   5.126   1.391   1.769
 4313SOL    HW113838   5.199   1.376   1.702
 4313SOL    HW213839   5.037   1.390   1.723
 4314SOL     OW13840   5.875   2.031   3.986
 4314SOL    HW113841   5.843   1.936   3.982
 4314SOL    HW213842   5.828   2.080   4.059
 4315SOL     OW13843   2.306   0.711   2.213
 4315SOL    HW113844   2.270   0.804   2.221
 4315SOL    HW213845   2.231   0.647   2.197
 4316SOL     OW13846   5.269   6.848   1.028
 4316SOL    HW113847   5.210   6.817   0.953
 4316SOL    HW213848   5.230   6.931   1.068
 4317SOL     OW13849   3.909   1.261   4.556
 4317SOL    HW113850   3.855   1.297   4.632
 4317SOL    HW213851   4.000   1.237   4.589
 4318SOL     OW13852   1.545   3.219   3.442
 4318SOL    HW113853   1.501   3.225   3.531
 4318SOL    HW213854   1.605   3.298   3.429
 4319SOL     OW13855   2.400   2.833   0.557
 4319SOL    HW113856   2.496   2.857   0.545
 4319SOL    HW213857   2.343   2.904   0.514
 4320SOL     OW13858   0.467   5.872   1.857
 4320SOL    HW113859   0.367   5.872   1.868
 4320SOL    HW213860   0.510   5.890   1.946
 4321SOL     OW13861   6.773   0.169   4.303
 4321SOL    HW113862   6.829   0.087   4.291
 4321SOL    HW213863   6.696   0.148   4.364
 4322SOL     OW13864   6.035   1.734   6.510
 4322SOL    HW113865   6.112   1.761   6.453
 4322SOL    HW213866   6.050   1.764   6.604
 4323SOL     OW13867   5.203   4.039   1.310
 4323SOL    HW113868   5.198   4.086   1.222
 4323SOL    HW213869   5.278   3.973   1.309
 4324SOL     OW13870   5.725   4.509   6.817
 4324SOL    HW113871   5.706   4.605   6.833
 4324SOL    HW213872   5.817   4.486   6.852
 4325SOL     OW13873   1.884   0.595   0.486
 4325SOL    HW113874   1.790   0.594   0.451
 4325SOL    HW213875   1.948   0.588   0.409
 4326SOL     OW13876   6.118   2.668   4.659
 4326SOL    HW113877   6.130   2.687   4.757
 4326SOL    HW213878   6.142   2.748   4.606
 4327SOL     OW13879   5.926   5.061   2.190
 4327SOL    HW113880   5.949   5.013   2.275
 4327SOL    HW213881   5.827   5.071   2.183
 4328SOL     OW13882   4.234   4.035   5.850
 4328SOL    HW113883   4.227   4.132   5.825
 4328SOL    HW213884   4.297   3.989   5.788
 4329SOL     OW13885   3.539   1.638   6.172
 4329SOL    HW113886   3.561   1.730   6.140
 4329SOL    HW213887   3.558   1.572   6.100
 4330SOL     OW13888   2.852   0.296   5.147
 4330SOL    HW113889   2.771   0.252   5.184
 4330SOL    HW213890   2.863   0.386   5.188
 4331SOL     OW13891   4.555   3.051   0.955
 4331SOL    HW113892   4.539   2.974   0.893
 4331SOL    HW213893   4.518   3.029   1.045
 4332SOL     OW13894   5.474   4.745   2.333
 4332SOL    HW113895   5.510   4.653   2.319
 4332SOL    HW213896   5.387   4.741   2.382
 4333SOL     OW13897   4.511   0.656   5.490
 4333SOL    HW113898   4.603   0.624   5.513
 4333SOL    HW213899   4.467   0.691   5.572
 4334SOL     OW13900   1.830   2.408   2.212
 4334SOL    HW113901   1.797   2.327   2.263
 4334SOL    HW213902   1.811   2.490   2.265
 4335SOL     OW13903   3.248   4.116   3.247
 4335SOL    HW113904   3.219   4.021   3.252
 4335SOL    HW213905   3.200   4.170   3.316
 4336SOL     OW13906   1.225   6.648   5.415
 4336SOL    HW113907   1.141   6.633   5.362
 4336SOL    HW213908   1.300   6.597   5.373
 4337SOL     OW13909   1.193   4.630   0.403
 4337SOL    HW113910   1.226   4.627   0.497
 4337SOL    HW213911   1.246   4.697   0.350
 4338SOL     OW13912   4.995   5.895   4.154
 4338SOL    HW113913   5.047   5.812   4.136
 4338SOL    HW213914   5.048   5.975   4.124
 4339SOL     OW13915   5.915   3.862   5.306
 4339SOL    HW113916   5.881   3.843   5.214
 4339SOL    HW213917   5.954   3.954   5.309
 4340SOL     OW13918   6.004   4.392   2.383
 4340SOL    HW113919   5.941   4.433   2.449
 4340SOL    HW213920   6.098   4.407   2.412
 4341SOL     OW13921   1.008   5.743   1.982
 4341SOL    HW113922   0.941   5.816   1.979
 4341SOL    HW213923   0.968   5.662   2.025
 4342SOL     OW13924   6.689   3.676   3.854
 4342SOL    HW113925   6.749   3.704   3.779
 4342SOL    HW213926   6.660   3.581   3.839
 4343SOL     OW13927   2.536   6.640   6.094
 4343SOL    HW113928   2.446   6.601   6.111
 4343SOL    HW213929   2.605   6.588   6.144
 4344SOL     OW13930   1.528   5.086   2.940
 4344SOL    HW113931   1.602   5.033   2.898
 4344SOL    HW213932   1.539   5.182   2.916
 4345SOL     OW13933   1.927   2.743   5.532
 4345SOL    HW113934   1.866   2.792   5.595
 4345SOL    HW213935   1.911   2.776   5.439
 4346SOL     OW13936   2.005   3.168   1.559
 4346SOL    HW113937   2.092   3.141   1.601
 4346SOL    HW213938   1.961   3.087   1.520
 4347SOL     OW13939   5.872   7.025   2.681
 4347SOL    HW113940   5.933   6.984   2.612
 4347SOL    HW213941   5.785   6.975   2.682
 4348SOL     OW13942   0.439   3.442   2.499
 4348SOL    HW113943   0.481   3.359   2.534
 4348SOL    HW213944   0.339   3.432   2.501
 4349SOL     OW13945   6.614   1.660   3.034
 4349SOL    HW113946   6.598   1.756   3.055
 4349SOL    HW213947   6.591   1.604   3.114
 4350SOL     OW13948   4.839   2.375   4.399
 4350SOL    HW113949   4.877   2.427   4.475
 4350SOL    HW213950   4.824   2.435   4.320
 4351SOL     OW13951   1.947   6.358   1.067
 4351SOL    HW113952   1.912   6.390   0.979
 4351SOL    HW213953   1.964   6.437   1.127
 4352SOL     OW13954   0.874   2.344   2.166
 4352SOL    HW113955   0.920   2.268   2.212
 4352SOL    HW213956   0.896   2.342   2.068
 4353SOL     OW13957   3.301   4.286   0.389
 4353SOL    HW113958   3.301   4.330   0.479
 4353SOL    HW213959   3.368   4.330   0.330
 4354SOL     OW13960   2.125   6.652   5.193
 4354SOL    HW113961   2.170   6.649   5.104
 4354SOL    HW213962   2.156   6.575   5.249
 4355SOL     OW13963   3.376   0.386   2.333
 4355SOL    HW113964   3.473   0.361   2.332
 4355SOL    HW213965   3.367   0.485   2.340
 4356SOL     OW13966   4.644   4.293   1.669
 4356SOL    HW113967   4.581   4.273   1.744
 4356SOL    HW213968   4.673   4.388   1.674
 4357SOL     OW13969   6.092   0.097   6.926
 4357SOL    HW113970   6.113   0.015   6.979
 4357SOL    HW213971   6.147   0.098   6.843
 4358SOL     OW13972   6.799   5.791   0.320
 4358SOL    HW113973   6.897   5.804   0.310
 4358SOL    HW213974   6.781   5.701   0.359
 4359SOL     OW13975   1.632   1.907   5.554
 4359SOL    HW113976   1.575   1.827   5.568
 4359SOL    HW213977   1.728   1.881   5.559
 4360SOL     OW13978   1.290   3.227   2.824
 4360SOL    HW113979   1.297   3.256   2.729
 4360SOL    HW213980   1.333   3.294   2.884
 4361SOL     OW13981   2.834   2.799   1.669
 4361SOL    HW113982   2.931   2.789   1.691
 4361SOL    HW213983   2.788   2.711   1.683
 4362SOL     OW13984   6.092   4.118   3.756
 4362SOL    HW113985   6.052   4.141   3.845
 4362SOL    HW213986   6.032   4.151   3.683
 4363SOL     OW13987   5.604   2.626   6.932
 4363SOL    HW113988   5.630   2.699   6.995
 4363SOL    HW213989   5.678   2.611   6.866
 4364SOL     OW13990   3.194   3.731   5.252
 4364SOL    HW113991   3.158   3.803   5.312
 4364SOL    HW213992   3.218   3.771   5.163
 4365SOL     OW13993   2.264   2.682   1.719
 4365SOL    HW113994   2.228   2.595   1.753
 4365SOL    HW213995   2.197   2.723   1.656
 4366SOL     OW13996   5.581   6.650   0.359
 4366SOL    HW113997   5.655   6.700   0.313
 4366SOL    HW213998   5.552   6.574   0.302
 4367SOL     OW13999   2.272   5.117   5.019
 4367SOL    HW114000   2.366   5.146   5.038
 4367SOL    HW214001   2.229   5.087   5.104
 4368SOL     OW14002   3.877   5.384   1.331
 4368SOL    HW114003   3.855   5.294   1.367
 4368SOL    HW214004   3.930   5.435   1.399
 4369SOL     OW14005   4.439   5.699   3.560
 4369SOL    HW114006   4.457   5.770   3.492
 4369SOL    HW214007   4.341   5.689   3.574
 4370SOL     OW14008   4.697   4.613   3.052
 4370SOL    HW114009   4.643   4.593   2.971
 4370SOL    HW214010   4.786   4.568   3.045
 4371SOL     OW14011   6.626   0.700   1.119
 4371SOL    HW114012   6.640   0.798   1.136
 4371SOL    HW214013   6.712   0.651   1.136
 4372SOL     OW14014   4.236   1.185   3.257
 4372SOL    HW114015   4.332   1.179   3.231
 4372SOL    HW214016   4.184   1.116   3.207
 4373SOL     OW14017   0.067   2.394   6.572
 4373SOL    HW114018   0.079   2.398   6.671
 4373SOL    HW214019   0.107   2.474   6.529
 4374SOL     OW14020   0.899   1.649   1.965
 4374SOL    HW114021   0.866   1.743   1.965
 4374SOL    HW214022   0.856   1.599   1.890
 4375SOL     OW14023   3.243   0.397   3.957
 4375SOL    HW114024   3.274   0.360   4.045
 4375SOL    HW214025   3.276   0.339   3.883
 4376SOL     OW14026   6.542   6.696   3.164
 4376SOL    HW114027   6.639   6.677   3.149
 4376SOL    HW214028   6.505   6.632   3.231
 4377SOL     OW14029   6.054   4.031   0.342
 4377SOL    HW114030   6.144   4.075   0.332
 4377SOL    HW214031   6.066   3.939   0.380
 4378SOL     OW14032   1.901   1.313   2.646
 4378SOL    HW114033   1.806   1.284   2.630
 4378SOL    HW214034   1.952   1.309   2.561
 4379SOL     OW14035   2.265   1.337   3.451
 4379SOL    HW114036   2.352   1.332   3.403
 4379SOL    HW214037   2.277   1.311   3.547
 4380SOL     OW14038   1.512   0.139   1.699
 4380SOL    HW114039   1.456   0.188   1.632
 4380SOL    HW214040   1.608   0.163   1.687
 4381SOL     OW14041   0.925   6.167   4.822
 4381SOL    HW114042   0.926   6.090   4.758
 4381SOL    HW214043   0.834   6.209   4.822
 4382SOL     OW14044   0.254   3.710   5.927
 4382SOL    HW114045   0.282   3.637   5.989
 4382SOL    HW214046   0.332   3.770   5.909
 4383SOL     OW14047   0.382   3.892   6.240
 4383SOL    HW114048   0.408   3.840   6.322
 4383SOL    HW214049   0.460   3.899   6.179
 4384SOL     OW14050   5.999   0.419   3.999
 4384SOL    HW114051   6.002   0.477   4.080
 4384SOL    HW214052   6.045   0.465   3.923
 4385SOL     OW14053   4.735   2.334   5.260
 4385SOL    HW114054   4.833   2.322   5.244
 4385SOL    HW214055   4.688   2.246   5.251
 4386SOL     OW14056   1.536   4.026   5.017
 4386SOL    HW114057   1.470   4.013   5.091
 4386SOL    HW214058   1.539   3.944   4.960
 4387SOL     OW14059   6.853   2.139   1.919
 4387SOL    HW114060   6.803   2.056   1.942
 4387SOL    HW214061   6.924   2.117   1.851
 4388SOL     OW14062   3.739   2.363   6.201
 4388SOL    HW114063   3.662   2.361   6.137
 4388SOL    HW214064   3.785   2.274   6.200
 4389SOL     OW14065   6.824   3.973   0.618
 4389SOL    HW114066   6.851   4.023   0.700
 4389SOL    HW214067   6.780   4.036   0.554
 4390SOL     OW14068   4.645   6.978   1.511
 4390SOL    HW114069   4.639   0.023   1.579
 4390SOL    HW214070   4.734   6.983   1.465
 4391SOL     OW14071   3.221   4.867   6.946
 4391SOL    HW114072   3.288   4.913   6.887
 4391SOL    HW214073   3.215   4.771   6.919
 4392SOL     OW14074   1.263   2.254   4.703
 4392SOL    HW114075   1.181   2.205   4.676
 4392SOL    HW214076   1.245   2.307   4.786
 4393SOL     OW14077   6.378   0.601   1.625
 4393SOL    HW114078   6.428   0.646   1.700
 4393SOL    HW214079   6.442   0.551   1.568
 4394SOL     OW14080   0.364   5.946   2.523
 4394SOL    HW114081   0.320   5.995   2.598
 4394SOL    HW214082   0.299   5.933   2.449
 4395SOL     OW14083   1.958   0.445   1.963
 4395SOL    HW114084   2.030   0.509   1.989
 4395SOL    HW214085   1.870   0.491   1.964
 4396SOL     OW14086   1.752   1.302   3.835
 4396SOL    HW114087   1.758   1.394   3.795
 4396SOL    HW214088   1.658   1.269   3.828
 4397SOL     OW14089   1.965   2.765   4.534
 4397SOL    HW114090   1.994   2.670   4.546
 4397SOL    HW214091   2.045   2.822   4.518
 4398SOL     OW14092   1.668   3.582   6.039
 4398SOL    HW114093   1.638   3.677   6.030
 4398SOL    HW214094   1.589   3.523   6.053
 4399SOL     OW14095   3.053   6.483   1.969
 4399SOL    HW114096   3.106   6.564   1.992
 4399SOL    HW214097   3.008   6.497   1.881
 4400SOL     OW14098   2.169   6.805   3.768
 4400SOL    HW114099   2.218   6.748   3.701
 4400SOL    HW214100   2.118   6.746   3.831
 4401SOL     OW14101   3.905   6.572   5.123
 4401SOL    HW114102   3.876   6.520   5.204
 4401SOL    HW214103   3.832   6.571   5.055
 4402SOL     OW14104   0.855   6.821   2.815
 4402SOL    HW114105   0.881   6.728   2.792
 4402SOL    HW214106   0.884   6.883   2.742
 4403SOL     OW14107   1.313   6.770   0.534
 4403SOL    HW114108   1.390   6.769   0.470
 4403SOL    HW214109   1.228   6.781   0.483
 4404SOL     OW14110   0.622   6.470   5.182
 4404SOL    HW114111   0.705   6.448   5.130
 4404SOL    HW214112   0.563   6.528   5.126
 4405SOL     OW14113   2.046   5.017   2.072
 4405SOL    HW114114   2.064   4.929   2.029
 4405SOL    HW214115   2.030   5.004   2.170
 4406SOL     OW14116   6.703   2.834   0.610
 4406SOL    HW114117   6.697   2.911   0.674
 4406SOL    HW214118   6.800   2.813   0.592
 4407SOL     OW14119   6.997   5.285   1.767
 4407SOL    HW114120   6.899   5.299   1.763
 4407SOL    HW214121   7.018   5.188   1.754
 4408SOL     OW14122   1.990   6.735   7.008
 4408SOL    HW114123   2.026   6.680   0.055
 4408SOL    HW214124   2.049   6.724   6.927
 4409SOL     OW14125   4.434   1.255   1.300
 4409SOL    HW114126   4.431   1.155   1.309
 4409SOL    HW214127   4.510   1.291   1.353
 4410SOL     OW14128   0.036   5.626   0.046
 4410SOL    HW114129   0.031   5.554   0.114
 4410SOL    HW214130   6.981   5.682   0.050
 4411SOL     OW14131   3.396   4.671   5.280
 4411SOL    HW114132   3.316   4.662   5.221
 4411SOL    HW214133   3.368   4.658   5.376
 4412SOL     OW14134   4.580   6.459   4.087
 4412SOL    HW114135   4.651   6.421   4.147
 4412SOL    HW214136   4.566   6.555   4.110
 4413SOL     OW14137   5.628   5.698   3.616
 4413SOL    HW114138   5.563   5.656   3.552
 4413SOL    HW214139   5.579   5.732   3.696
 4414SOL     OW14140   4.020   5.995   1.119
 4414SOL    HW114141   3.921   6.004   1.107
 4414SOL    HW214142   4.068   6.054   1.054
 4415SOL     OW14143   4.235   3.124   0.478
 4415SOL    HW114144   4.253   3.222   0.479
 4415SOL    HW214145   4.197   3.096   0.566
 4416SOL     OW14146   4.313   1.895   3.581
 4416SOL    HW114147   4.290   1.992   3.585
 4416SOL    HW214148   4.285   1.851   3.666
 4417SOL     OW14149   5.380   3.207   3.993
 4417SOL    HW114150   5.375   3.225   3.894
 4417SOL    HW214151   5.476   3.204   4.021
 4418SOL     OW14152   6.431   2.155   2.645
 4418SOL    HW114153   6.517   2.182   2.688
 4418SOL    HW214154   6.418   2.204   2.559
 4419SOL     OW14155   6.689   0.451   5.802
 4419SOL    HW114156   6.655   0.362   5.832
 4419SOL    HW214157   6.643   0.478   5.717
 4420SOL     OW14158   3.644   1.664   1.127
 4420SOL    HW114159   3.677   1.758   1.136
 4420SOL    HW214160   3.674   1.610   1.206
 4421SOL     OW14161   2.404   1.773   5.350
 4421SOL    HW114162   2.389   1.848   5.286
 4421SOL    HW214163   2.316   1.745   5.390
 4422SOL     OW14164   1.274   4.161   0.032
 4422SOL    HW114165   1.242   4.229   0.097
 4422SOL    HW214166   1.196   4.125   7.008
 4423SOL     OW14167   0.517   4.428   6.013
 4423SOL    HW114168   0.542   4.423   6.110
 4423SOL    HW214169   0.463   4.510   5.996
 4424SOL     OW14170   5.368   6.182   4.934
 4424SOL    HW114171   5.414   6.179   5.023
 4424SOL    HW214172   5.289   6.120   4.936
 4425SOL     OW14173   1.520   5.203   0.879
 4425SOL    HW114174   1.609   5.178   0.917
 4425SOL    HW214175   1.532   5.277   0.813
 4426SOL     OW14176   0.476   1.455   4.007
 4426SOL    HW114177   0.575   1.445   3.994
 4426SOL    HW214178   0.459   1.501   4.094
 4427SOL     OW14179   4.689   5.973   2.685
 4427SOL    HW114180   4.614   5.940   2.627
 4427SOL    HW214181   4.749   5.897   2.708
 4428SOL     OW14182   4.137   0.569   4.346
 4428SOL    HW114183   4.214   0.574   4.410
 4428SOL    HW214184   4.097   0.660   4.334
 4429SOL     OW14185   2.757   6.374   2.745
 4429SOL    HW114186   2.805   6.461   2.742
 4429SOL    HW214187   2.753   6.334   2.653
 4430SOL     OW14188   4.915   4.683   4.934
 4430SOL    HW114189   4.941   4.593   4.969
 4430SOL    HW214190   4.832   4.674   4.878
 4431SOL     OW14191   2.782   1.122   2.825
 4431SOL    HW114192   2.779   1.025   2.848
 4431SOL    HW214193   2.783   1.176   2.909
 4432SOL     OW14194   2.328   3.713   6.734
 4432SOL    HW114195   2.313   3.778   6.660
 4432SOL    HW214196   2.424   3.683   6.733
 4433SOL     OW14197   0.098   2.799   4.378
 4433SOL    HW114198   0.143   2.734   4.317
 4433SOL    HW214199   0.163   2.831   4.447
 4434SOL     OW14200   5.424   1.960   3.288
 4434SOL    HW114201   5.521   1.940   3.279
 4434SOL    HW214202   5.398   2.032   3.224
 4435SOL     OW14203   3.914   4.100   1.538
 4435SOL    HW114204   3.938   4.025   1.475
 4435SOL    HW214205   3.942   4.075   1.631
 4436SOL     OW14206   3.921   1.473   1.270
 4436SOL    HW114207   3.964   1.484   1.181
 4436SOL    HW214208   3.899   1.376   1.285
 4437SOL     OW14209   0.693   3.474   2.763
 4437SOL    HW114210   0.677   3.529   2.681
 4437SOL    HW214211   0.613   3.418   2.782
 4438SOL     OW14212   5.188   6.789   5.897
 4438SOL    HW114213   5.285   6.786   5.921
 4438SOL    HW214214   5.133   6.779   5.980
 4439SOL     OW14215   0.549   4.930   2.312
 4439SOL    HW114216   0.463   4.926   2.363
 4439SOL    HW214217   0.577   4.837   2.286
 4440SOL     OW14218   2.084   5.083   0.195
 4440SOL    HW114219   2.006   5.147   0.192
 4440SOL    HW214220   2.163   5.130   0.234
 4441SOL     OW14221   6.757   1.122   0.967
 4441SOL    HW114222   6.829   1.156   1.028
 4441SOL    HW214223   6.717   1.038   1.005
 4442SOL     OW14224   1.495   5.537   5.021
 4442SOL    HW114225   1.495   5.529   5.121
 4442SOL    HW214226   1.589   5.550   4.989
 4443SOL     OW14227   0.887   4.001   5.894
 4443SOL    HW114228   0.831   4.025   5.814
 4443SOL    HW214229   0.879   4.073   5.963
 4444SOL     OW14230   4.416   3.480   0.427
 4444SOL    HW114231   4.428   3.579   0.429
 4444SOL    HW214232   4.368   3.454   0.343
 4445SOL     OW14233   1.440   6.023   0.113
 4445SOL    HW114234   1.481   5.957   0.177
 4445SOL    HW214235   1.486   6.111   0.122
 4446SOL     OW14236   5.498   1.727   0.237
 4446SOL    HW114237   5.444   1.646   0.258
 4446SOL    HW214238   5.438   1.799   0.200
 4447SOL     OW14239   5.820   4.007   4.636
 4447SOL    HW114240   5.915   3.997   4.607
 4447SOL    HW214241   5.816   4.025   4.734
 4448SOL     OW14242   2.882   6.557   0.885
 4448SOL    HW114243   2.890   6.461   0.913
 4448SOL    HW214244   2.955   6.579   0.820
 4449SOL     OW14245   4.789   0.951   5.727
 4449SOL    HW114246   4.884   0.938   5.754
 4449SOL    HW214247   4.757   0.869   5.680
 4450SOL     OW14248   3.218   1.497   6.951
 4450SOL    HW114249   3.177   1.579   6.992
 4450SOL    HW214250   3.207   1.501   6.851
 4451SOL     OW14251   4.617   5.258   4.616
 4451SOL    HW114252   4.602   5.175   4.562
 4451SOL    HW214253   4.714   5.269   4.633
 4452SOL     OW14254   6.465   5.233   4.561
 4452SOL    HW114255   6.459   5.234   4.462
 4452SOL    HW214256   6.491   5.142   4.593
 4453SOL     OW14257   1.011   2.654   1.676
 4453SOL    HW114258   1.090   2.597   1.657
 4453SOL    HW214259   1.015   2.737   1.621
 4454SOL     OW14260   1.397   1.700   0.039
 4454SOL    HW114261   1.413   1.681   6.970
 4454SOL    HW214262   1.342   1.627   0.078
 4455SOL     OW14263   5.291   6.038   5.438
 4455SOL    HW114264   5.211   6.084   5.402
 4455SOL    HW214265   5.290   5.942   5.409
 4456SOL     OW14266   2.056   5.758   3.350
 4456SOL    HW114267   2.115   5.693   3.303
 4456SOL    HW214268   1.979   5.710   3.392
 4457SOL     OW14269   2.646   1.816   4.005
 4457SOL    HW114270   2.650   1.845   4.101
 4457SOL    HW214271   2.582   1.740   3.996
 4458SOL     OW14272   2.746   3.731   1.694
 4458SOL    HW114273   2.669   3.795   1.694
 4458SOL    HW214274   2.789   3.731   1.784
 4459SOL     OW14275   3.543   1.632   4.103
 4459SOL    HW114276   3.620   1.569   4.094
 4459SOL    HW214277   3.565   1.703   4.170
 4460SOL     OW14278   1.050   2.676   6.329
 4460SOL    HW114279   1.143   2.682   6.365
 4460SOL    HW214280   0.985   2.702   6.401
 4461SOL     OW14281   1.773   0.899   0.751
 4461SOL    HW114282   1.705   0.844   0.799
 4461SOL    HW214283   1.857   0.846   0.741
 4462SOL     OW14284   6.017   4.509   1.849
 4462SOL    HW114285   5.924   4.546   1.847
 4462SOL    HW214286   6.071   4.551   1.776
 4463SOL     OW14287   5.009   0.873   1.236
 4463SOL    HW114288   4.911   0.871   1.218
 4463SOL    HW214289   5.039   0.784   1.270
 4464SOL     OW14290   0.340   6.150   0.279
 4464SOL    HW114291   0.269   6.212   0.246
 4464SOL    HW214292   0.430   6.193   0.264
 4465SOL     OW14293   2.506   4.988   6.890
 4465SOL    HW114294   2.502   5.057   6.818
 4465SOL    HW214295   2.494   5.032   6.979
 4466SOL     OW14296   1.085   2.023   2.556
 4466SOL    HW114297   1.078   1.952   2.626
 4466SOL    HW214298   1.148   2.094   2.587
 4467SOL     OW14299   2.540   5.368   3.623
 4467SOL    HW114300   2.583   5.354   3.712
 4467SOL    HW214301   2.547   5.283   3.570
 4468SOL     OW14302   1.252   4.435   1.206
 4468SOL    HW114303   1.217   4.462   1.296
 4468SOL    HW214304   1.218   4.344   1.183
 4469SOL     OW14305   3.084   1.080   1.532
 4469SOL    HW114306   3.053   0.989   1.503
 4469SOL    HW214307   3.092   1.139   1.452
 4470SOL     OW14308   0.822   1.553   2.212
 4470SOL    HW114309   0.748   1.619   2.228
 4470SOL    HW214310   0.858   1.566   2.120
 4471SOL     OW14311   1.564   2.399   6.980
 4471SOL    HW114312   1.640   2.356   6.931
 4471SOL    HW214313   1.594   2.427   0.043
 4472SOL     OW14314   0.703   1.667   0.536
 4472SOL    HW114315   0.663   1.704   0.619
 4472SOL    HW214316   0.696   1.735   0.462
 4473SOL     OW14317   5.050   2.671   3.981
 4473SOL    HW114318   5.110   2.596   3.952
 4473SOL    HW214319   5.098   2.758   3.971
 4474SOL     OW14320   2.950   6.921   2.293
 4474SOL    HW114321   2.944   6.879   2.202
 4474SOL    HW214322   2.865   6.903   2.343
 4475SOL     OW14323   1.269   3.748   1.468
 4475SOL    HW114324   1.193   3.700   1.511
 4475SOL    HW214325   1.280   3.716   1.374
 4476SOL     OW14326   6.239   0.777   4.398
 4476SOL    HW114327   6.301   0.806   4.471
 4476SOL    HW214328   6.284   0.788   4.309
 4477SOL     OW14329   1.595   0.310   5.020
 4477SOL    HW114330   1.651   0.329   5.101
 4477SOL    HW214331   1.499   0.302   5.047
 4478SOL     OW14332   1.495   0.342   2.033
 4478SOL    HW114333   1.543   0.317   2.117
 4478SOL    HW214334   1.407   0.383   2.056
 4479SOL     OW14335   1.456   1.976   1.217
 4479SOL    HW114336   1.404   1.924   1.284
 4479SOL    HW214337   1.554   1.972   1.240
 4480SOL     OW14338   0.758   4.876   5.176
 4480SOL    HW114339   0.849   4.847   5.148
 4480SOL    HW214340   0.713   4.925   5.102
 4481SOL     OW14341   2.542   5.223   5.095
 4481SOL    HW114342   2.541   5.315   5.054
 4481SOL    HW214343   2.626   5.211   5.147
 4482SOL     OW14344   2.149   2.707   5.709
 4482SOL    HW114345   2.215   2.742   5.642
 4482SOL    HW214346   2.060   2.695   5.665
 4483SOL     OW14347   0.403   2.650   2.267
 4483SOL    HW114348   0.409   2.750   2.266
 4483SOL    HW214349   0.493   2.611   2.247
 4484SOL     OW14350   2.468   2.776   0.276
 4484SOL    HW114351   2.440   2.732   0.191
 4484SOL    HW214352   2.461   2.711   0.351
 4485SOL     OW14353   4.921   2.721   5.212
 4485SOL    HW114354   4.999   2.668   5.178
 4485SOL    HW214355   4.843   2.708   5.151
 4486SOL     OW14356   5.799   5.109   5.165
 4486SOL    HW114357   5.733   5.042   5.198
 4486SOL    HW214358   5.775   5.200   5.199
 4487SOL     OW14359   2.507   3.075   0.326
 4487SOL    HW114360   2.528   2.977   0.324
 4487SOL    HW214361   2.480   3.101   0.419
 4488SOL     OW14362   0.620   3.732   4.809
 4488SOL    HW114363   0.644   3.778   4.724
 4488SOL    HW214364   0.637   3.634   4.800
 4489SOL     OW14365   4.692   5.438   5.097
 4489SOL    HW114366   4.655   5.452   5.188
 4489SOL    HW214367   4.770   5.375   5.102
 4490SOL     OW14368   5.140   1.629   1.622
 4490SOL    HW114369   5.197   1.704   1.657
 4490SOL    HW214370   5.142   1.552   1.685
 4491SOL     OW14371   0.693   3.331   3.346
 4491SOL    HW114372   0.742   3.391   3.409
 4491SOL    HW214373   0.756   3.265   3.306
 4492SOL     OW14374   5.893   3.072   1.862
 4492SOL    HW114375   5.857   3.070   1.955
 4492SOL    HW214376   5.917   3.166   1.837
 4493SOL     OW14377   5.557   6.757   5.085
 4493SOL    HW114378   5.527   6.709   5.003
 4493SOL    HW214379   5.633   6.707   5.127
 4494SOL     OW14380   1.196   0.655   5.912
 4494SOL    HW114381   1.279   0.688   5.866
 4494SOL    HW214382   1.125   0.725   5.908
 4495SOL     OW14383   4.450   0.110   3.068
 4495SOL    HW114384   4.450   0.032   3.130
 4495SOL    HW214385   4.403   0.086   2.984
 4496SOL     OW14386   5.456   5.944   0.662
 4496SOL    HW114387   5.494   6.036   0.655
 4496SOL    HW214388   5.440   5.908   0.570
 4497SOL     OW14389   3.909   2.508   6.699
 4497SOL    HW114390   3.873   2.601   6.704
 4497SOL    HW214391   3.960   2.496   6.614
 4498SOL     OW14392   6.753   4.679   6.436
 4498SOL    HW114393   6.728   4.647   6.527
 4498SOL    HW214394   6.845   4.717   6.437
 4499SOL     OW14395   6.423   2.269   3.506
 4499SOL    HW114396   6.368   2.289   3.587
 4499SOL    HW214397   6.476   2.350   3.481
 4500SOL     OW14398   3.796   4.416   6.390
 4500SOL    HW114399   3.775   4.512   6.409
 4500SOL    HW214400   3.817   4.369   6.476
 4501SOL     OW14401   6.388   2.804   2.934
 4501SOL    HW114402   6.360   2.770   3.024
 4501SOL    HW214403   6.313   2.858   2.895
 4502SOL     OW14404   1.443   3.713   6.917
 4502SOL    HW114405   1.442   3.810   6.940
 4502SOL    HW214406   1.520   3.693   6.857
 4503SOL     OW14407   3.009   0.174   2.281
 4503SOL    HW114408   2.943   0.207   2.214
 4503SOL    HW214409   3.006   0.074   2.285
 4504SOL     OW14410   6.023   2.215   4.402
 4504SOL    HW114411   5.964   2.293   4.424
 4504SOL    HW214412   5.967   2.133   4.390
 4505SOL     OW14413   6.385   4.460   1.617
 4505SOL    HW114414   6.377   4.400   1.696
 4505SOL    HW214415   6.477   4.498   1.613
 4506SOL     OW14416   5.320   2.458   3.396
 4506SOL    HW114417   5.331   2.550   3.360
 4506SOL    HW214418   5.359   2.392   3.331
 4507SOL     OW14419   0.248   3.191   3.464
 4507SOL    HW114420   0.334   3.242   3.471
 4507SOL    HW214421   0.219   3.190   3.368
 4508SOL     OW14422   1.331   4.824   0.243
 4508SOL    HW114423   1.430   4.830   0.230
 4508SOL    HW214424   1.286   4.889   0.182
 4509SOL     OW14425   4.770   2.192   3.063
 4509SOL    HW114426   4.805   2.285   3.053
 4509SOL    HW214427   4.726   2.164   2.978
 4510SOL     OW14428   4.629   1.078   4.397
 4510SOL    HW114429   4.554   1.072   4.463
 4510SOL    HW214430   4.670   1.169   4.402
 4511SOL     OW14431   6.006   3.415   0.152
 4511SOL    HW114432   6.056   3.340   0.109
 4511SOL    HW214433   5.936   3.377   0.213
 4512SOL     OW14434   3.332   1.941   5.883
 4512SOL    HW114435   3.268   1.865   5.873
 4512SOL    HW214436   3.415   1.921   5.830
 4513SOL     OW14437   0.772   6.435   6.409
 4513SOL    HW114438   0.698   6.422   6.474
 4513SOL    HW214439   0.820   6.521   6.429
 4514SOL     OW14440   3.555   2.632   6.553
 4514SOL    HW114441   3.582   2.666   6.643
 4514SOL    HW214442   3.587   2.538   6.541
 4515SOL     OW14443   5.568   2.089   4.880
 4515SOL    HW114444   5.581   2.131   4.969
 4515SOL    HW214445   5.627   2.008   4.872
 4516SOL     OW14446   2.434   0.381   5.441
 4516SOL    HW114447   2.376   0.316   5.392
 4516SOL    HW214448   2.400   0.391   5.535
 4517SOL     OW14449   4.486   6.900   6.717
 4517SOL    HW114450   4.547   6.930   6.791
 4517SOL    HW214451   4.422   6.973   6.695
 4518SOL     OW14452   0.585   6.674   1.532
 4518SOL    HW114453   0.589   6.658   1.631
 4518SOL    HW214454   0.640   6.606   1.485
 4519SOL     OW14455   5.105   6.371   0.123
 4519SOL    HW114456   5.150   6.446   0.075
 4519SOL    HW214457   5.036   6.409   0.185
 4520SOL     OW14458   4.485   5.748   5.659
 4520SOL    HW114459   4.392   5.761   5.695
 4520SOL    HW214460   4.516   5.655   5.678
 4521SOL     OW14461   4.871   2.288   4.893
 4521SOL    HW114462   4.912   2.297   4.984
 4521SOL    HW214463   4.826   2.374   4.868
 4522SOL     OW14464   5.803   3.981   2.400
 4522SOL    HW114465   5.703   3.978   2.404
 4522SOL    HW214466   5.841   3.914   2.464
 4523SOL     OW14467   1.662   3.804   6.756
 4523SOL    HW114468   1.736   3.766   6.702
 4523SOL    HW214469   1.641   3.897   6.724
 4524SOL     OW14470   6.236   3.617   2.183
 4524SOL    HW114471   6.251   3.586   2.089
 4524SOL    HW214472   6.154   3.573   2.220
 4525SOL     OW14473   3.128   1.885   5.607
 4525SOL    HW114474   3.106   1.802   5.555
 4525SOL    HW214475   3.158   1.860   5.699
 4526SOL     OW14476   6.890   0.754   6.608
 4526SOL    HW114477   6.832   0.684   6.566
 4526SOL    HW214478   6.958   0.786   6.542
 4527SOL     OW14479   6.543   6.999   3.183
 4527SOL    HW114480   6.636   6.996   3.219
 4527SOL    HW214481   6.518   6.909   3.149
 4528SOL     OW14482   4.417   0.961   6.486
 4528SOL    HW114483   4.352   0.892   6.455
 4528SOL    HW214484   4.413   0.969   6.585
 4529SOL     OW14485   2.956   1.151   5.810
 4529SOL    HW114486   2.991   1.242   5.790
 4529SOL    HW214487   2.907   1.154   5.898
 4530SOL     OW14488   2.239   5.586   3.597
 4530SOL    HW114489   2.272   5.493   3.580
 4530SOL    HW214490   2.140   5.589   3.586
 4531SOL     OW14491   1.261   3.686   6.220
 4531SOL    HW114492   1.305   3.664   6.133
 4531SOL    HW214493   1.194   3.615   6.242
 4532SOL     OW14494   5.421   0.357   3.226
 4532SOL    HW114495   5.495   0.327   3.287
 4532SOL    HW214496   5.336   0.362   3.278
 4533SOL     OW14497   1.513   1.407   2.787
 4533SOL    HW114498   1.516   1.440   2.692
 4533SOL    HW214499   1.548   1.314   2.791
 4534SOL     OW14500   4.362   2.214   5.387
 4534SOL    HW114501   4.459   2.209   5.412
 4534SOL    HW214502   4.312   2.141   5.433
 4535SOL     OW14503   3.437   0.845   1.322
 4535SOL    HW114504   3.485   0.812   1.240
 4535SOL    HW214505   3.490   0.919   1.363
 4536SOL     OW14506   3.360   1.595   4.876
 4536SOL    HW114507   3.260   1.599   4.876
 4536SOL    HW214508   3.397   1.677   4.920
 4537SOL     OW14509   4.100   3.219   2.237
 4537SOL    HW114510   4.115   3.265   2.149
 4537SOL    HW214511   4.166   3.145   2.247
 4538SOL     OW14512   2.291   1.379   1.981
 4538SOL    HW114513   2.333   1.290   1.962
 4538SOL    HW214514   2.361   1.451   1.973
 4539SOL     OW14515   2.288   5.384   3.984
 4539SOL    HW114516   2.336   5.309   3.939
 4539SOL    HW214517   2.301   5.468   3.931
 4540SOL     OW14518   1.847   1.513   0.926
 4540SOL    HW114519   1.924   1.455   0.954
 4540SOL    HW214520   1.837   1.589   0.991
 4541SOL     OW14521   4.726   0.958   0.274
 4541SOL    HW114522   4.812   0.962   0.325
 4541SOL    HW214523   4.745   0.933   0.179
 4542SOL     OW14524   0.027   1.841   1.630
 4542SOL    HW114525   0.029   1.935   1.597
 4542SOL    HW214526   0.026   1.778   1.552
 4543SOL     OW14527   4.789   2.183   0.707
 4543SOL    HW114528   4.765   2.087   0.717
 4543SOL    HW214529   4.746   2.236   0.780
 4544SOL     OW14530   4.217   4.840   0.738
 4544SOL    HW114531   4.128   4.876   0.713
 4544SOL    HW214532   4.254   4.892   0.816
 4545SOL     OW14533   0.468   3.528   5.521
 4545SOL    HW114534   0.369   3.537   5.522
 4545SOL    HW214535   0.510   3.611   5.559
 4546SOL     OW14536   2.960   0.070   5.024
 4546SOL    HW114537   2.952   0.164   5.057
 4546SOL    HW214538   2.928   0.065   4.929
 4547SOL     OW14539   6.408   0.772   0.238
 4547SOL    HW114540   6.347   0.730   0.306
 4547SOL    HW214541   6.362   0.774   0.150
 4548SOL     OW14542   2.679   2.250   3.372
 4548SOL    HW114543   2.778   2.269   3.372
 4548SOL    HW214544   2.629   2.334   3.352
 4549SOL     OW14545   5.093   4.118   2.104
 4549SOL    HW114546   5.060   4.036   2.151
 4549SOL    HW214547   5.077   4.109   2.006
 4550SOL     OW14548   1.289   4.268   3.547
 4550SOL    HW114549   1.271   4.291   3.451
 4550SOL    HW214550   1.242   4.334   3.606
 4551SOL     OW14551   0.804   3.911   5.237
 4551SOL    HW114552   0.746   3.942   5.312
 4551SOL    HW214553   0.823   3.987   5.175
 4552SOL     OW14554   5.944   2.114   1.471
 4552SOL    HW114555   5.874   2.147   1.408
 4552SOL    HW214556   5.901   2.068   1.549
 4553SOL     OW14557   5.339   4.510   6.489
 4553SOL    HW114558   5.369   4.539   6.399
 4553SOL    HW214559   5.410   4.452   6.530
 4554SOL     OW14560   0.299   0.028   1.455
 4554SOL    HW114561   0.300   6.956   1.460
 4554SOL    HW214562   0.214   0.062   1.497
 4555SOL     OW14563   1.472   1.227   6.744
 4555SOL    HW114564   1.375   1.219   6.768
 4555SOL    HW214565   1.514   1.301   6.797
 4556SOL     OW14566   6.045   3.204   5.187
 4556SOL    HW114567   5.973   3.204   5.118
 4556SOL    HW214568   6.120   3.263   5.157
 4557SOL     OW14569   6.040   5.003   4.682
 4557SOL    HW114570   5.986   4.982   4.763
 4557SOL    HW214571   5.979   5.013   4.603
 4558SOL     OW14572   6.876   3.341   5.319
 4558SOL    HW114573   6.965   3.336   5.364
 4558SOL    HW214574   6.826   3.255   5.333
 4559SOL     OW14575   0.361   3.803   2.647
 4559SOL    HW114576   0.291   3.869   2.674
 4559SOL    HW214577   0.363   3.795   2.548
 4560SOL     OW14578   6.295   4.438   2.422
 4560SOL    HW114579   6.321   4.491   2.342
 4560SOL    HW214580   6.329   4.484   2.504
 4561SOL     OW14581   3.800   1.647   3.531
 4561SOL    HW114582   3.751   1.584   3.591
 4561SOL    HW214583   3.780   1.741   3.559
 4562SOL     OW14584   1.504   6.778   0.320
 4562SOL    HW114585   1.567   6.701   0.314
 4562SOL    HW214586   1.520   6.840   0.243
 4563SOL     OW14587   6.310   3.296   1.029
 4563SOL    HW114588   6.315   3.310   0.930
 4563SOL    HW214589   6.262   3.373   1.071
 4564SOL     OW14590   0.226   4.980   2.239
 4564SOL    HW114591   0.207   4.915   2.312
 4564SOL    HW214592   0.211   4.936   2.150
 4565SOL     OW14593   1.689   1.140   4.739
 4565SOL    HW114594   1.647   1.199   4.671
 4565SOL    HW214595   1.652   1.048   4.730
 4566SOL     OW14596   0.364   3.200   0.881
 4566SOL    HW114597   0.366   3.294   0.847
 4566SOL    HW214598   0.397   3.197   0.976
 4567SOL     OW14599   0.202   0.629   6.983
 4567SOL    HW114600   0.173   0.658   0.046
 4567SOL    HW214601   0.124   0.592   6.932
 4568SOL     OW14602   0.985   4.408   5.181
 4568SOL    HW114603   1.076   4.370   5.193
 4568SOL    HW214604   0.970   4.431   5.085
 4569SOL     OW14605   3.029   0.811   2.700
 4569SOL    HW114606   2.974   0.824   2.783
 4569SOL    HW214607   2.998   0.728   2.653
 4570SOL     OW14608   6.356   6.759   2.136
 4570SOL    HW114609   6.258   6.761   2.157
 4570SOL    HW214610   6.395   6.671   2.163
 4571SOL     OW14611   4.088   3.321   6.600
 4571SOL    HW114612   4.120   3.251   6.665
 4571SOL    HW214613   4.149   3.399   6.603
 4572SOL     OW14614   1.715   1.703   6.455
 4572SOL    HW114615   1.794   1.642   6.451
 4572SOL    HW214616   1.634   1.653   6.425
 4573SOL     OW14617   0.900   6.746   0.676
 4573SOL    HW114618   0.864   6.653   0.670
 4573SOL    HW214619   0.827   6.811   0.653
 4574SOL     OW14620   5.838   4.131   6.973
 4574SOL    HW114621   5.848   4.063   0.018
 4574SOL    HW214622   5.851   4.222   7.010
 4575SOL     OW14623   5.813   0.748   4.532
 4575SOL    HW114624   5.732   0.715   4.484
 4575SOL    HW214625   5.882   0.676   4.534
 4576SOL     OW14626   2.367   4.480   5.494
 4576SOL    HW114627   2.380   4.488   5.395
 4576SOL    HW214628   2.419   4.402   5.528
 4577SOL     OW14629   1.653   2.866   3.206
 4577SOL    HW114630   1.697   2.956   3.210
 4577SOL    HW214631   1.632   2.835   3.298
 4578SOL     OW14632   1.111   1.244   4.453
 4578SOL    HW114633   1.160   1.331   4.455
 4578SOL    HW214634   1.141   1.186   4.528
 4579SOL     OW14635   4.758   1.076   2.177
 4579SOL    HW114636   4.659   1.085   2.182
 4579SOL    HW214637   4.783   1.015   2.102
 4580SOL     OW14638   5.389   4.041   1.017
 4580SOL    HW114639   5.439   4.032   0.931
 4580SOL    HW214640   5.299   3.997   1.008
 4581SOL     OW14641   2.456   6.115   2.201
 4581SOL    HW114642   2.399   6.197   2.206
 4581SOL    HW214643   2.539   6.135   2.150
 4582SOL     OW14644   4.670   0.852   3.310
 4582SOL    HW114645   4.693   0.816   3.400
 4582SOL    HW214646   4.572   0.871   3.305
 4583SOL     OW14647   2.970   1.327   6.495
 4583SOL    HW114648   3.008   1.236   6.479
 4583SOL    HW214649   3.043   1.395   6.490
 4584SOL     OW14650   2.105   6.309   5.697
 4584SOL    HW114651   2.199   6.301   5.728
 4584SOL    HW214652   2.089   6.246   5.622
 4585SOL     OW14653   1.538   4.069   3.478
 4585SOL    HW114654   1.449   4.103   3.451
 4585SOL    HW214655   1.539   4.051   3.577
 4586SOL     OW14656   5.127   4.047   0.316
 4586SOL    HW114657   5.227   4.054   0.304
 4586SOL    HW214658   5.106   4.037   0.413
 4587SOL     OW14659   3.831   3.303   4.397
 4587SOL    HW114660   3.857   3.303   4.300
 4587SOL    HW214661   3.822   3.208   4.429
 4588SOL     OW14662   3.415   3.144   5.953
 4588SOL    HW114663   3.351   3.150   5.876
 4588SOL    HW214664   3.380   3.198   6.030
 4589SOL     OW14665   5.521   6.690   1.894
 4589SOL    HW114666   5.614   6.726   1.905
 4589SOL    HW214667   5.465   6.718   1.972
 4590SOL     OW14668   3.787   5.770   1.693
 4590SOL    HW114669   3.838   5.856   1.694
 4590SOL    HW214670   3.770   5.741   1.788
 4591SOL     OW14671   1.504   0.667   4.870
 4591SOL    HW114672   1.519   0.740   4.804
 4591SOL    HW214673   1.580   0.602   4.866
 4592SOL     OW14674   3.004   1.803   3.625
 4592SOL    HW114675   3.048   1.856   3.553
 4592SOL    HW214676   2.947   1.864   3.680
 4593SOL     OW14677   6.182   6.053   2.325
 4593SOL    HW114678   6.191   5.953   2.318
 4593SOL    HW214679   6.245   6.087   2.394
 4594SOL     OW14680   3.389   0.379   3.184
 4594SOL    HW114681   3.308   0.351   3.131
 4594SOL    HW214682   3.363   0.390   3.280
 4595SOL     OW14683   4.602   2.820   5.755
 4595SOL    HW114684   4.534   2.756   5.791
 4595SOL    HW214685   4.684   2.769   5.727
 4596SOL     OW14686   6.562   0.541   2.723
 4596SOL    HW114687   6.539   0.599   2.801
 4596SOL    HW214688   6.660   0.521   2.725
 4597SOL     OW14689   2.712   5.346   6.498
 4597SOL    HW114690   2.721   5.263   6.444
 4597SOL    HW214691   2.730   5.326   6.594
 4598SOL     OW14692   2.050   5.757   1.398
 4598SOL    HW114693   2.038   5.807   1.312
 4598SOL    HW214694   1.984   5.789   1.466
 4599SOL     OW14695   1.707   3.994   2.246
 4599SOL    HW114696   1.793   4.028   2.209
 4599SOL    HW214697   1.693   4.032   2.338
 4600SOL     OW14698   0.313   0.262   5.345
 4600SOL    HW114699   0.326   0.182   5.287
 4600SOL    HW214700   0.379   0.260   5.420
 4601SOL     OW14701   0.875   2.045   5.322
 4601SOL    HW114702   0.916   2.076   5.408
 4601SOL    HW214703   0.831   2.123   5.277
 4602SOL     OW14704   2.993   0.085   6.232
 4602SOL    HW114705   2.987   7.018   6.202
 4602SOL    HW214706   2.910   0.134   6.204
 4603SOL     OW14707   3.309   5.825   0.844
 4603SOL    HW114708   3.391   5.777   0.813
 4603SOL    HW214709   3.230   5.795   0.791
 4604SOL     OW14710   5.275   6.974   6.398
 4604SOL    HW114711   5.298   6.999   6.304
 4604SOL    HW214712   5.236   6.882   6.399
 4605SOL     OW14713   2.262   0.295   1.908
 4605SOL    HW114714   2.162   0.301   1.910
 4605SOL    HW214715   2.300   0.386   1.892
 4606SOL     OW14716   6.340   6.989   2.359
 4606SOL    HW114717   6.397   7.024   2.434
 4606SOL    HW214718   6.398   6.943   2.292
 4607SOL     OW14719   2.130   3.506   3.321
 4607SOL    HW114720   2.196   3.564   3.273
 4607SOL    HW214721   2.041   3.551   3.325
 4608SOL     OW14722   0.188   3.594   3.271
 4608SOL    HW114723   0.177   3.666   3.202
 4608SOL    HW214724   0.255   3.528   3.238
 4609SOL     OW14725   4.935   5.282   6.830
 4609SOL    HW114726   4.980   5.322   6.909
 4609SOL    HW214727   4.995   5.212   6.789
 4610SOL     OW14728   4.838   1.746   0.014
 4610SOL    HW114729   4.739   1.739   0.025
 4610SOL    HW214730   4.859   1.801   6.961
 4611SOL     OW14731   0.663   0.918   6.085
 4611SOL    HW114732   0.655   0.941   6.182
 4611SOL    HW214733   0.656   1.002   6.031
 4612SOL     OW14734   2.575   6.935   2.119
 4612SOL    HW114735   2.650   6.879   2.084
 4612SOL    HW214736   2.593   6.959   2.214
 4613SOL     OW14737   1.219   5.662   2.898
 4613SOL    HW114738   1.228   5.726   2.974
 4613SOL    HW214739   1.301   5.665   2.841
 4614SOL     OW14740   6.233   3.324   3.796
 4614SOL    HW114741   6.300   3.370   3.855
 4614SOL    HW214742   6.271   3.236   3.766
 4615SOL     OW14743   1.158   0.914   1.403
 4615SOL    HW114744   1.206   0.840   1.356
 4615SOL    HW214745   1.224   0.974   1.449
 4616SOL     OW14746   5.928   3.019   3.920
 4616SOL    HW114747   5.897   2.955   3.989
 4616SOL    HW214748   6.009   2.982   3.873
 4617SOL     OW14749   1.828   2.329   1.947
 4617SOL    HW114750   1.747   2.360   1.898
 4617SOL    HW214751   1.822   2.358   2.043
 4618SOL     OW14752   2.379   3.055   5.718
 4618SOL    HW114753   2.403   3.021   5.626
 4618SOL    HW214754   2.372   3.154   5.716
 4619SOL     OW14755   3.521   6.821   4.203
 4619SOL    HW114756   3.614   6.851   4.225
 4619SOL    HW214757   3.506   6.728   4.238
 4620SOL     OW14758   0.496   4.833   1.349
 4620SOL    HW114759   0.529   4.854   1.441
 4620SOL    HW214760   0.440   4.750   1.353
 4621SOL     OW14761   5.303   0.989   2.519
 4621SOL    HW114762   5.354   1.074   2.529
 4621SOL    HW214763   5.358   0.923   2.468
 4622SOL     OW14764   4.023   5.095   1.202
 4622SOL    HW114765   4.083   5.024   1.164
 4622SOL    HW214766   4.045   5.110   1.298
 4623SOL     OW14767   3.251   5.413   0.767
 4623SOL    HW114768   3.348   5.434   0.758
 4623SOL    HW214769   3.233   5.371   0.856
 4624SOL     OW14770   3.155   1.342   3.280
 4624SOL    HW114771   3.247   1.379   3.272
 4624SOL    HW214772   3.108   1.349   3.192
 4625SOL     OW14773   2.232   5.656   1.988
 4625SOL    HW114774   2.246   5.559   1.971
 4625SOL    HW214775   2.196   5.670   2.080
 4626SOL     OW14776   4.494   4.657   1.362
 4626SOL    HW114777   4.470   4.569   1.403
 4626SOL    HW214778   4.586   4.683   1.388
 4627SOL     OW14779   0.733   6.003   5.032
 4627SOL    HW114780   0.782   6.076   4.985
 4627SOL    HW214781   0.796   5.948   5.086
 4628SOL     OW14782   4.882   4.361   4.211
 4628SOL    HW114783   4.969   4.377   4.259
 4628SOL    HW214784   4.814   4.426   4.244
 4629SOL     OW14785   2.418   4.890   6.204
 4629SOL    HW114786   2.410   4.923   6.110
 4629SOL    HW214787   2.386   4.795   6.210
 4630SOL     OW14788   2.472   5.381   2.333
 4630SOL    HW114789   2.499   5.369   2.428
 4630SOL    HW214790   2.411   5.306   2.306
 4631SOL     OW14791   0.708   6.875   3.901
 4631SOL    HW114792   0.683   6.794   3.953
 4631SOL    HW214793   0.776   6.851   3.831
 4632SOL     OW14794   2.437   4.992   3.062
 4632SOL    HW114795   2.521   5.047   3.060
 4632SOL    HW214796   2.371   5.034   3.125
 4633SOL     OW14797   4.908   1.063   5.158
 4633SOL    HW114798   4.915   1.067   5.059
 4633SOL    HW214799   4.994   1.028   5.196
 4634SOL     OW14800   2.948   3.791   4.950
 4634SOL    HW114801   2.874   3.793   4.883
 4634SOL    HW214802   3.000   3.707   4.940
 4635SOL     OW14803   4.457   4.443   1.508
 4635SOL    HW114804   4.396   4.473   1.582
 4635SOL    HW214805   4.534   4.393   1.547
 4636SOL     OW14806   1.762   4.868   0.879
 4636SOL    HW114807   1.799   4.793   0.825
 4636SOL    HW214808   1.673   4.896   0.842
 4637SOL     OW14809   0.979   6.675   0.205
 4637SOL    HW114810   0.936   6.621   0.132
 4637SOL    HW214811   0.997   6.768   0.171
 4638SOL     OW14812   3.872   5.648   6.564
 4638SOL    HW114813   3.817   5.728   6.591
 4638SOL    HW214814   3.938   5.628   6.637
 4639SOL     OW14815   2.492   2.551   6.401
 4639SOL    HW114816   2.449   2.528   6.488
 4639SOL    HW214817   2.437   2.516   6.325
 4640SOL     OW14818   6.259   3.074   4.159
 4640SOL    HW114819   6.352   3.056   4.191
 4640SOL    HW214820   6.209   2.988   4.153
 4641SOL     OW14821   1.995   0.190   3.580
 4641SOL    HW114822   2.023   0.193   3.484
 4641SOL    HW214823   2.001   0.282   3.619
 4642SOL     OW14824   1.280   0.404   3.273
 4642SOL    HW114825   1.314   0.311   3.286
 4642SOL    HW214826   1.351   0.469   3.299
 4643SOL     OW14827   6.810   2.496   0.875
 4643SOL    HW114828   6.877   2.554   0.921
 4643SOL    HW214829   6.724   2.545   0.865
 4644SOL     OW14830   0.258   0.976   5.637
 4644SOL    HW114831   0.225   0.943   5.726
 4644SOL    HW214832   0.236   0.908   5.566
 4645SOL     OW14833   1.243   0.628   4.303
 4645SOL    HW114834   1.268   0.705   4.361
 4645SOL    HW214835   1.276   0.643   4.210
 4646SOL     OW14836   2.424   4.832   4.349
 4646SOL    HW114837   2.477   4.900   4.400
 4646SOL    HW214838   2.366   4.780   4.412
 4647SOL     OW14839   1.036   0.520   3.372
 4647SOL    HW114840   1.107   0.468   3.326
 4647SOL    HW214841   0.996   0.587   3.308
 4648SOL     OW14842   2.569   0.846   4.494
 4648SOL    HW114843   2.472   0.868   4.489
 4648SOL    HW214844   2.587   0.763   4.441
 4649SOL     OW14845   5.645   0.609   0.990
 4649SOL    HW114846   5.739   0.575   0.994
 4649SOL    HW214847   5.630   0.674   1.064
 4650SOL     OW14848   4.278   5.911   1.904
 4650SOL    HW114849   4.363   5.896   1.853
 4650SOL    HW214850   4.293   5.889   2.000
 4651SOL     OW14851   5.796   3.555   6.913
 4651SOL    HW114852   5.730   3.596   6.851
 4651SOL    HW214853   5.859   3.626   6.945
 4652SOL     OW14854   6.175   6.620   5.248
 4652SOL    HW114855   6.253   6.679   5.268
 4652SOL    HW214856   6.091   6.665   5.277
 4653SOL     OW14857   4.932   5.658   0.573
 4653SOL    HW114858   4.915   5.735   0.510
 4653SOL    HW214859   5.020   5.671   0.618
 4654SOL     OW14860   0.209   6.581   5.809
 4654SOL    HW114861   0.214   6.487   5.842
 4654SOL    HW214862   0.285   6.599   5.747
 4655SOL     OW14863   4.820   3.982   2.116
 4655SOL    HW114864   4.809   4.070   2.069
 4655SOL    HW214865   4.849   3.913   2.050
 4656SOL     OW14866   0.742   0.669   1.719
 4656SOL    HW114867   0.679   0.634   1.650
 4656SOL    HW214868   0.777   0.593   1.774
 4657SOL     OW14869   5.175   5.805   2.251
 4657SOL    HW114870   5.248   5.870   2.271
 4657SOL    HW214871   5.125   5.785   2.335
 4658SOL     OW14872   2.662   2.476   5.762
 4658SOL    HW114873   2.577   2.497   5.714
 4658SOL    HW214874   2.737   2.528   5.721
 4659SOL     OW14875   2.880   4.513   0.733
 4659SOL    HW114876   2.798   4.496   0.787
 4659SOL    HW214877   2.854   4.549   0.644
 4660SOL     OW14878   1.256   6.258   4.088
 4660SOL    HW114879   1.283   6.282   3.994
 4660SOL    HW214880   1.166   6.295   4.108
 4661SOL     OW14881   2.312   4.267   5.834
 4661SOL    HW114882   2.217   4.300   5.838
 4661SOL    HW214883   2.344   4.247   5.927
 4662SOL     OW14884   3.288   0.085   5.277
 4662SOL    HW114885   3.298   0.049   5.184
 4662SOL    HW214886   3.327   0.020   5.342
 4663SOL     OW14887   0.436   7.008   0.601
 4663SOL    HW114888   0.511   6.993   0.665
 4663SOL    HW214889   0.392   0.068   0.622
 4664SOL     OW14890   0.220   0.517   0.478
 4664SOL    HW114891   0.284   0.534   0.403
 4664SOL    HW214892   0.183   0.424   0.469
 4665SOL     OW14893   2.575   0.223   5.859
 4665SOL    HW114894   2.580   0.323   5.847
 4665SOL    HW214895   2.577   0.179   5.769
 4666SOL     OW14896   1.909   2.712   6.759
 4666SOL    HW114897   1.880   2.656   6.682
 4666SOL    HW214898   1.933   2.804   6.727
 4667SOL     OW14899   6.890   4.141   1.965
 4667SOL    HW114900   6.879   4.073   2.038
 4667SOL    HW214901   6.869   4.099   1.877
 4668SOL     OW14902   4.623   1.594   5.114
 4668SOL    HW114903   4.578   1.650   5.044
 4668SOL    HW214904   4.643   1.651   5.194
 4669SOL     OW14905   5.630   0.150   6.497
 4669SOL    HW114906   5.681   0.113   6.576
 4669SOL    HW214907   5.537   0.114   6.499
 4670SOL     OW14908   0.927   3.002   6.994
 4670SOL    HW114909   0.989   2.925   6.982
 4670SOL    HW214910   0.840   2.968   0.003
 4671SOL     OW14911   1.151   3.442   0.141
 4671SOL    HW114912   1.168   3.533   0.102
 4671SOL    HW214913   1.180   3.441   0.236
 4672SOL     OW14914   3.890   4.473   5.894
 4672SOL    HW114915   3.887   4.503   5.798
 4672SOL    HW214916   3.894   4.373   5.898
 4673SOL     OW14917   5.069   0.066   7.017
 4673SOL    HW114918   5.100   0.122   6.940
 4673SOL    HW214919   4.975   0.091   0.013
 4674SOL     OW14920   5.494   1.750   0.562
 4674SOL    HW114921   5.575   1.728   0.508
 4674SOL    HW214922   5.521   1.802   0.643
 4675SOL     OW14923   3.605   0.318   7.011
 4675SOL    HW114924   3.591   0.417   7.004
 4675SOL    HW214925   3.699   0.299   0.011
 4676SOL     OW14926   0.144   6.543   4.485
 4676SOL    HW114927   0.141   6.643   4.496
 4676SOL    HW214928   0.216   6.506   4.544
 4677SOL     OW14929   2.914   0.438   6.809
 4677SOL    HW114930   2.838   0.498   6.836
 4677SOL    HW214931   2.903   0.349   6.852
 4678SOL     OW14932   2.250   5.399   1.933
 4678SOL    HW114933   2.210   5.322   1.883
 4678SOL    HW214934   2.349   5.399   1.921
 4679SOL     OW14935   3.855   1.386   6.518
 4679SOL    HW114936   3.900   1.328   6.450
 4679SOL    HW214937   3.767   1.346   6.543
 4680SOL     OW14938   2.677   6.560   1.805
 4680SOL    HW114939   2.618   6.592   1.731
 4680SOL    HW214940   2.638   6.587   1.893
 4681SOL     OW14941   6.454   6.132   4.359
 4681SOL    HW114942   6.472   6.118   4.457
 4681SOL    HW214943   6.477   6.049   4.309
 4682SOL     OW14944   4.719   5.477   6.821
 4682SOL    HW114945   4.679   5.468   6.729
 4682SOL    HW214946   4.796   5.414   6.830
 4683SOL     OW14947   5.047   4.386   2.216
 4683SOL    HW114948   5.056   4.288   2.199
 4683SOL    HW214949   5.029   4.402   2.314
 4684SOL     OW14950   0.239   2.578   4.319
 4684SOL    HW114951   0.271   2.559   4.412
 4684SOL    HW214952   0.317   2.594   4.259
 4685SOL     OW14953   6.982   5.339   4.297
 4685SOL    HW114954   6.919   5.261   4.298
 4685SOL    HW214955   7.018   5.353   4.389
 4686SOL     OW14956   5.156   5.895   0.275
 4686SOL    HW114957   5.234   5.846   0.313
 4686SOL    HW214958   5.162   5.896   0.175
 4687SOL     OW14959   6.594   4.376   5.417
 4687SOL    HW114960   6.654   4.311   5.465
 4687SOL    HW214961   6.603   4.467   5.457
 4688SOL     OW14962   0.203   2.623   6.133
 4688SOL    HW114963   0.204   2.717   6.099
 4688SOL    HW214964   0.191   2.623   6.232
 4689SOL     OW14965   5.617   0.584   6.216
 4689SOL    HW114966   5.568   0.636   6.146
 4689SOL    HW214967   5.555   0.518   6.258
 4690SOL     OW14968   1.086   0.893   0.184
 4690SOL    HW114969   1.095   0.969   0.248
 4690SOL    HW214970   1.086   0.927   0.090
 4691SOL     OW14971   3.014   4.077   1.714
 4691SOL    HW114972   3.041   4.048   1.806
 4691SOL    HW214973   2.948   4.151   1.721
 4692SOL     OW14974   6.743   4.908   2.703
 4692SOL    HW114975   6.839   4.906   2.675
 4692SOL    HW214976   6.710   4.815   2.715
 4693SOL     OW14977   0.805   0.891   4.054
 4693SOL    HW114978   0.769   0.939   4.134
 4693SOL    HW214979   0.777   0.938   3.971
 4694SOL     OW14980   2.954   0.656   0.055
 4694SOL    HW114981   2.938   0.573   0.107
 4694SOL    HW214982   3.037   0.645   7.027
 4695SOL     OW14983   3.000   3.281   1.883
 4695SOL    HW114984   3.062   3.219   1.932
 4695SOL    HW214985   2.941   3.228   1.823
 4696SOL     OW14986   1.207   5.211   6.171
 4696SOL    HW114987   1.273   5.172   6.107
 4696SOL    HW214988   1.237   5.193   6.265
 4697SOL     OW14989   1.625   3.525   0.633
 4697SOL    HW114990   1.575   3.440   0.621
 4697SOL    HW214991   1.655   3.559   0.543
 4698SOL     OW14992   4.789   5.004   2.363
 4698SOL    HW114993   4.701   4.961   2.342
 4698SOL    HW214994   4.812   4.987   2.459
 4699SOL     OW14995   0.849   0.198   2.575
 4699SOL    HW114996   0.757   0.209   2.539
 4699SOL    HW214997   0.855   0.115   2.630
 4700SOL     OW14998   5.531   1.540   1.781
 4700SOL    HW114999   5.583   1.577   1.858
 4700SOL    HW215000   5.534   1.604   1.704
 4701SOL     OW15001   1.431   1.739   0.343
 4701SOL    HW115002   1.350   1.783   0.381
 4701SOL    HW215003   1.418   1.725   0.245
 4702SOL     OW15004   4.907   4.757   6.594
 4702SOL    HW115005   4.924   4.838   6.538
 4702SOL    HW215006   4.929   4.777   6.690
 4703SOL     OW15007   0.624   2.294   2.456
 4703SOL    HW115008   0.710   2.251   2.484
 4703SOL    HW215009   0.643   2.387   2.425
 4704SOL     OW15010   0.019   6.306   1.200
 4704SOL    HW115011   0.022   6.402   1.174
 4704SOL    HW215012   0.064   6.251   1.129
 4705SOL     OW15013   2.995   3.189   3.019
 4705SOL    HW115014   2.968   3.154   2.930
 4705SOL    HW215015   3.054   3.122   3.065
 4706SOL     OW15016   3.922   6.352   6.547
 4706SOL    HW115017   3.999   6.358   6.610
 4706SOL    HW215018   3.836   6.362   6.597
 4707SOL     OW15019   2.156   6.114   0.785
 4707SOL    HW115020   2.209   6.041   0.741
 4707SOL    HW215021   2.211   6.198   0.787
 4708SOL     OW15022   1.960   2.959   0.863
 4708SOL    HW115023   1.932   3.009   0.782
 4708SOL    HW215024   2.057   2.938   0.858
 4709SOL     OW15025   4.075   5.517   5.114
 4709SOL    HW115026   4.005   5.475   5.055
 4709SOL    HW215027   4.060   5.488   5.208
 4710SOL     OW15028   3.836   1.260   6.106
 4710SOL    HW115029   3.768   1.330   6.083
 4710SOL    HW215030   3.835   1.189   6.035
 4711SOL     OW15031   4.490   0.595   2.750
 4711SOL    HW115032   4.447   0.558   2.668
 4711SOL    HW215033   4.585   0.563   2.755
 4712SOL     OW15034   2.383   4.818   0.524
 4712SOL    HW115035   2.384   4.918   0.518
 4712SOL    HW215036   2.288   4.785   0.521
 4713SOL     OW15037   2.762   4.234   0.874
 4713SOL    HW115038   2.744   4.135   0.866
 4713SOL    HW215039   2.682   4.278   0.916
 4714SOL     OW15040   2.586   2.153   0.078
 4714SOL    HW115041   2.614   2.176   7.013
 4714SOL    HW215042   2.486   2.157   0.085
 4715SOL     OW15043   6.427   3.483   1.957
 4715SOL    HW115044   6.454   3.579   1.960
 4715SOL    HW215045   6.410   3.456   1.862
 4716SOL     OW15046   3.701   5.281   6.315
 4716SOL    HW115047   3.769   5.348   6.342
 4716SOL    HW215048   3.614   5.299   6.362
 4717SOL     OW15049   1.412   6.071   3.076
 4717SOL    HW115050   1.397   6.158   3.029
 4717SOL    HW215051   1.445   6.003   3.010
 4718SOL     OW15052   5.508   1.491   6.829
 4718SOL    HW115053   5.524   1.585   6.860
 4718SOL    HW215054   5.472   1.492   6.736
 4719SOL     OW15055   4.819   2.973   2.563
 4719SOL    HW115056   4.807   2.985   2.662
 4719SOL    HW215057   4.827   3.062   2.519
 4720SOL     OW15058   3.164   6.511   5.425
 4720SOL    HW115059   3.106   6.452   5.480
 4720SOL    HW215060   3.173   6.473   5.333
 4721SOL     OW15061   6.911   2.444   1.701
 4721SOL    HW115062   6.977   2.371   1.717
 4721SOL    HW215063   6.822   2.403   1.678
 4722SOL     OW15064   1.281   5.764   6.703
 4722SOL    HW115065   1.334   5.816   6.770
 4722SOL    HW215066   1.305   5.667   6.710
 4723SOL     OW15067   1.855   5.361   5.573
 4723SOL    HW115068   1.913   5.326   5.647
 4723SOL    HW215069   1.791   5.428   5.610
 4724SOL     OW15070   4.498   6.335   2.430
 4724SOL    HW115071   4.513   6.242   2.397
 4724SOL    HW215072   4.416   6.372   2.387
 4725SOL     OW15073   5.387   6.344   2.852
 4725SOL    HW115074   5.371   6.358   2.950
 4725SOL    HW215075   5.475   6.385   2.827
 4726SOL     OW15076   1.406   3.194   6.705
 4726SOL    HW115077   1.476   3.147   6.758
 4726SOL    HW215078   1.340   3.127   6.670
 4727SOL     OW15079   0.033   5.936   6.507
 4727SOL    HW115080   0.124   5.897   6.518
 4727SOL    HW215081   6.993   5.863   6.504
 4728SOL     OW15082   4.767   1.625   0.969
 4728SOL    HW115083   4.743   1.720   0.949
 4728SOL    HW215084   4.814   1.584   0.891
 4729SOL     OW15085   2.405   1.215   2.817
 4729SOL    HW115086   2.454   1.158   2.751
 4729SOL    HW215087   2.358   1.289   2.770
 4730SOL     OW15088   2.362   6.101   5.360
 4730SOL    HW115089   2.374   6.042   5.280
 4730SOL    HW215090   2.452   6.127   5.395
 4731SOL     OW15091   5.206   0.416   6.304
 4731SOL    HW115092   5.203   0.516   6.308
 4731SOL    HW215093   5.127   0.378   6.353
 4732SOL     OW15094   6.810   2.973   6.203
 4732SOL    HW115095   6.745   2.932   6.140
 4732SOL    HW215096   6.760   3.022   6.275
 4733SOL     OW15097   1.076   4.046   3.623
 4733SOL    HW115098   1.054   4.004   3.711
 4733SOL    HW215099   1.125   4.131   3.638
 4734SOL     OW15100   5.241   3.278   6.859
 4734SOL    HW115101   5.167   3.335   6.892
 4734SOL    HW215102   5.305   3.333   6.805
 4735SOL     OW15103   0.569   4.929   3.788
 4735SOL    HW115104   0.519   4.999   3.737
 4735SOL    HW215105   0.524   4.841   3.775
 4736SOL     OW15106   0.237   1.908   6.637
 4736SOL    HW115107   0.230   2.005   6.615
 4736SOL    HW215108   0.264   1.897   6.732
 4737SOL     OW15109   1.901   5.040   2.341
 4737SOL    HW115110   1.893   4.958   2.398
 4737SOL    HW215111   1.843   5.031   2.260
 4738SOL     OW15112   0.496   6.140   2.672
 4738SOL    HW115113   0.492   6.136   2.572
 4738SOL    HW215114   0.541   6.058   2.706
 4739SOL     OW15115   3.964   0.141   1.991
 4739SOL    HW115116   3.972   0.157   1.893
 4739SOL    HW215117   4.024   0.066   2.018
 4740SOL     OW15118   0.104   1.585   2.359
 4740SOL    HW115119   0.133   1.525   2.433
 4740SOL    HW215120   0.183   1.605   2.301
 4741SOL     OW15121   3.455   2.308   1.704
 4741SOL    HW115122   3.545   2.308   1.747
 4741SOL    HW215123   3.428   2.215   1.682
 4742SOL     OW15124   2.007   6.938   6.380
 4742SOL    HW115125   1.957   7.012   6.425
 4742SOL    HW215126   1.946   6.860   6.366
 4743SOL     OW15127   2.007   3.657   3.042
 4743SOL    HW115128   1.982   3.619   3.131
 4743SOL    HW215129   2.072   3.732   3.055
 4744SOL     OW15130   1.749   5.225   0.541
 4744SOL    HW115131   1.827   5.178   0.583
 4744SOL    HW215132   1.774   5.255   0.449
 4745SOL     OW15133   2.949   4.278   6.977
 4745SOL    HW115134   2.863   4.242   7.012
 4745SOL    HW215135   3.025   4.242   0.003
 4746SOL     OW15136   4.086   6.088   3.942
 4746SOL    HW115137   3.993   6.053   3.924
 4746SOL    HW215138   4.096   6.108   4.039
 4747SOL     OW15139   1.283   3.735   0.634
 4747SOL    HW115140   1.231   3.722   0.719
 4747SOL    HW215141   1.377   3.762   0.657
 4748SOL     OW15142   1.696   6.975   1.831
 4748SOL    HW115143   1.660   0.040   1.818
 4748SOL    HW215144   1.744   6.946   1.749
 4749SOL     OW15145   2.189   6.795   6.265
 4749SOL    HW115146   2.153   6.778   6.173
 4749SOL    HW215147   2.119   6.840   6.320
 4750SOL     OW15148   6.425   4.017   5.404
 4750SOL    HW115149   6.510   3.997   5.454
 4750SOL    HW215150   6.363   4.068   5.464
 4751SOL     OW15151   4.667   2.100   2.830
 4751SOL    HW115152   4.573   2.068   2.840
 4751SOL    HW215153   4.672   2.167   2.756
 4752SOL     OW15154   4.330   0.806   0.358
 4752SOL    HW115155   4.274   0.725   0.344
 4752SOL    HW215156   4.426   0.783   0.341
 4753SOL     OW15157   1.314   6.833   4.646
 4753SOL    HW115158   1.270   6.834   4.735
 4753SOL    HW215159   1.411   6.853   4.657
 4754SOL     OW15160   4.452   3.845   5.783
 4754SOL    HW115161   4.406   3.796   5.856
 4754SOL    HW215162   4.520   3.908   5.822
 4755SOL     OW15163   2.216   0.825   1.104
 4755SOL    HW115164   2.249   0.918   1.124
 4755SOL    HW215165   2.120   0.817   1.133
 4756SOL     OW15166   6.964   4.128   6.421
 4756SOL    HW115167   6.972   4.118   6.322
 4756SOL    HW215168   0.027   4.145   6.460
 4757SOL     OW15169   1.851   2.901   1.445
 4757SOL    HW115170   1.788   2.978   1.435
 4757SOL    HW215171   1.882   2.871   1.355
 4758SOL     OW15172   1.204   7.028   3.598
 4758SOL    HW115173   1.170   7.025   3.692
 4758SOL    HW215174   1.226   0.094   3.573
 4759SOL     OW15175   0.306   6.087   7.013
 4759SOL    HW115176   0.208   6.076   6.998
 4759SOL    HW215177   0.325   6.088   0.083
 4760SOL     OW15178   1.355   0.067   0.460
 4760SOL    HW115179   1.371   7.020   0.396
 4760SOL    HW215180   1.433   0.074   0.523
 4761SOL     OW15181   0.537   0.425   0.632
 4761SOL    HW115182   0.535   0.408   0.534
 4761SOL    HW215183   0.540   0.337   0.681
 4762SOL     OW15184   1.680   5.953   2.131
 4762SOL    HW115185   1.778   5.968   2.119
 4762SOL    HW215186   1.629   6.021   2.079
 4763SOL     OW15187   4.684   6.552   2.361
 4763SOL    HW115188   4.765   6.525   2.308
 4763SOL    HW215189   4.618   6.477   2.359
 4764SOL     OW15190   4.694   3.350   5.322
 4764SOL    HW115191   4.688   3.419   5.251
 4764SOL    HW215192   4.655   3.385   5.407
 4765SOL     OW15193   3.578   0.672   6.168
 4765SOL    HW115194   3.545   0.764   6.191
 4765SOL    HW215195   3.581   0.616   6.251
 4766SOL     OW15196   6.201   6.407   4.431
 4766SOL    HW115197   6.176   6.389   4.336
 4766SOL    HW215198   6.255   6.491   4.437
 4767SOL     OW15199   2.482   5.679   5.312
 4767SOL    HW115200   2.503   5.768   5.273
 4767SOL    HW215201   2.476   5.687   5.412
 4768SOL     OW15202   4.723   3.315   6.555
 4768SOL    HW115203   4.712   3.275   6.464
 4768SOL    HW215204   4.653   3.385   6.569
 4769SOL     OW15205   2.940   6.109   0.785
 4769SOL    HW115206   2.944   6.197   0.833
 4769SOL    HW215207   3.012   6.105   0.716
 4770SOL     OW15208   0.028   2.318   4.986
 4770SOL    HW115209   0.034   2.416   4.966
 4770SOL    HW215210   7.017   2.270   4.907
 4771SOL     OW15211   2.470   7.001   5.036
 4771SOL    HW115212   2.507   0.027   4.960
 4771SOL    HW215213   2.539   6.936   5.068
 4772SOL     OW15214   3.127   5.305   0.556
 4772SOL    HW115215   3.168   5.333   0.643
 4772SOL    HW215216   3.191   5.246   0.507
 4773SOL     OW15217   1.167   6.014   4.667
 4773SOL    HW115218   1.196   6.003   4.572
 4773SOL    HW215219   1.205   6.098   4.704
 4774SOL     OW15220   1.596   4.246   0.640
 4774SOL    HW115221   1.623   4.161   0.595
 4774SOL    HW215222   1.674   4.281   0.693
 4775SOL     OW15223   4.998   6.873   4.815
 4775SOL    HW115224   5.018   6.955   4.869
 4775SOL    HW215225   4.959   6.803   4.875
 4776SOL     OW15226   1.533   0.879   5.102
 4776SOL    HW115227   1.451   0.903   5.049
 4776SOL    HW215228   1.600   0.953   5.095
 4777SOL     OW15229   1.538   5.629   0.691
 4777SOL    HW115230   1.495   5.612   0.603
 4777SOL    HW215231   1.608   5.700   0.682
 4778SOL     OW15232   0.727   2.757   4.258
 4778SOL    HW115233   0.769   2.688   4.200
 4778SOL    HW215234   0.789   2.835   4.268
 4779SOL     OW15235   6.136   6.618   4.155
 4779SOL    HW115236   6.038   6.638   4.158
 4779SOL    HW215237   6.152   6.524   4.186
 4780SOL     OW15238   5.636   2.454   5.617
 4780SOL    HW115239   5.674   2.429   5.706
 4780SOL    HW215240   5.692   2.526   5.576
 4781SOL     OW15241   2.552   5.767   2.547
 4781SOL    HW115242   2.506   5.852   2.523
 4781SOL    HW215243   2.600   5.778   2.634
 4782SOL     OW15244   6.241   5.627   5.638
 4782SOL    HW115245   6.331   5.661   5.666
 4782SOL    HW215246   6.171   5.662   5.700
 4783SOL     OW15247   6.115   3.657   0.138
 4783SOL    HW115248   6.056   3.577   0.152
 4783SOL    HW215249   6.209   3.626   0.120
 4784SOL     OW15250   6.237   1.829   5.863
 4784SOL    HW115251   6.251   1.730   5.860
 4784SOL    HW215252   6.221   1.863   5.771
 4785SOL     OW15253   0.091   6.546   2.704
 4785SOL    HW115254   0.016   6.604   2.737
 4785SOL    HW215255   0.151   6.522   2.780
 4786SOL     OW15256   2.741   0.349   0.413
 4786SOL    HW115257   2.661   0.367   0.472
 4786SOL    HW215258   2.757   0.251   0.409
 4787SOL     OW15259   4.219   1.909   4.473
 4787SOL    HW115260   4.176   1.999   4.475
 4787SOL    HW215261   4.241   1.879   4.566
 4788SOL     OW15262   6.006   5.675   0.637
 4788SOL    HW115263   5.946   5.684   0.557
 4788SOL    HW215264   5.954   5.639   0.714
 4789SOL     OW15265   4.811   1.597   2.076
 4789SOL    HW115266   4.869   1.518   2.096
 4789SOL    HW215267   4.749   1.574   2.000
 4790SOL     OW15268   5.425   1.586   5.593
 4790SOL    HW115269   5.449   1.626   5.504
 4790SOL    HW215270   5.419   1.487   5.585
 4791SOL     OW15271   0.720   3.007   1.043
 4791SOL    HW115272   0.798   2.951   1.017
 4791SOL    HW215273   0.640   2.949   1.055
 4792SOL     OW15274   1.945   4.745   4.646
 4792SOL    HW115275   2.009   4.761   4.571
 4792SOL    HW215276   1.927   4.831   4.693
 4793SOL     OW15277   1.051   3.811   5.923
 4793SOL    HW115278   0.985   3.885   5.911
 4793SOL    HW215279   1.127   3.824   5.859
 4794SOL     OW15280   4.589   0.297   4.034
 4794SOL    HW115281   4.567   0.358   4.110
 4794SOL    HW215282   4.605   0.352   3.951
 4795SOL     OW15283   0.189   1.560   4.393
 4795SOL    HW115284   0.242   1.568   4.477
 4795SOL    HW215285   0.199   1.467   4.356
 4796SOL     OW15286   3.809   0.808   5.794
 4796SOL    HW115287   3.801   0.716   5.755
 4796SOL    HW215288   3.818   0.801   5.893
 4797SOL     OW15289   0.130   5.354   4.539
 4797SOL    HW115290   0.191   5.428   4.565
 4797SOL    HW215291   0.179   5.267   4.542
 4798SOL     OW15292   5.983   5.014   6.087
 4798SOL    HW115293   6.030   5.069   6.019
 4798SOL    HW215294   6.049   4.956   6.134
 4799SOL     OW15295   3.704   1.885   6.934
 4799SOL    HW115296   3.710   1.912   0.002
 4799SOL    HW215297   3.775   1.818   6.914
 4800SOL     OW15298   1.792   4.408   6.706
 4800SOL    HW115299   1.692   4.404   6.714
 4800SOL    HW215300   1.829   4.316   6.707
 4801SOL     OW15301   3.779   2.867   0.810
 4801SOL    HW115302   3.779   2.966   0.823
 4801SOL    HW215303   3.778   2.846   0.712
 4802SOL     OW15304   0.045   6.581   1.738
 4802SOL    HW115305   7.001   6.609   1.674
 4802SOL    HW215306   0.013   6.593   1.832
 4803SOL     OW15307   5.515   5.011   0.819
 4803SOL    HW115308   5.432   4.990   0.870
 4803SOL    HW215309   5.493   5.073   0.743
 4804SOL     OW15310   5.373   1.514   0.730
 4804SOL    HW115311   5.398   1.599   0.683
 4804SOL    HW215312   5.422   1.437   0.690
 4805SOL     OW15313   6.495   1.431   2.271
 4805SOL    HW115314   6.515   1.334   2.284
 4805SOL    HW215315   6.462   1.470   2.357
 4806SOL     OW15316   1.580   3.847   3.228
 4806SOL    HW115317   1.540   3.755   3.231
 4806SOL    HW215318   1.508   3.915   3.243
 4807SOL     OW15319   1.678   3.163   6.507
 4807SOL    HW115320   1.641   3.138   6.597
 4807SOL    HW215321   1.700   3.261   6.506
 4808SOL     OW15322   3.716   5.706   0.727
 4808SOL    HW115323   3.708   5.805   0.740
 4808SOL    HW215324   3.702   5.660   0.815
 4809SOL     OW15325   3.675   4.764   1.586
 4809SOL    HW115326   3.772   4.748   1.568
 4809SOL    HW215327   3.646   4.707   1.663
 4810SOL     OW15328   0.999   4.036   4.512
 4810SOL    HW115329   1.095   4.056   4.534
 4810SOL    HW215330   0.962   4.113   4.459
 4811SOL     OW15331   3.841   4.012   4.478
 4811SOL    HW115332   3.885   4.023   4.567
 4811SOL    HW215333   3.843   3.916   4.451
 4812SOL     OW15334   0.814   0.063   1.939
 4812SOL    HW115335   0.890   0.001   1.953
 4812SOL    HW215336   0.842   0.156   1.963
 4813SOL     OW15337   5.843   1.849   6.719
 4813SOL    HW115338   5.802   1.931   6.759
 4813SOL    HW215339   5.941   1.847   6.739
 4814SOL     OW15340   6.966   3.856   2.595
 4814SOL    HW115341   6.868   3.874   2.603
 4814SOL    HW215342   6.986   3.821   2.503
 4815SOL     OW15343   5.127   5.019   2.749
 4815SOL    HW115344   5.170   5.009   2.659
 4815SOL    HW215345   5.134   5.114   2.780
 4816SOL     OW15346   2.175   6.924   1.605
 4816SOL    HW115347   2.135   6.939   1.695
 4816SOL    HW215348   2.115   6.963   1.535
 4817SOL     OW15349   3.845   1.188   1.730
 4817SOL    HW115350   3.925   1.151   1.682
 4817SOL    HW215351   3.764   1.132   1.708
 4818SOL     OW15352   2.113   0.705   3.870
 4818SOL    HW115353   2.155   0.740   3.953
 4818SOL    HW215354   2.121   0.606   3.867
 4819SOL     OW15355   3.217   2.030   1.386
 4819SOL    HW115356   3.285   2.035   1.313
 4819SOL    HW215357   3.188   1.935   1.399
 4820SOL     OW15358   6.462   3.085   0.981
 4820SOL    HW115359   6.407   3.165   1.005
 4820SOL    HW215360   6.550   3.091   1.028
 4821SOL     OW15361   6.463   5.473   1.481
 4821SOL    HW115362   6.438   5.495   1.576
 4821SOL    HW215363   6.486   5.376   1.475
 4822SOL     OW15364   1.939   3.165   3.775
 4822SOL    HW115365   1.844   3.135   3.765
 4822SOL    HW215366   1.954   3.246   3.719
 4823SOL     OW15367   0.261   0.202   3.674
 4823SOL    HW115368   0.198   0.266   3.631
 4823SOL    HW215369   0.337   0.182   3.611
 4824SOL     OW15370   5.656   2.250   3.694
 4824SOL    HW115371   5.703   2.163   3.677
 4824SOL    HW215372   5.634   2.294   3.607
 4825SOL     OW15373   2.024   2.656   4.239
 4825SOL    HW115374   2.027   2.754   4.258
 4825SOL    HW215375   1.948   2.615   4.289
 4826SOL     OW15376   0.095   6.664   1.156
 4826SOL    HW115377   0.110   6.751   1.203
 4826SOL    HW215378   0.165   6.652   1.085
 4827SOL     OW15379   5.444   0.877   1.952
 4827SOL    HW115380   5.362   0.927   1.981
 4827SOL    HW215381   5.442   0.865   1.853
 4828SOL     OW15382   5.626   3.894   1.391
 4828SOL    HW115383   5.553   3.837   1.353
 4828SOL    HW215384   5.613   3.905   1.489
 4829SOL     OW15385   3.630   6.758   6.134
 4829SOL    HW115386   3.608   6.840   6.080
 4829SOL    HW215387   3.584   6.764   6.223
 4830SOL     OW15388   5.412   5.539   3.883
 4830SOL    HW115389   5.433   5.636   3.894
 4830SOL    HW215390   5.463   5.485   3.950
 4831SOL     OW15391   6.945   4.561   5.767
 4831SOL    HW115392   6.980   4.553   5.674
 4831SOL    HW215393   6.860   4.613   5.766
 4832SOL     OW15394   2.835   2.340   6.232
 4832SOL    HW115395   2.831   2.288   6.317
 4832SOL    HW215396   2.854   2.436   6.252
 4833SOL     OW15397   4.676   1.639   3.082
 4833SOL    HW115398   4.696   1.705   3.009
 4833SOL    HW215399   4.723   1.553   3.061
 4834SOL     OW15400   3.638   6.975   0.616
 4834SOL    HW115401   3.724   7.017   0.645
 4834SOL    HW215402   3.634   6.881   0.649
 4835SOL     OW15403   1.746   0.021   6.511
 4835SOL    HW115404   1.704   0.000   6.423
 4835SOL    HW215405   1.688   0.085   6.561
 4836SOL     OW15406   4.336   2.425   3.714
 4836SOL    HW115407   4.291   2.340   3.687
 4836SOL    HW215408   4.306   2.451   3.806
 4837SOL     OW15409   3.466   2.815   1.830
 4837SOL    HW115410   3.534   2.752   1.793
 4837SOL    HW215411   3.442   2.789   1.923
 4838SOL     OW15412   2.508   4.986   2.377
 4838SOL    HW115413   2.493   5.038   2.293
 4838SOL    HW215414   2.496   4.888   2.358
 4839SOL     OW15415   0.825   3.811   5.588
 4839SOL    HW115416   0.914   3.795   5.545
 4839SOL    HW215417   0.823   3.768   5.678
 4840SOL     OW15418   6.772   0.518   6.492
 4840SOL    HW115419   6.740   0.494   6.400
 4840SOL    HW215420   6.872   0.516   6.495
 4841SOL     OW15421   3.323   5.575   1.967
 4841SOL    HW115422   3.295   5.671   1.976
 4841SOL    HW215423   3.278   5.521   2.038
 4842SOL     OW15424   3.352   4.876   1.699
 4842SOL    HW115425   3.316   4.968   1.713
 4842SOL    HW215426   3.282   4.809   1.722
 4843SOL     OW15427   5.860   4.070   0.657
 4843SOL    HW115428   5.789   4.097   0.723
 4843SOL    HW215429   5.907   4.152   0.624
 4844SOL     OW15430   6.938   3.718   6.577
 4844SOL    HW115431   6.947   3.668   6.663
 4844SOL    HW215432   7.015   3.695   6.517
 4845SOL     OW15433   6.739   5.378   4.540
 4845SOL    HW115434   6.791   5.438   4.479
 4845SOL    HW215435   6.659   5.427   4.575
 4846SOL     OW15436   6.785   3.640   1.282
 4846SOL    HW115437   6.740   3.569   1.336
 4846SOL    HW215438   6.882   3.618   1.272
 4847SOL     OW15439   3.434   1.545   5.614
 4847SOL    HW115440   3.366   1.483   5.651
 4847SOL    HW215441   3.389   1.625   5.574
 4848SOL     OW15442   1.747   0.925   4.533
 4848SOL    HW115443   1.697   0.858   4.480
 4848SOL    HW215444   1.750   0.896   4.629
 4849SOL     OW15445   1.638   0.159   0.289
 4849SOL    HW115446   1.609   0.099   0.214
 4849SOL    HW215447   1.728   0.198   0.267
 4850SOL     OW15448   3.995   0.837   1.683
 4850SOL    HW115449   4.067   0.795   1.739
 4850SOL    HW215450   3.918   0.861   1.741
 4851SOL     OW15451   3.767   5.797   5.124
 4851SOL    HW115452   3.759   5.895   5.109
 4851SOL    HW215453   3.686   5.751   5.086
 4852SOL     OW15454   1.024   0.141   6.282
 4852SOL    HW115455   0.957   0.167   6.351
 4852SOL    HW215456   1.084   0.219   6.262
 4853SOL     OW15457   3.240   1.597   2.638
 4853SOL    HW115458   3.265   1.589   2.542
 4853SOL    HW215459   3.227   1.505   2.677
 4854SOL     OW15460   4.806   6.216   2.673
 4854SOL    HW115461   4.818   6.273   2.591
 4854SOL    HW215462   4.733   6.150   2.656
 4855SOL     OW15463   5.934   2.658   2.307
 4855SOL    HW115464   6.009   2.649   2.242
 4855SOL    HW215465   5.965   2.631   2.398
 4856SOL     OW15466   1.486   4.016   2.852
 4856SOL    HW115467   1.548   3.959   2.799
 4856SOL    HW215468   1.413   4.050   2.792
 4857SOL     OW15469   1.812   2.254   5.787
 4857SOL    HW115470   1.814   2.332   5.723
 4857SOL    HW215471   1.905   2.222   5.804
 4858SOL     OW15472   1.967   0.916   4.133
 4858SOL    HW115473   1.899   0.968   4.080
 4858SOL    HW215474   1.933   0.824   4.149
 4859SOL     OW15475   0.480   6.719   4.470
 4859SOL    HW115476   0.475   6.663   4.387
 4859SOL    HW215477   0.542   6.796   4.455
 4860SOL     OW15478   3.457   4.937   2.617
 4860SOL    HW115479   3.407   4.952   2.702
 4860SOL    HW215480   3.552   4.913   2.638
 4861SOL     OW15481   5.019   5.420   0.401
 4861SOL    HW115482   5.036   5.336   0.454
 4861SOL    HW215483   4.989   5.492   0.463
 4862SOL     OW15484   2.273   4.710   3.877
 4862SOL    HW115485   2.275   4.756   3.788
 4862SOL    HW215486   2.317   4.620   3.869
 4863SOL     OW15487   5.488   5.165   0.588
 4863SOL    HW115488   5.419   5.237   0.575
 4863SOL    HW215489   5.562   5.179   0.522
 4864SOL     OW15490   3.194   1.243   4.247
 4864SOL    HW115491   3.197   1.338   4.280
 4864SOL    HW215492   3.168   1.183   4.323
 4865SOL     OW15493   1.586   0.439   5.467
 4865SOL    HW115494   1.608   0.535   5.485
 4865SOL    HW215495   1.493   0.432   5.431
 4866SOL     OW15496   6.153   3.857   1.206
 4866SOL    HW115497   6.053   3.856   1.216
 4866SOL    HW215498   6.187   3.950   1.217
 4867SOL     OW15499   4.474   5.750   2.518
 4867SOL    HW115500   4.450   5.699   2.435
 4867SOL    HW215501   4.514   5.688   2.584
 4868SOL     OW15502   6.614   4.595   2.384
 4868SOL    HW115503   6.531   4.602   2.330
 4868SOL    HW215504   6.656   4.685   2.395
 4869SOL     OW15505   1.915   1.548   0.651
 4869SOL    HW115506   1.854   1.491   0.595
 4869SOL    HW215507   1.885   1.544   0.746
 4870SOL     OW15508   0.544   5.979   1.238
 4870SOL    HW115509   0.546   6.003   1.335
 4870SOL    HW215510   0.537   6.062   1.183
 4871SOL     OW15511   1.023   0.051   3.866
 4871SOL    HW115512   0.977   0.047   3.955
 4871SOL    HW215513   1.038   0.147   3.841
 4872SOL     OW15514   6.298   0.108   3.179
 4872SOL    HW115515   6.275   0.163   3.259
 4872SOL    HW215516   6.339   0.022   3.208
 4873SOL     OW15517   6.579   5.808   4.579
 4873SOL    HW115518   6.564   5.711   4.597
 4873SOL    HW215519   6.677   5.829   4.591
 4874SOL     OW15520   4.839   3.221   2.476
 4874SOL    HW115521   4.743   3.248   2.477
 4874SOL    HW215522   4.894   3.296   2.438
 4875SOL     OW15523   5.962   0.818   0.494
 4875SOL    HW115524   5.981   0.912   0.465
 4875SOL    HW215525   6.048   0.771   0.513
 4876SOL     OW15526   6.697   1.178   3.511
 4876SOL    HW115527   6.646   1.119   3.448
 4876SOL    HW215528   6.679   1.148   3.605
 4877SOL     OW15529   0.394   2.183   5.233
 4877SOL    HW115530   0.312   2.156   5.182
 4877SOL    HW215531   0.462   2.110   5.228
 4878SOL     OW15532   6.577   1.717   1.787
 4878SOL    HW115533   6.590   1.629   1.742
 4878SOL    HW215534   6.664   1.766   1.791
 4879SOL     OW15535   4.479   2.096   1.765
 4879SOL    HW115536   4.389   2.112   1.723
 4879SOL    HW215537   4.550   2.109   1.696
 4880SOL     OW15538   6.367   3.587   0.153
 4880SOL    HW115539   6.403   3.548   0.069
 4880SOL    HW215540   6.416   3.548   0.231
 4881SOL     OW15541   1.804   1.003   0.108
 4881SOL    HW115542   1.705   1.016   0.112
 4881SOL    HW215543   1.844   1.018   0.198
 4882SOL     OW15544   3.891   1.789   5.527
 4882SOL    HW115545   3.891   1.710   5.466
 4882SOL    HW215546   3.961   1.776   5.598
 4883SOL     OW15547   4.730   4.030   0.709
 4883SOL    HW115548   4.738   4.128   0.692
 4883SOL    HW215549   4.722   3.982   0.621
 4884SOL     OW15550   3.371   5.378   1.587
 4884SOL    HW115551   3.329   5.300   1.541
 4884SOL    HW215552   3.434   5.424   1.523
 4885SOL     OW15553   2.055   5.044   1.102
 4885SOL    HW115554   2.079   5.128   1.150
 4885SOL    HW215555   2.048   4.969   1.168
 4886SOL     OW15556   3.026   6.617   1.428
 4886SOL    HW115557   3.077   6.676   1.491
 4886SOL    HW215558   3.090   6.562   1.374
 4887SOL     OW15559   0.178   6.359   1.678
 4887SOL    HW115560   0.191   6.383   1.582
 4887SOL    HW215561   0.134   6.435   1.726
 4888SOL     OW15562   2.820   6.963   2.995
 4888SOL    HW115563   2.765   7.018   2.932
 4888SOL    HW215564   2.858   6.885   2.946
 4889SOL     OW15565   6.763   2.174   5.407
 4889SOL    HW115566   6.692   2.176   5.336
 4889SOL    HW215567   6.849   2.206   5.369
 4890SOL     OW15568   0.090   1.892   5.226
 4890SOL    HW115569   0.158   1.827   5.194
 4890SOL    HW215570   7.027   1.865   5.193
 4891SOL     OW15571   2.760   5.382   0.092
 4891SOL    HW115572   2.857   5.399   0.112
 4891SOL    HW215573   2.711   5.469   0.092
 4892SOL     OW15574   5.252   5.653   2.570
 4892SOL    HW115575   5.294   5.736   2.603
 4892SOL    HW215576   5.153   5.666   2.564
 4893SOL     OW15577   6.440   3.028   1.876
 4893SOL    HW115578   6.529   3.066   1.901
 4893SOL    HW215579   6.371   3.101   1.878
 4894SOL     OW15580   3.463   0.378   2.731
 4894SOL    HW115581   3.405   0.459   2.733
 4894SOL    HW215582   3.536   0.392   2.663
 4895SOL     OW15583   0.468   4.668   3.722
 4895SOL    HW115584   0.429   4.666   3.814
 4895SOL    HW215585   0.394   4.671   3.655
 4896SOL     OW15586   2.437   4.664   2.502
 4896SOL    HW115587   2.346   4.705   2.501
 4896SOL    HW215588   2.493   4.704   2.429
 4897SOL     OW15589   2.202   5.840   5.152
 4897SOL    HW115590   2.146   5.913   5.113
 4897SOL    HW215591   2.175   5.825   5.247
 4898SOL     OW15592   3.499   1.165   4.912
 4898SOL    HW115593   3.512   1.256   4.950
 4898SOL    HW215594   3.459   1.105   4.981
 4899SOL     OW15595   6.304   4.863   2.958
 4899SOL    HW115596   6.259   4.780   2.992
 4899SOL    HW215597   6.242   4.912   2.897
 4900SOL     OW15598   3.741   6.023   5.495
 4900SOL    HW115599   3.685   5.996   5.417
 4900SOL    HW215600   3.692   6.091   5.550
 4901SOL     OW15601   2.138   1.399   5.367
 4901SOL    HW115602   2.069   1.434   5.303
 4901SOL    HW215603   2.151   1.301   5.351
 4902SOL     OW15604   0.861   1.455   5.148
 4902SOL    HW115605   0.943   1.512   5.144
 4902SOL    HW215606   0.780   1.514   5.155
 4903SOL     OW15607   4.739   5.518   0.784
 4903SOL    HW115608   4.820   5.554   0.829
 4903SOL    HW215609   4.695   5.590   0.730
 4904SOL     OW15610   2.071   0.350   5.475
 4904SOL    HW115611   1.977   0.336   5.444
 4904SOL    HW215612   2.097   0.445   5.461
 4905SOL     OW15613   2.528   1.029   3.480
 4905SOL    HW115614   2.610   1.028   3.537
 4905SOL    HW215615   2.453   0.983   3.528
 4906SOL     OW15616   4.559   2.637   6.116
 4906SOL    HW115617   4.520   2.718   6.071
 4906SOL    HW215618   4.646   2.614   6.074
 4907SOL     OW15619   5.050   0.504   1.586
 4907SOL    HW115620   5.093   0.508   1.676
 4907SOL    HW215621   5.069   0.416   1.544
 4908SOL     OW15622   5.208   6.731   0.260
 4908SOL    HW115623   5.197   6.829   0.239
 4908SOL    HW215624   5.250   6.685   0.183
 4909SOL     OW15625   6.796   5.300   3.273
 4909SOL    HW115626   6.866   5.243   3.317
 4909SOL    HW215627   6.840   5.367   3.214
 4910SOL     OW15628   5.627   0.668   4.347
 4910SOL    HW115629   5.619   0.605   4.269
 4910SOL    HW215630   5.576   0.751   4.328
 4911SOL     OW15631   1.902   3.650   3.314
 4911SOL    HW115632   1.816   3.654   3.264
 4911SOL    HW215633   1.893   3.700   3.401
 4912SOL     OW15634   5.339   1.931   6.016
 4912SOL    HW115635   5.415   1.869   6.038
 4912SOL    HW215636   5.310   1.979   6.099
 4913SOL     OW15637   4.636   3.694   5.640
 4913SOL    HW115638   4.566   3.740   5.694
 4913SOL    HW215639   4.607   3.691   5.544
 4914SOL     OW15640   4.596   6.739   5.276
 4914SOL    HW115641   4.549   6.750   5.188
 4914SOL    HW215642   4.557   6.803   5.342
 4915SOL     OW15643   3.059   6.677   4.798
 4915SOL    HW115644   3.081   6.761   4.749
 4915SOL    HW215645   3.140   6.618   4.799
 4916SOL     OW15646   0.870   0.882   3.736
 4916SOL    HW115647   0.837   0.966   3.778
 4916SOL    HW215648   0.794   0.834   3.692
 4917SOL     OW15649   3.627   5.603   0.975
 4917SOL    HW115650   3.543   5.646   1.007
 4917SOL    HW215651   3.696   5.607   1.048
 4918SOL     OW15652   5.837   6.472   1.945
 4918SOL    HW115653   5.745   6.440   1.967
 4918SOL    HW215654   5.843   6.492   1.847
 4919SOL     OW15655   3.473   2.839   2.432
 4919SOL    HW115656   3.552   2.845   2.372
 4919SOL    HW215657   3.497   2.875   2.522
 4920SOL     OW15658   5.466   0.171   4.576
 4920SOL    HW115659   5.424   0.120   4.650
 4920SOL    HW215660   5.562   0.191   4.599
 4921SOL     OW15661   1.549   5.216   0.148
 4921SOL    HW115662   1.528   5.248   0.240
 4921SOL    HW215663   1.478   5.247   0.084
 4922SOL     OW15664   3.236   2.160   4.532
 4922SOL    HW115665   3.278   2.155   4.441
 4922SOL    HW215666   3.206   2.253   4.550
 4923SOL     OW15667   2.639   1.221   2.238
 4923SOL    HW115668   2.546   1.209   2.272
 4923SOL    HW215669   2.650   1.315   2.204
 4924SOL     OW15670   2.900   1.875   4.488
 4924SOL    HW115671   2.873   1.779   4.486
 4924SOL    HW215672   2.825   1.931   4.453
 4925SOL     OW15673   5.009   0.411   2.600
 4925SOL    HW115674   5.024   0.494   2.654
 4925SOL    HW215675   4.938   0.428   2.532
 4926SOL     OW15676   5.506   1.874   1.873
 4926SOL    HW115677   5.554   1.803   1.925
 4926SOL    HW215678   5.555   1.961   1.881
 4927SOL     OW15679   2.646   2.768   5.493
 4927SOL    HW115680   2.597   2.787   5.579
 4927SOL    HW215681   2.645   2.850   5.436
 4928SOL     OW15682   1.097   0.433   6.491
 4928SOL    HW115683   1.170   0.486   6.536
 4928SOL    HW215684   1.129   0.403   6.401
 4929SOL     OW15685   6.818   6.994   3.615
 4929SOL    HW115686   6.765   0.043   3.578
 4929SOL    HW215687   6.893   0.001   3.671
 4930SOL     OW15688   5.721   0.319   2.906
 4930SOL    HW115689   5.660   0.246   2.936
 4930SOL    HW215690   5.699   0.345   2.812
 4931SOL     OW15691   6.608   6.365   1.135
 4931SOL    HW115692   6.673   6.327   1.068
 4931SOL    HW215693   6.515   6.339   1.110
 4932SOL     OW15694   3.696   3.293   3.212
 4932SOL    HW115695   3.712   3.278   3.114
 4932SOL    HW215696   3.711   3.389   3.234
 4933SOL     OW15697   2.225   6.721   2.608
 4933SOL    HW115698   2.177   6.637   2.632
 4933SOL    HW215699   2.172   6.800   2.639
 4934SOL     OW15700   3.407   6.323   2.763
 4934SOL    HW115701   3.356   6.405   2.736
 4934SOL    HW215702   3.344   6.246   2.768
 4935SOL     OW15703   1.488   2.032   6.167
 4935SOL    HW115704   1.558   1.984   6.220
 4935SOL    HW215705   1.517   2.127   6.152
 4936SOL     OW15706   2.589   4.883   1.075
 4936SOL    HW115707   2.564   4.908   0.982
 4936SOL    HW215708   2.547   4.795   1.099
 4937SOL     OW15709   5.419   2.759   5.718
 4937SOL    HW115710   5.324   2.789   5.707
 4937SOL    HW215711   5.422   2.660   5.727
 4938SOL     OW15712   2.863   5.741   5.771
 4938SOL    HW115713   2.803   5.770   5.846
 4938SOL    HW215714   2.828   5.657   5.731
 4939SOL     OW15715   5.675   2.454   4.799
 4939SOL    HW115716   5.727   2.437   4.883
 4939SOL    HW215717   5.688   2.377   4.735
 4940SOL     OW15718   1.489   0.919   4.757
 4940SOL    HW115719   1.411   0.932   4.818
 4940SOL    HW215720   1.460   0.926   4.662
 4941SOL     OW15721   3.793   1.995   6.507
 4941SOL    HW115722   3.766   1.899   6.495
 4941SOL    HW215723   3.893   2.003   6.505
 4942SOL     OW15724   4.847   3.510   5.556
 4942SOL    HW115725   4.759   3.547   5.585
 4942SOL    HW215726   4.839   3.410   5.546
 4943SOL     OW15727   3.565   2.917   1.101
 4943SOL    HW115728   3.514   2.875   1.176
 4943SOL    HW215729   3.576   2.851   1.027
 4944SOL     OW15730   1.915   3.902   2.843
 4944SOL    HW115731   1.903   3.995   2.807
 4944SOL    HW215732   1.997   3.862   2.804
 4945SOL     OW15733   1.318   1.011   3.778
 4945SOL    HW115734   1.289   0.921   3.745
 4945SOL    HW215735   1.389   1.048   3.717
 4946SOL     OW15736   0.707   3.054   1.537
 4946SOL    HW115737   0.717   3.063   1.636
 4946SOL    HW215738   0.695   2.958   1.514
 4947SOL     OW15739   1.429   0.034   1.076
 4947SOL    HW115740   1.437   7.011   0.991
 4947SOL    HW215741   1.352   7.027   1.130
 4948SOL     OW15742   2.569   0.406   2.419
 4948SOL    HW115743   2.474   0.436   2.424
 4948SOL    HW215744   2.627   0.481   2.387
 4949SOL     OW15745   4.402   0.221   5.660
 4949SOL    HW115746   4.424   0.245   5.565
 4949SOL    HW215747   4.482   0.181   5.704
 4950SOL     OW15748   2.933   5.288   3.652
 4950SOL    HW115749   2.948   5.272   3.555
 4950SOL    HW215750   2.879   5.371   3.664
 4951SOL     OW15751   5.323   1.477   4.782
 4951SOL    HW115752   5.296   1.381   4.791
 4951SOL    HW215753   5.348   1.513   4.872
 4952SOL     OW15754   0.404   0.553   4.859
 4952SOL    HW115755   0.420   0.503   4.774
 4952SOL    HW215756   0.472   0.626   4.868
 4953SOL     OW15757   2.529   6.036   1.833
 4953SOL    HW115758   2.626   6.058   1.835
 4953SOL    HW215759   2.486   6.078   1.753
 4954SOL     OW15760   4.269   4.474   6.732
 4954SOL    HW115761   4.270   4.375   6.747
 4954SOL    HW215762   4.176   4.508   6.743
 4955SOL     OW15763   1.425   5.897   6.893
 4955SOL    HW115764   1.421   5.952   6.976
 4955SOL    HW215765   1.516   5.904   6.853
 4956SOL     OW15766   3.707   0.233   4.799
 4956SOL    HW115767   3.666   0.178   4.726
 4956SOL    HW215768   3.637   0.255   4.867
 4957SOL     OW15769   0.053   0.921   3.405
 4957SOL    HW115770   0.045   0.957   3.498
 4957SOL    HW215771   6.992   0.927   3.360
 4958SOL     OW15772   0.486   6.624   6.015
 4958SOL    HW115773   0.464   6.717   6.043
 4958SOL    HW215774   0.422   6.560   6.058
 4959SOL     OW15775   0.285   1.340   0.094
 4959SOL    HW115776   0.272   1.291   0.181
 4959SOL    HW215777   0.349   1.289   0.037
 4960SOL     OW15778   3.036   6.123   3.871
 4960SOL    HW115779   3.070   6.031   3.891
 4960SOL    HW215780   3.010   6.128   3.775
 4961SOL     OW15781   5.447   1.317   5.252
 4961SOL    HW115782   5.510   1.345   5.324
 4961SOL    HW215783   5.361   1.286   5.293
 4962SOL     OW15784   5.518   3.122   1.756
 4962SOL    HW115785   5.526   3.122   1.856
 4962SOL    HW215786   5.477   3.036   1.727
 4963SOL     OW15787   6.158   5.978   1.712
 4963SOL    HW115788   6.133   6.056   1.655
 4963SOL    HW215789   6.174   6.009   1.806
 4964SOL     OW15790   3.531   6.600   3.163
 4964SOL    HW115791   3.489   6.525   3.215
 4964SOL    HW215792   3.630   6.602   3.181
 4965SOL     OW15793   0.403   0.069   5.199
 4965SOL    HW115794   0.490   0.044   5.156
 4965SOL    HW215795   0.352   0.130   5.139
 4966SOL     OW15796   2.361   6.313   4.464
 4966SOL    HW115797   2.455   6.281   4.473
 4966SOL    HW215798   2.361   6.406   4.425
 4967SOL     OW15799   3.832   3.246   6.651
 4967SOL    HW115800   3.887   3.229   6.569
 4967SOL    HW215801   3.832   3.344   6.671
 4968SOL     OW15802   5.167   2.965   3.245
 4968SOL    HW115803   5.134   3.036   3.183
 4968SOL    HW215804   5.258   2.935   3.217
 4969SOL     OW15805   1.928   1.007   2.657
 4969SOL    HW115806   1.944   0.948   2.736
 4969SOL    HW215807   1.856   1.073   2.678
 4970SOL     OW15808   1.385   2.471   4.548
 4970SOL    HW115809   1.483   2.473   4.568
 4970SOL    HW215810   1.344   2.390   4.588
 4971SOL     OW15811   6.298   5.526   3.711
 4971SOL    HW115812   6.289   5.568   3.621
 4971SOL    HW215813   6.363   5.450   3.706
 4972SOL     OW15814   2.424   3.346   0.871
 4972SOL    HW115815   2.348   3.297   0.915
 4972SOL    HW215816   2.398   3.369   0.777
 4973SOL     OW15817   6.827   6.916   2.050
 4973SOL    HW115818   6.801   6.836   1.997
 4973SOL    HW215819   6.886   6.975   1.995
 4974SOL     OW15820   6.489   4.687   0.867
 4974SOL    HW115821   6.503   4.647   0.776
 4974SOL    HW215822   6.577   4.718   0.904
 4975SOL     OW15823   6.190   5.738   0.985
 4975SOL    HW115824   6.214   5.728   0.888
 4975SOL    HW215825   6.091   5.749   0.994
 4976SOL     OW15826   3.170   0.657   4.387
 4976SOL    HW115827   3.233   0.706   4.327
 4976SOL    HW215828   3.079   0.654   4.344
 4977SOL     OW15829   4.851   3.723   0.589
 4977SOL    HW115830   4.947   3.752   0.587
 4977SOL    HW215831   4.845   3.628   0.618
 4978SOL     OW15832   6.931   3.616   5.253
 4978SOL    HW115833   6.915   3.518   5.240
 4978SOL    HW215834   0.002   3.632   5.259
 4979SOL     OW15835   7.012   2.240   5.329
 4979SOL    HW115836   0.030   2.279   5.249
 4979SOL    HW215837   0.045   2.244   5.408
 4980SOL     OW15838   4.522   6.790   3.468
 4980SOL    HW115839   4.530   6.801   3.567
 4980SOL    HW215840   4.483   6.701   3.447
 4981SOL     OW15841   4.872   6.005   5.692
 4981SOL    HW115842   4.943   5.948   5.734
 4981SOL    HW215843   4.871   6.095   5.737
 4982SOL     OW15844   2.540   1.313   6.270
 4982SOL    HW115845   2.626   1.363   6.259
 4982SOL    HW215846   2.471   1.373   6.311
 4983SOL     OW15847   4.927   3.289   4.271
 4983SOL    HW115848   4.943   3.285   4.370
 4983SOL    HW215849   4.894   3.381   4.247
 4984SOL     OW15850   5.573   3.543   4.451
 4984SOL    HW115851   5.504   3.565   4.520
 4984SOL    HW215852   5.527   3.513   4.367
 4985SOL     OW15853   6.462   6.152   3.914
 4985SOL    HW115854   6.538   6.088   3.899
 4985SOL    HW215855   6.378   6.113   3.876
 4986SOL     OW15856   6.044   4.503   2.792
 4986SOL    HW115857   5.983   4.431   2.823
 4986SOL    HW215858   6.139   4.475   2.807
 4987SOL     OW15859   0.617   2.206   1.105
 4987SOL    HW115860   0.669   2.171   1.027
 4987SOL    HW215861   0.520   2.185   1.093
 4988SOL     OW15862   6.886   1.181   3.968
 4988SOL    HW115863   6.933   1.207   3.884
 4988SOL    HW215864   6.922   1.094   4.001
 4989SOL     OW15865   5.521   1.187   1.836
 4989SOL    HW115866   5.579   1.211   1.914
 4989SOL    HW215867   5.450   1.123   1.865
 4990SOL     OW15868   1.197   2.080   6.439
 4990SOL    HW115869   1.274   2.018   6.450
 4990SOL    HW215870   1.231   2.174   6.433
 4991SOL     OW15871   0.638   3.203   4.417
 4991SOL    HW115872   0.600   3.295   4.413
 4991SOL    HW215873   0.569   3.139   4.451
 4992SOL     OW15874   3.977   0.782   4.302
 4992SOL    HW115875   3.963   0.844   4.380
 4992SOL    HW215876   3.921   0.813   4.225
 4993SOL     OW15877   2.539   4.534   4.004
 4993SOL    HW115878   2.629   4.562   3.969
 4993SOL    HW215879   2.495   4.474   3.938
 4994SOL     OW15880   1.121   0.043   2.368
 4994SOL    HW115881   1.050   7.012   2.329
 4994SOL    HW215882   1.211   0.001   2.354
 4995SOL     OW15883   6.514   3.349   5.732
 4995SOL    HW115884   6.491   3.363   5.828
 4995SOL    HW215885   6.598   3.398   5.710
 4996SOL     OW15886   0.917   0.505   2.257
 4996SOL    HW115887   0.950   0.436   2.321
 4996SOL    HW215888   0.986   0.520   2.186
 4997SOL     OW15889   6.982   2.427   3.094
 4997SOL    HW115890   0.001   2.439   3.182
 4997SOL    HW215891   0.004   2.475   3.022
 4998SOL     OW15892   1.807   4.468   5.089
 4998SOL    HW115893   1.783   4.395   5.152
 4998SOL    HW215894   1.769   4.448   4.998
 4999SOL     OW15895   4.886   5.834   1.749
 4999SOL    HW115896   4.834   5.750   1.733
 4999SOL    HW215897   4.866   5.900   1.677
 5000SOL     OW15898   0.934   0.539   3.965
 5000SOL    HW115899   0.919   0.526   3.867
 5000SOL    HW215900   0.986   0.623   3.980
 5001SOL     OW15901   1.884   3.778   6.315
 5001SOL    HW115902   1.937   3.837   6.377
 5001SOL    HW215903   1.941   3.751   6.238
 5002SOL     OW15904   1.258   2.607   2.979
 5002SOL    HW115905   1.210   2.636   3.062
 5002SOL    HW215906   1.192   2.593   2.905
 5003SOL     OW15907   0.724   6.554   3.433
 5003SOL    HW115908   0.810   6.598   3.462
 5003SOL    HW215909   0.720   6.463   3.473
 5004SOL     OW15910   2.655   5.827   5.928
 5004SOL    HW115911   2.679   5.924   5.932
 5004SOL    HW215912   2.637   5.793   6.021
 5005SOL     OW15913   4.062   2.193   0.399
 5005SOL    HW115914   4.044   2.150   0.488
 5005SOL    HW215915   3.992   2.164   0.333
 5006SOL     OW15916   5.691   0.107   6.206
 5006SOL    HW115917   5.669   0.133   6.300
 5006SOL    HW215918   5.747   0.179   6.164
 5007SOL     OW15919   2.596   0.514   5.842
 5007SOL    HW115920   2.678   0.543   5.793
 5007SOL    HW215921   2.565   0.588   5.902
 5008SOL     OW15922   6.138   0.493   3.751
 5008SOL    HW115923   6.092   0.459   3.670
 5008SOL    HW215924   6.234   0.512   3.729
 5009SOL     OW15925   1.694   6.193   1.737
 5009SOL    HW115926   1.775   6.239   1.698
 5009SOL    HW215927   1.701   6.194   1.837
 5010SOL     OW15928   3.376   3.710   3.978
 5010SOL    HW115929   3.331   3.741   3.895
 5010SOL    HW215930   3.308   3.673   4.042
 5011SOL     OW15931   2.148   3.242   1.959
 5011SOL    HW115932   2.110   3.219   2.048
 5011SOL    HW215933   2.157   3.342   1.951
 5012SOL     OW15934   6.003   2.715   5.982
 5012SOL    HW115935   5.933   2.786   5.994
 5012SOL    HW215936   6.086   2.740   6.032
 5013SOL     OW15937   4.742   0.593   6.500
 5013SOL    HW115938   4.703   0.655   6.568
 5013SOL    HW215939   4.798   0.644   6.435
 5014SOL     OW15940   6.463   5.579   0.782
 5014SOL    HW115941   6.424   5.663   0.743
 5014SOL    HW215942   6.394   5.532   0.837
 5015SOL     OW15943   4.194   1.668   4.162
 5015SOL    HW115944   4.250   1.659   4.080
 5015SOL    HW215945   4.253   1.680   4.242
 5016SOL     OW15946   2.166   1.182   2.463
 5016SOL    HW115947   2.205   1.204   2.553
 5016SOL    HW215948   2.120   1.263   2.427
 5017SOL     OW15949   2.211   2.620   0.654
 5017SOL    HW115950   2.170   2.566   0.581
 5017SOL    HW215951   2.263   2.696   0.615
 5018SOL     OW15952   0.475   4.363   2.157
 5018SOL    HW115953   0.561   4.355   2.108
 5018SOL    HW215954   0.435   4.453   2.141
 5019SOL     OW15955   2.201   4.355   0.282
 5019SOL    HW115956   2.194   4.448   0.246
 5019SOL    HW215957   2.256   4.299   0.220
 5020SOL     OW15958   6.128   6.195   5.523
 5020SOL    HW115959   6.208   6.254   5.511
 5020SOL    HW215960   6.051   6.251   5.555
 5021SOL     OW15961   0.916   4.361   6.607
 5021SOL    HW115962   0.858   4.397   6.680
 5021SOL    HW215963   0.878   4.275   6.573
 5022SOL     OW15964   1.768   0.023   0.509
 5022SOL    HW115965   1.858   0.053   0.478
 5022SOL    HW215966   1.709   0.006   0.430
 5023SOL     OW15967   6.168   2.688   0.871
 5023SOL    HW115968   6.188   2.785   0.885
 5023SOL    HW215969   6.248   2.633   0.897
 5024SOL     OW15970   6.686   3.957   2.651
 5024SOL    HW115971   6.623   3.917   2.584
 5024SOL    HW215972   6.690   4.056   2.639
 5025SOL     OW15973   4.820   1.723   2.322
 5025SOL    HW115974   4.753   1.797   2.325
 5025SOL    HW215975   4.797   1.660   2.248
 5026SOL     OW15976   6.238   5.821   6.034
 5026SOL    HW115977   6.151   5.852   5.996
 5026SOL    HW215978   6.231   5.819   6.134
 5027SOL     OW15979   0.847   0.080   3.191
 5027SOL    HW115980   0.771   0.078   3.127
 5027SOL    HW215981   0.917   0.143   3.157
 5028SOL     OW15982   0.297   5.723   2.103
 5028SOL    HW115983   0.388   5.682   2.106
 5028SOL    HW215984   0.279   5.758   2.011
 5029SOL     OW15985   0.003   3.059   2.825
 5029SOL    HW115986   6.962   3.056   2.753
 5029SOL    HW215987   0.068   2.984   2.813
 5030SOL     OW15988   0.444   0.587   0.312
 5030SOL    HW115989   0.483   0.495   0.312
 5030SOL    HW215990   0.510   0.652   0.351
 5031SOL     OW15991   6.231   1.132   4.537
 5031SOL    HW115992   6.278   1.072   4.603
 5031SOL    HW215993   6.148   1.168   4.578
 5032SOL     OW15994   1.075   4.653   0.970
 5032SOL    HW115995   1.135   4.725   1.005
 5032SOL    HW215996   1.057   4.668   0.873
 5033SOL     OW15997   2.914   5.119   5.604
 5033SOL    HW115998   2.948   5.026   5.587
 5033SOL    HW215999   2.823   5.129   5.563
 5034SOL     OW16000   6.863   3.345   1.870
 5034SOL    HW116001   6.858   3.425   1.810
 5034SOL    HW216002   6.893   3.266   1.817
 5035SOL     OW16003   5.696   4.921   0.994
 5035SOL    HW116004   5.646   4.962   0.917
 5035SOL    HW216005   5.639   4.925   1.076
 5036SOL     OW16006   1.046   6.344   6.257
 5036SOL    HW116007   1.045   6.444   6.264
 5036SOL    HW216008   1.051   6.317   6.161
 5037SOL     OW16009   4.667   2.031   3.225
 5037SOL    HW116010   4.707   2.096   3.160
 5037SOL    HW216011   4.721   2.029   3.309
 5038SOL     OW16012   1.957   5.897   5.638
 5038SOL    HW116013   1.972   5.807   5.678
 5038SOL    HW216014   1.893   5.949   5.695
 5039SOL     OW16015   2.109   3.218   5.068
 5039SOL    HW116016   2.101   3.177   5.159
 5039SOL    HW216017   2.172   3.164   5.012
 5040SOL     OW16018   2.644   3.583   6.504
 5040SOL    HW116019   2.685   3.492   6.500
 5040SOL    HW216020   2.643   3.615   6.599
 5041SOL     OW16021   0.792   3.482   1.328
 5041SOL    HW116022   0.824   3.506   1.236
 5041SOL    HW216023   0.705   3.434   1.322
 5042SOL     OW16024   6.676   3.010   6.681
 5042SOL    HW116025   6.710   3.050   6.766
 5042SOL    HW216026   6.578   2.994   6.689
 5043SOL     OW16027   3.608   1.218   5.377
 5043SOL    HW116028   3.598   1.312   5.345
 5043SOL    HW216029   3.517   1.179   5.393
 5044SOL     OW16030   6.517   6.299   3.624
 5044SOL    HW116031   6.483   6.259   3.539
 5044SOL    HW216032   6.439   6.330   3.680
 5045SOL     OW16033   4.891   3.444   0.224
 5045SOL    HW116034   4.980   3.400   0.237
 5045SOL    HW216035   4.823   3.401   0.283
 5046SOL     OW16036   3.466   2.788   5.369
 5046SOL    HW116037   3.526   2.867   5.379
 5046SOL    HW216038   3.521   2.707   5.350
 5047SOL     OW16039   6.025   1.399   2.617
 5047SOL    HW116040   5.987   1.488   2.593
 5047SOL    HW216041   6.099   1.412   2.684
 5048SOL     OW16042   6.856   2.405   2.083
 5048SOL    HW116043   6.825   2.334   2.020
 5048SOL    HW216044   6.858   2.370   2.176
 5049SOL     OW16045   6.517   1.228   2.933
 5049SOL    HW116046   6.572   1.197   2.856
 5049SOL    HW216047   6.549   1.185   3.018
 5050SOL     OW16048   0.261   1.403   1.907
 5050SOL    HW116049   0.247   1.501   1.920
 5050SOL    HW216050   0.211   1.352   1.977
 5051SOL     OW16051   3.204   4.243   1.245
 5051SOL    HW116052   3.181   4.236   1.342
 5051SOL    HW216053   3.192   4.154   1.202
 5052SOL     OW16054   3.376   4.569   0.443
 5052SOL    HW116055   3.354   4.550   0.348
 5052SOL    HW216056   3.448   4.506   0.473
 5053SOL     OW16057   2.181   3.870   2.490
 5053SOL    HW116058   2.227   3.895   2.404
 5053SOL    HW216059   2.101   3.929   2.504
 5054SOL     OW16060   3.872   5.797   5.496
 5054SOL    HW116061   3.830   5.886   5.506
 5054SOL    HW216062   3.935   5.798   5.418
 5055SOL     OW16063   0.579   1.761   4.910
 5055SOL    HW116064   0.495   1.786   4.862
 5055SOL    HW216065   0.640   1.840   4.915
 5056SOL     OW16066   0.208   4.156   6.553
 5056SOL    HW116067   0.220   4.216   6.632
 5056SOL    HW216068   0.271   4.182   6.480
 5057SOL     OW16069   0.535   5.547   3.217
 5057SOL    HW116070   0.596   5.582   3.146
 5057SOL    HW216071   0.463   5.614   3.235
 5058SOL     OW16072   3.895   3.880   6.687
 5058SOL    HW116073   3.799   3.904   6.700
 5058SOL    HW216074   3.928   3.827   6.765
 5059SOL     OW16075   4.612   2.508   5.090
 5059SOL    HW116076   4.544   2.460   5.035
 5059SOL    HW216077   4.652   2.444   5.155
 5060SOL     OW16078   6.787   2.904   5.171
 5060SOL    HW116079   6.772   2.808   5.146
 5060SOL    HW216080   6.770   2.961   5.091
 5061SOL     OW16081   2.974   3.279   4.128
 5061SOL    HW116082   2.884   3.235   4.130
 5061SOL    HW216083   2.962   3.378   4.135
 5062SOL     OW16084   5.073   1.600   2.932
 5062SOL    HW116085   5.080   1.662   2.854
 5062SOL    HW216086   5.035   1.648   3.010
 5063SOL     OW16087   1.420   6.708   1.651
 5063SOL    HW116088   1.490   6.679   1.587
 5063SOL    HW216089   1.377   6.627   1.692
 5064SOL     OW16090   4.638   5.044   0.938
 5064SOL    HW116091   4.727   5.002   0.919
 5064SOL    HW216092   4.631   5.063   1.036
 5065SOL     OW16093   1.450   0.653   3.363
 5065SOL    HW116094   1.493   0.742   3.377
 5065SOL    HW216095   1.368   0.665   3.306
 5066SOL     OW16096   2.270   4.226   1.951
 5066SOL    HW116097   2.197   4.273   1.902
 5066SOL    HW216098   2.299   4.146   1.899
 5067SOL     OW16099   4.068   2.198   1.862
 5067SOL    HW116100   4.009   2.265   1.817
 5067SOL    HW216101   4.023   2.164   1.944
 5068SOL     OW16102   3.402   5.707   0.071
 5068SOL    HW116103   3.494   5.723   0.036
 5068SOL    HW216104   3.361   5.793   0.100
 5069SOL     OW16105   2.009   3.163   5.590
 5069SOL    HW116106   2.033   3.073   5.555
 5069SOL    HW216107   1.988   3.224   5.513
 5070SOL     OW16108   5.913   4.183   3.973
 5070SOL    HW116109   5.844   4.111   3.968
 5070SOL    HW216110   5.956   4.181   4.063
 5071SOL     OW16111   3.780   1.949   3.582
 5071SOL    HW116112   3.819   2.030   3.627
 5071SOL    HW216113   3.774   1.964   3.484
 5072SOL     OW16114   1.729   1.195   1.194
 5072SOL    HW116115   1.660   1.266   1.207
 5072SOL    HW216116   1.715   1.151   1.105
 5073SOL     OW16117   2.338   6.465   1.748
 5073SOL    HW116118   2.241   6.473   1.768
 5073SOL    HW216119   2.364   6.368   1.741
 5074SOL     OW16120   3.723   1.445   1.630
 5074SOL    HW116121   3.724   1.346   1.620
 5074SOL    HW216122   3.728   1.488   1.540
 5075SOL     OW16123   1.339   2.719   0.335
 5075SOL    HW116124   1.285   2.795   0.370
 5075SOL    HW216125   1.435   2.743   0.336
 5076SOL     OW16126   5.491   0.413   6.943
 5076SOL    HW116127   5.469   0.377   6.852
 5076SOL    HW216128   5.569   0.363   6.980
 5077SOL     OW16129   1.557   3.609   5.653
 5077SOL    HW116130   1.590   3.682   5.713
 5077SOL    HW216131   1.614   3.604   5.572
 5078SOL     OW16132   0.675   1.237   4.755
 5078SOL    HW116133   0.710   1.222   4.662
 5078SOL    HW216134   0.627   1.324   4.758
 5079SOL     OW16135   1.952   1.856   5.527
 5079SOL    HW116136   2.042   1.817   5.543
 5079SOL    HW216137   1.962   1.952   5.499
 5080SOL     OW16138   6.241   5.543   5.388
 5080SOL    HW116139   6.258   5.615   5.321
 5080SOL    HW216140   6.229   5.583   5.479
 5081SOL     OW16141   2.760   5.204   5.249
 5081SOL    HW116142   2.717   5.152   5.322
 5081SOL    HW216143   2.835   5.151   5.209
 5082SOL     OW16144   4.860   6.575   0.163
 5082SOL    HW116145   4.872   6.661   0.113
 5082SOL    HW216146   4.790   6.521   0.117
 5083SOL     OW16147   3.078   0.459   1.680
 5083SOL    HW116148   3.150   0.437   1.745
 5083SOL    HW216149   3.021   0.533   1.716
 5084SOL     OW16150   1.012   4.845   5.097
 5084SOL    HW116151   1.042   4.815   5.007
 5084SOL    HW216152   1.045   4.780   5.166
 5085SOL     OW16153   1.278   2.314   6.016
 5085SOL    HW116154   1.318   2.239   6.070
 5085SOL    HW216155   1.340   2.339   5.942
 5086SOL     OW16156   0.929   4.256   2.248
 5086SOL    HW116157   0.858   4.192   2.218
 5086SOL    HW216158   0.887   4.340   2.281
 5087SOL     OW16159   6.738   5.072   2.286
 5087SOL    HW116160   6.828   5.035   2.309
 5087SOL    HW216161   6.688   5.092   2.370
 5088SOL     OW16162   4.389   5.761   2.830
 5088SOL    HW116163   4.433   5.769   2.919
 5088SOL    HW216164   4.388   5.850   2.785
 5089SOL     OW16165   5.917   4.241   4.292
 5089SOL    HW116166   6.005   4.196   4.272
 5089SOL    HW216167   5.858   4.178   4.343
 5090SOL     OW16168   2.365   0.538   3.237
 5090SOL    HW116169   2.450   0.522   3.288
 5090SOL    HW216170   2.344   0.636   3.237
 5091SOL     OW16171   6.904   0.361   0.692
 5091SOL    HW116172   6.986   0.309   0.666
 5091SOL    HW216173   6.932   0.450   0.727
 5092SOL     OW16174   4.112   3.441   3.895
 5092SOL    HW116175   4.043   3.389   3.944
 5092SOL    HW216176   4.164   3.379   3.836
 5093SOL     OW16177   2.538   1.556   1.399
 5093SOL    HW116178   2.494   1.596   1.479
 5093SOL    HW216179   2.624   1.511   1.426
 5094SOL     OW16180   2.021   6.301   6.795
 5094SOL    HW116181   1.941   6.320   6.737
 5094SOL    HW216182   2.007   6.342   6.885
 5095SOL     OW16183   0.242   1.654   3.228
 5095SOL    HW116184   0.304   1.642   3.151
 5095SOL    HW216185   0.290   1.637   3.314
 5096SOL     OW16186   5.808   4.799   6.295
 5096SOL    HW116187   5.724   4.745   6.286
 5096SOL    HW216188   5.869   4.780   6.218
 5097SOL     OW16189   6.761   0.215   0.376
 5097SOL    HW116190   6.804   0.206   0.286
 5097SOL    HW216191   6.794   0.299   0.420
 5098SOL     OW16192   3.666   2.294   1.265
 5098SOL    HW116193   3.749   2.337   1.303
 5098SOL    HW216194   3.642   2.215   1.321
 5099SOL     OW16195   0.591   6.320   1.453
 5099SOL    HW116196   0.555   6.235   1.492
 5099SOL    HW216197   0.658   6.359   1.515
 5100SOL     OW16198   4.011   5.147   3.127
 5100SOL    HW116199   4.078   5.205   3.174
 5100SOL    HW216200   4.037   5.051   3.137
 5101SOL     OW16201   3.736   0.776   4.626
 5101SOL    HW116202   3.779   0.862   4.598
 5101SOL    HW216203   3.649   0.795   4.670
 5102SOL     OW16204   5.145   5.670   4.146
 5102SOL    HW116205   5.233   5.696   4.186
 5102SOL    HW216206   5.154   5.585   4.095
 5103SOL     OW16207   0.839   1.205   4.513
 5103SOL    HW116208   0.816   1.238   4.421
 5103SOL    HW216209   0.938   1.210   4.527
 5104SOL     OW16210   3.540   5.922   1.846
 5104SOL    HW116211   3.493   5.949   1.930
 5104SOL    HW216212   3.630   5.883   1.868
 5105SOL     OW16213   3.357   3.233   6.749
 5105SOL    HW116214   3.342   3.135   6.765
 5105SOL    HW216215   3.287   3.286   6.798
 5106SOL     OW16216   4.016   1.721   1.110
 5106SOL    HW116217   4.038   1.679   1.022
 5106SOL    HW216218   4.101   1.751   1.155
 5107SOL     OW16219   4.903   2.459   1.193
 5107SOL    HW116220   4.968   2.388   1.218
 5107SOL    HW216221   4.859   2.496   1.275
 5108SOL     OW16222   4.061   3.856   5.480
 5108SOL    HW116223   4.109   3.853   5.393
 5108SOL    HW216224   4.092   3.935   5.533
 5109SOL     OW16225   1.178   2.165   1.131
 5109SOL    HW116226   1.251   2.113   1.086
 5109SOL    HW216227   1.215   2.214   1.209
 5110SOL     OW16228   0.297   0.475   6.366
 5110SOL    HW116229   0.220   0.535   6.385
 5110SOL    HW216230   0.330   0.434   6.451
 5111SOL     OW16231   1.226   6.784   4.385
 5111SOL    HW116232   1.304   6.748   4.333
 5111SOL    HW216233   1.253   6.798   4.480
 5112SOL     OW16234   0.171   0.449   2.654
 5112SOL    HW116235   0.090   0.396   2.626
 5112SOL    HW216236   0.176   0.451   2.754
 5113SOL     OW16237   1.419   5.891   1.417
 5113SOL    HW116238   1.459   5.805   1.447
 5113SOL    HW216239   1.449   5.965   1.477
 5114SOL     OW16240   3.840   6.483   0.601
 5114SOL    HW116241   3.746   6.452   0.615
 5114SOL    HW216242   3.901   6.403   0.597
 5115SOL     OW16243   1.957   3.790   1.944
 5115SOL    HW116244   1.929   3.701   1.980
 5115SOL    HW216245   1.898   3.861   1.984
 5116SOL     OW16246   2.010   6.352   0.038
 5116SOL    HW116247   2.093   6.378   0.088
 5116SOL    HW216248   1.936   6.336   0.103
 5117SOL     OW16249   0.952   3.505   3.943
 5117SOL    HW116250   1.031   3.550   3.983
 5117SOL    HW216251   0.870   3.562   3.958
 5118SOL     OW16252   6.193   6.653   0.068
 5118SOL    HW116253   6.263   6.623   0.133
 5118SOL    HW216254   6.117   6.588   0.068
 5119SOL     OW16255   4.558   1.463   1.055
 5119SOL    HW116256   4.611   1.526   0.999
 5119SOL    HW216257   4.470   1.505   1.079
 5120SOL     OW16258   4.750   6.969   5.038
 5120SOL    HW116259   4.789   6.877   5.044
 5120SOL    HW216260   4.788   7.026   5.111
 5121SOL     OW16261   3.289   3.716   6.929
 5121SOL    HW116262   3.314   3.623   6.958
 5121SOL    HW216263   3.260   3.769   7.009
 5122SOL     OW16264   3.817   6.137   3.214
 5122SOL    HW116265   3.828   6.201   3.291
 5122SOL    HW216266   3.889   6.069   3.216
 5123SOL     OW16267   5.622   2.689   3.478
 5123SOL    HW116268   5.647   2.781   3.508
 5123SOL    HW216269   5.523   2.682   3.467
 5124SOL     OW16270   2.052   6.775   3.276
 5124SOL    HW116271   2.095   6.705   3.333
 5124SOL    HW216272   1.986   6.732   3.214
 5125SOL     OW16273   0.598   2.149   2.779
 5125SOL    HW116274   0.631   2.204   2.856
 5125SOL    HW216275   0.507   2.181   2.751
 5126SOL     OW16276   1.138   6.444   0.009
 5126SOL    HW116277   1.039   6.457   0.020
 5126SOL    HW216278   1.186   6.509   0.068
 5127SOL     OW16279   1.031   5.389   0.018
 5127SOL    HW116280   1.062   5.377   6.951
 5127SOL    HW216281   1.063   5.477   0.052
 5128SOL     OW16282   6.787   6.711   0.796
 5128SOL    HW116283   6.790   6.636   0.730
 5128SOL    HW216284   6.722   6.690   0.868
 5129SOL     OW16285   5.187   6.668   2.293
 5129SOL    HW116286   5.143   6.588   2.333
 5129SOL    HW216287   5.187   6.743   2.360
 5130SOL     OW16288   0.117   4.640   2.896
 5130SOL    HW116289   0.116   4.581   2.977
 5130SOL    HW216290   0.124   4.735   2.925
 5131SOL     OW16291   1.808   3.451   4.441
 5131SOL    HW116292   1.727   3.422   4.391
 5131SOL    HW216293   1.882   3.385   4.427
 5132SOL     OW16294   3.978   2.802   6.328
 5132SOL    HW116295   4.046   2.866   6.363
 5132SOL    HW216296   3.994   2.711   6.367
 5133SOL     OW16297   3.258   4.777   0.593
 5133SOL    HW116298   3.300   4.725   0.520
 5133SOL    HW216299   3.224   4.715   0.664
 5134SOL     OW16300   0.399   2.707   1.708
 5134SOL    HW116301   0.399   2.722   1.609
 5134SOL    HW216302   0.471   2.641   1.731
 5135SOL     OW16303   6.260   2.253   5.273
 5135SOL    HW116304   6.281   2.287   5.181
 5135SOL    HW216305   6.177   2.298   5.307
 5136SOL     OW16306   5.211   0.141   6.090
 5136SOL    HW116307   5.285   0.074   6.080
 5136SOL    HW216308   5.128   0.104   6.047
 5137SOL     OW16309   5.896   3.244   6.548
 5137SOL    HW116310   5.861   3.293   6.468
 5137SOL    HW216311   5.923   3.310   6.618
 5138SOL     OW16312   3.407   2.607   5.689
 5138SOL    HW116313   3.354   2.679   5.645
 5138SOL    HW216314   3.456   2.646   5.767
 5139SOL     OW16315   0.953   6.676   3.529
 5139SOL    HW116316   0.963   6.710   3.435
 5139SOL    HW216317   0.916   6.749   3.587
 5140SOL     OW16318   3.102   1.422   0.161
 5140SOL    HW116319   3.176   1.462   0.214
 5140SOL    HW216320   3.125   1.424   0.064
 5141SOL     OW16321   6.357   3.539   0.511
 5141SOL    HW116322   6.410   3.506   0.589
 5141SOL    HW216323   6.371   3.637   0.500
 5142SOL     OW16324   6.151   1.916   3.968
 5142SOL    HW116325   6.232   1.933   3.912
 5142SOL    HW216326   6.091   1.996   3.965
 5143SOL     OW16327   0.404   4.062   3.664
 5143SOL    HW116328   0.353   4.071   3.750
 5143SOL    HW216329   0.405   3.966   3.636
 5144SOL     OW16330   1.086   6.507   6.616
 5144SOL    HW116331   1.009   6.509   6.680
 5144SOL    HW216332   1.093   6.415   6.576
 5145SOL     OW16333   2.628   5.280   5.974
 5145SOL    HW116334   2.690   5.358   5.984
 5145SOL    HW216335   2.578   5.265   6.059
 5146SOL     OW16336   4.542   3.507   6.498
 5146SOL    HW116337   4.567   3.559   6.416
 5146SOL    HW216338   4.513   3.570   6.570
 5147SOL     OW16339   0.348   4.195   1.987
 5147SOL    HW116340   0.372   4.248   2.068
 5147SOL    HW216341   0.415   4.122   1.972
 5148SOL     OW16342   0.554   6.211   1.116
 5148SOL    HW116343   0.495   6.267   1.059
 5148SOL    HW216344   0.641   6.258   1.130
 5149SOL     OW16345   5.794   6.631   4.386
 5149SOL    HW116346   5.793   6.644   4.287
 5149SOL    HW216347   5.795   6.533   4.407
 5150SOL     OW16348   2.291   4.754   3.161
 5150SOL    HW116349   2.352   4.677   3.142
 5150SOL    HW216350   2.307   4.827   3.095
 5151SOL     OW16351   5.387   1.087   0.575
 5151SOL    HW116352   5.433   1.085   0.486
 5151SOL    HW216353   5.436   1.028   0.639
 5152SOL     OW16354   1.862   4.830   6.456
 5152SOL    HW116355   1.898   4.755   6.512
 5152SOL    HW216356   1.794   4.794   6.392
 5153SOL     OW16357   2.589   1.264   6.541
 5153SOL    HW116358   2.519   1.309   6.596
 5153SOL    HW216359   2.575   1.286   6.444
 5154SOL     OW16360   1.766   3.097   6.240
 5154SOL    HW116361   1.852   3.144   6.217
 5154SOL    HW216362   1.740   3.120   6.334
 5155SOL     OW16363   3.884   6.607   2.235
 5155SOL    HW116364   3.924   6.559   2.157
 5155SOL    HW216365   3.950   6.672   2.273
 5156SOL     OW16366   6.741   3.108   5.591
 5156SOL    HW116367   6.661   3.127   5.648
 5156SOL    HW216368   6.805   3.049   5.641
 5157SOL     OW16369   4.705   2.471   3.777
 5157SOL    HW116370   4.662   2.516   3.699
 5157SOL    HW216371   4.729   2.377   3.752
 5158SOL     OW16372   3.704   1.798   1.477
 5158SOL    HW116373   3.657   1.836   1.557
 5158SOL    HW216374   3.693   1.860   1.399
 5159SOL     OW16375   0.610   3.121   4.999
 5159SOL    HW116376   0.582   3.030   5.030
 5159SOL    HW216377   0.681   3.157   5.061
 5160SOL     OW16378   0.640   3.937   4.165
 5160SOL    HW116379   0.710   3.870   4.142
 5160SOL    HW216380   0.621   3.995   4.085
 5161SOL     OW16381   1.138   3.893   4.837
 5161SOL    HW116382   1.215   3.910   4.775
 5161SOL    HW216383   1.061   3.952   4.811
 5162SOL     OW16384   0.714   5.127   4.242
 5162SOL    HW116385   0.777   5.195   4.205
 5162SOL    HW216386   0.631   5.125   4.187
 5163SOL     OW16387   3.785   5.090   1.399
 5163SOL    HW116388   3.860   5.023   1.402
 5163SOL    HW216389   3.728   5.071   1.318
 5164SOL     OW16390   6.236   2.399   5.946
 5164SOL    HW116391   6.204   2.408   5.852
 5164SOL    HW216392   6.220   2.306   5.979
 5165SOL     OW16393   5.581   3.976   5.217
 5165SOL    HW116394   5.522   3.983   5.136
 5165SOL    HW216395   5.615   4.067   5.242
 5166SOL     OW16396   1.448   5.038   1.571
 5166SOL    HW116397   1.424   5.131   1.543
 5166SOL    HW216398   1.547   5.029   1.578
 5167SOL     OW16399   6.236   0.268   5.572
 5167SOL    HW116400   6.151   0.319   5.582
 5167SOL    HW216401   6.216   0.174   5.545
 5168SOL     OW16402   5.045   2.375   3.250
 5168SOL    HW116403   5.034   2.397   3.153
 5168SOL    HW216404   5.135   2.405   3.281
 5169SOL     OW16405   3.255   3.183   5.762
 5169SOL    HW116406   3.195   3.263   5.749
 5169SOL    HW216407   3.274   3.141   5.674
 5170SOL     OW16408   0.050   3.917   5.945
 5170SOL    HW116409   0.106   3.836   5.927
 5170SOL    HW216410   0.104   3.984   5.996
 5171SOL     OW16411   2.612   4.971   4.550
 5171SOL    HW116412   2.653   4.884   4.521
 5171SOL    HW216413   2.638   4.989   4.645
 5172SOL     OW16414   1.051   3.027   1.783
 5172SOL    HW116415   1.106   2.998   1.861
 5172SOL    HW216416   1.074   3.121   1.758
 5173SOL     OW16417   5.880   4.437   6.335
 5173SOL    HW116418   5.897   4.505   6.406
 5173SOL    HW216419   5.808   4.469   6.274
 5174SOL     OW16420   2.103   4.795   4.383
 5174SOL    HW116421   2.169   4.870   4.383
 5174SOL    HW216422   2.150   4.709   4.401
 5175SOL     OW16423   2.142   4.195   6.373
 5175SOL    HW116424   2.100   4.276   6.414
 5175SOL    HW216425   2.237   4.215   6.349
 5176SOL     OW16426   3.997   2.904   1.155
 5176SOL    HW116427   4.029   2.886   1.062
 5176SOL    HW216428   3.958   2.820   1.193
 5177SOL     OW16429   4.938   7.022   6.049
 5177SOL    HW116430   4.994   6.953   6.094
 5177SOL    HW216431   4.891   6.982   5.971
 5178SOL     OW16432   2.639   2.383   0.926
 5178SOL    HW116433   2.737   2.379   0.948
 5178SOL    HW216434   2.605   2.476   0.944
 5179SOL     OW16435   4.908   5.868   5.112
 5179SOL    HW116436   4.872   5.898   5.024
 5179SOL    HW216437   4.846   5.898   5.185
 5180SOL     OW16438   2.908   2.584   6.295
 5180SOL    HW116439   2.823   2.637   6.298
 5180SOL    HW216440   2.972   2.626   6.230
 5181SOL     OW16441   4.467   1.120   3.007
 5181SOL    HW116442   4.534   1.055   2.971
 5181SOL    HW216443   4.514   1.196   3.052
 5182SOL     OW16444   5.246   4.887   1.586
 5182SOL    HW116445   5.176   4.849   1.527
 5182SOL    HW216446   5.226   4.984   1.604
 5183SOL     OW16447   4.489   6.723   2.275
 5183SOL    HW116448   4.545   6.795   2.235
 5183SOL    HW216449   4.545   6.665   2.334
 5184SOL     OW16450   0.737   1.455   3.937
 5184SOL    HW116451   0.781   1.530   3.987
 5184SOL    HW216452   0.804   1.413   3.876
 5185SOL     OW16453   4.524   6.824   2.980
 5185SOL    HW116454   4.503   6.894   2.913
 5185SOL    HW216455   4.439   6.783   3.013
 5186SOL     OW16456   6.120   3.792   0.842
 5186SOL    HW116457   6.207   3.743   0.841
 5186SOL    HW216458   6.065   3.763   0.764
 5187SOL     OW16459   6.451   1.317   3.763
 5187SOL    HW116460   6.514   1.240   3.770
 5187SOL    HW216461   6.407   1.315   3.673
 5188SOL     OW16462   0.557   5.327   0.923
 5188SOL    HW116463   0.492   5.317   0.999
 5188SOL    HW216464   0.645   5.357   0.959
 5189SOL     OW16465   4.704   5.362   0.398
 5189SOL    HW116466   4.762   5.338   0.475
 5189SOL    HW216467   4.631   5.295   0.389
 5190SOL     OW16468   1.091   1.982   4.071
 5190SOL    HW116469   1.040   1.960   3.988
 5190SOL    HW216470   1.073   1.912   4.140
 5191SOL     OW16471   3.636   0.987   1.695
 5191SOL    HW116472   3.556   0.928   1.688
 5191SOL    HW216473   3.698   0.952   1.765
 5192SOL     OW16474   4.757   5.693   2.396
 5192SOL    HW116475   4.745   5.608   2.447
 5192SOL    HW216476   4.683   5.704   2.330
 5193SOL     OW16477   4.614   4.410   4.022
 5193SOL    HW116478   4.687   4.466   3.983
 5193SOL    HW216479   4.642   4.314   4.022
 5194SOL     OW16480   5.069   0.151   6.387
 5194SOL    HW116481   5.082   0.085   6.461
 5194SOL    HW216482   5.097   0.111   6.300
 5195SOL     OW16483   6.323   6.304   4.703
 5195SOL    HW116484   6.262   6.304   4.624
 5195SOL    HW216485   6.418   6.292   4.672
 5196SOL     OW16486   0.785   3.654   1.122
 5196SOL    HW116487   0.719   3.643   1.047
 5196SOL    HW216488   0.821   3.747   1.121
 5197SOL     OW16489   2.104   5.962   4.186
 5197SOL    HW116490   2.009   5.976   4.217
 5197SOL    HW216491   2.157   6.044   4.203
 5198SOL     OW16492   3.026   0.120   4.344
 5198SOL    HW116493   3.021   0.052   4.271
 5198SOL    HW216494   3.022   0.212   4.304
 5199SOL     OW16495   2.521   5.974   0.950
 5199SOL    HW116496   2.522   6.035   1.029
 5199SOL    HW216497   2.442   5.913   0.956
 5200SOL     OW16498   1.238   2.374   4.952
 5200SOL    HW116499   1.295   2.431   5.012
 5200SOL    HW216500   1.163   2.430   4.916
 5201SOL     OW16501   5.549   5.583   4.182
 5201SOL    HW116502   5.484   5.650   4.218
 5201SOL    HW216503   5.629   5.578   4.241
 5202SOL     OW16504   5.327   3.440   6.679
 5202SOL    HW116505   5.259   3.432   6.606
 5202SOL    HW216506   5.328   3.534   6.714
 5203SOL     OW16507   1.626   0.431   5.974
 5203SOL    HW116508   1.705   0.426   6.034
 5203SOL    HW216509   1.602   0.339   5.941
 5204SOL     OW16510   2.973   6.749   6.726
 5204SOL    HW116511   2.938   6.806   6.800
 5204SOL    HW216512   2.962   6.653   6.750
 5205SOL     OW16513   6.966   5.417   6.908
 5205SOL    HW116514   6.969   5.487   6.837
 5205SOL    HW216515   6.990   5.457   6.996
 5206SOL     OW16516   0.457   5.236   5.741
 5206SOL    HW116517   0.382   5.263   5.801
 5206SOL    HW216518   0.531   5.197   5.796
 5207SOL     OW16519   0.405   0.284   3.884
 5207SOL    HW116520   0.355   0.265   3.800
 5207SOL    HW216521   0.501   0.305   3.862
 5208SOL     OW16522   4.620   2.523   6.847
 5208SOL    HW116523   4.646   2.454   6.779
 5208SOL    HW216524   4.684   2.599   6.843
 5209SOL     OW16525   5.022   6.950   2.635
 5209SOL    HW116526   4.928   6.946   2.668
 5209SOL    HW216527   5.066   0.006   2.669
 5210SOL     OW16528   5.097   4.010   0.989
 5210SOL    HW116529   5.088   4.103   1.024
 5210SOL    HW216530   5.016   3.957   1.017
 5211SOL     OW16531   5.199   2.071   4.460
 5211SOL    HW116532   5.125   2.074   4.526
 5211SOL    HW216533   5.188   2.144   4.392
 5212SOL     OW16534   1.199   2.416   0.757
 5212SOL    HW116535   1.138   2.348   0.717
 5212SOL    HW216536   1.248   2.464   0.684
 5213SOL     OW16537   4.193   3.706   1.806
 5213SOL    HW116538   4.252   3.629   1.781
 5213SOL    HW216539   4.183   3.767   1.728
 5214SOL     OW16540   5.039   4.523   6.186
 5214SOL    HW116541   5.037   4.424   6.174
 5214SOL    HW216542   5.131   4.552   6.213
 5215SOL     OW16543   0.031   3.415   3.942
 5215SOL    HW116544   0.043   3.350   4.016
 5215SOL    HW216545   6.961   3.428   3.925
 5216SOL     OW16546   4.884   5.294   1.341
 5216SOL    HW116547   4.834   5.266   1.423
 5216SOL    HW216548   4.926   5.384   1.357
 5217SOL     OW16549   3.682   5.442   3.834
 5217SOL    HW116550   3.662   5.344   3.837
 5217SOL    HW216551   3.676   5.475   3.740
 5218SOL     OW16552   0.692   1.482   0.857
 5218SOL    HW116553   0.630   1.496   0.935
 5218SOL    HW216554   0.639   1.459   0.776
 5219SOL     OW16555   3.325   1.522   4.564
 5219SOL    HW116556   3.293   1.487   4.652
 5219SOL    HW216557   3.423   1.506   4.555
 5220SOL     OW16558   1.295   4.939   2.984
 5220SOL    HW116559   1.375   4.995   2.963
 5220SOL    HW216560   1.213   4.996   2.979
 5221SOL     OW16561   0.075   0.178   1.531
 5221SOL    HW116562   0.094   0.229   1.447
 5221SOL    HW216563   0.070   0.242   1.608
 5222SOL     OW16564   3.863   5.446   2.076
 5222SOL    HW116565   3.792   5.481   2.138
 5222SOL    HW216566   3.843   5.351   2.053
 5223SOL     OW16567   0.025   2.192   1.179
 5223SOL    HW116568   0.058   2.105   1.143
 5223SOL    HW216569   6.956   2.203   1.156
 5224SOL     OW16570   0.924   1.852   4.278
 5224SOL    HW116571   0.955   1.764   4.314
 5224SOL    HW216572   0.826   1.862   4.294
 5225SOL     OW16573   6.617   1.440   4.531
 5225SOL    HW116574   6.528   1.483   4.544
 5225SOL    HW216575   6.619   1.393   4.443
 5226SOL     OW16576   0.165   5.715   3.499
 5226SOL    HW116577   0.084   5.658   3.514
 5226SOL    HW216578   0.153   5.803   3.545
 5227SOL     OW16579   0.478   3.894   5.856
 5227SOL    HW116580   0.396   3.949   5.873
 5227SOL    HW216581   0.557   3.937   5.900
 5228SOL     OW16582   0.753   2.538   6.906
 5228SOL    HW116583   0.853   2.537   6.908
 5228SOL    HW216584   0.718   2.446   6.926
 5229SOL     OW16585   3.341   6.119   6.347
 5229SOL    HW116586   3.434   6.091   6.326
 5229SOL    HW216587   3.321   6.206   6.302
 5230SOL     OW16588   6.811   0.551   2.394
 5230SOL    HW116589   6.868   0.511   2.323
 5230SOL    HW216590   6.738   0.487   2.419
 5231SOL     OW16591   5.087   1.621   3.455
 5231SOL    HW116592   5.170   1.657   3.413
 5231SOL    HW216593   5.009   1.641   3.396
 5232SOL     OW16594   1.643   3.958   6.044
 5232SOL    HW116595   1.675   3.942   6.138
 5232SOL    HW216596   1.722   3.978   5.985
 5233SOL     OW16597   3.276   0.645   2.346
 5233SOL    HW116598   3.180   0.656   2.371
 5233SOL    HW216599   3.329   0.722   2.380
 5234SOL     OW16600   2.794   3.456   6.948
 5234SOL    HW116601   2.756   3.421   0.006
 5234SOL    HW216602   2.843   3.383   6.901
 5235SOL     OW16603   2.023   2.507   0.443
 5235SOL    HW116604   1.950   2.571   0.467
 5235SOL    HW216605   1.985   2.414   0.438
 5236SOL     OW16606   3.135   4.904   1.959
 5236SOL    HW116607   3.103   4.886   2.053
 5236SOL    HW216608   3.128   4.820   1.905
 5237SOL     OW16609   2.183   1.655   4.482
 5237SOL    HW116610   2.217   1.567   4.516
 5237SOL    HW216611   2.250   1.726   4.500
 5238SOL     OW16612   1.173   4.495   1.968
 5238SOL    HW116613   1.095   4.519   1.911
 5238SOL    HW216614   1.230   4.575   1.983
 5239SOL     OW16615   3.496   4.010   1.144
 5239SOL    HW116616   3.581   3.978   1.104
 5239SOL    HW216617   3.513   4.091   1.200
 5240SOL     OW16618   2.755   2.356   5.025
 5240SOL    HW116619   2.722   2.263   5.008
 5240SOL    HW216620   2.845   2.352   5.069
 5241SOL     OW16621   1.164   6.145   2.113
 5241SOL    HW116622   1.079   6.142   2.165
 5241SOL    HW216623   1.144   6.135   2.015
 5242SOL     OW16624   5.138   0.459   1.841
 5242SOL    HW116625   5.160   0.496   1.931
 5242SOL    HW216626   5.083   0.376   1.852
 5243SOL     OW16627   2.346   6.050   1.411
 5243SOL    HW116628   2.353   5.964   1.460
 5243SOL    HW216629   2.251   6.082   1.411
 5244SOL     OW16630   4.794   3.076   6.958
 5244SOL    HW116631   4.846   3.086   0.015
 5244SOL    HW216632   4.848   3.110   6.881
 5245SOL     OW16633   3.959   3.971   0.297
 5245SOL    HW116634   3.906   4.016   0.368
 5245SOL    HW216635   4.003   3.889   0.335
 5246SOL     OW16636   6.338   2.317   2.433
 5246SOL    HW116637   6.391   2.382   2.378
 5246SOL    HW216638   6.241   2.337   2.422
 5247SOL     OW16639   3.824   1.089   5.510
 5247SOL    HW116640   3.728   1.068   5.525
 5247SOL    HW216641   3.832   1.177   5.463
 5248SOL     OW16642   0.084   1.996   2.802
 5248SOL    HW116643   0.124   1.911   2.768
 5248SOL    HW216644   0.083   1.994   2.902
 5249SOL     OW16645   1.663   5.373   6.418
 5249SOL    HW116646   1.579   5.415   6.384
 5249SOL    HW216647   1.715   5.440   6.471
 5250SOL     OW16648   1.530   5.897   0.372
 5250SOL    HW116649   1.567   5.812   0.334
 5250SOL    HW216650   1.606   5.955   0.400
 5251SOL     OW16651   0.871   4.672   1.201
 5251SOL    HW116652   0.811   4.749   1.222
 5251SOL    HW216653   0.925   4.693   1.119
 5252SOL     OW16654   2.681   6.955   2.398
 5252SOL    HW116655   2.617   0.003   2.384
 5252SOL    HW216656   2.738   6.974   2.478
 5253SOL     OW16657   5.887   4.483   4.927
 5253SOL    HW116658   5.979   4.501   4.890
 5253SOL    HW216659   5.889   4.495   5.026
 5254SOL     OW16660   5.798   0.676   3.486
 5254SOL    HW116661   5.759   0.637   3.569
 5254SOL    HW216662   5.731   0.672   3.413
 5255SOL     OW16663   5.652   2.249   4.615
 5255SOL    HW116664   5.648   2.179   4.686
 5255SOL    HW216665   5.595   2.221   4.537
 5256SOL     OW16666   5.253   1.518   3.682
 5256SOL    HW116667   5.192   1.560   3.615
 5256SOL    HW216668   5.201   1.494   3.764
 5257SOL     OW16669   4.657   6.899   0.577
 5257SOL    HW116670   4.707   6.978   0.614
 5257SOL    HW216671   4.667   6.822   0.639
 5258SOL     OW16672   5.292   2.029   3.034
 5258SOL    HW116673   5.198   2.032   3.068
 5258SOL    HW216674   5.346   2.101   3.079
 5259SOL     OW16675   4.811   5.246   2.637
 5259SOL    HW116676   4.910   5.235   2.635
 5259SOL    HW216677   4.768   5.159   2.663
 5260SOL     OW16678   3.915   5.360   0.201
 5260SOL    HW116679   3.907   5.328   0.107
 5260SOL    HW216680   3.905   5.460   0.203
 5261SOL     OW16681   0.227   4.253   0.351
 5261SOL    HW116682   0.220   4.350   0.371
 5261SOL    HW216683   0.320   4.232   0.319
 5262SOL     OW16684   2.897   0.962   3.259
 5262SOL    HW116685   2.949   1.035   3.303
 5262SOL    HW216686   2.801   0.988   3.254
 5263SOL     OW16687   2.029   1.386   2.885
 5263SOL    HW116688   1.973   1.369   2.804
 5263SOL    HW216689   1.981   1.351   2.966
 5264SOL     OW16690   6.781   2.061   2.413
 5264SOL    HW116691   6.823   2.028   2.498
 5264SOL    HW216692   6.695   2.013   2.398
 5265SOL     OW16693   6.033   3.116   4.542
 5265SOL    HW116694   5.957   3.119   4.606
 5265SOL    HW216695   6.008   3.061   4.462
 5266SOL     OW16696   2.643   6.753   1.174
 5266SOL    HW116697   2.657   6.668   1.122
 5266SOL    HW216698   2.546   6.763   1.195
 5267SOL     OW16699   4.659   2.436   4.781
 5267SOL    HW116700   4.584   2.444   4.848
 5267SOL    HW216701   4.654   2.347   4.736
 5268SOL     OW16702   4.984   0.661   6.712
 5268SOL    HW116703   4.932   0.740   6.680
 5268SOL    HW216704   5.076   0.691   6.740
 5269SOL     OW16705   0.766   6.187   2.429
 5269SOL    HW116706   0.759   6.272   2.482
 5269SOL    HW216707   0.841   6.131   2.466
 5270SOL     OW16708   5.419   1.630   1.342
 5270SOL    HW116709   5.355   1.558   1.316
 5270SOL    HW216710   5.398   1.713   1.290
 5271SOL     OW16711   6.380   4.417   5.683
 5271SOL    HW116712   6.472   4.453   5.668
 5271SOL    HW216713   6.364   4.340   5.621
 5272SOL     OW16714   3.424   5.749   1.105
 5272SOL    HW116715   3.349   5.756   1.039
 5272SOL    HW216716   3.389   5.765   1.197
 5273SOL     OW16717   0.863   3.592   2.476
 5273SOL    HW116718   0.909   3.663   2.530
 5273SOL    HW216719   0.765   3.596   2.491
 5274SOL     OW16720   5.243   6.411   2.613
 5274SOL    HW116721   5.257   6.510   2.602
 5274SOL    HW216722   5.273   6.383   2.704
 5275SOL     OW16723   3.406   1.110   0.878
 5275SOL    HW116724   3.307   1.100   0.878
 5275SOL    HW216725   3.448   1.033   0.832
 5276SOL     OW16726   2.288   0.562   1.900
 5276SOL    HW116727   2.301   0.593   1.806
 5276SOL    HW216728   2.234   0.629   1.951
 5277SOL     OW16729   2.964   1.062   2.571
 5277SOL    HW116730   2.897   1.087   2.641
 5277SOL    HW216731   2.979   0.963   2.573
 5278SOL     OW16732   5.147   4.850   3.690
 5278SOL    HW116733   5.174   4.796   3.610
 5278SOL    HW216734   5.066   4.904   3.668
 5279SOL     OW16735   2.347   5.730   1.084
 5279SOL    HW116736   2.424   5.715   1.147
 5279SOL    HW216737   2.375   5.705   0.991
 5280SOL     OW16738   3.062   6.081   4.667
 5280SOL    HW116739   2.978   6.102   4.716
 5280SOL    HW216740   3.043   6.078   4.569
 5281SOL     OW16741   6.339   2.028   2.315
 5281SOL    HW116742   6.393   1.975   2.380
 5281SOL    HW216743   6.309   2.113   2.358
 5282SOL     OW16744   2.508   1.287   3.354
 5282SOL    HW116745   2.508   1.208   3.416
 5282SOL    HW216746   2.601   1.322   3.344
 5283SOL     OW16747   5.037   6.456   1.488
 5283SOL    HW116748   5.048   6.554   1.468
 5283SOL    HW216749   4.964   6.444   1.556
 5284SOL     OW16750   5.332   4.164   2.825
 5284SOL    HW116751   5.410   4.209   2.783
 5284SOL    HW216752   5.266   4.137   2.755
 5285SOL     OW16753   3.207   4.982   3.820
 5285SOL    HW116754   3.299   5.022   3.824
 5285SOL    HW216755   3.215   4.882   3.820
 5286SOL     OW16756   2.327   4.268   1.437
 5286SOL    HW116757   2.304   4.314   1.351
 5286SOL    HW216758   2.401   4.203   1.421
 5287SOL     OW16759   2.626   1.332   0.950
 5287SOL    HW116760   2.677   1.287   0.876
 5287SOL    HW216761   2.529   1.308   0.943
 5288SOL     OW16762   4.242   0.256   1.231
 5288SOL    HW116763   4.302   0.336   1.237
 5288SOL    HW216764   4.149   0.283   1.255
 5289SOL     OW16765   0.776   5.283   0.097
 5289SOL    HW116766   0.799   5.188   0.116
 5289SOL    HW216767   0.859   5.334   0.077
 5290SOL     OW16768   3.032   5.954   6.919
 5290SOL    HW116769   3.028   5.890   6.995
 5290SOL    HW216770   3.063   5.906   6.837
 5291SOL     OW16771   2.719   5.504   5.701
 5291SOL    HW116772   2.670   5.430   5.748
 5291SOL    HW216773   2.698   5.500   5.603
 5292SOL     OW16774   5.802   2.997   6.896
 5292SOL    HW116775   5.899   3.003   6.874
 5292SOL    HW216776   5.760   3.087   6.888
 5293SOL     OW16777   0.690   0.629   4.598
 5293SOL    HW116778   0.758   0.642   4.526
 5293SOL    HW216779   0.615   0.693   4.585
 5294SOL     OW16780   5.586   3.073   6.589
 5294SOL    HW116781   5.616   3.163   6.621
 5294SOL    HW216782   5.568   3.077   6.490
 5295SOL     OW16783   5.149   1.135   2.927
 5295SOL    HW116784   5.240   1.151   2.889
 5295SOL    HW216785   5.091   1.214   2.907
 5296SOL     OW16786   1.909   4.750   0.124
 5296SOL    HW116787   1.858   4.815   0.180
 5296SOL    HW216788   1.845   4.684   0.083
 5297SOL     OW16789   2.422   2.279   0.791
 5297SOL    HW116790   2.346   2.342   0.810
 5297SOL    HW216791   2.507   2.317   0.827
 5298SOL     OW16792   6.368   5.336   2.004
 5298SOL    HW116793   6.450   5.279   1.997
 5298SOL    HW216794   6.343   5.348   2.100
 5299SOL     OW16795   2.982   0.787   1.511
 5299SOL    HW116796   2.997   0.723   1.586
 5299SOL    HW216797   3.057   0.778   1.444
 5300SOL     OW16798   0.284   5.746   3.025
 5300SOL    HW116799   0.304   5.677   2.955
 5300SOL    HW216800   0.282   5.837   2.983
 5301SOL     OW16801   4.208   1.834   6.992
 5301SOL    HW116802   4.263   1.915   6.974
 5301SOL    HW216803   4.224   1.802   0.058
 5302SOL     OW16804   6.782   4.114   2.329
 5302SOL    HW116805   6.863   4.137   2.383
 5302SOL    HW216806   6.701   4.156   2.371
 5303SOL     OW16807   6.477   4.672   3.969
 5303SOL    HW116808   6.450   4.727   3.890
 5303SOL    HW216809   6.547   4.606   3.943
 5304SOL     OW16810   5.232   2.090   6.211
 5304SOL    HW116811   5.267   2.083   6.304
 5304SOL    HW216812   5.206   2.185   6.192
 5305SOL     OW16813   1.912   0.906   3.807
 5305SOL    HW116814   1.910   0.965   3.888
 5305SOL    HW216815   1.988   0.842   3.814
 5306SOL     OW16816   2.365   6.171   5.671
 5306SOL    HW116817   2.303   6.151   5.596
 5306SOL    HW216818   2.459   6.172   5.638
 5307SOL     OW16819   4.524   6.835   6.401
 5307SOL    HW116820   4.452   6.797   6.460
 5307SOL    HW216821   4.482   6.886   6.326
 5308SOL     OW16822   0.120   0.409   3.862
 5308SOL    HW116823   0.105   0.504   3.889
 5308SOL    HW216824   0.197   0.371   3.915
 5309SOL     OW16825   3.702   3.524   3.818
 5309SOL    HW116826   3.727   3.428   3.826
 5309SOL    HW216827   3.776   3.575   3.773
 5310SOL     OW16828   4.849   2.481   1.498
 5310SOL    HW116829   4.916   2.508   1.567
 5310SOL    HW216830   4.805   2.396   1.526
 5311SOL     OW16831   2.152   5.662   0.037
 5311SOL    HW116832   2.075   5.599   0.030
 5311SOL    HW216833   2.119   5.751   0.070
 5312SOL     OW16834   0.969   4.890   2.447
 5312SOL    HW116835   1.069   4.882   2.446
 5312SOL    HW216836   0.942   4.953   2.520
 5313SOL     OW16837   1.206   6.222   6.900
 5313SOL    HW116838   1.188   6.302   6.958
 5313SOL    HW216839   1.208   6.251   6.804
 5314SOL     OW16840   4.618   5.182   7.025
 5314SOL    HW116841   4.705   5.156   0.039
 5314SOL    HW216842   4.586   5.109   6.965
 5315SOL     OW16843   5.050   4.201   1.785
 5315SOL    HW116844   5.016   4.121   1.737
 5315SOL    HW216845   5.122   4.245   1.731
 5316SOL     OW16846   6.859   5.197   5.065
 5316SOL    HW116847   6.782   5.135   5.057
 5316SOL    HW216848   6.878   5.214   5.162
 5317SOL     OW16849   5.615   0.906   3.100
 5317SOL    HW116850   5.609   1.006   3.097
 5317SOL    HW216851   5.552   0.866   3.034
 5318SOL     OW16852   6.880   2.890   4.478
 5318SOL    HW116853   6.967   2.909   4.433
 5318SOL    HW216854   6.844   2.802   4.446
 5319SOL     OW16855   5.602   0.274   0.211
 5319SOL    HW116856   5.659   0.254   0.132
 5319SOL    HW216857   5.515   0.225   0.204
 5320SOL     OW16858   5.869   3.827   6.640
 5320SOL    HW116859   5.812   3.804   6.719
 5320SOL    HW216860   5.855   3.923   6.616
 5321SOL     OW16861   2.052   5.350   5.398
 5321SOL    HW116862   2.115   5.279   5.431
 5321SOL    HW216863   1.996   5.383   5.474
 5322SOL     OW16864   4.249   6.188   6.343
 5322SOL    HW116865   4.341   6.149   6.357
 5322SOL    HW216866   4.251   6.285   6.368
 5323SOL     OW16867   4.239   2.155   0.140
 5323SOL    HW116868   4.170   2.194   0.078
 5323SOL    HW216869   4.214   2.177   0.234
 5324SOL     OW16870   3.820   2.839   1.497
 5324SOL    HW116871   3.783   2.893   1.422
 5324SOL    HW216872   3.824   2.895   1.580
 5325SOL     OW16873   4.834   6.282   2.414
 5325SOL    HW116874   4.903   6.243   2.353
 5325SOL    HW216875   4.748   6.233   2.403
 5326SOL     OW16876   0.027   5.657   1.748
 5326SOL    HW116877   6.958   5.634   1.743
 5326SOL    HW216878   0.077   5.583   1.791
 5327SOL     OW16879   6.719   0.029   4.725
 5327SOL    HW116880   6.642   0.025   4.789
 5327SOL    HW216881   6.696   0.088   4.647
 5328SOL     OW16882   4.173   3.577   6.564
 5328SOL    HW116883   4.251   3.595   6.625
 5328SOL    HW216884   4.182   3.633   6.482
 5329SOL     OW16885   0.708   4.823   0.631
 5329SOL    HW116886   0.758   4.795   0.713
 5329SOL    HW216887   0.712   4.922   0.622
 5330SOL     OW16888   3.596   3.624   0.919
 5330SOL    HW116889   3.615   3.690   0.992
 5330SOL    HW216890   3.570   3.672   0.836
 5331SOL     OW16891   4.512   2.013   0.330
 5331SOL    HW116892   4.427   1.989   0.376
 5331SOL    HW216893   4.580   1.941   0.345
 5332SOL     OW16894   6.364   5.099   0.709
 5332SOL    HW116895   6.273   5.095   0.750
 5332SOL    HW216896   6.420   5.166   0.758
 5333SOL     OW16897   1.968   1.251   3.184
 5333SOL    HW116898   2.061   1.273   3.157
 5333SOL    HW216899   1.965   1.232   3.282
 5334SOL     OW16900   4.405   4.644   3.540
 5334SOL    HW116901   4.464   4.606   3.468
 5334SOL    HW216902   4.421   4.596   3.626
 5335SOL     OW16903   0.097   4.413   1.688
 5335SOL    HW116904   0.117   4.316   1.705
 5335SOL    HW216905   0.078   4.427   1.591
 5336SOL     OW16906   2.033   1.773   3.978
 5336SOL    HW116907   1.946   1.731   4.003
 5336SOL    HW216908   2.108   1.723   4.021
 5337SOL     OW16909   6.251   4.100   1.253
 5337SOL    HW116910   6.339   4.102   1.206
 5337SOL    HW216911   6.256   4.156   1.336
 5338SOL     OW16912   6.207   2.956   0.199
 5338SOL    HW116913   6.287   2.911   0.162
 5338SOL    HW216914   6.221   3.055   0.199
 5339SOL     OW16915   6.189   2.394   2.653
 5339SOL    HW116916   6.247   2.351   2.583
 5339SOL    HW216917   6.140   2.323   2.704
 5340SOL     OW16918   5.711   2.762   2.184
 5340SOL    HW116919   5.642   2.695   2.156
 5340SOL    HW216920   5.788   2.715   2.226
 5341SOL     OW16921   4.784   4.701   3.467
 5341SOL    HW116922   4.694   4.680   3.428
 5341SOL    HW216923   4.772   4.736   3.560
 5342SOL     OW16924   6.098   0.054   5.463
 5342SOL    HW116925   6.002   0.055   5.436
 5342SOL    HW216926   6.132   6.988   5.463
 5343SOL     OW16927   4.051   3.597   5.392
 5343SOL    HW116928   4.028   3.678   5.446
 5343SOL    HW216929   4.053   3.620   5.295
 5344SOL     OW16930   0.543   1.358   7.014
 5344SOL    HW116931   0.596   1.278   6.988
 5344SOL    HW216932   0.591   1.408   0.059
 5345SOL     OW16933   4.956   1.365   6.699
 5345SOL    HW116934   5.003   1.300   6.758
 5345SOL    HW216935   4.859   1.367   6.723
 5346SOL     OW16936   2.969   4.955   3.673
 5346SOL    HW116937   3.056   4.943   3.721
 5346SOL    HW216938   2.982   5.011   3.592
 5347SOL     OW16939   6.394   2.584   4.043
 5347SOL    HW116940   6.427   2.549   3.955
 5347SOL    HW216941   6.317   2.646   4.027
 5348SOL     OW16942   5.453   2.011   4.179
 5348SOL    HW116943   5.406   1.933   4.221
 5348SOL    HW216944   5.410   2.033   4.092
 5349SOL     OW16945   0.830   2.750   1.865
 5349SOL    HW116946   0.799   2.835   1.823
 5349SOL    HW216947   0.888   2.700   1.800
 5350SOL     OW16948   1.878   6.693   5.879
 5350SOL    HW116949   1.852   6.605   5.838
 5350SOL    HW216950   1.815   6.764   5.848
 5351SOL     OW16951   0.524   5.336   1.702
 5351SOL    HW116952   0.488   5.271   1.769
 5351SOL    HW216953   0.623   5.323   1.692
 5352SOL     OW16954   1.852   3.850   3.850
 5352SOL    HW116955   1.852   3.911   3.771
 5352SOL    HW216956   1.782   3.780   3.839
 5353SOL     OW16957   4.663   5.336   3.679
 5353SOL    HW116958   4.673   5.429   3.643
 5353SOL    HW216959   4.685   5.336   3.777
 5354SOL     OW16960   3.496   5.434   0.705
 5354SOL    HW116961   3.593   5.443   0.724
 5354SOL    HW216962   3.481   5.433   0.606
 5355SOL     OW16963   5.225   5.294   5.141
 5355SOL    HW116964   5.172   5.227   5.192
 5355SOL    HW216965   5.319   5.260   5.129
 5356SOL     OW16966   0.168   4.244   1.421
 5356SOL    HW116967   0.179   4.192   1.336
 5356SOL    HW216968   0.088   4.210   1.471
 5357SOL     OW16969   4.058   5.082   1.709
 5357SOL    HW116970   4.052   5.029   1.793
 5357SOL    HW216971   4.070   5.179   1.731
 5358SOL     OW16972   4.249   1.609   0.148
 5358SOL    HW116973   4.338   1.606   0.194
 5358SOL    HW216974   4.177   1.584   0.212
 5359SOL     OW16975   1.877   1.710   0.107
 5359SOL    HW116976   1.811   1.749   0.172
 5359SOL    HW216977   1.939   1.648   0.155
 5360SOL     OW16978   5.802   4.854   4.279
 5360SOL    HW116979   5.828   4.763   4.310
 5360SOL    HW216980   5.819   4.863   4.181
 5361SOL     OW16981   3.051   6.324   2.673
 5361SOL    HW116982   3.094   6.283   2.754
 5361SOL    HW216983   3.019   6.416   2.695
 5362SOL     OW16984   5.024   6.960   2.111
 5362SOL    HW116985   5.029   6.908   2.025
 5362SOL    HW216986   4.952   6.922   2.169
 5363SOL     OW16987   6.023   6.025   4.532
 5363SOL    HW116988   6.009   6.040   4.630
 5363SOL    HW216989   6.096   5.958   4.519
 5364SOL     OW16990   4.732   0.490   2.818
 5364SOL    HW116991   4.715   0.428   2.895
 5364SOL    HW216992   4.819   0.538   2.833
 5365SOL     OW16993   3.208   3.224   3.990
 5365SOL    HW116994   3.136   3.256   4.051
 5365SOL    HW216995   3.167   3.185   3.907
 5366SOL     OW16996   6.458   0.234   1.609
 5366SOL    HW116997   6.408   0.184   1.538
 5366SOL    HW216998   6.428   0.203   1.699
 5367SOL     OW16999   0.032   6.558   0.498
 5367SOL    HW117000   0.047   6.625   0.571
 5367SOL    HW217001   6.983   6.587   0.442
 5368SOL     OW17002   6.738   5.528   3.074
 5368SOL    HW117003   6.799   5.553   3.149
 5368SOL    HW217004   6.669   5.464   3.107
 5369SOL     OW17005   2.534   5.349   1.895
 5369SOL    HW117006   2.574   5.403   1.821
 5369SOL    HW217007   2.584   5.366   1.980
 5370SOL     OW17008   3.360   4.403   1.426
 5370SOL    HW117009   3.342   4.323   1.369
 5370SOL    HW217010   3.334   4.383   1.520
 5371SOL     OW17011   6.776   5.512   5.178
 5371SOL    HW117012   6.681   5.500   5.208
 5371SOL    HW217013   6.777   5.546   5.084
 5372SOL     OW17014   1.008   0.516   2.730
 5372SOL    HW117015   1.092   0.507   2.784
 5372SOL    HW217016   1.027   0.495   2.634
 5373SOL     OW17017   4.461   6.918   5.465
 5373SOL    HW117018   4.361   6.925   5.471
 5373SOL    HW217019   4.494   6.857   5.537
 5374SOL     OW17020   2.671   5.141   1.029
 5374SOL    HW117021   2.754   5.155   0.975
 5374SOL    HW217022   2.667   5.047   1.061
 5375SOL     OW17023   1.122   5.641   4.985
 5375SOL    HW117024   1.166   5.704   4.920
 5375SOL    HW217025   1.086   5.562   4.935
 5376SOL     OW17026   1.357   1.546   0.586
 5376SOL    HW117027   1.327   1.495   0.666
 5376SOL    HW217028   1.420   1.618   0.614
 5377SOL     OW17029   2.263   0.831   2.988
 5377SOL    HW117030   2.269   0.931   2.985
 5377SOL    HW217031   2.232   0.802   3.079
 5378SOL     OW17032   5.619   0.718   1.232
 5378SOL    HW117033   5.539   0.702   1.290
 5378SOL    HW217034   5.646   0.814   1.238
 5379SOL     OW17035   1.083   2.876   5.722
 5379SOL    HW117036   1.076   2.888   5.821
 5379SOL    HW217037   1.043   2.956   5.677
 5380SOL     OW17038   4.520   6.721   1.560
 5380SOL    HW117039   4.571   6.801   1.529
 5380SOL    HW217040   4.509   6.725   1.659
 5381SOL     OW17041   5.064   6.427   3.030
 5381SOL    HW117042   5.156   6.397   3.055
 5381SOL    HW217043   5.012   6.350   2.994
 5382SOL     OW17044   4.155   1.755   2.889
 5382SOL    HW117045   4.253   1.753   2.868
 5382SOL    HW217046   4.110   1.818   2.826
 5383SOL     OW17047   1.701   3.044   4.218
 5383SOL    HW117048   1.707   3.144   4.221
 5383SOL    HW217049   1.761   3.005   4.288
 5384SOL     OW17050   4.781   5.678   5.491
 5384SOL    HW117051   4.732   5.620   5.556
 5384SOL    HW217052   4.721   5.703   5.416
 5385SOL     OW17053   6.081   2.336   5.721
 5385SOL    HW117054   5.992   2.294   5.700
 5385SOL    HW217055   6.154   2.275   5.691
 5386SOL     OW17056   6.371   3.463   3.993
 5386SOL    HW117057   6.305   3.534   3.970
 5386SOL    HW217058   6.461   3.487   3.957
 5387SOL     OW17059   2.153   0.920   2.238
 5387SOL    HW117060   2.089   0.941   2.312
 5387SOL    HW217061   2.164   1.001   2.180
 5388SOL     OW17062   0.697   6.279   2.773
 5388SOL    HW117063   0.712   6.266   2.871
 5388SOL    HW217064   0.612   6.233   2.746
 5389SOL     OW17065   4.371   1.717   4.359
 5389SOL    HW117066   4.465   1.724   4.392
 5389SOL    HW217067   4.318   1.796   4.390
 5390SOL     OW17068   6.480   3.411   3.705
 5390SOL    HW117069   6.472   3.340   3.636
 5390SOL    HW217070   6.481   3.501   3.660
 5391SOL     OW17071   2.300   2.188   0.088
 5391SOL    HW117072   2.309   2.158   0.183
 5391SOL    HW217073   2.236   2.264   0.082
 5392SOL     OW17074   4.823   1.934   3.775
 5392SOL    HW117075   4.768   1.851   3.763
 5392SOL    HW217076   4.868   1.957   3.689
 5393SOL     OW17077   4.034   0.900   5.454
 5393SOL    HW117078   4.086   0.924   5.372
 5393SOL    HW217079   3.953   0.959   5.460
 5394SOL     OW17080   2.014   0.775   0.641
 5394SOL    HW117081   2.111   0.760   0.627
 5394SOL    HW217082   1.961   0.720   0.576
 5395SOL     OW17083   4.671   1.853   1.467
 5395SOL    HW117084   4.699   1.856   1.371
 5395SOL    HW217085   4.687   1.943   1.509
 5396SOL     OW17086   6.032   5.494   2.341
 5396SOL    HW117087   5.957   5.545   2.383
 5396SOL    HW217088   6.064   5.422   2.403
 5397SOL     OW17089   6.183   1.126   2.906
 5397SOL    HW117090   6.095   1.112   2.952
 5397SOL    HW217091   6.213   1.041   2.865
 5398SOL     OW17092   4.772   1.942   3.474
 5398SOL    HW117093   4.686   1.979   3.511
 5398SOL    HW217094   4.844   2.010   3.484
 5399SOL     OW17095   1.890   0.071   5.309
 5399SOL    HW117096   1.924   0.052   5.401
 5399SOL    HW217097   1.968   0.077   5.246
 5400SOL     OW17098   3.445   3.305   1.294
 5400SOL    HW117099   3.367   3.362   1.320
 5400SOL    HW217100   3.481   3.337   1.206
 5401SOL     OW17101   5.662   4.480   2.584
 5401SOL    HW117102   5.748   4.520   2.617
 5401SOL    HW217103   5.663   4.476   2.484
 5402SOL     OW17104   2.095   0.304   0.902
 5402SOL    HW117105   2.041   0.379   0.862
 5402SOL    HW217106   2.070   0.295   0.998
 5403SOL     OW17107   4.678   3.452   6.981
 5403SOL    HW117108   4.727   3.395   6.916
 5403SOL    HW217109   4.723   3.541   6.988
 5404SOL     OW17110   6.671   0.665   0.854
 5404SOL    HW117111   6.641   0.705   0.941
 5404SOL    HW217112   6.616   0.702   0.779
 5405SOL     OW17113   5.129   5.528   6.815
 5405SOL    HW117114   5.054   5.548   6.879
 5405SOL    HW217115   5.182   5.451   6.850
 5406SOL     OW17116   2.386   0.473   4.505
 5406SOL    HW117117   2.432   0.534   4.441
 5406SOL    HW217118   2.370   0.385   4.462
 5407SOL     OW17119   2.586   0.868   1.504
 5407SOL    HW117120   2.505   0.909   1.462
 5407SOL    HW217121   2.644   0.828   1.433
 5408SOL     OW17122   2.694   2.398   4.338
 5408SOL    HW117123   2.736   2.395   4.247
 5408SOL    HW217124   2.601   2.435   4.331
 5409SOL     OW17125   0.354   2.634   1.159
 5409SOL    HW117126   0.436   2.580   1.141
 5409SOL    HW217127   0.278   2.574   1.181
 5410SOL     OW17128   0.828   2.117   0.889
 5410SOL    HW117129   0.853   2.179   0.962
 5410SOL    HW217130   0.911   2.080   0.847
 5411SOL     OW17131   4.523   5.572   6.969
 5411SOL    HW117132   4.597   5.540   6.911
 5411SOL    HW217133   4.486   5.496   7.023
 5412SOL     OW17134   0.522   2.067   6.313
 5412SOL    HW117135   0.452   2.000   6.335
 5412SOL    HW217136   0.612   2.029   6.331
 5413SOL     OW17137   6.768   6.846   5.127
 5413SOL    HW117138   6.672   6.827   5.108
 5413SOL    HW217139   6.810   6.766   5.171
 5414SOL     OW17140   6.901   3.922   5.720
 5414SOL    HW117141   6.832   3.994   5.725
 5414SOL    HW217142   6.958   3.924   5.802
 5415SOL     OW17143   3.059   0.105   0.771
 5415SOL    HW117144   3.152   0.087   0.738
 5415SOL    HW217145   3.036   0.201   0.755
 5416SOL     OW17146   3.326   5.191   5.738
 5416SOL    HW117147   3.418   5.178   5.701
 5416SOL    HW217148   3.268   5.113   5.713
 5417SOL     OW17149   4.906   5.734   3.539
 5417SOL    HW117150   4.968   5.715   3.463
 5417SOL    HW217151   4.857   5.820   3.522
 5418SOL     OW17152   6.013   4.241   4.567
 5418SOL    HW117153   6.036   4.148   4.538
 5418SOL    HW217154   5.914   4.247   4.580
 5419SOL     OW17155   3.468   6.912   6.635
 5419SOL    HW117156   3.385   6.881   6.680
 5419SOL    HW217157   3.497   7.000   6.672
 5420SOL     OW17158   1.336   1.641   1.096
 5420SOL    HW117159   1.348   1.718   1.033
 5420SOL    HW217160   1.424   1.618   1.137
 5421SOL     OW17161   3.554   4.973   2.364
 5421SOL    HW117162   3.509   4.958   2.452
 5421SOL    HW217163   3.485   4.982   2.292
 5422SOL     OW17164   2.052   5.851   3.894
 5422SOL    HW117165   2.007   5.762   3.896
 5422SOL    HW217166   2.043   5.896   3.982
 5423SOL     OW17167   6.517   6.327   2.532
 5423SOL    HW117168   6.514   6.327   2.632
 5423SOL    HW217169   6.611   6.345   2.501
 5424SOL     OW17170   4.641   4.266   5.104
 5424SOL    HW117171   4.731   4.224   5.098
 5424SOL    HW217172   4.621   4.312   5.017
 5425SOL     OW17173   0.444   3.724   6.507
 5425SOL    HW117174   0.540   3.747   6.524
 5425SOL    HW217175   0.384   3.790   6.552
 5426SOL     OW17176   5.655   5.067   1.953
 5426SOL    HW117177   5.655   5.167   1.956
 5426SOL    HW217178   5.609   5.031   2.035
 5427SOL     OW17179   4.948   2.456   0.094
 5427SOL    HW117180   4.892   2.528   0.136
 5427SOL    HW217181   5.027   2.436   0.154
 5428SOL     OW17182   6.407   5.056   3.153
 5428SOL    HW117183   6.369   5.003   3.078
 5428SOL    HW217184   6.422   5.151   3.123
 5429SOL     OW17185   2.793   0.703   3.938
 5429SOL    HW117186   2.792   0.603   3.946
 5429SOL    HW217187   2.709   0.740   3.977
 5430SOL     OW17188   2.890   3.795   6.299
 5430SOL    HW117189   2.799   3.781   6.340
 5430SOL    HW217190   2.910   3.719   6.237
 5431SOL     OW17191   3.047   5.019   6.280
 5431SOL    HW117192   3.109   4.966   6.337
 5431SOL    HW217193   3.086   5.110   6.264
 5432SOL     OW17194   5.809   5.901   1.582
 5432SOL    HW117195   5.786   5.991   1.545
 5432SOL    HW217196   5.808   5.905   1.682
 5433SOL     OW17197   1.450   0.296   0.841
 5433SOL    HW117198   1.494   0.214   0.805
 5433SOL    HW217199   1.357   0.303   0.803
 5434SOL     OW17200   4.744   1.449   5.639
 5434SOL    HW117201   4.694   1.442   5.553
 5434SOL    HW217202   4.702   1.389   5.708
 5435SOL     OW17203   6.093   4.052   0.845
 5435SOL    HW117204   6.034   4.063   0.765
 5435SOL    HW217205   6.109   3.955   0.861
 5436SOL     OW17206   1.525   5.201   2.452
 5436SOL    HW117207   1.482   5.253   2.379
 5436SOL    HW217208   1.605   5.251   2.486
 5437SOL     OW17209   3.755   5.598   7.022
 5437SOL    HW117210   3.848   5.599   6.986
 5437SOL    HW217211   3.736   5.686   0.039
 5438SOL     OW17212   4.573   4.455   2.824
 5438SOL    HW117213   4.641   4.400   2.775
 5438SOL    HW217214   4.524   4.512   2.758
 5439SOL     OW17215   0.896   4.455   0.961
 5439SOL    HW117216   0.892   4.412   1.051
 5439SOL    HW217217   0.971   4.521   0.957
 5440SOL     OW17218   5.690   6.144   3.539
 5440SOL    HW117219   5.739   6.231   3.539
 5440SOL    HW217220   5.656   6.126   3.631
 5441SOL     OW17221   4.618   2.632   4.013
 5441SOL    HW117222   4.526   2.623   4.053
 5441SOL    HW217223   4.627   2.569   3.936
 5442SOL     OW17224   5.196   6.801   4.564
 5442SOL    HW117225   5.183   6.884   4.509
 5442SOL    HW217226   5.107   6.767   4.594
 5443SOL     OW17227   4.788   6.527   4.729
 5443SOL    HW117228   4.858   6.505   4.661
 5443SOL    HW217229   4.719   6.455   4.731
 5444SOL     OW17230   0.180   0.740   3.687
 5444SOL    HW117231   0.247   0.739   3.760
 5444SOL    HW217232   0.154   0.834   3.666
 5445SOL     OW17233   5.477   5.846   5.793
 5445SOL    HW117234   5.447   5.765   5.742
 5445SOL    HW217235   5.401   5.910   5.803
 5446SOL     OW17236   0.467   4.270   5.817
 5446SOL    HW117237   0.446   4.320   5.733
 5446SOL    HW217238   0.494   4.334   5.889
 5447SOL     OW17239   1.689   1.630   0.471
 5447SOL    HW117240   1.746   1.677   0.403
 5447SOL    HW217241   1.599   1.675   0.475
 5448SOL     OW17242   4.137   5.539   3.610
 5448SOL    HW117243   4.047   5.569   3.578
 5448SOL    HW217244   4.126   5.479   3.689
 5449SOL     OW17245   3.118   1.666   1.976
 5449SOL    HW117246   3.193   1.660   2.042
 5449SOL    HW217247   3.087   1.761   1.969
 5450SOL     OW17248   3.914   5.870   2.188
 5450SOL    HW117249   3.992   5.835   2.239
 5450SOL    HW217250   3.939   5.956   2.145
 5451SOL     OW17251   0.967   0.699   3.151
 5451SOL    HW117252   0.922   0.783   3.120
 5451SOL    HW217253   0.928   0.621   3.103
 5452SOL     OW17254   1.950   4.586   2.285
 5452SOL    HW117255   2.043   4.562   2.256
 5452SOL    HW217256   1.891   4.598   2.205
 5453SOL     OW17257   5.862   4.003   3.441
 5453SOL    HW117258   5.909   4.012   3.353
 5453SOL    HW217259   5.766   4.031   3.430
 5454SOL     OW17260   6.024   5.371   3.154
 5454SOL    HW117261   5.993   5.355   3.248
 5454SOL    HW217262   6.079   5.293   3.123
 5455SOL     OW17263   0.046   1.937   2.351
 5455SOL    HW117264   7.008   1.908   2.421
 5455SOL    HW217265   7.027   1.992   2.282
 5456SOL     OW17266   5.224   0.981   6.571
 5456SOL    HW117267   5.315   1.019   6.588
 5456SOL    HW217268   5.224   0.884   6.592
 5457SOL     OW17269   6.098   2.316   0.813
 5457SOL    HW117270   6.078   2.253   0.739
 5457SOL    HW217271   6.035   2.394   0.809
 5458SOL     OW17272   5.778   4.507   1.181
 5458SOL    HW117273   5.830   4.516   1.267
 5458SOL    HW217274   5.817   4.568   1.112
 5459SOL     OW17275   1.916   4.699   6.096
 5459SOL    HW117276   1.988   4.631   6.080
 5459SOL    HW217277   1.951   4.790   6.072
 5460SOL     OW17278   1.622   0.940   0.494
 5460SOL    HW117279   1.600   0.874   0.422
 5460SOL    HW217280   1.685   0.897   0.560
 5461SOL     OW17281   6.987   1.425   6.376
 5461SOL    HW117282   0.024   1.394   6.446
 5461SOL    HW217283   0.002   1.497   6.320
 5462SOL     OW17284   4.890   5.745   6.736
 5462SOL    HW117285   4.918   5.708   6.824
 5462SOL    HW217286   4.963   5.731   6.669
 5463SOL     OW17287   7.010   2.540   6.845
 5463SOL    HW117288   6.926   2.558   6.793
 5463SOL    HW217289   0.018   2.627   6.880
 5464SOL     OW17290   6.361   6.341   5.539
 5464SOL    HW117291   6.404   6.251   5.546
 5464SOL    HW217292   6.427   6.408   5.506
 5465SOL     OW17293   0.099   6.425   3.616
 5465SOL    HW117294   0.179   6.479   3.639
 5465SOL    HW217295   0.044   6.475   3.549
 5466SOL     OW17296   5.953   2.578   5.255
 5466SOL    HW117297   6.040   2.575   5.206
 5466SOL    HW217298   5.964   2.538   5.346
 5467SOL     OW17299   5.896   3.599   3.806
 5467SOL    HW117300   5.894   3.653   3.890
 5467SOL    HW217301   5.864   3.655   3.730
 5468SOL     OW17302   6.626   2.215   2.791
 5468SOL    HW117303   6.711   2.210   2.843
 5468SOL    HW217304   6.554   2.254   2.849
 5469SOL     OW17305   2.262   1.063   5.698
 5469SOL    HW117306   2.338   1.003   5.670
 5469SOL    HW217307   2.276   1.090   5.794
 5470SOL     OW17308   4.169   5.219   4.513
 5470SOL    HW117309   4.161   5.252   4.607
 5470SOL    HW217310   4.245   5.154   4.507
 5471SOL     OW17311   4.923   6.697   2.020
 5471SOL    HW117312   4.862   6.638   2.074
 5471SOL    HW217313   4.987   6.639   1.968
 5472SOL     OW17314   3.262   1.609   6.065
 5472SOL    HW117315   3.185   1.634   6.124
 5472SOL    HW217316   3.343   1.660   6.094
 5473SOL     OW17317   1.837   4.717   1.369
 5473SOL    HW117318   1.807   4.742   1.276
 5473SOL    HW217319   1.932   4.686   1.366
 5474SOL     OW17320   0.851   5.523   3.646
 5474SOL    HW117321   0.817   5.556   3.558
 5474SOL    HW217322   0.949   5.503   3.638
 5475SOL     OW17323   1.046   2.182   6.860
 5475SOL    HW117324   1.140   2.149   6.866
 5475SOL    HW217325   1.012   2.171   6.767
 5476SOL     OW17326   2.597   6.258   5.476
 5476SOL    HW117327   2.626   6.270   5.381
 5476SOL    HW217328   2.625   6.337   5.530
 5477SOL     OW17329   1.765   4.955   3.910
 5477SOL    HW117330   1.799   5.047   3.931
 5477SOL    HW217331   1.840   4.889   3.918
 5478SOL     OW17332   6.013   4.720   6.152
 5478SOL    HW117333   6.033   4.623   6.150
 5478SOL    HW217334   6.078   4.767   6.212
 5479SOL     OW17335   4.499   1.719   4.904
 5479SOL    HW117336   4.494   1.813   4.937
 5479SOL    HW217337   4.426   1.703   4.836
 5480SOL     OW17338   6.340   4.446   5.284
 5480SOL    HW117339   6.420   4.423   5.339
 5480SOL    HW217340   6.337   4.388   5.203
 5481SOL     OW17341   3.933   1.191   6.345
 5481SOL    HW117342   4.030   1.166   6.342
 5481SOL    HW217343   3.902   1.217   6.253
 5482SOL     OW17344   3.850   3.776   1.964
 5482SOL    HW117345   3.883   3.682   1.971
 5482SOL    HW217346   3.835   3.799   1.868
 5483SOL     OW17347   6.124   3.308   6.040
 5483SOL    HW117348   6.201   3.326   6.102
 5483SOL    HW217349   6.066   3.389   6.035
 5484SOL     OW17350   6.772   6.560   3.996
 5484SOL    HW117351   6.861   6.519   3.976
 5484SOL    HW217352   6.703   6.488   4.007
 5485SOL     OW17353   3.589   0.133   4.596
 5485SOL    HW117354   3.527   0.150   4.518
 5485SOL    HW217355   3.680   0.112   4.561
 5486SOL     OW17356   1.509   0.455   3.586
 5486SOL    HW117357   1.516   0.513   3.667
 5486SOL    HW217358   1.503   0.513   3.505
 5487SOL     OW17359   6.256   4.388   0.578
 5487SOL    HW117360   6.268   4.436   0.665
 5487SOL    HW217361   6.275   4.450   0.502
 5488SOL     OW17362   4.565   2.519   0.083
 5488SOL    HW117363   4.575   2.519   7.012
 5488SOL    HW217364   4.649   2.481   0.125
 5489SOL     OW17365   1.419   4.254   2.324
 5489SOL    HW117366   1.413   4.175   2.263
 5489SOL    HW217367   1.493   4.239   2.390
 5490SOL     OW17368   3.284   0.120   0.647
 5490SOL    HW117369   3.276   0.177   0.565
 5490SOL    HW217370   3.332   0.171   0.718
 5491SOL     OW17371   1.721   4.579   0.022
 5491SOL    HW117372   1.675   4.521   0.089
 5491SOL    HW217373   1.669   4.579   6.965
 5492SOL     OW17374   1.111   1.386   6.382
 5492SOL    HW117375   1.108   1.387   6.482
 5492SOL    HW217376   1.094   1.478   6.346
 5493SOL     OW17377   3.845   3.055   5.624
 5493SOL    HW117378   3.942   3.068   5.601
 5493SOL    HW217379   3.838   3.031   5.721
 5494SOL     OW17380   6.854   3.356   0.942
 5494SOL    HW117381   6.755   3.353   0.960
 5494SOL    HW217382   6.870   3.338   0.845
 5495SOL     OW17383   3.511   3.763   1.301
 5495SOL    HW117384   3.608   3.739   1.308
 5495SOL    HW217385   3.502   3.855   1.264
 5496SOL     OW17386   3.656   6.134   1.704
 5496SOL    HW117387   3.592   6.076   1.755
 5496SOL    HW217388   3.628   6.137   1.608
 5497SOL     OW17389   0.564   1.891   2.907
 5497SOL    HW117390   0.575   1.982   2.869
 5497SOL    HW217391   0.630   1.829   2.865
 5498SOL     OW17392   4.438   1.553   6.337
 5498SOL    HW117393   4.465   1.481   6.273
 5498SOL    HW217394   4.443   1.642   6.292
 5499SOL     OW17395   0.163   0.421   2.936
 5499SOL    HW117396   0.112   0.420   3.022
 5499SOL    HW217397   0.259   0.402   2.954
 5500SOL     OW17398   2.121   5.309   6.798
 5500SOL    HW117399   2.121   5.237   6.867
 5500SOL    HW217400   2.143   5.269   6.709
 5501SOL     OW17401   2.723   0.416   1.974
 5501SOL    HW117402   2.689   0.329   2.010
 5501SOL    HW217403   2.653   0.487   1.987
 5502SOL     OW17404   6.061   4.221   5.600
 5502SOL    HW117405   6.023   4.249   5.512
 5502SOL    HW217406   5.988   4.189   5.659
 5503SOL     OW17407   0.797   5.070   2.878
 5503SOL    HW117408   0.735   4.999   2.912
 5503SOL    HW217409   0.750   5.125   2.810
 5504SOL     OW17410   2.875   0.590   4.760
 5504SOL    HW117411   2.882   0.654   4.837
 5504SOL    HW217412   2.916   0.631   4.679
 5505SOL     OW17413   2.051   6.049   5.058
 5505SOL    HW117414   2.053   6.149   5.067
 5505SOL    HW217415   1.994   6.024   4.979
 5506SOL     OW17416   6.817   0.625   4.296
 5506SOL    HW117417   6.782   0.612   4.203
 5506SOL    HW217418   6.740   0.640   4.358
 5507SOL     OW17419   2.551   6.396   2.919
 5507SOL    HW117420   2.610   6.396   2.838
 5507SOL    HW217421   2.470   6.452   2.902
 5508SOL     OW17422   2.597   0.798   6.826
 5508SOL    HW117423   2.641   0.765   6.742
 5508SOL    HW217424   2.579   0.896   6.818
 5509SOL     OW17425   6.326   5.768   0.384
 5509SOL    HW117426   6.370   5.831   0.448
 5509SOL    HW217427   6.248   5.814   0.341
 5510SOL     OW17428   4.126   7.000   6.844
 5510SOL    HW117429   4.047   6.951   6.882
 5510SOL    HW217430   4.120   7.000   6.744
 5511SOL     OW17431   1.409   0.805   2.763
 5511SOL    HW117432   1.440   0.731   2.822
 5511SOL    HW217433   1.309   0.803   2.756
 5512SOL     OW17434   6.691   2.262   0.497
 5512SOL    HW117435   6.757   2.291   0.566
 5512SOL    HW217436   6.738   2.250   0.410
 5513SOL     OW17437   4.868   4.361   4.815
 5513SOL    HW117438   4.895   4.397   4.904
 5513SOL    HW217439   4.910   4.416   4.743
 5514SOL     OW17440   5.874   4.900   2.670
 5514SOL    HW117441   5.875   4.830   2.741
 5514SOL    HW217442   5.779   4.917   2.642
 5515SOL     OW17443   6.487   2.986   1.598
 5515SOL    HW117444   6.478   3.022   1.691
 5515SOL    HW217445   6.418   3.028   1.540
 5516SOL     OW17446   1.847   2.976   0.254
 5516SOL    HW117447   1.789   3.048   0.217
 5516SOL    HW217448   1.909   2.943   0.182
 5517SOL     OW17449   3.317   2.055   1.911
 5517SOL    HW117450   3.281   2.093   1.825
 5517SOL    HW217451   3.250   2.069   1.984
 5518SOL     OW17452   6.120   5.327   6.190
 5518SOL    HW117453   6.105   5.275   6.106
 5518SOL    HW217454   6.101   5.270   6.269
 5519SOL     OW17455   5.472   3.907   2.943
 5519SOL    HW117456   5.536   3.898   3.019
 5519SOL    HW217457   5.386   3.945   2.976
 5520SOL     OW17458   1.268   4.002   3.236
 5520SOL    HW117459   1.227   3.966   3.320
 5520SOL    HW217460   1.196   4.032   3.174
 5521SOL     OW17461   4.814   6.164   1.997
 5521SOL    HW117462   4.803   6.221   1.916
 5521SOL    HW217463   4.863   6.080   1.973
 5522SOL     OW17464   2.237   4.043   1.555
 5522SOL    HW117465   2.246   4.138   1.527
 5522SOL    HW217466   2.311   3.989   1.515
 5523SOL     OW17467   3.242   6.971   3.119
 5523SOL    HW117468   3.334   6.959   3.156
 5523SOL    HW217469   3.247   6.988   3.021
 5524SOL     OW17470   0.266   6.134   4.966
 5524SOL    HW117471   0.272   6.045   4.921
 5524SOL    HW217472   0.240   6.121   5.062
 5525SOL     OW17473   0.019   4.586   0.139
 5525SOL    HW117474   0.109   4.579   0.183
 5525SOL    HW217475   0.012   4.519   0.065
 5526SOL     OW17476   5.955   3.796   4.354
 5526SOL    HW117477   5.999   3.707   4.367
 5526SOL    HW217478   5.858   3.790   4.379
 5527SOL     OW17479   0.557   3.158   2.418
 5527SOL    HW117480   0.470   3.143   2.465
 5527SOL    HW217481   0.608   3.072   2.414
 5528SOL     OW17482   0.377   1.845   6.107
 5528SOL    HW117483   0.425   1.762   6.079
 5528SOL    HW217484   0.321   1.826   6.188
 5529SOL     OW17485   1.983   0.171   4.536
 5529SOL    HW117486   1.930   0.112   4.597
 5529SOL    HW217487   1.999   0.259   4.580
 5530SOL     OW17488   0.270   2.130   2.085
 5530SOL    HW117489   0.306   2.222   2.101
 5530SOL    HW217490   0.278   2.076   2.169
 5531SOL     OW17491   4.070   3.392   4.664
 5531SOL    HW117492   4.163   3.419   4.688
 5531SOL    HW217493   4.034   3.330   4.734
 5532SOL     OW17494   1.659   1.098   0.942
 5532SOL    HW117495   1.728   1.042   0.897
 5532SOL    HW217496   1.571   1.084   0.897
 5533SOL     OW17497   2.686   1.320   2.637
 5533SOL    HW117498   2.748   1.297   2.712
 5533SOL    HW217499   2.633   1.239   2.612
 5534SOL     OW17500   0.561   2.877   6.811
 5534SOL    HW117501   0.570   2.850   6.715
 5534SOL    HW217502   0.556   2.977   6.817
 5535SOL     OW17503   6.975   3.469   2.620
 5535SOL    HW117504   6.939   3.529   2.692
 5535SOL    HW217505   6.927   3.487   2.534
 5536SOL     OW17506   2.599   0.870   4.083
 5536SOL    HW117507   2.536   0.792   4.090
 5536SOL    HW217508   2.585   0.931   4.162
 5537SOL     OW17509   3.368   0.886   5.033
 5537SOL    HW117510   3.331   0.794   5.022
 5537SOL    HW217511   3.293   0.951   5.042
 5538SOL     OW17512   4.362   0.103   5.153
 5538SOL    HW117513   4.420   0.097   5.235
 5538SOL    HW217514   4.272   0.063   5.173
 5539SOL     OW17515   0.328   2.205   1.389
 5539SOL    HW117516   0.416   2.244   1.416
 5539SOL    HW217517   0.341   2.113   1.354
 5540SOL     OW17518   5.107   2.742   1.457
 5540SOL    HW117519   5.086   2.745   1.555
 5540SOL    HW217520   5.206   2.735   1.445
 5541SOL     OW17521   5.305   3.314   5.788
 5541SOL    HW117522   5.216   3.280   5.758
 5541SOL    HW217523   5.295   3.360   5.877
 5542SOL     OW17524   6.048   5.772   5.805
 5542SOL    HW117525   5.960   5.762   5.851
 5542SOL    HW217526   6.041   5.841   5.734
 5543SOL     OW17527   2.308   5.507   6.740
 5543SOL    HW117528   2.323   5.572   6.814
 5543SOL    HW217529   2.217   5.466   6.748
 5544SOL     OW17530   5.929   5.662   5.477
 5544SOL    HW117531   5.877   5.654   5.391
 5544SOL    HW217532   5.929   5.573   5.524
 5545SOL     OW17533   4.539   0.806   2.420
 5545SOL    HW117534   4.486   0.729   2.456
 5545SOL    HW217535   4.634   0.799   2.450
 5546SOL     OW17536   0.843   6.406   4.439
 5546SOL    HW117537   0.769   6.341   4.425
 5546SOL    HW217538   0.927   6.358   4.463
 5547SOL     OW17539   3.957   0.893   5.017
 5547SOL    HW117540   3.892   0.938   5.079
 5547SOL    HW217541   3.973   0.952   4.938
 5548SOL     OW17542   6.445   4.005   5.802
 5548SOL    HW117543   6.486   3.934   5.859
 5548SOL    HW217544   6.359   4.035   5.843
 5549SOL     OW17545   4.239   3.880   1.260
 5549SOL    HW117546   4.243   3.900   1.162
 5549SOL    HW217547   4.320   3.917   1.305
 5550SOL     OW17548   2.208   4.289   2.798
 5550SOL    HW117549   2.250   4.370   2.839
 5550SOL    HW217550   2.255   4.267   2.713
 5551SOL     OW17551   1.611   6.458   2.512
 5551SOL    HW117552   1.534   6.396   2.501
 5551SOL    HW217553   1.646   6.453   2.605
 5552SOL     OW17554   5.752   0.820   6.697
 5552SOL    HW117555   5.695   0.888   6.743
 5552SOL    HW217556   5.839   0.862   6.670
 5553SOL     OW17557   4.116   6.647   6.076
 5553SOL    HW117558   4.182   6.661   6.002
 5553SOL    HW217559   4.076   6.735   6.103
 5554SOL     OW17560   4.666   2.873   1.210
 5554SOL    HW117561   4.610   2.952   1.236
 5554SOL    HW217562   4.705   2.831   1.292
 5555SOL     OW17563   1.068   3.682   1.853
 5555SOL    HW117564   1.000   3.625   1.807
 5555SOL    HW217565   1.159   3.646   1.835
 5556SOL     OW17566   6.225   0.966   3.912
 5556SOL    HW117567   6.137   0.966   3.864
 5556SOL    HW217568   6.234   1.050   3.965
 5557SOL     OW17569   3.730   5.766   1.962
 5557SOL    HW117570   3.679   5.684   1.989
 5557SOL    HW217571   3.798   5.788   2.032
 5558SOL     OW17572   2.948   3.311   6.213
 5558SOL    HW117573   3.004   3.392   6.231
 5558SOL    HW217574   2.942   3.297   6.114
 5559SOL     OW17575   1.470   0.635   2.268
 5559SOL    HW117576   1.453   0.546   2.311
 5559SOL    HW217577   1.420   0.641   2.182
 5560SOL     OW17578   0.218   5.079   1.402
 5560SOL    HW117579   0.308   5.116   1.427
 5560SOL    HW217580   0.218   4.980   1.415
 5561SOL     OW17581   2.306   0.826   4.456
 5561SOL    HW117582   2.292   0.766   4.536
 5561SOL    HW217583   2.233   0.894   4.452
 5562SOL     OW17584   4.401   3.075   0.093
 5562SOL    HW117585   4.393   3.119   0.003
 5562SOL    HW217586   4.474   3.008   0.092
 5563SOL     OW17587   2.907   5.095   2.881
 5563SOL    HW117588   2.973   5.104   2.955
 5563SOL    HW217589   2.906   5.000   2.848
 5564SOL     OW17590   4.598   0.173   6.939
 5564SOL    HW117591   4.519   0.187   6.880
 5564SOL    HW217592   4.640   0.084   6.919
 5565SOL     OW17593   3.796   2.606   6.043
 5565SOL    HW117594   3.785   2.538   6.116
 5565SOL    HW217595   3.777   2.562   5.955
 5566SOL     OW17596   2.134   4.513   6.914
 5566SOL    HW117597   2.083   4.565   6.845
 5566SOL    HW217598   2.159   4.573   6.990
 5567SOL     OW17599   0.054   3.894   1.452
 5567SOL    HW117600   6.988   3.887   1.485
 5567SOL    HW217601   0.074   3.819   1.390
 5568SOL     OW17602   5.496   1.543   3.856
 5568SOL    HW117603   5.454   1.561   3.767
 5568SOL    HW217604   5.592   1.572   3.855
 5569SOL     OW17605   1.809   2.116   2.185
 5569SOL    HW117606   1.863   2.190   2.144
 5569SOL    HW217607   1.865   2.069   2.254
 5570SOL     OW17608   5.598   3.769   4.005
 5570SOL    HW117609   5.563   3.749   3.914
 5570SOL    HW217610   5.619   3.867   4.012
 5571SOL     OW17611   6.417   5.819   1.904
 5571SOL    HW117612   6.355   5.896   1.912
 5571SOL    HW217613   6.509   5.852   1.884
 5572SOL     OW17614   1.406   4.416   4.633
 5572SOL    HW117615   1.456   4.405   4.546
 5572SOL    HW217616   1.465   4.388   4.708
 5573SOL     OW17617   1.768   5.620   5.000
 5573SOL    HW117618   1.847   5.558   5.001
 5573SOL    HW217619   1.782   5.692   5.068
 5574SOL     OW17620   0.168   2.520   1.514
 5574SOL    HW117621   0.217   2.494   1.597
 5574SOL    HW217622   0.101   2.591   1.536
 5575SOL     OW17623   6.394   1.256   0.723
 5575SOL    HW117624   6.462   1.328   0.725
 5575SOL    HW217625   6.312   1.288   0.675
 5576SOL     OW17626   1.443   4.551   2.338
 5576SOL    HW117627   1.422   4.454   2.323
 5576SOL    HW217628   1.524   4.576   2.285
 5577SOL     OW17629   2.466   2.751   6.791
 5577SOL    HW117630   2.487   2.737   6.888
 5577SOL    HW217631   2.371   2.779   6.781
 5578SOL     OW17632   3.875   3.949   2.220
 5578SOL    HW117633   3.884   3.972   2.317
 5578SOL    HW217634   3.961   3.912   2.186
 5579SOL     OW17635   0.326   3.518   0.108
 5579SOL    HW117636   0.232   3.513   0.075
 5579SOL    HW217637   0.376   3.437   0.079
 5580SOL     OW17638   4.902   2.263   5.615
 5580SOL    HW117639   4.969   2.308   5.557
 5580SOL    HW217640   4.944   2.186   5.662
 5581SOL     OW17641   1.570   0.203   2.265
 5581SOL    HW117642   1.586   0.175   2.359
 5581SOL    HW217643   1.639   0.161   2.205
 5582SOL     OW17644   3.398   3.985   6.412
 5582SOL    HW117645   3.389   3.957   6.316
 5582SOL    HW217646   3.399   3.903   6.470
 5583SOL     OW17647   4.572   0.805   3.005
 5583SOL    HW117648   4.665   0.838   3.018
 5583SOL    HW217649   4.564   0.761   2.915
 5584SOL     OW17650   6.800   4.022   4.590
 5584SOL    HW117651   6.803   3.931   4.633
 5584SOL    HW217652   6.735   4.021   4.515
 5585SOL     OW17653   5.732   5.539   3.234
 5585SOL    HW117654   5.751   5.635   3.256
 5585SOL    HW217655   5.649   5.532   3.180
 5586SOL     OW17656   0.574   3.527   6.223
 5586SOL    HW117657   0.622   3.473   6.154
 5586SOL    HW217658   0.640   3.577   6.279
 5587SOL     OW17659   4.256   6.478   0.560
 5587SOL    HW117660   4.249   6.549   0.490
 5587SOL    HW217661   4.168   6.434   0.572
 5588SOL     OW17662   2.254   5.236   2.842
 5588SOL    HW117663   2.334   5.296   2.851
 5588SOL    HW217664   2.194   5.270   2.770
 5589SOL     OW17665   6.219   3.837   5.672
 5589SOL    HW117666   6.260   3.751   5.703
 5589SOL    HW217667   6.290   3.907   5.669
 5590SOL     OW17668   0.261   5.970   4.024
 5590SOL    HW117669   0.336   5.914   3.989
 5590SOL    HW217670   0.182   5.959   3.964
 5591SOL     OW17671   5.973   2.057   1.786
 5591SOL    HW117672   6.003   2.150   1.768
 5591SOL    HW217673   6.053   1.996   1.792
 5592SOL     OW17674   2.088   6.033   3.302
 5592SOL    HW117675   2.060   6.065   3.393
 5592SOL    HW217676   2.053   5.941   3.287
 5593SOL     OW17677   0.710   2.958   0.581
 5593SOL    HW117678   0.685   2.865   0.554
 5593SOL    HW217679   0.629   3.017   0.574
 5594SOL     OW17680   5.001   0.766   5.832
 5594SOL    HW117681   4.964   0.763   5.739
 5594SOL    HW217682   5.069   0.695   5.843
 5595SOL     OW17683   0.529   1.459   4.817
 5595SOL    HW117684   0.552   1.550   4.853
 5595SOL    HW217685   0.430   1.453   4.803
 5596SOL     OW17686   4.626   0.224   2.560
 5596SOL    HW117687   4.651   0.299   2.621
 5596SOL    HW217688   4.547   0.176   2.598
 5597SOL     OW17689   5.041   2.866   4.626
 5597SOL    HW117690   5.124   2.883   4.572
 5597SOL    HW217691   4.965   2.843   4.564
 5598SOL     OW17692   5.006   3.959   4.216
 5598SOL    HW117693   5.104   3.940   4.221
 5598SOL    HW217694   4.971   3.974   4.309
 5599SOL     OW17695   1.109   2.136   3.797
 5599SOL    HW117696   1.200   2.155   3.762
 5599SOL    HW217697   1.064   2.222   3.822
 5600SOL     OW17698   1.382   1.060   1.902
 5600SOL    HW117699   1.310   1.122   1.872
 5600SOL    HW217700   1.468   1.086   1.858
 5601SOL     OW17701   2.243   0.793   5.931
 5601SOL    HW117702   2.150   0.756   5.921
 5601SOL    HW217703   2.237   0.886   5.967
 5602SOL     OW17704   6.186   1.443   1.303
 5602SOL    HW117705   6.255   1.481   1.366
 5602SOL    HW217706   6.099   1.436   1.351
 5603SOL     OW17707   5.768   2.281   6.278
 5603SOL    HW117708   5.803   2.357   6.224
 5603SOL    HW217709   5.743   2.314   6.369
 5604SOL     OW17710   6.221   1.764   5.035
 5604SOL    HW117711   6.280   1.743   4.957
 5604SOL    HW217712   6.173   1.850   5.019
 5605SOL     OW17713   0.005   1.691   4.927
 5605SOL    HW117714   6.976   1.756   4.978
 5605SOL    HW217715   0.049   1.628   4.992
 5606SOL     OW17716   5.012   6.568   0.381
 5606SOL    HW117717   5.084   6.631   0.352
 5606SOL    HW217718   4.934   6.576   0.318
 5607SOL     OW17719   5.658   1.087   2.785
 5607SOL    HW117720   5.696   1.156   2.723
 5607SOL    HW217721   5.652   1.125   2.877
 5608SOL     OW17722   5.138   0.092   4.170
 5608SOL    HW117723   5.071   0.066   4.239
 5608SOL    HW217724   5.204   0.018   4.158
 5609SOL     OW17725   3.204   6.422   1.357
 5609SOL    HW117726   3.227   6.425   1.454
 5609SOL    HW217727   3.256   6.350   1.313
 5610SOL     OW17728   3.609   6.435   0.714
 5610SOL    HW117729   3.603   6.337   0.700
 5610SOL    HW217730   3.532   6.466   0.770
 5611SOL     OW17731   0.947   5.648   2.699
 5611SOL    HW117732   0.927   5.629   2.603
 5611SOL    HW217733   0.875   5.706   2.737
 5612SOL     OW17734   3.588   2.645   6.829
 5612SOL    HW117735   3.687   2.630   6.831
 5612SOL    HW217736   3.544   2.586   6.898
 5613SOL     OW17737   5.716   3.999   3.807
 5613SOL    HW117738   5.742   4.085   3.764
 5613SOL    HW217739   5.616   3.990   3.807
 5614SOL     OW17740   4.579   1.958   4.154
 5614SOL    HW117741   4.550   2.042   4.199
 5614SOL    HW217742   4.629   1.900   4.219
 5615SOL     OW17743   0.398   1.341   4.514
 5615SOL    HW117744   0.330   1.270   4.534
 5615SOL    HW217745   0.384   1.419   4.575
 5616SOL     OW17746   2.497   1.884   4.850
 5616SOL    HW117747   2.512   1.981   4.833
 5616SOL    HW217748   2.584   1.836   4.853
 5617SOL     OW17749   2.945   0.334   6.057
 5617SOL    HW117750   2.869   0.272   6.037
 5617SOL    HW217751   3.031   0.292   6.025
 5618SOL     OW17752   6.996   4.438   3.939
 5618SOL    HW117753   6.929   4.387   3.884
 5618SOL    HW217754   6.949   4.499   4.002
 5619SOL     OW17755   2.793   3.506   5.659
 5619SOL    HW117756   2.834   3.424   5.699
 5619SOL    HW217757   2.861   3.578   5.651
 5620SOL     OW17758   4.134   3.517   1.094
 5620SOL    HW117759   4.218   3.540   1.143
 5620SOL    HW217760   4.157   3.483   1.003
 5621SOL     OW17761   2.048   1.768   6.619
 5621SOL    HW117762   1.962   1.813   6.643
 5621SOL    HW217763   2.030   1.695   6.552
 5622SOL     OW17764   4.887   0.384   6.369
 5622SOL    HW117765   4.936   0.309   6.413
 5622SOL    HW217766   4.825   0.427   6.436
 5623SOL     OW17767   2.772   5.885   4.990
 5623SOL    HW117768   2.779   5.977   5.026
 5623SOL    HW217769   2.777   5.819   5.065
 5624SOL     OW17770   0.952   4.454   3.526
 5624SOL    HW117771   0.917   4.547   3.517
 5624SOL    HW217772   0.880   4.389   3.503
 5625SOL     OW17773   6.361   1.423   4.864
 5625SOL    HW117774   6.460   1.411   4.868
 5625SOL    HW217775   6.339   1.520   4.877
 5626SOL     OW17776   2.291   6.411   4.035
 5626SOL    HW117777   2.323   6.426   3.942
 5626SOL    HW217778   2.291   6.312   4.055
 5627SOL     OW17779   0.866   5.715   6.184
 5627SOL    HW117780   0.790   5.670   6.230
 5627SOL    HW217781   0.936   5.648   6.162
 5628SOL     OW17782   0.928   2.499   0.217
 5628SOL    HW117783   0.914   2.445   0.300
 5628SOL    HW217784   0.847   2.491   0.159
 5629SOL     OW17785   3.458   4.116   2.667
 5629SOL    HW117786   3.510   4.030   2.666
 5629SOL    HW217787   3.520   4.193   2.676
 5630SOL     OW17788   1.871   4.394   0.415
 5630SOL    HW117789   1.910   4.359   0.330
 5630SOL    HW217790   1.926   4.362   0.492
 5631SOL     OW17791   4.645   1.763   0.346
 5631SOL    HW117792   4.742   1.786   0.335
 5631SOL    HW217793   4.624   1.679   0.297
 5632SOL     OW17794   3.361   2.350   5.693
 5632SOL    HW117795   3.334   2.318   5.784
 5632SOL    HW217796   3.378   2.449   5.697
 5633SOL     OW17797   6.580   3.829   4.054
 5633SOL    HW117798   6.575   3.772   3.972
 5633SOL    HW217799   6.672   3.823   4.093
 5634SOL     OW17800   2.532   5.119   4.185
 5634SOL    HW117801   2.502   5.055   4.115
 5634SOL    HW217802   2.479   5.204   4.178
 5635SOL     OW17803   2.233   4.008   5.629
 5635SOL    HW117804   2.232   4.107   5.619
 5635SOL    HW217805   2.166   3.967   5.567
 5636SOL     OW17806   4.170   6.688   4.094
 5636SOL    HW117807   4.263   6.693   4.131
 5636SOL    HW217808   4.126   6.777   4.102
 5637SOL     OW17809   5.050   6.550   3.558
 5637SOL    HW117810   5.002   6.621   3.610
 5637SOL    HW217811   5.017   6.550   3.464
 5638SOL     OW17812   6.084   3.467   1.146
 5638SOL    HW117813   6.025   3.434   1.073
 5638SOL    HW217814   6.032   3.477   1.230
 5639SOL     OW17815   0.942   0.832   0.959
 5639SOL    HW117816   0.905   0.904   1.017
 5639SOL    HW217817   0.898   0.836   0.869
 5640SOL     OW17818   3.068   0.629   3.944
 5640SOL    HW117819   3.160   0.596   3.963
 5640SOL    HW217820   3.031   0.582   3.864
 5641SOL     OW17821   0.968   5.523   5.232
 5641SOL    HW117822   1.067   5.534   5.234
 5641SOL    HW217823   0.942   5.469   5.152
 5642SOL     OW17824   2.061   6.820   5.590
 5642SOL    HW117825   2.036   6.730   5.555
 5642SOL    HW217826   1.984   6.883   5.578
 5643SOL     OW17827   4.847   1.856   5.074
 5643SOL    HW117828   4.763   1.822   5.115
 5643SOL    HW217829   4.869   1.946   5.111
 5644SOL     OW17830   3.358   0.077   4.756
 5644SOL    HW117831   3.268   0.087   4.713
 5644SOL    HW217832   3.428   0.119   4.698
 5645SOL     OW17833   6.290   4.532   3.697
 5645SOL    HW117834   6.324   4.463   3.761
 5645SOL    HW217835   6.254   4.610   3.748
 5646SOL     OW17836   1.627   5.433   3.050
 5646SOL    HW117837   1.693   5.412   3.122
 5646SOL    HW217838   1.643   5.373   2.972
 5647SOL     OW17839   5.212   6.279   1.143
 5647SOL    HW117840   5.292   6.281   1.204
 5647SOL    HW217841   5.232   6.335   1.062
 5648SOL     OW17842   2.113   5.410   2.660
 5648SOL    HW117843   2.175   5.473   2.613
 5648SOL    HW217844   2.054   5.365   2.592
 5649SOL     OW17845   0.613   6.660   4.022
 5649SOL    HW117846   0.581   6.582   3.968
 5649SOL    HW217847   0.653   6.628   4.108
 5650SOL     OW17848   1.364   4.458   1.685
 5650SOL    HW117849   1.317   4.370   1.692
 5650SOL    HW217850   1.413   4.476   1.770
 5651SOL     OW17851   2.130   1.324   0.343
 5651SOL    HW117852   2.195   1.297   0.414
 5651SOL    HW217853   2.176   1.328   0.255
 5652SOL     OW17854   6.347   6.043   1.245
 5652SOL    HW117855   6.319   6.007   1.335
 5652SOL    HW217856   6.396   5.971   1.195
 5653SOL     OW17857   6.725   6.346   6.424
 5653SOL    HW117858   6.768   6.287   6.492
 5653SOL    HW217859   6.680   6.290   6.354
 5654SOL     OW17860   0.799   5.988   4.463
 5654SOL    HW117861   0.743   5.988   4.546
 5654SOL    HW217862   0.880   5.932   4.478
 5655SOL     OW17863   0.312   2.972   3.912
 5655SOL    HW117864   0.252   3.032   3.859
 5655SOL    HW217865   0.352   2.903   3.852
 5656SOL     OW17866   6.829   3.974   6.600
 5656SOL    HW117867   6.883   4.033   6.540
 5656SOL    HW217868   6.867   3.882   6.601
 5657SOL     OW17869   5.371   3.417   5.300
 5657SOL    HW117870   5.418   3.417   5.388
 5657SOL    HW217871   5.286   3.365   5.308
 5658SOL     OW17872   2.639   3.305   6.156
 5658SOL    HW117873   2.663   3.340   6.066
 5658SOL    HW217874   2.702   3.342   6.224
 5659SOL     OW17875   3.970   3.651   6.306
 5659SOL    HW117876   3.926   3.636   6.395
 5659SOL    HW217877   4.069   3.651   6.319
 5660SOL     OW17878   4.573   6.789   5.695
 5660SOL    HW117879   4.594   6.698   5.661
 5660SOL    HW217880   4.535   6.783   5.787
 5661SOL     OW17881   1.790   5.791   4.224
 5661SOL    HW117882   1.822   5.863   4.286
 5661SOL    HW217883   1.843   5.707   4.240
 5662SOL     OW17884   2.629   0.070   2.839
 5662SOL    HW117885   2.532   0.052   2.820
 5662SOL    HW217886   2.662   0.141   2.776
 5663SOL     OW17887   2.618   1.864   0.478
 5663SOL    HW117888   2.679   1.800   0.526
 5663SOL    HW217889   2.671   1.920   0.415
 5664SOL     OW17890   6.705   3.396   3.829
 5664SOL    HW117891   6.758   3.314   3.810
 5664SOL    HW217892   6.618   3.391   3.780
 5665SOL     OW17893   1.094   6.699   0.874
 5665SOL    HW117894   1.187   6.673   0.848
 5665SOL    HW217895   1.044   6.731   0.794
 5666SOL     OW17896   6.437   0.248   3.859
 5666SOL    HW117897   6.427   0.337   3.814
 5666SOL    HW217898   6.495   0.257   3.939
 5667SOL     OW17899   1.427   5.134   4.686
 5667SOL    HW117900   1.398   5.059   4.745
 5667SOL    HW217901   1.429   5.219   4.738
 5668SOL     OW17902   6.060   3.220   3.441
 5668SOL    HW117903   6.016   3.135   3.471
 5668SOL    HW217904   6.029   3.296   3.499
 5669SOL     OW17905   6.729   4.784   0.959
 5669SOL    HW117906   6.826   4.783   0.935
 5669SOL    HW217907   6.688   4.870   0.929
 5670SOL     OW17908   1.562   3.230   3.909
 5670SOL    HW117909   1.476   3.185   3.934
 5670SOL    HW217910   1.611   3.172   3.844
 5671SOL     OW17911   6.440   5.924   5.854
 5671SOL    HW117912   6.392   5.854   5.907
 5671SOL    HW217913   6.451   6.006   5.910
 5672SOL     OW17914   5.377   4.386   5.665
 5672SOL    HW117915   5.443   4.361   5.735
 5672SOL    HW217916   5.383   4.484   5.647
 5673SOL     OW17917   1.301   6.621   1.157
 5673SOL    HW117918   1.279   6.591   1.250
 5673SOL    HW217919   1.268   6.554   1.092
 5674SOL     OW17920   2.091   4.432   4.849
 5674SOL    HW117921   2.000   4.397   4.826
 5674SOL    HW217922   2.088   4.532   4.853
 5675SOL     OW17923   4.525   2.790   6.816
 5675SOL    HW117924   4.620   2.761   6.813
 5675SOL    HW217925   4.498   2.811   6.910
 5676SOL     OW17926   2.631   1.850   2.275
 5676SOL    HW117927   2.643   1.948   2.288
 5676SOL    HW217928   2.690   1.800   2.339
 5677SOL     OW17929   0.839   0.732   0.676
 5677SOL    HW117930   0.741   0.711   0.671
 5677SOL    HW217931   0.866   0.782   0.594
 5678SOL     OW17932   4.257   0.888   2.718
 5678SOL    HW117933   4.249   0.801   2.766
 5678SOL    HW217934   4.224   0.962   2.778
 5679SOL     OW17935   5.632   1.366   4.656
 5679SOL    HW117936   5.659   1.306   4.731
 5679SOL    HW217937   5.543   1.336   4.620
 5680SOL     OW17938   1.894   5.528   6.679
 5680SOL    HW117939   1.919   5.589   6.754
 5680SOL    HW217940   1.873   5.437   6.714
 5681SOL     OW17941   0.256   3.779   2.382
 5681SOL    HW117942   0.167   3.736   2.395
 5681SOL    HW217943   0.315   3.719   2.328
 5682SOL     OW17944   2.378   5.340   4.395
 5682SOL    HW117945   2.428   5.285   4.463
 5682SOL    HW217946   2.398   5.437   4.410
 5683SOL     OW17947   3.486   2.406   6.064
 5683SOL    HW117948   3.412   2.344   6.038
 5683SOL    HW217949   3.449   2.498   6.080
 5684SOL     OW17950   2.017   3.642   6.121
 5684SOL    HW117951   2.053   3.579   6.190
 5684SOL    HW217952   1.938   3.600   6.075
 5685SOL     OW17953   2.269   1.955   2.959
 5685SOL    HW117954   2.183   1.963   3.009
 5685SOL    HW217955   2.300   2.046   2.932
 5686SOL     OW17956   2.933   1.466   4.811
 5686SOL    HW117957   2.989   1.548   4.809
 5686SOL    HW217958   2.837   1.491   4.823
 5687SOL     OW17959   0.714   6.309   5.846
 5687SOL    HW117960   0.670   6.363   5.774
 5687SOL    HW217961   0.724   6.364   5.928
 5688SOL     OW17962   1.341   2.891   2.868
 5688SOL    HW117963   1.291   2.824   2.922
 5688SOL    HW217964   1.276   2.942   2.810
 5689SOL     OW17965   2.675   1.186   1.497
 5689SOL    HW117966   2.694   1.090   1.479
 5689SOL    HW217967   2.607   1.219   1.431
 5690SOL     OW17968   1.650   5.630   6.567
 5690SOL    HW117969   1.631   5.725   6.542
 5690SOL    HW217970   1.735   5.625   6.618
 5691SOL     OW17971   3.777   0.524   1.688
 5691SOL    HW117972   3.686   0.486   1.670
 5691SOL    HW217973   3.798   0.593   1.618
 5692SOL     OW17974   4.945   4.834   1.176
 5692SOL    HW117975   4.902   4.775   1.108
 5692SOL    HW217976   4.937   4.929   1.147
 5693SOL     OW17977   4.587   0.360   1.433
 5693SOL    HW117978   4.550   0.350   1.525
 5693SOL    HW217979   4.651   0.436   1.430
 5694SOL     OW17980   0.605   0.243   2.486
 5694SOL    HW117981   0.518   0.262   2.532
 5694SOL    HW217982   0.624   0.317   2.420
 5695SOL     OW17983   1.259   1.114   2.787
 5695SOL    HW117984   1.173   1.067   2.764
 5695SOL    HW217985   1.287   1.170   2.710
 5696SOL     OW17986   1.327   6.456   4.281
 5696SOL    HW117987   1.303   6.377   4.225
 5696SOL    HW217988   1.276   6.453   4.367
 5697SOL     OW17989   6.038   2.249   2.428
 5697SOL    HW117990   5.968   2.315   2.453
 5697SOL    HW217991   5.996   2.160   2.409
 5698SOL     OW17992   1.798   4.538   4.568
 5698SOL    HW117993   1.833   4.623   4.609
 5698SOL    HW217994   1.776   4.554   4.472
 5699SOL     OW17995   1.496   2.331   2.810
 5699SOL    HW117996   1.534   2.423   2.799
 5699SOL    HW217997   1.555   2.266   2.763
 5700SOL     OW17998   6.521   6.616   3.431
 5700SOL    HW117999   6.458   6.602   3.507
 5700SOL    HW218000   6.595   6.677   3.460
 5701SOL     OW18001   6.872   0.414   1.455
 5701SOL    HW118002   6.783   0.414   1.500
 5701SOL    HW218003   6.944   0.421   1.525
 5702SOL     OW18004   1.998   6.174   3.916
 5702SOL    HW118005   1.999   6.230   3.999
 5702SOL    HW218006   1.907   6.177   3.875
 5703SOL     OW18007   6.697   4.217   6.375
 5703SOL    HW118008   6.790   4.186   6.395
 5703SOL    HW218009   6.665   4.173   6.291
 5704SOL     OW18010   4.831   3.998   2.902
 5704SOL    HW118011   4.903   4.024   2.837
 5704SOL    HW218012   4.862   4.016   2.995
 5705SOL     OW18013   4.948   5.665   6.247
 5705SOL    HW118014   4.968   5.754   6.288
 5705SOL    HW218015   5.022   5.640   6.185
 5706SOL     OW18016   5.378   2.403   1.975
 5706SOL    HW118017   5.455   2.432   1.919
 5706SOL    HW218018   5.410   2.341   2.046
 5707SOL     OW18019   6.240   0.468   0.594
 5707SOL    HW118020   6.283   0.469   0.685
 5707SOL    HW218021   6.200   0.379   0.577
 5708SOL     OW18022   5.238   6.145   2.432
 5708SOL    HW118023   5.298   6.067   2.417
 5708SOL    HW218024   5.293   6.227   2.451
 5709SOL     OW18025   0.613   1.310   2.826
 5709SOL    HW118026   0.639   1.248   2.752
 5709SOL    HW218027   0.536   1.367   2.797
 5710SOL     OW18028   3.026   2.369   0.290
 5710SOL    HW118029   3.011   2.362   0.191
 5710SOL    HW218030   2.938   2.363   0.337
 5711SOL     OW18031   5.271   0.830   1.628
 5711SOL    HW118032   5.330   0.750   1.615
 5711SOL    HW218033   5.191   0.803   1.681
 5712SOL     OW18034   6.526   6.649   0.110
 5712SOL    HW118035   6.480   6.601   0.185
 5712SOL    HW218036   6.598   6.591   0.072
 5713SOL     OW18037   2.939   4.336   1.350
 5713SOL    HW118038   3.007   4.404   1.322
 5713SOL    HW218039   2.947   4.320   1.449
 5714SOL     OW18040   0.069   5.868   1.057
 5714SOL    HW118041   0.128   5.946   1.033
 5714SOL    HW218042   0.017   5.891   1.140
 5715SOL     OW18043   0.122   6.928   2.524
 5715SOL    HW118044   0.160   6.934   2.432
 5715SOL    HW218045   0.068   6.844   2.533
 5716SOL     OW18046   1.031   5.886   5.955
 5716SOL    HW118047   1.064   5.891   5.861
 5716SOL    HW218048   0.976   5.803   5.966
 5717SOL     OW18049   1.904   5.057   1.659
 5717SOL    HW118050   1.939   4.976   1.705
 5717SOL    HW218051   1.919   5.048   1.560
 5718SOL     OW18052   1.604   3.393   7.026
 5718SOL    HW118053   1.509   3.367   0.016
 5718SOL    HW218054   1.628   3.474   0.052
 5719SOL     OW18055   2.535   3.512   0.535
 5719SOL    HW118056   2.440   3.524   0.507
 5719SOL    HW218057   2.545   3.542   0.630
 5720SOL     OW18058   1.811   0.043   4.718
 5720SOL    HW118059   1.841   7.018   4.798
 5720SOL    HW218060   1.738   0.105   4.745
 5721SOL     OW18061   5.669   4.180   0.809
 5721SOL    HW118062   5.668   4.269   0.762
 5721SOL    HW218063   5.660   4.194   0.907
 5722SOL     OW18064   7.007   2.607   5.241
 5722SOL    HW118065   0.027   2.589   5.155
 5722SOL    HW218066   0.045   2.635   5.311
 5723SOL     OW18067   4.577   3.809   0.013
 5723SOL    HW118068   4.552   3.831   0.107
 5723SOL    HW218069   4.516   3.739   7.005
 5724SOL     OW18070   5.896   3.003   4.328
 5724SOL    HW118071   5.828   2.941   4.367
 5724SOL    HW218072   5.855   3.093   4.312
 5725SOL     OW18073   6.883   4.495   4.304
 5725SOL    HW118074   6.791   4.469   4.333
 5725SOL    HW218075   6.940   4.511   4.385
 5726SOL     OW18076   6.446   5.050   4.248
 5726SOL    HW118077   6.356   5.028   4.211
 5726SOL    HW218078   6.451   5.148   4.266
 5727SOL     OW18079   6.663   2.452   4.530
 5727SOL    HW118080   6.588   2.395   4.497
 5727SOL    HW218081   6.668   2.536   4.477
 5728SOL     OW18082   5.194   6.262   5.220
 5728SOL    HW118083   5.166   6.314   5.301
 5728SOL    HW218084   5.150   6.172   5.221
 5729SOL     OW18085   1.868   2.051   6.656
 5729SOL    HW118086   1.820   2.081   6.573
 5729SOL    HW218087   1.939   2.118   6.678
 5730SOL     OW18088   6.084   4.261   6.662
 5730SOL    HW118089   6.133   4.228   6.582
 5730SOL    HW218090   5.988   4.279   6.637
 5731SOL     OW18091   6.814   0.199   2.430
 5731SOL    HW118092   6.748   0.198   2.505
 5731SOL    HW218093   6.829   0.106   2.397
 5732SOL     OW18094   0.604   6.467   3.832
 5732SOL    HW118095   0.552   6.469   3.747
 5732SOL    HW218096   0.644   6.376   3.844
 5733SOL     OW18097   4.114   6.304   5.360
 5733SOL    HW118098   4.066   6.221   5.332
 5733SOL    HW218099   4.205   6.305   5.319
 5734SOL     OW18100   0.840   0.295   5.355
 5734SOL    HW118101   0.772   0.367   5.357
 5734SOL    HW218102   0.851   0.262   5.261
 5735SOL     OW18103   3.355   1.480   1.015
 5735SOL    HW118104   3.437   1.483   0.959
 5735SOL    HW218105   3.359   1.401   1.077
 5736SOL     OW18106   0.005   4.421   6.945
 5736SOL    HW118107   7.020   4.454   6.852
 5736SOL    HW218108   6.950   4.373   6.975
 5737SOL     OW18109   5.457   5.853   0.355
 5737SOL    HW118110   5.451   5.778   0.288
 5737SOL    HW218111   5.445   5.940   0.308
 5738SOL     OW18112   1.830   3.393   6.595
 5738SOL    HW118113   1.821   3.409   6.497
 5738SOL    HW218114   1.826   3.480   6.644
 5739SOL     OW18115   1.473   1.609   6.342
 5739SOL    HW118116   1.418   1.679   6.297
 5739SOL    HW218117   1.487   1.532   6.279
 5740SOL     OW18118   4.386   5.621   0.509
 5740SOL    HW118119   4.369   5.573   0.424
 5740SOL    HW218120   4.483   5.645   0.515
 5741SOL     OW18121   0.320   5.627   4.217
 5741SOL    HW118122   0.251   5.696   4.196
 5741SOL    HW218123   0.410   5.670   4.224
 5742SOL     OW18124   5.062   6.460   2.415
 5742SOL    HW118125   5.140   6.416   2.458
 5742SOL    HW218126   4.981   6.401   2.424
 5743SOL     OW18127   3.333   6.532   4.843
 5743SOL    HW118128   3.429   6.507   4.837
 5743SOL    HW218129   3.276   6.455   4.815
 5744SOL     OW18130   4.773   0.116   0.619
 5744SOL    HW118131   4.750   0.162   0.705
 5744SOL    HW218132   4.755   0.177   0.543
 5745SOL     OW18133   3.186   1.498   4.317
 5745SOL    HW118134   3.243   1.516   4.397
 5745SOL    HW218135   3.206   1.564   4.246
 5746SOL     OW18136   5.078   0.683   0.489
 5746SOL    HW118137   5.033   0.657   0.575
 5746SOL    HW218138   5.045   0.773   0.460
 5747SOL     OW18139   0.379   5.666   2.676
 5747SOL    HW118140   0.407   5.616   2.758
 5747SOL    HW218141   0.401   5.612   2.595
 5748SOL     OW18142   2.033   4.927   1.397
 5748SOL    HW118143   2.002   5.021   1.381
 5748SOL    HW218144   1.957   4.872   1.431
 5749SOL     OW18145   2.482   1.337   4.093
 5749SOL    HW118146   2.388   1.353   4.124
 5749SOL    HW218147   2.488   1.247   4.051
 5750SOL     OW18148   5.700   5.223   4.878
 5750SOL    HW118149   5.795   5.252   4.880
 5750SOL    HW218150   5.661   5.240   4.788
 5751SOL     OW18151   2.240   2.366   4.925
 5751SOL    HW118152   2.154   2.323   4.951
 5751SOL    HW218153   2.313   2.297   4.926
 5752SOL     OW18154   6.426   1.070   6.355
 5752SOL    HW118155   6.383   1.095   6.268
 5752SOL    HW218156   6.375   0.996   6.397
 5753SOL     OW18157   3.267   3.269   6.136
 5753SOL    HW118158   3.186   3.215   6.113
 5753SOL    HW218159   3.268   3.286   6.235
 5754SOL     OW18160   5.961   5.470   1.669
 5754SOL    HW118161   5.883   5.532   1.683
 5754SOL    HW218162   6.046   5.523   1.671
 5755SOL     OW18163   2.884   3.637   6.067
 5755SOL    HW118164   2.934   3.704   6.012
 5755SOL    HW218165   2.902   3.545   6.034
 5756SOL     OW18166   6.411   4.766   3.730
 5756SOL    HW118167   6.433   4.692   3.667
 5756SOL    HW218168   6.367   4.840   3.679
 5757SOL     OW18169   6.292   6.382   1.624
 5757SOL    HW118170   6.324   6.381   1.718
 5757SOL    HW218171   6.362   6.343   1.564
 5758SOL     OW18172   2.902   2.291   4.477
 5758SOL    HW118173   2.831   2.345   4.431
 5758SOL    HW218174   2.897   2.307   4.576
 5759SOL     OW18175   4.954   2.274   6.879
 5759SOL    HW118176   4.916   2.341   6.943
 5759SOL    HW218177   5.051   2.293   6.865
 5760SOL     OW18178   1.553   6.238   2.179
 5760SOL    HW118179   1.619   6.312   2.170
 5760SOL    HW218180   1.526   6.205   2.088
 5761SOL     OW18181   5.514   6.970   5.539
 5761SOL    HW118182   5.499   6.883   5.587
 5761SOL    HW218183   5.541   0.012   5.605
 5762SOL     OW18184   5.392   0.126   0.508
 5762SOL    HW118185   5.426   0.202   0.562
 5762SOL    HW218186   5.364   0.051   0.568
 5763SOL     OW18187   0.762   6.515   0.696
 5763SOL    HW118188   0.798   6.522   0.789
 5763SOL    HW218189   0.678   6.569   0.688
 5764SOL     OW18190   6.095   4.497   5.703
 5764SOL    HW118191   6.092   4.430   5.628
 5764SOL    HW218192   6.157   4.465   5.774
 5765SOL     OW18193   5.994   4.435   6.857
 5765SOL    HW118194   6.034   4.367   6.796
 5765SOL    HW218195   6.059   4.457   6.930
 5766SOL     OW18196   3.217   1.266   1.969
 5766SOL    HW118197   3.211   1.277   1.870
 5766SOL    HW218198   3.292   1.322   2.004
 5767SOL     OW18199   1.358   6.202   0.833
 5767SOL    HW118200   1.271   6.181   0.788
 5767SOL    HW218201   1.344   6.206   0.932
 5768SOL     OW18202   0.014   0.668   3.179
 5768SOL    HW118203   6.950   0.707   3.170
 5768SOL    HW218204   0.011   0.570   3.158
 5769SOL     OW18205   2.905   6.614   3.189
 5769SOL    HW118206   2.805   6.624   3.187
 5769SOL    HW218207   2.931   6.532   3.139
 5770SOL     OW18208   6.779   7.013   1.050
 5770SOL    HW118209   6.841   6.939   1.022
 5770SOL    HW218210   6.825   0.043   1.117
 5771SOL     OW18211   1.291   0.248   1.205
 5771SOL    HW118212   1.347   0.179   1.159
 5771SOL    HW218213   1.209   0.267   1.151
 5772SOL     OW18214   5.850   2.495   0.823
 5772SOL    HW118215   5.802   2.497   0.911
 5772SOL    HW218216   5.903   2.579   0.812
 5773SOL     OW18217   5.499   6.507   3.924
 5773SOL    HW118218   5.530   6.524   3.831
 5773SOL    HW218219   5.577   6.482   3.981
 5774SOL     OW18220   2.299   4.524   2.923
 5774SOL    HW118221   2.212   4.574   2.927
 5774SOL    HW218222   2.348   4.535   3.010
 5775SOL     OW18223   0.549   0.345   0.353
 5775SOL    HW118224   0.638   0.383   0.329
 5775SOL    HW218225   0.560   0.247   0.373
 5776SOL     OW18226   5.796   0.677   6.413
 5776SOL    HW118227   5.874   0.615   6.409
 5776SOL    HW218228   5.744   0.670   6.329
 5777SOL     OW18229   5.744   0.644   3.996
 5777SOL    HW118230   5.829   0.668   4.043
 5777SOL    HW218231   5.691   0.581   4.053
 5778SOL     OW18232   2.302   0.499   2.451
 5778SOL    HW118233   2.260   0.522   2.538
 5778SOL    HW218234   2.256   0.420   2.411
 5779SOL     OW18235   3.719   0.690   1.111
 5779SOL    HW118236   3.642   0.633   1.084
 5779SOL    HW218237   3.714   0.777   1.062
 5780SOL     OW18238   6.413   4.520   1.997
 5780SOL    HW118239   6.384   4.433   1.957
 5780SOL    HW218240   6.449   4.579   1.925
 5781SOL     OW18241   1.866   4.033   5.033
 5781SOL    HW118242   1.790   4.098   5.035
 5781SOL    HW218243   1.830   3.940   5.030
 5782SOL     OW18244   1.489   0.832   1.510
 5782SOL    HW118245   1.553   0.908   1.502
 5782SOL    HW218246   1.537   0.751   1.544
 5783SOL     OW18247   1.670   1.214   0.483
 5783SOL    HW118248   1.668   1.274   0.563
 5783SOL    HW218249   1.681   1.119   0.513
 5784SOL     OW18250   0.745   6.329   0.444
 5784SOL    HW118251   0.749   6.307   0.541
 5784SOL    HW218252   0.837   6.328   0.405
 5785SOL     OW18253   1.339   0.888   0.883
 5785SOL    HW118254   1.294   0.885   0.973
 5785SOL    HW218255   1.289   0.828   0.820
 5786SOL     OW18256   1.518   3.747   1.628
 5786SOL    HW118257   1.511   3.844   1.651
 5786SOL    HW218258   1.444   3.723   1.565
 5787SOL     OW18259   5.857   2.829   4.106
 5787SOL    HW118260   5.859   2.733   4.132
 5787SOL    HW218261   5.906   2.883   4.175
 5788SOL     OW18262   3.252   0.478   1.928
 5788SOL    HW118263   3.209   0.410   1.988
 5788SOL    HW218264   3.227   0.570   1.959
 5789SOL     OW18265   3.588   3.373   0.495
 5789SOL    HW118266   3.539   3.303   0.546
 5789SOL    HW218267   3.631   3.437   0.559
 5790SOL     OW18268   5.829   5.498   4.653
 5790SOL    HW118269   5.832   5.585   4.605
 5790SOL    HW218270   5.859   5.511   4.748
 5791SOL     OW18271   3.143   1.989   2.779
 5791SOL    HW118272   3.062   1.948   2.821
 5791SOL    HW218273   3.223   1.935   2.803
 5792SOL     OW18274   4.886   3.216   2.972
 5792SOL    HW118275   4.859   3.293   2.914
 5792SOL    HW218276   4.837   3.133   2.942
 5793SOL     OW18277   6.326   2.364   5.036
 5793SOL    HW118278   6.426   2.371   5.039
 5793SOL    HW218279   6.301   2.278   4.991
 5794SOL     OW18280   2.980   6.698   5.901
 5794SOL    HW118281   2.885   6.672   5.886
 5794SOL    HW218282   3.022   6.723   5.814
 5795SOL     OW18283   1.128   5.235   1.641
 5795SOL    HW118284   1.131   5.176   1.560
 5795SOL    HW218285   1.216   5.281   1.652
 5796SOL     OW18286   4.467   1.811   6.227
 5796SOL    HW118287   4.412   1.873   6.284
 5796SOL    HW218288   4.564   1.823   6.250
 5797SOL     OW18289   5.392   1.933   6.980
 5797SOL    HW118290   5.390   1.973   0.044
 5797SOL    HW218291   5.316   1.970   6.927
 5798SOL     OW18292   0.952   3.697   5.206
 5798SOL    HW118293   0.901   3.613   5.225
 5798SOL    HW218294   0.889   3.775   5.207
 5799SOL     OW18295   1.539   6.567   3.488
 5799SOL    HW118296   1.555   6.525   3.577
 5799SOL    HW218297   1.450   6.614   3.489
 5800SOL     OW18298   0.325   0.019   0.990
 5800SOL    HW118299   0.246   7.018   1.044
 5800SOL    HW218300   0.330   0.119   0.989
 5801SOL     OW18301   2.063   2.892   2.255
 5801SOL    HW118302   1.966   2.884   2.278
 5801SOL    HW218303   2.118   2.895   2.339
 5802SOL     OW18304   6.595   1.892   3.279
 5802SOL    HW118305   6.534   1.912   3.357
 5802SOL    HW218306   6.549   1.918   3.194
 5803SOL     OW18307   1.980   5.372   4.718
 5803SOL    HW118308   2.008   5.298   4.658
 5803SOL    HW218309   2.033   5.368   4.803
 5804SOL     OW18310   6.022   6.203   3.692
 5804SOL    HW118311   5.957   6.164   3.758
 5804SOL    HW218312   5.972   6.256   3.624
 5805SOL     OW18313   2.142   3.715   1.426
 5805SOL    HW118314   2.081   3.793   1.407
 5805SOL    HW218315   2.125   3.682   1.519
 5806SOL     OW18316   0.538   3.235   3.579
 5806SOL    HW118317   0.611   3.247   3.511
 5806SOL    HW218318   0.558   3.153   3.634
 5807SOL     OW18319   1.285   5.825   0.561
 5807SOL    HW118320   1.339   5.750   0.522
 5807SOL    HW218321   1.221   5.789   0.628
 5808SOL     OW18322   6.273   6.998   4.313
 5808SOL    HW118323   6.220   6.924   4.272
 5808SOL    HW218324   6.329   0.014   4.243
 5809SOL     OW18325   0.123   2.445   5.949
 5809SOL    HW118326   0.206   2.421   5.900
 5809SOL    HW218327   0.145   2.505   6.025
 5810SOL     OW18328   4.492   6.869   5.041
 5810SOL    HW118329   4.584   6.903   5.019
 5810SOL    HW218330   4.423   6.929   5.003
 5811SOL     OW18331   2.934   3.235   5.727
 5811SOL    HW118332   2.958   3.205   5.634
 5811SOL    HW218333   2.877   3.165   5.770
 5812SOL     OW18334   5.935   2.809   0.787
 5812SOL    HW118335   5.901   2.769   0.702
 5812SOL    HW218336   6.006   2.749   0.825
 5813SOL     OW18337   4.491   6.047   1.137
 5813SOL    HW118338   4.468   6.049   1.039
 5813SOL    HW218339   4.531   6.135   1.163
 5814SOL     OW18340   6.255   1.940   2.691
 5814SOL    HW118341   6.324   2.012   2.698
 5814SOL    HW218342   6.165   1.978   2.714
 5815SOL     OW18343   6.653   0.885   4.079
 5815SOL    HW118344   6.562   0.878   4.119
 5815SOL    HW218345   6.675   0.981   4.061
 5816SOL     OW18346   0.619   4.663   2.714
 5816SOL    HW118347   0.591   4.758   2.727
 5816SOL    HW218348   0.560   4.604   2.768
 5817SOL     OW18349   5.496   4.075   4.631
 5817SOL    HW118350   5.586   4.113   4.653
 5817SOL    HW218351   5.506   3.981   4.599
 5818SOL     OW18352   1.574   6.974   4.950
 5818SOL    HW118353   1.593   0.041   4.924
 5818SOL    HW218354   1.495   6.970   5.010
 5819SOL     OW18355   3.932   4.768   0.104
 5819SOL    HW118356   4.027   4.790   0.130
 5819SOL    HW218357   3.882   4.853   0.087
 5820SOL     OW18358   5.512   4.992   2.187
 5820SOL    HW118359   5.546   5.061   2.251
 5820SOL    HW218360   5.481   4.912   2.239
 5821SOL     OW18361   6.635   0.971   1.167
 5821SOL    HW118362   6.545   1.014   1.158
 5821SOL    HW218363   6.696   1.031   1.218
 5822SOL     OW18364   1.221   2.268   2.608
 5822SOL    HW118365   1.224   2.259   2.707
 5822SOL    HW218366   1.305   2.311   2.575
 5823SOL     OW18367   2.195   6.564   3.397
 5823SOL    HW118368   2.203   6.593   3.493
 5823SOL    HW218369   2.119   6.500   3.387
 5824SOL     OW18370   0.918   6.813   2.353
 5824SOL    HW118371   0.862   6.873   2.296
 5824SOL    HW218372   0.985   6.764   2.296
 5825SOL     OW18373   6.230   0.414   4.477
 5825SOL    HW118374   6.205   0.319   4.459
 5825SOL    HW218375   6.158   0.475   4.444
 5826SOL     OW18376   6.876   0.464   5.268
 5826SOL    HW118377   6.944   0.403   5.309
 5826SOL    HW218378   6.836   0.522   5.339
 5827SOL     OW18379   1.448   4.165   5.469
 5827SOL    HW118380   1.374   4.183   5.534
 5827SOL    HW218381   1.532   4.207   5.502
 5828SOL     OW18382   5.194   6.712   4.040
 5828SOL    HW118383   5.244   6.676   4.118
 5828SOL    HW218384   5.215   6.657   3.959
 5829SOL     OW18385   2.227   0.870   4.065
 5829SOL    HW118386   2.247   0.797   4.131
 5829SOL    HW218387   2.133   0.902   4.079
 5830SOL     OW18388   3.474   4.884   5.470
 5830SOL    HW118389   3.531   4.966   5.460
 5830SOL    HW218390   3.460   4.843   5.380
 5831SOL     OW18391   0.955   1.001   5.199
 5831SOL    HW118392   0.906   1.082   5.232
 5831SOL    HW218393   1.024   0.974   5.266
 5832SOL     OW18394   3.538   4.821   1.360
 5832SOL    HW118395   3.508   4.916   1.347
 5832SOL    HW218396   3.590   4.814   1.444
 5833SOL     OW18397   4.164   3.666   5.734
 5833SOL    HW118398   4.211   3.749   5.705
 5833SOL    HW218399   4.131   3.677   5.828
 5834SOL     OW18400   6.529   4.273   6.944
 5834SOL    HW118401   6.541   4.236   6.852
 5834SOL    HW218402   6.576   4.360   6.952
 5835SOL     OW18403   5.489   0.579   2.791
 5835SOL    HW118404   5.535   0.510   2.734
 5835SOL    HW218405   5.444   0.534   2.867
 5836SOL     OW18406   4.513   6.435   2.101
 5836SOL    HW118407   4.458   6.431   2.185
 5836SOL    HW218408   4.458   6.474   2.027
 5837SOL     OW18409   3.540   3.847   0.432
 5837SOL    HW118410   3.492   3.871   0.348
 5837SOL    HW218411   3.573   3.752   0.426
 5838SOL     OW18412   2.848   1.901   1.490
 5838SOL    HW118413   2.798   1.906   1.404
 5838SOL    HW218414   2.786   1.874   1.564
 5839SOL     OW18415   1.255   2.441   1.942
 5839SOL    HW118416   1.239   2.346   1.916
 5839SOL    HW218417   1.184   2.470   2.007
 5840SOL     OW18418   0.803   3.739   2.223
 5840SOL    HW118419   0.724   3.800   2.217
 5840SOL    HW218420   0.808   3.699   2.315
 5841SOL     OW18421   4.639   0.888   0.779
 5841SOL    HW118422   4.700   0.857   0.852
 5841SOL    HW218423   4.555   0.924   0.818
 5842SOL     OW18424   3.339   2.056   0.385
 5842SOL    HW118425   3.369   1.962   0.368
 5842SOL    HW218426   3.335   2.072   0.484
 5843SOL     OW18427   1.856   3.451   0.971
 5843SOL    HW118428   1.851   3.503   1.056
 5843SOL    HW218429   1.829   3.356   0.988
 5844SOL     OW18430   0.778   0.372   4.964
 5844SOL    HW118431   0.841   0.435   4.920
 5844SOL    HW218432   0.798   0.278   4.935
 5845SOL     OW18433   0.552   6.616   1.883
 5845SOL    HW118434   0.465   6.618   1.835
 5845SOL    HW218435   0.605   6.697   1.859
 5846SOL     OW18436   6.714   3.697   5.363
 5846SOL    HW118437   6.671   3.608   5.378
 5846SOL    HW218438   6.808   3.684   5.332
 5847SOL     OW18439   2.614   3.481   0.999
 5847SOL    HW118440   2.574   3.542   1.067
 5847SOL    HW218441   2.558   3.398   0.993
 5848SOL     OW18442   2.251   6.095   3.791
 5848SOL    HW118443   2.281   6.004   3.761
 5848SOL    HW218444   2.172   6.087   3.851
 5849SOL     OW18445   2.091   6.289   5.221
 5849SOL    HW118446   2.123   6.345   5.297
 5849SOL    HW218447   2.100   6.192   5.244
 5850SOL     OW18448   1.535   2.387   1.876
 5850SOL    HW118449   1.440   2.390   1.907
 5850SOL    HW218450   1.538   2.391   1.776
 5851SOL     OW18451   5.826   3.400   4.568
 5851SOL    HW118452   5.773   3.484   4.555
 5851SOL    HW218453   5.920   3.424   4.592
 5852SOL     OW18454   4.968   5.213   3.934
 5852SOL    HW118455   4.972   5.168   3.845
 5852SOL    HW218456   4.928   5.151   4.001
 5853SOL     OW18457   3.610   5.185   5.656
 5853SOL    HW118458   3.640   5.143   5.741
 5853SOL    HW218459   3.679   5.169   5.585
 5854SOL     OW18460   3.128   4.400   5.938
 5854SOL    HW118461   3.068   4.334   5.892
 5854SOL    HW218462   3.079   4.440   6.015
 5855SOL     OW18463   2.285   2.463   3.902
 5855SOL    HW118464   2.236   2.405   3.837
 5855SOL    HW218465   2.231   2.472   3.986
 5856SOL     OW18466   1.459   6.935   3.124
 5856SOL    HW118467   1.488   6.897   3.036
 5856SOL    HW218468   1.381   6.996   3.110
 5857SOL     OW18469   0.612   3.257   5.745
 5857SOL    HW118470   0.537   3.321   5.759
 5857SOL    HW218471   0.700   3.305   5.754
 5858SOL     OW18472   2.230   1.540   2.947
 5858SOL    HW118473   2.156   1.481   2.915
 5858SOL    HW218474   2.215   1.633   2.914
 5859SOL     OW18475   5.868   0.066   2.231
 5859SOL    HW118476   5.942   0.092   2.293
 5859SOL    HW218477   5.848   0.141   2.169
 5860SOL     OW18478   6.988   3.182   3.111
 5860SOL    HW118479   6.980   3.084   3.132
 5860SOL    HW218480   7.013   3.193   3.015
 5861SOL     OW18481   5.974   0.655   4.900
 5861SOL    HW118482   5.972   0.620   4.993
 5861SOL    HW218483   6.058   0.709   4.886
 5862SOL     OW18484   6.747   5.520   2.761
 5862SOL    HW118485   6.763   5.502   2.858
 5862SOL    HW218486   6.775   5.613   2.739
 5863SOL     OW18487   3.361   0.818   4.541
 5863SOL    HW118488   3.348   0.912   4.510
 5863SOL    HW218489   3.283   0.763   4.511
 5864SOL     OW18490   3.538   3.746   3.372
 5864SOL    HW118491   3.512   3.834   3.331
 5864SOL    HW218492   3.566   3.761   3.466
 5865SOL     OW18493   5.994   1.073   5.649
 5865SOL    HW118494   6.014   1.143   5.718
 5865SOL    HW218495   5.936   1.002   5.689
 5866SOL     OW18496   3.828   3.459   1.396
 5866SOL    HW118497   3.908   3.431   1.449
 5866SOL    HW218498   3.752   3.397   1.415
 5867SOL     OW18499   2.685   2.201   1.442
 5867SOL    HW118500   2.654   2.295   1.453
 5867SOL    HW218501   2.783   2.195   1.464
 5868SOL     OW18502   0.692   1.591   5.912
 5868SOL    HW118503   0.725   1.685   5.908
 5868SOL    HW218504   0.723   1.548   5.997
 5869SOL     OW18505   0.763   4.605   4.173
 5869SOL    HW118506   0.754   4.699   4.207
 5869SOL    HW218507   0.773   4.543   4.250
 5870SOL     OW18508   4.309   4.806   5.433
 5870SOL    HW118509   4.354   4.872   5.494
 5870SOL    HW218510   4.304   4.844   5.341
 5871SOL     OW18511   3.127   3.178   3.530
 5871SOL    HW118512   3.073   3.229   3.464
 5871SOL    HW218513   3.180   3.107   3.483
 5872SOL     OW18514   4.236   6.144   2.430
 5872SOL    HW118515   4.265   6.238   2.410
 5872SOL    HW218516   4.136   6.140   2.433
 5873SOL     OW18517   3.317   4.935   2.872
 5873SOL    HW118518   3.233   4.889   2.899
 5873SOL    HW218519   3.320   5.027   2.910
 5874SOL     OW18520   2.164   4.276   5.534
 5874SOL    HW118521   2.074   4.275   5.491
 5874SOL    HW218522   2.198   4.370   5.540
 5875SOL     OW18523   3.427   2.215   0.194
 5875SOL    HW118524   3.440   2.308   0.229
 5875SOL    HW218525   3.385   2.159   0.264
 5876SOL     OW18526   4.018   3.537   1.982
 5876SOL    HW118527   4.021   3.439   1.963
 5876SOL    HW218528   4.092   3.583   1.933
 5877SOL     OW18529   6.100   6.053   0.792
 5877SOL    HW118530   6.103   5.978   0.858
 5877SOL    HW218531   6.129   6.138   0.837
 5878SOL     OW18532   1.288   5.373   2.886
 5878SOL    HW118533   1.224   5.450   2.883
 5878SOL    HW218534   1.302   5.345   2.981
 5879SOL     OW18535   6.391   3.799   6.823
 5879SOL    HW118536   6.330   3.834   6.894
 5879SOL    HW218537   6.355   3.714   6.786
 5880SOL     OW18538   2.765   6.072   1.280
 5880SOL    HW118539   2.733   5.990   1.328
 5880SOL    HW218540   2.846   6.109   1.326
 5881SOL     OW18541   0.241   4.309   3.287
 5881SOL    HW118542   0.237   4.213   3.315
 5881SOL    HW218543   0.302   4.319   3.209
 5882SOL     OW18544   5.216   0.542   1.024
 5882SOL    HW118545   5.179   0.623   0.979
 5882SOL    HW218546   5.231   0.561   1.121
 5883SOL     OW18547   0.699   2.536   6.380
 5883SOL    HW118548   0.634   2.463   6.401
 5883SOL    HW218549   0.760   2.549   6.458
 5884SOL     OW18550   1.449   1.093   3.216
 5884SOL    HW118551   1.447   1.177   3.270
 5884SOL    HW218552   1.522   1.099   3.148
 5885SOL     OW18553   6.492   6.868   1.170
 5885SOL    HW118554   6.560   6.942   1.172
 5885SOL    HW218555   6.469   6.841   1.263
 5886SOL     OW18556   0.665   2.582   5.458
 5886SOL    HW118557   0.611   2.640   5.519
 5886SOL    HW218558   0.615   2.497   5.440
 5887SOL     OW18559   3.588   0.841   3.871
 5887SOL    HW118560   3.599   0.741   3.869
 5887SOL    HW218561   3.493   0.863   3.892
 5888SOL     OW18562   2.435   6.033   2.505
 5888SOL    HW118563   2.444   6.106   2.573
 5888SOL    HW218564   2.424   6.072   2.414
 5889SOL     OW18565   2.278   0.388   1.453
 5889SOL    HW118566   2.285   0.371   1.355
 5889SOL    HW218567   2.291   0.302   1.503
 5890SOL     OW18568   1.228   6.937   5.306
 5890SOL    HW118569   1.227   6.846   5.349
 5890SOL    HW218570   1.140   6.982   5.321
 5891SOL     OW18571   3.785   3.495   6.815
 5891SOL    HW118572   3.694   3.459   6.797
 5891SOL    HW218573   3.778   3.582   6.862
 5892SOL     OW18574   1.047   6.206   1.160
 5892SOL    HW118575   1.137   6.163   1.160
 5892SOL    HW218576   0.978   6.139   1.186
 5893SOL     OW18577   1.381   3.211   3.229
 5893SOL    HW118578   1.387   3.300   3.184
 5893SOL    HW218579   1.457   3.200   3.292
 5894SOL     OW18580   1.339   4.809   3.269
 5894SOL    HW118581   1.280   4.730   3.282
 5894SOL    HW218582   1.345   4.831   3.171
 5895SOL     OW18583   5.426   2.587   4.930
 5895SOL    HW118584   5.501   2.542   4.880
 5895SOL    HW218585   5.460   2.672   4.970
 5896SOL     OW18586   3.859   2.157   6.904
 5896SOL    HW118587   3.818   2.069   6.931
 5896SOL    HW218588   3.832   2.178   6.810
 5897SOL     OW18589   4.403   0.070   1.434
 5897SOL    HW118590   4.427   0.140   1.367
 5897SOL    HW218591   4.485   0.021   1.463
 5898SOL     OW18592   1.144   0.099   1.798
 5898SOL    HW118593   1.178   0.177   1.850
 5898SOL    HW218594   1.134   0.123   1.702
 5899SOL     OW18595   5.901   6.957   5.138
 5899SOL    HW118596   5.977   6.996   5.086
 5899SOL    HW218597   5.816   7.005   5.114
 5900SOL     OW18598   4.481   5.180   2.979
 5900SOL    HW118599   4.564   5.170   2.923
 5900SOL    HW218600   4.502   5.156   3.074
 5901SOL     OW18601   2.114   0.103   6.851
 5901SOL    HW118602   2.055   0.182   6.836
 5901SOL    HW218603   2.200   0.116   6.802
 5902SOL     OW18604   6.903   1.910   1.104
 5902SOL    HW118605   6.877   1.972   1.178
 5902SOL    HW218606   6.896   1.957   1.016
 5903SOL     OW18607   5.650   4.467   0.698
 5903SOL    HW118608   5.554   4.475   0.725
 5903SOL    HW218609   5.686   4.557   0.676
 5904SOL     OW18610   0.610   3.639   2.574
 5904SOL    HW118611   0.534   3.579   2.550
 5904SOL    HW218612   0.575   3.726   2.610
 5905SOL     OW18613   6.499   6.569   2.924
 5905SOL    HW118614   6.530   6.636   2.991
 5905SOL    HW218615   6.429   6.610   2.866
 5906SOL     OW18616   5.712   0.563   3.723
 5906SOL    HW118617   5.708   0.602   3.815
 5906SOL    HW218618   5.748   0.470   3.728
 5907SOL     OW18619   1.293   6.511   1.789
 5907SOL    HW118620   1.286   6.429   1.731
 5907SOL    HW218621   1.222   6.508   1.859
 5908SOL     OW18622   0.670   1.912   5.586
 5908SOL    HW118623   0.690   1.911   5.488
 5908SOL    HW218624   0.596   1.847   5.605
 5909SOL     OW18625   1.037   5.745   0.327
 5909SOL    HW118626   1.035   5.845   0.322
 5909SOL    HW218627   0.981   5.714   0.404
 5910SOL     OW18628   1.154   2.726   3.199
 5910SOL    HW118629   1.221   2.799   3.215
 5910SOL    HW218630   1.064   2.758   3.230
 5911SOL     OW18631   6.905   5.742   6.184
 5911SOL    HW118632   6.889   5.838   6.203
 5911SOL    HW218633   6.942   5.732   6.092
 5912SOL     OW18634   6.256   1.547   5.443
 5912SOL    HW118635   6.302   1.574   5.528
 5912SOL    HW218636   6.323   1.546   5.369
 5913SOL     OW18637   5.465   2.810   0.441
 5913SOL    HW118638   5.439   2.809   0.345
 5913SOL    HW218639   5.472   2.716   0.475
 5914SOL     OW18640   1.031   6.847   6.667
 5914SOL    HW118641   1.059   6.875   6.759
 5914SOL    HW218642   1.001   6.751   6.669
 5915SOL     OW18643   2.831   6.443   6.733
 5915SOL    HW118644   2.840   6.414   6.828
 5915SOL    HW218645   2.837   6.363   6.673
 5916SOL     OW18646   0.328   6.684   1.738
 5916SOL    HW118647   0.239   6.647   1.710
 5916SOL    HW218648   0.313   6.762   1.798
 5917SOL     OW18649   2.999   3.832   5.917
 5917SOL    HW118650   3.088   3.860   5.953
 5917SOL    HW218651   2.977   3.888   5.836
 5918SOL     OW18652   2.384   6.042   6.210
 5918SOL    HW118653   2.383   6.058   6.308
 5918SOL    HW218654   2.400   5.944   6.193
 5919SOL     OW18655   2.918   3.614   3.340
 5919SOL    HW118656   3.013   3.645   3.349
 5919SOL    HW218657   2.858   3.678   3.388
 5920SOL     OW18658   5.445   1.484   5.965
 5920SOL    HW118659   5.360   1.523   5.927
 5920SOL    HW218660   5.475   1.540   6.043
 5921SOL     OW18661   3.895   4.874   6.663
 5921SOL    HW118662   3.963   4.827   6.719
 5921SOL    HW218663   3.935   4.897   6.574
 5922SOL     OW18664   6.216   3.858   3.740
 5922SOL    HW118665   6.234   3.839   3.644
 5922SOL    HW218666   6.166   3.944   3.749
 5923SOL     OW18667   6.827   0.780   1.521
 5923SOL    HW118668   6.832   0.730   1.607
 5923SOL    HW218669   6.737   0.766   1.479
 5924SOL     OW18670   5.771   6.463   3.231
 5924SOL    HW118671   5.673   6.468   3.215
 5924SOL    HW218672   5.799   6.536   3.293
 5925SOL     OW18673   3.928   6.063   1.738
 5925SOL    HW118674   3.966   5.993   1.678
 5925SOL    HW218675   3.834   6.084   1.708
 5926SOL     OW18676   4.307   4.634   3.169
 5926SOL    HW118677   4.233   4.571   3.146
 5926SOL    HW218678   4.333   4.685   3.087
 5927SOL     OW18679   1.389   3.849   1.935
 5927SOL    HW118680   1.331   3.926   1.910
 5927SOL    HW218681   1.342   3.763   1.915
 5928SOL     OW18682   4.225   6.902   1.347
 5928SOL    HW118683   4.293   6.975   1.357
 5928SOL    HW218684   4.242   6.852   1.262
 5929SOL     OW18685   6.443   1.010   5.489
 5929SOL    HW118686   6.360   1.064   5.499
 5929SOL    HW218687   6.444   0.938   5.559
 5930SOL     OW18688   1.030   2.884   1.526
 5930SOL    HW118689   1.102   2.877   1.456
 5930SOL    HW218690   1.053   2.958   1.589
 5931SOL     OW18691   6.342   6.098   2.552
 5931SOL    HW118692   6.405   6.021   2.557
 5931SOL    HW218693   6.395   6.184   2.556
 5932SOL     OW18694   3.197   0.053   6.413
 5932SOL    HW118695   3.165   0.103   6.494
 5932SOL    HW218696   3.132   0.066   6.338
 5933SOL     OW18697   0.173   5.275   4.126
 5933SOL    HW118698   0.181   5.180   4.157
 5933SOL    HW218699   0.125   5.329   4.195
 5934SOL     OW18700   3.780   3.428   5.670
 5934SOL    HW118701   3.709   3.361   5.695
 5934SOL    HW218702   3.770   3.509   5.727
 5935SOL     OW18703   0.648   6.112   5.294
 5935SOL    HW118704   0.695   6.127   5.207
 5935SOL    HW218705   0.628   6.199   5.337
 5936SOL     OW18706   3.113   3.172   2.336
 5936SOL    HW118707   3.067   3.218   2.412
 5936SOL    HW218708   3.107   3.073   2.349
 5937SOL     OW18709   6.837   2.876   1.824
 5937SOL    HW118710   6.781   2.952   1.855
 5937SOL    HW218711   6.817   2.795   1.880
 5938SOL     OW18712   5.810   5.727   4.522
 5938SOL    HW118713   5.818   5.780   4.438
 5938SOL    HW218714   5.777   5.785   4.596
 5939SOL     OW18715   3.117   5.857   3.918
 5939SOL    HW118716   3.197   5.854   3.977
 5939SOL    HW218717   3.138   5.812   3.831
 5940SOL     OW18718   4.079   4.881   3.144
 5940SOL    HW118719   4.089   4.806   3.209
 5940SOL    HW218720   4.169   4.921   3.125
 5941SOL     OW18721   5.764   2.451   2.970
 5941SOL    HW118722   5.748   2.546   2.997
 5941SOL    HW218723   5.862   2.432   2.969
 5942SOL     OW18724   5.818   2.925   6.017
 5942SOL    HW118725   5.870   2.968   6.090
 5942SOL    HW218726   5.781   2.995   5.955
 5943SOL     OW18727   4.173   3.719   0.280
 5943SOL    HW118728   4.209   3.630   0.254
 5943SOL    HW218729   4.092   3.708   0.338
 5944SOL     OW18730   0.356   2.701   0.381
 5944SOL    HW118731   0.434   2.682   0.321
 5944SOL    HW218732   0.273   2.704   0.326
 5945SOL     OW18733   0.301   6.184   5.407
 5945SOL    HW118734   0.238   6.166   5.332
 5945SOL    HW218735   0.365   6.108   5.418
 5946SOL     OW18736   3.418   4.914   6.736
 5946SOL    HW118737   3.495   4.948   6.789
 5946SOL    HW218738   3.451   4.847   6.669
 5947SOL     OW18739   3.036   3.379   4.495
 5947SOL    HW118740   3.063   3.474   4.510
 5947SOL    HW218741   2.969   3.374   4.421
 5948SOL     OW18742   4.775   4.644   2.256
 5948SOL    HW118743   4.766   4.553   2.217
 5948SOL    HW218744   4.686   4.690   2.257
 5949SOL     OW18745   5.975   5.499   1.321
 5949SOL    HW118746   5.961   5.435   1.246
 5949SOL    HW218747   5.896   5.495   1.383
 5950SOL     OW18748   5.000   2.394   5.133
 5950SOL    HW118749   4.967   2.451   5.058
 5950SOL    HW218750   5.081   2.437   5.173
 5951SOL     OW18751   0.948   5.887   5.133
 5951SOL    HW118752   0.963   5.867   5.230
 5951SOL    HW218753   1.023   5.848   5.079
 5952SOL     OW18754   4.171   5.783   3.372
 5952SOL    HW118755   4.180   5.687   3.347
 5952SOL    HW218756   4.260   5.828   3.362
 5953SOL     OW18757   6.634   3.446   4.691
 5953SOL    HW118758   6.576   3.370   4.721
 5953SOL    HW218759   6.591   3.490   4.612
 5954SOL     OW18760   0.630   5.443   5.963
 5954SOL    HW118761   0.562   5.372   5.981
 5954SOL    HW218762   0.589   5.533   5.978
 5955SOL     OW18763   4.211   5.446   1.495
 5955SOL    HW118764   4.204   5.470   1.398
 5955SOL    HW218765   4.215   5.530   1.549
 5956SOL     OW18766   5.698   1.810   4.047
 5956SOL    HW118767   5.670   1.741   4.114
 5956SOL    HW218768   5.636   1.888   4.052
 5957SOL     OW18769   1.662   1.620   3.444
 5957SOL    HW118770   1.737   1.561   3.413
 5957SOL    HW218771   1.694   1.715   3.447
 5958SOL     OW18772   3.909   0.587   3.230
 5958SOL    HW118773   4.009   0.581   3.219
 5958SOL    HW218774   3.887   0.595   3.328
 5959SOL     OW18775   4.263   2.878   5.417
 5959SOL    HW118776   4.239   2.875   5.515
 5959SOL    HW218777   4.362   2.873   5.407
 5960SOL     OW18778   3.160   6.552   4.524
 5960SOL    HW118779   3.242   6.561   4.468
 5960SOL    HW218780   3.147   6.636   4.577
 5961SOL     OW18781   3.477   1.652   2.425
 5961SOL    HW118782   3.533   1.608   2.495
 5961SOL    HW218783   3.536   1.702   2.361
 5962SOL     OW18784   4.914   5.923   6.320
 5962SOL    HW118785   4.921   5.955   6.414
 5962SOL    HW218786   4.825   5.947   6.282
 5963SOL     OW18787   3.482   4.100   6.899
 5963SOL    HW118788   3.432   4.185   6.918
 5963SOL    HW218789   3.428   4.043   6.837
 5964SOL     OW18790   2.447   6.894   3.124
 5964SOL    HW118791   2.369   6.851   3.079
 5964SOL    HW218792   2.428   6.907   3.221
 5965SOL     OW18793   1.919   0.500   6.315
 5965SOL    HW118794   2.012   0.498   6.352
 5965SOL    HW218795   1.876   0.587   6.339
 5966SOL     OW18796   1.192   0.127   5.624
 5966SOL    HW118797   1.121   0.108   5.556
 5966SOL    HW218798   1.231   0.041   5.657
 5967SOL     OW18799   2.563   1.287   5.287
 5967SOL    HW118800   2.648   1.241   5.313
 5967SOL    HW218801   2.517   1.320   5.369
 5968SOL     OW18802   5.539   2.708   0.735
 5968SOL    HW118803   5.549   2.772   0.812
 5968SOL    HW218804   5.624   2.707   0.682
 5969SOL     OW18805   5.078   1.213   6.455
 5969SOL    HW118806   5.101   1.121   6.487
 5969SOL    HW218807   5.073   1.275   6.534
 5970SOL     OW18808   0.433   4.240   0.595
 5970SOL    HW118809   0.402   4.221   0.502
 5970SOL    HW218810   0.531   4.223   0.601
 5971SOL     OW18811   6.119   0.242   1.805
 5971SOL    HW118812   6.050   0.219   1.736
 5971SOL    HW218813   6.135   0.162   1.863
 5972SOL     OW18814   5.249   5.499   6.354
 5972SOL    HW118815   5.229   5.595   6.374
 5972SOL    HW218816   5.255   5.487   6.255
 5973SOL     OW18817   2.120   3.502   2.639
 5973SOL    HW118818   2.156   3.486   2.547
 5973SOL    HW218819   2.097   3.599   2.649
 5974SOL     OW18820   5.021   0.457   0.084
 5974SOL    HW118821   4.969   0.482   0.165
 5974SOL    HW218822   5.117   0.443   0.108
 5975SOL     OW18823   4.742   5.739   1.497
 5975SOL    HW118824   4.695   5.652   1.517
 5975SOL    HW218825   4.684   5.815   1.525
 5976SOL     OW18826   3.260   3.515   5.975
 5976SOL    HW118827   3.281   3.586   6.042
 5976SOL    HW218828   3.276   3.425   6.017
 5977SOL     OW18829   0.703   5.661   0.253
 5977SOL    HW118830   0.792   5.669   0.297
 5977SOL    HW218831   0.698   5.723   0.175
 5978SOL     OW18832   3.683   5.278   0.975
 5978SOL    HW118833   3.714   5.274   0.881
 5978SOL    HW218834   3.621   5.356   0.987
 5979SOL     OW18835   6.172   0.815   2.214
 5979SOL    HW118836   6.081   0.829   2.175
 5979SOL    HW218837   6.201   0.899   2.260
 5980SOL     OW18838   3.310   2.898   2.209
 5980SOL    HW118839   3.353   2.882   2.298
 5980SOL    HW218840   3.262   2.816   2.179
 5981SOL     OW18841   5.101   1.687   0.297
 5981SOL    HW118842   5.061   1.598   0.317
 5981SOL    HW218843   5.029   1.756   0.294
 5982SOL     OW18844   5.864   2.068   2.648
 5982SOL    HW118845   5.847   2.001   2.575
 5982SOL    HW218846   5.823   2.156   2.622
 5983SOL     OW18847   1.286   0.742   4.068
 5983SOL    HW118848   1.191   0.749   4.039
 5983SOL    HW218849   1.338   0.820   4.032
 5984SOL     OW18850   5.801   6.113   3.859
 5984SOL    HW118851   5.715   6.143   3.819
 5984SOL    HW218852   5.789   6.023   3.902
 5985SOL     OW18853   6.546   2.531   3.441
 5985SOL    HW118854   6.571   2.608   3.499
 5985SOL    HW218855   6.549   2.559   3.345
 5986SOL     OW18856   3.890   3.898   6.060
 5986SOL    HW118857   3.877   3.926   5.965
 5986SOL    HW218858   3.973   3.940   6.096
 5987SOL     OW18859   6.049   0.639   4.220
 5987SOL    HW118860   5.986   0.703   4.177
 5987SOL    HW218861   6.059   0.661   4.317
 5988SOL     OW18862   3.567   1.050   6.467
 5988SOL    HW118863   3.483   1.023   6.515
 5988SOL    HW218864   3.636   0.978   6.478
 5989SOL     OW18865   1.897   5.908   6.082
 5989SOL    HW118866   1.945   5.885   5.997
 5989SOL    HW218867   1.964   5.938   6.150
 5990SOL     OW18868   3.709   3.845   1.088
 5990SOL    HW118869   3.791   3.848   1.031
 5990SOL    HW218870   3.731   3.803   1.176
 5991SOL     OW18871   4.343   5.775   0.116
 5991SOL    HW118872   4.248   5.805   0.122
 5991SOL    HW218873   4.351   5.682   0.153
 5992SOL     OW18874   3.037   0.210   2.704
 5992SOL    HW118875   2.995   0.276   2.767
 5992SOL    HW218876   3.069   0.259   2.622
 5993SOL     OW18877   5.699   4.234   6.326
 5993SOL    HW118878   5.774   4.299   6.332
 5993SOL    HW218879   5.712   4.173   6.248
 5994SOL     OW18880   6.998   2.640   1.086
 5994SOL    HW118881   7.022   2.553   1.130
 5994SOL    HW218882   6.961   2.703   1.154
 5995SOL     OW18883   4.340   3.111   1.736
 5995SOL    HW118884   4.433   3.098   1.772
 5995SOL    HW218885   4.293   3.023   1.733
 5996SOL     OW18886   1.861   5.860   1.540
 5996SOL    HW118887   1.879   5.924   1.614
 5996SOL    HW218888   1.804   5.903   1.470
 5997SOL     OW18889   0.255   6.835   3.729
 5997SOL    HW118890   0.210   6.826   3.817
 5997SOL    HW218891   0.328   6.903   3.735
 5998SOL     OW18892   5.612   0.778   1.690
 5998SOL    HW118893   5.690   0.741   1.741
 5998SOL    HW218894   5.645   0.845   1.623
 5999SOL     OW18895   3.315   3.494   0.969
 5999SOL    HW118896   3.321   3.525   1.064
 5999SOL    HW218897   3.382   3.544   0.914
 6000SOL     OW18898   0.054   5.974   0.013
 6000SOL    HW118899   0.006   5.920   6.972
 6000SOL    HW218900   7.023   6.049   0.044
 6001SOL     OW18901   5.491   5.530   6.996
 6001SOL    HW118902   5.417   5.476   6.956
 6001SOL    HW218903   5.561   5.469   0.004
 6002SOL     OW18904   6.857   0.135   5.654
 6002SOL    HW118905   6.890   0.227   5.633
 6002SOL    HW218906   6.757   0.133   5.647
 6003SOL     OW18907   6.335   2.790   4.409
 6003SOL    HW118908   6.290   2.800   4.321
 6003SOL    HW218909   6.298   2.857   4.473
 6004SOL     OW18910   6.015   2.793   3.284
 6004SOL    HW118911   5.954   2.724   3.323
 6004SOL    HW218912   6.019   2.872   3.344
 6005SOL     OW18913   5.469   4.751   4.965
 6005SOL    HW118914   5.555   4.756   4.916
 6005SOL    HW218915   5.461   4.663   5.012
 6006SOL     OW18916   3.506   7.009   5.095
 6006SOL    HW118917   3.525   0.071   5.056
 6006SOL    HW218918   3.501   6.941   5.022
 6007SOL     OW18919   6.999   2.877   6.632
 6007SOL    HW118920   6.951   2.848   6.550
 6007SOL    HW218921   6.932   2.902   6.703
 6008SOL     OW18922   2.051   4.563   5.445
 6008SOL    HW118923   2.061   4.652   5.490
 6008SOL    HW218924   1.959   4.555   5.407
 6009SOL     OW18925   4.667   5.552   3.529
 6009SOL    HW118926   4.749   5.609   3.541
 6009SOL    HW218927   4.587   5.611   3.521
 6010SOL     OW18928   0.316   3.993   3.958
 6010SOL    HW118929   0.319   4.047   4.042
 6010SOL    HW218930   0.225   3.953   3.947
 6011SOL     OW18931   4.630   2.547   2.466
 6011SOL    HW118932   4.686   2.577   2.543
 6011SOL    HW218933   4.548   2.502   2.500
 6012SOL     OW18934   6.198   0.819   0.083
 6012SOL    HW118935   6.179   0.773   7.025
 6012SOL    HW218936   6.139   0.900   0.092
 6013SOL     OW18937   4.897   1.127   2.692
 6013SOL    HW118938   4.980   1.082   2.724
 6013SOL    HW218939   4.910   1.158   2.598
 6014SOL     OW18940   3.229   3.560   4.197
 6014SOL    HW118941   3.130   3.567   4.195
 6014SOL    HW218942   3.264   3.593   4.284
 6015SOL     OW18943   6.031   3.596   4.551
 6015SOL    HW118944   6.086   3.680   4.555
 6015SOL    HW218945   6.080   3.527   4.498
 6016SOL     OW18946   5.136   1.850   5.849
 6016SOL    HW118947   5.211   1.893   5.901
 6016SOL    HW218948   5.172   1.772   5.797
 6017SOL     OW18949   0.346   4.318   5.107
 6017SOL    HW118950   0.415   4.261   5.062
 6017SOL    HW218951   0.266   4.263   5.129
 6018SOL     OW18952   3.159   1.130   4.589
 6018SOL    HW118953   3.150   1.078   4.504
 6018SOL    HW218954   3.070   1.170   4.613
 6019SOL     OW18955   1.093   3.550   5.894
 6019SOL    HW118956   1.188   3.525   5.913
 6019SOL    HW218957   1.076   3.643   5.927
 6020SOL     OW18958   0.959   5.100   1.064
 6020SOL    HW118959   1.030   5.034   1.088
 6020SOL    HW218960   0.985   5.146   0.978
 6021SOL     OW18961   4.750   7.011   2.743
 6021SOL    HW118962   4.668   0.023   2.702
 6021SOL    HW218963   4.780   0.039   2.820
 6022SOL     OW18964   6.709   1.459   3.528
 6022SOL    HW118965   6.790   1.510   3.499
 6022SOL    HW218966   6.724   1.361   3.512
 6023SOL     OW18967   5.323   0.195   1.186
 6023SOL    HW118968   5.410   0.164   1.224
 6023SOL    HW218969   5.337   0.280   1.135
 6024SOL     OW18970   0.605   4.849   0.314
 6024SOL    HW118971   0.633   4.780   0.381
 6024SOL    HW218972   0.526   4.900   0.349
 6025SOL     OW18973   3.111   1.008   3.647
 6025SOL    HW118974   3.189   0.975   3.594
 6025SOL    HW218975   3.039   0.939   3.647
 6026SOL     OW18976   6.571   4.926   4.995
 6026SOL    HW118977   6.491   4.873   5.024
 6026SOL    HW218978   6.559   4.956   4.900
 6027SOL     OW18979   6.431   3.612   6.139
 6027SOL    HW118980   6.414   3.704   6.104
 6027SOL    HW218981   6.400   3.606   6.234
 6028SOL     OW18982   5.195   5.012   1.173
 6028SOL    HW118983   5.241   5.078   1.232
 6028SOL    HW218984   5.096   5.021   1.184
 6029SOL     OW18985   2.127   6.949   3.460
 6029SOL    HW118986   2.139   7.023   3.393
 6029SOL    HW218987   2.099   6.866   3.412
 6030SOL     OW18988   4.931   3.573   4.738
 6030SOL    HW118989   4.855   3.566   4.803
 6030SOL    HW218990   5.012   3.528   4.777
 6031SOL     OW18991   1.929   5.620   3.890
 6031SOL    HW118992   1.842   5.626   3.841
 6031SOL    HW218993   1.917   5.562   3.971
 6032SOL     OW18994   2.668   5.098   2.971
 6032SOL    HW118995   2.767   5.103   2.956
 6032SOL    HW218996   2.627   5.043   2.898
 6033SOL     OW18997   2.215   2.953   2.469
 6033SOL    HW118998   2.191   3.044   2.503
 6033SOL    HW218999   2.224   2.890   2.546
 6034SOL     OW19000   0.832   0.451   6.577
 6034SOL    HW119001   0.929   0.438   6.553
 6034SOL    HW219002   0.822   0.535   6.630
 6035SOL     OW19003   0.822   0.716   2.728
 6035SOL    HW119004   0.834   0.780   2.804
 6035SOL    HW219005   0.891   0.643   2.735
 6036SOL     OW19006   5.944   4.573   1.400
 6036SOL    HW119007   6.018   4.554   1.464
 6036SOL    HW219008   5.883   4.642   1.439
 6037SOL     OW19009   4.065   0.569   0.839
 6037SOL    HW119010   4.142   0.633   0.843
 6037SOL    HW219011   4.001   0.598   0.768
 6038SOL     OW19012   0.539   2.316   6.462
 6038SOL    HW119013   0.518   2.272   6.375
 6038SOL    HW219014   0.468   2.293   6.529
 6039SOL     OW19015   3.903   3.983   4.148
 6039SOL    HW119016   3.898   4.061   4.210
 6039SOL    HW219017   3.971   3.918   4.180
 6040SOL     OW19018   1.529   1.070   0.139
 6040SOL    HW119019   1.563   1.159   0.170
 6040SOL    HW219020   1.443   1.083   0.089
 6041SOL     OW19021   3.216   2.672   5.363
 6041SOL    HW119022   3.304   2.719   5.375
 6041SOL    HW219023   3.232   2.575   5.347
 6042SOL     OW19024   4.032   6.506   3.117
 6042SOL    HW119025   3.967   6.505   3.042
 6042SOL    HW219026   4.073   6.415   3.128
 6043SOL     OW19027   0.866   0.363   4.150
 6043SOL    HW119028   0.912   0.435   4.097
 6043SOL    HW219029   0.935   0.311   4.201
 6044SOL     OW19030   2.100   2.468   2.232
 6044SOL    HW119031   2.153   2.384   2.219
 6044SOL    HW219032   2.011   2.458   2.187
 6045SOL     OW19033   4.844   3.120   3.882
 6045SOL    HW119034   4.853   3.098   3.979
 6045SOL    HW219035   4.846   3.036   3.828
 6046SOL     OW19036   3.244   2.883   1.068
 6046SOL    HW119037   3.150   2.891   1.034
 6046SOL    HW219038   3.273   2.971   1.106
 6047SOL     OW19039   5.275   2.408   1.426
 6047SOL    HW119040   5.219   2.374   1.351
 6047SOL    HW219041   5.366   2.367   1.420
 6048SOL     OW19042   5.061   5.633   5.153
 6048SOL    HW119043   5.000   5.711   5.144
 6048SOL    HW219044   5.076   5.591   5.063
 6049SOL     OW19045   5.754   4.450   6.059
 6049SOL    HW119046   5.656   4.433   6.048
 6049SOL    HW219047   5.785   4.518   5.992
 6050SOL     OW19048   2.724   5.323   0.533
 6050SOL    HW119049   2.651   5.265   0.570
 6050SOL    HW219050   2.797   5.266   0.495
 6051SOL     OW19051   1.786   0.359   2.896
 6051SOL    HW119052   1.694   0.390   2.875
 6051SOL    HW219053   1.805   0.375   2.993
 6052SOL     OW19054   5.407   1.081   1.558
 6052SOL    HW119055   5.410   1.169   1.606
 6052SOL    HW219056   5.365   1.012   1.617
 6053SOL     OW19057   3.967   0.529   6.398
 6053SOL    HW119058   3.953   0.442   6.444
 6053SOL    HW219059   3.914   0.532   6.313
 6054SOL     OW19060   3.519   4.921   0.876
 6054SOL    HW119061   3.582   4.918   0.954
 6054SOL    HW219062   3.453   4.996   0.889
 6055SOL     OW19063   3.339   5.654   6.358
 6055SOL    HW119064   3.302   5.656   6.265
 6055SOL    HW219065   3.429   5.697   6.359
 6056SOL     OW19066   5.818   2.770   4.897
 6056SOL    HW119067   5.739   2.766   4.835
 6056SOL    HW219068   5.807   2.700   4.968
 6057SOL     OW19069   5.928   0.839   2.054
 6057SOL    HW119070   5.988   0.906   2.010
 6057SOL    HW219071   5.839   0.882   2.073
 6058SOL     OW19072   5.259   3.562   0.249
 6058SOL    HW119073   5.329   3.548   0.179
 6058SOL    HW219074   5.192   3.488   0.246
 6059SOL     OW19075   5.204   4.029   5.368
 6059SOL    HW119076   5.234   4.083   5.447
 6059SOL    HW219077   5.155   3.948   5.400
 6060SOL     OW19078   2.969   3.134   0.135
 6060SOL    HW119079   3.004   3.040   0.141
 6060SOL    HW219080   2.892   3.145   0.197
 6061SOL     OW19081   4.737   4.515   0.511
 6061SOL    HW119082   4.752   4.440   0.576
 6061SOL    HW219083   4.645   4.510   0.474
 6062SOL     OW19084   2.344   1.924   6.346
 6062SOL    HW119085   2.436   1.918   6.385
 6062SOL    HW219086   2.346   1.980   6.263
 6063SOL     OW19087   3.472   4.151   5.636
 6063SOL    HW119088   3.550   4.204   5.604
 6063SOL    HW219089   3.426   4.202   5.709
 6064SOL     OW19090   0.796   0.279   1.152
 6064SOL    HW119091   0.740   0.251   1.230
 6064SOL    HW219092   0.798   0.379   1.148
 6065SOL     OW19093   0.580   5.646   1.762
 6065SOL    HW119094   0.497   5.600   1.732
 6065SOL    HW219095   0.558   5.739   1.791
 6066SOL     OW19096   5.315   0.821   4.338
 6066SOL    HW119097   5.266   0.754   4.281
 6066SOL    HW219098   5.339   0.778   4.425
 6067SOL     OW19099   4.881   1.657   5.701
 6067SOL    HW119100   4.918   1.720   5.632
 6067SOL    HW219101   4.821   1.591   5.656
 6068SOL     OW19102   4.968   2.477   4.624
 6068SOL    HW119103   4.902   2.541   4.664
 6068SOL    HW219104   5.051   2.476   4.680
 6069SOL     OW19105   6.885   3.509   6.137
 6069SOL    HW119106   6.891   3.605   6.165
 6069SOL    HW219107   6.853   3.504   6.043
 6070SOL     OW19108   3.426   2.574   1.462
 6070SOL    HW119109   3.425   2.503   1.392
 6070SOL    HW219110   3.519   2.609   1.473
 6071SOL     OW19111   0.571   5.616   4.485
 6071SOL    HW119112   0.500   5.546   4.493
 6071SOL    HW219113   0.588   5.657   4.574
 6072SOL     OW19114   6.948   1.522   1.697
 6072SOL    HW119115   6.985   1.593   1.638
 6072SOL    HW219116   6.864   1.486   1.657
 6073SOL     OW19117   4.960   2.806   0.805
 6073SOL    HW119118   4.907   2.779   0.885
 6073SOL    HW219119   5.055   2.775   0.816
 6074SOL     OW19120   1.903   6.972   2.039
 6074SOL    HW119121   1.887   6.924   2.126
 6074SOL    HW219122   1.818   6.975   1.987
 6075SOL     OW19123   4.403   0.367   5.408
 6075SOL    HW119124   4.451   0.448   5.442
 6075SOL    HW219125   4.322   0.395   5.357
 6076SOL     OW19126   2.537   5.309   3.134
 6076SOL    HW119127   2.467   5.268   3.192
 6076SOL    HW219128   2.575   5.240   3.073
 6077SOL     OW19129   5.607   6.344   1.012
 6077SOL    HW119130   5.668   6.274   0.976
 6077SOL    HW219131   5.655   6.432   1.015
 6078SOL     OW19132   4.473   4.710   0.790
 6078SOL    HW119133   4.393   4.757   0.752
 6078SOL    HW219134   4.554   4.730   0.734
 6079SOL     OW19135   5.079   5.034   6.068
 6079SOL    HW119136   5.047   4.986   5.987
 6079SOL    HW219137   5.031   5.000   6.149
 6080SOL     OW19138   0.448   4.920   1.780
 6080SOL    HW119139   0.360   4.873   1.786
 6080SOL    HW219140   0.454   4.991   1.850
 6081SOL     OW19141   6.635   3.441   5.419
 6081SOL    HW119142   6.722   3.408   5.382
 6081SOL    HW219143   6.577   3.363   5.441
 6082SOL     OW19144   3.236   6.476   2.278
 6082SOL    HW119145   3.183   6.411   2.332
 6082SOL    HW219146   3.196   6.485   2.187
 6083SOL     OW19147   5.482   5.661   0.707
 6083SOL    HW119148   5.504   5.758   0.700
 6083SOL    HW219149   5.523   5.623   0.790
 6084SOL     OW19150   1.042   6.662   2.152
 6084SOL    HW119151   1.087   6.581   2.115
 6084SOL    HW219152   0.946   6.642   2.172
 6085SOL     OW19153   6.210   6.183   6.130
 6085SOL    HW119154   6.200   6.233   6.044
 6085SOL    HW219155   6.237   6.247   6.202
 6086SOL     OW19156   2.967   2.377   5.805
 6086SOL    HW119157   2.947   2.425   5.720
 6086SOL    HW219158   2.991   2.282   5.785
 6087SOL     OW19159   4.085   5.742   1.118
 6087SOL    HW119160   4.170   5.743   1.065
 6087SOL    HW219161   4.051   5.836   1.129
 6088SOL     OW19162   5.833   6.563   5.420
 6088SOL    HW119163   5.858   6.526   5.509
 6088SOL    HW219164   5.901   6.630   5.391
 6089SOL     OW19165   6.520   2.628   2.770
 6089SOL    HW119166   6.477   2.688   2.837
 6089SOL    HW219167   6.619   2.625   2.786
 6090SOL     OW19168   2.893   5.168   4.589
 6090SOL    HW119169   2.831   5.179   4.511
 6090SOL    HW219170   2.891   5.074   4.621
 6091SOL     OW19171   3.148   1.541   0.548
 6091SOL    HW119172   3.191   1.562   0.635
 6091SOL    HW219173   3.130   1.626   0.498
 6092SOL     OW19174   4.060   0.953   2.055
 6092SOL    HW119175   4.045   1.050   2.075
 6092SOL    HW219176   4.007   0.898   2.118
 6093SOL     OW19177   2.477   2.558   1.828
 6093SOL    HW119178   2.405   2.607   1.779
 6093SOL    HW219179   2.450   2.543   1.923
 6094SOL     OW19180   1.454   6.226   3.701
 6094SOL    HW119181   1.444   6.284   3.781
 6094SOL    HW219182   1.375   6.165   3.694
 6095SOL     OW19183   4.672   5.029   6.459
 6095SOL    HW119184   4.662   5.064   6.552
 6095SOL    HW219185   4.654   4.930   6.458
 6096SOL     OW19186   5.398   6.827   2.097
 6096SOL    HW119187   5.419   6.925   2.102
 6096SOL    HW219188   5.350   6.798   2.179
 6097SOL     OW19189   1.815   5.328   2.094
 6097SOL    HW119190   1.726   5.283   2.099
 6097SOL    HW219191   1.879   5.269   2.045
 6098SOL     OW19192   6.360   0.939   6.035
 6098SOL    HW119193   6.334   1.033   6.060
 6098SOL    HW219194   6.457   0.936   6.011
 6099SOL     OW19195   5.064   5.738   5.568
 6099SOL    HW119196   4.968   5.726   5.542
 6099SOL    HW219197   5.068   5.779   5.659
 6100SOL     OW19198   0.333   6.213   1.918
 6100SOL    HW119199   0.262   6.220   1.848
 6100SOL    HW219200   0.422   6.205   1.875
 6101SOL     OW19201   6.551   2.878   2.457
 6101SOL    HW119202   6.645   2.844   2.456
 6101SOL    HW219203   6.536   2.933   2.539
 6102SOL     OW19204   3.986   5.891   2.920
 6102SOL    HW119205   3.905   5.943   2.891
 6102SOL    HW219206   4.069   5.941   2.893
 6103SOL     OW19207   6.906   1.159   1.253
 6103SOL    HW119208   6.979   1.091   1.260
 6103SOL    HW219209   6.925   1.236   1.313
 6104SOL     OW19210   6.038   0.302   5.210
 6104SOL    HW119211   5.994   0.350   5.134
 6104SOL    HW219212   6.065   0.211   5.180
 6105SOL     OW19213   2.087   5.297   5.841
 6105SOL    HW119214   2.159   5.258   5.899
 6105SOL    HW219215   2.075   5.394   5.862
 6106SOL     OW19216   1.131   5.181   0.357
 6106SOL    HW119217   1.156   5.157   0.450
 6106SOL    HW219218   1.209   5.167   0.296
 6107SOL     OW19219   4.572   5.419   4.380
 6107SOL    HW119220   4.598   5.355   4.307
 6107SOL    HW219221   4.554   5.368   4.464
 6108SOL     OW19222   1.884   2.637   2.829
 6108SOL    HW119223   1.906   2.676   2.739
 6108SOL    HW219224   1.805   2.685   2.867
 6109SOL     OW19225   5.497   1.181   5.010
 6109SOL    HW119226   5.480   1.245   5.084
 6109SOL    HW219227   5.513   1.090   5.048
 6110SOL     OW19228   1.991   2.950   0.003
 6110SOL    HW119229   1.973   2.851   7.024
 6110SOL    HW219230   2.086   2.964   0.033
 6111SOL     OW19231   1.088   3.295   1.788
 6111SOL    HW119232   1.145   3.317   1.709
 6111SOL    HW219233   1.144   3.294   1.871
 6112SOL     OW19234   4.148   0.039   2.588
 6112SOL    HW119235   4.108   0.011   2.676
 6112SOL    HW219236   4.153   0.139   2.584
 6113SOL     OW19237   2.411   3.261   6.466
 6113SOL    HW119238   2.403   3.345   6.413
 6113SOL    HW219239   2.399   3.281   6.564
 6114SOL     OW19240   5.060   3.407   2.640
 6114SOL    HW119241   5.033   3.433   2.547
 6114SOL    HW219242   5.076   3.308   2.644
 6115SOL     OW19243   6.676   1.697   5.084
 6115SOL    HW119244   6.753   1.757   5.106
 6115SOL    HW219245   6.656   1.702   4.986
 6116SOL     OW19246   4.092   2.208   5.550
 6116SOL    HW119247   4.012   2.252   5.592
 6116SOL    HW219248   4.135   2.147   5.616
 6117SOL     OW19249   1.669   2.374   3.030
 6117SOL    HW119250   1.642   2.459   3.074
 6117SOL    HW219251   1.608   2.356   2.952
 6118SOL     OW19252   5.890   1.049   1.698
 6118SOL    HW119253   5.929   1.009   1.781
 6118SOL    HW219254   5.790   1.045   1.703
 6119SOL     OW19255   0.940   3.125   0.471
 6119SOL    HW119256   0.876   3.063   0.517
 6119SOL    HW219257   0.889   3.181   0.406
 6120SOL     OW19258   2.146   6.900   4.905
 6120SOL    HW119259   2.046   6.901   4.915
 6120SOL    HW219260   2.187   6.954   4.978
 6121SOL     OW19261   1.067   4.031   5.618
 6121SOL    HW119262   1.067   3.952   5.556
 6121SOL    HW219263   0.983   4.030   5.672
 6122SOL     OW19264   4.810   5.380   6.184
 6122SOL    HW119265   4.779   5.466   6.224
 6122SOL    HW219266   4.740   5.310   6.199
 6123SOL     OW19267   5.303   0.601   5.360
 6123SOL    HW119268   5.242   0.536   5.316
 6123SOL    HW219269   5.363   0.553   5.424
 6124SOL     OW19270   0.040   6.816   5.806
 6124SOL    HW119271   0.060   6.891   5.742
 6124SOL    HW219272   0.118   6.753   5.809
 6125SOL     OW19273   2.617   4.139   6.847
 6125SOL    HW119274   2.678   4.154   6.926
 6125SOL    HW219275   2.576   4.048   6.854
 6126SOL     OW19276   1.011   1.939   5.122
 6126SOL    HW119277   1.093   1.985   5.087
 6126SOL    HW219278   0.985   1.979   5.210
 6127SOL     OW19279   4.214   0.260   1.613
 6127SOL    HW119280   4.252   0.192   1.551
 6127SOL    HW219281   4.193   0.344   1.563
 6128SOL     OW19282   5.334   5.236   0.921
 6128SOL    HW119283   5.310   5.140   0.931
 6128SOL    HW219284   5.348   5.277   1.012
 6129SOL     OW19285   1.158   3.625   4.055
 6129SOL    HW119286   1.255   3.614   4.035
 6129SOL    HW219287   1.147   3.662   4.147
 6130SOL     OW19288   6.044   2.445   3.002
 6130SOL    HW119289   6.036   2.376   3.074
 6130SOL    HW219290   6.138   2.477   2.996
 6131SOL     OW19291   1.131   1.855   2.780
 6131SOL    HW119292   1.229   1.851   2.803
 6131SOL    HW219293   1.095   1.762   2.771
 6132SOL     OW19294   3.650   1.716   6.584
 6132SOL    HW119295   3.634   1.618   6.597
 6132SOL    HW219296   3.656   1.761   6.673
 6133SOL     OW19297   1.754   3.106   3.297
 6133SOL    HW119298   1.678   3.135   3.355
 6133SOL    HW219299   1.806   3.186   3.266
 6134SOL     OW19300   3.887   6.870   6.922
 6134SOL    HW119301   3.883   6.846   7.019
 6134SOL    HW219302   3.892   6.786   6.868
 6135SOL     OW19303   6.819   5.805   0.865
 6135SOL    HW119304   6.914   5.828   0.889
 6135SOL    HW219305   6.756   5.857   0.923
 6136SOL     OW19306   1.388   2.814   1.424
 6136SOL    HW119307   1.303   2.765   1.403
 6136SOL    HW219308   1.466   2.754   1.408
 6137SOL     OW19309   0.662   3.942   2.534
 6137SOL    HW119310   0.731   4.009   2.507
 6137SOL    HW219311   0.613   3.911   2.453
 6138SOL     OW19312   3.947   0.050   3.066
 6138SOL    HW119313   3.965   0.143   3.096
 6138SOL    HW219314   3.848   0.032   3.070
 6139SOL     OW19315   0.390   6.977   5.663
 6139SOL    HW119316   0.298   6.982   5.624
 6139SOL    HW219317   0.405   6.886   5.702
 6140SOL     OW19318   0.510   1.149   3.008
 6140SOL    HW119319   0.502   1.199   3.094
 6140SOL    HW219320   0.551   1.209   2.939
 6141SOL     OW19321   0.668   0.303   6.193
 6141SOL    HW119322   0.732   0.323   6.118
 6141SOL    HW219323   0.692   0.215   6.234
 6142SOL     OW19324   0.817   7.011   6.139
 6142SOL    HW119325   0.791   0.068   6.185
 6142SOL    HW219326   0.916   7.010   6.124
 6143SOL     OW19327   0.104   4.323   0.740
 6143SOL    HW119328   0.141   4.328   0.832
 6143SOL    HW219329   0.165   4.370   0.676
 6144SOL     OW19330   5.012   4.930   3.392
 6144SOL    HW119331   4.920   4.903   3.362
 6144SOL    HW219332   5.013   5.027   3.416
 6145SOL     OW19333   5.717   4.586   4.578
 6145SOL    HW119334   5.807   4.583   4.533
 6145SOL    HW219335   5.656   4.646   4.527
 6146SOL     OW19336   3.307   6.070   3.793
 6146SOL    HW119337   3.338   6.075   3.888
 6146SOL    HW219338   3.350   6.143   3.740
 6147SOL     OW19339   2.014   2.505   4.647
 6147SOL    HW119340   2.108   2.514   4.614
 6147SOL    HW219341   2.008   2.540   4.740
 6148SOL     OW19342   3.906   5.461   6.359
 6148SOL    HW119343   3.967   5.508   6.296
 6148SOL    HW219344   3.883   5.522   6.435
 6149SOL     OW19345   1.993   0.248   1.769
 6149SOL    HW119346   1.984   0.324   1.834
 6149SOL    HW219347   2.021   0.166   1.819
 6150SOL     OW19348   6.109   3.976   6.768
 6150SOL    HW119349   6.081   4.072   6.772
 6150SOL    HW219350   6.091   3.939   6.677
 6151SOL     OW19351   5.236   5.318   4.344
 6151SOL    HW119352   5.248   5.358   4.253
 6151SOL    HW219353   5.323   5.282   4.377
 6152SOL     OW19354   1.237   5.462   4.509
 6152SOL    HW119355   1.330   5.495   4.529
 6152SOL    HW219356   1.202   5.414   4.589
 6153SOL     OW19357   4.922   5.096   1.157
 6153SOL    HW119358   4.955   5.159   1.088
 6153SOL    HW219359   4.880   5.147   1.232
 6154SOL     OW19360   5.483   3.006   2.927
 6154SOL    HW119361   5.556   3.048   2.872
 6154SOL    HW219362   5.394   3.031   2.888
 6155SOL     OW19363   3.137   1.336   2.723
 6155SOL    HW119364   3.137   1.268   2.797
 6155SOL    HW219365   3.046   1.377   2.716
 6156SOL     OW19366   4.351   4.759   1.876
 6156SOL    HW119367   4.273   4.748   1.814
 6156SOL    HW219368   4.376   4.670   1.914
 6157SOL     OW19369   0.960   2.166   3.311
 6157SOL    HW119370   0.907   2.163   3.227
 6157SOL    HW219371   1.019   2.247   3.311
 6158SOL     OW19372   3.230   2.063   0.073
 6158SOL    HW119373   3.205   2.039   0.167
 6158SOL    HW219374   3.327   2.085   0.069
 6159SOL     OW19375   5.277   2.759   0.848
 6159SOL    HW119376   5.363   2.725   0.811
 6159SOL    HW219377   5.280   2.859   0.852
 6160SOL     OW19378   6.911   0.104   6.673
 6160SOL    HW119379   6.894   0.116   6.575
 6160SOL    HW219380   6.824   0.102   6.722
 6161SOL     OW19381   4.978   0.947   0.361
 6161SOL    HW119382   5.044   0.940   0.286
 6161SOL    HW219383   5.022   0.990   0.440
 6162SOL     OW19384   6.232   6.027   3.822
 6162SOL    HW119385   6.157   6.085   3.789
 6162SOL    HW219386   6.258   5.962   3.751
 6163SOL     OW19387   5.367   5.907   2.407
 6163SOL    HW119388   5.338   5.897   2.502
 6163SOL    HW219389   5.428   5.832   2.383
 6164SOL     OW19390   3.585   4.088   4.839
 6164SOL    HW119391   3.629   4.037   4.913
 6164SOL    HW219392   3.486   4.087   4.852
 6165SOL     OW19393   3.549   2.002   5.671
 6165SOL    HW119394   3.469   2.057   5.647
 6165SOL    HW219395   3.581   1.952   5.590
 6166SOL     OW19396   5.897   2.004   0.364
 6166SOL    HW119397   5.883   2.064   0.286
 6166SOL    HW219398   5.810   1.989   0.411
 6167SOL     OW19399   0.342   4.709   3.146
 6167SOL    HW119400   0.249   4.746   3.150
 6167SOL    HW219401   0.360   4.655   3.228
 6168SOL     OW19402   0.818   2.751   3.080
 6168SOL    HW119403   0.851   2.663   3.045
 6168SOL    HW219404   0.773   2.737   3.168
 6169SOL     OW19405   1.178   1.171   6.665
 6169SOL    HW119406   1.183   1.128   6.575
 6169SOL    HW219407   1.142   1.264   6.656
 6170SOL     OW19408   3.039   3.993   5.621
 6170SOL    HW119409   3.106   4.036   5.683
 6170SOL    HW219410   2.961   4.055   5.610
 6171SOL     OW19411   1.507   3.339   1.440
 6171SOL    HW119412   1.569   3.416   1.427
 6171SOL    HW219413   1.418   3.361   1.400
 6172SOL     OW19414   0.298   0.962   2.509
 6172SOL    HW119415   0.350   0.888   2.466
 6172SOL    HW219416   0.360   1.017   2.565
 6173SOL     OW19417   6.927   4.533   2.778
 6173SOL    HW119418   6.911   4.442   2.816
 6173SOL    HW219419   7.009   4.573   2.820
 6174SOL     OW19420   6.134   5.213   2.963
 6174SOL    HW119421   6.118   5.300   2.917
 6174SOL    HW219422   6.147   5.141   2.895
 6175SOL     OW19423   5.398   0.268   3.849
 6175SOL    HW119424   5.399   0.364   3.820
 6175SOL    HW219425   5.369   0.211   3.772
 6176SOL     OW19426   6.045   2.721   6.988
 6176SOL    HW119427   5.964   2.721   0.019
 6176SOL    HW219428   6.054   2.811   6.945
 6177SOL     OW19429   5.788   1.271   1.103
 6177SOL    HW119430   5.804   1.370   1.105
 6177SOL    HW219431   5.690   1.252   1.101
 6178SOL     OW19432   4.404   5.467   1.775
 6178SOL    HW119433   4.318   5.518   1.779
 6178SOL    HW219434   4.449   5.469   1.864
 6179SOL     OW19435   6.852   4.366   4.859
 6179SOL    HW119436   6.827   4.342   4.765
 6179SOL    HW219437   6.949   4.392   4.862
 6180SOL     OW19438   3.058   6.551   6.136
 6180SOL    HW119439   2.987   6.564   6.066
 6180SOL    HW219440   3.138   6.606   6.113
 6181SOL     OW19441   5.142   6.268   0.786
 6181SOL    HW119442   5.085   6.216   0.723
 6181SOL    HW219443   5.086   6.335   0.835
 6182SOL     OW19444   5.315   4.106   5.619
 6182SOL    HW119445   5.412   4.109   5.596
 6182SOL    HW219446   5.290   4.189   5.670
 6183SOL     OW19447   2.845   0.073   3.417
 6183SOL    HW119448   2.905   7.022   3.401
 6183SOL    HW219449   2.750   0.042   3.422
 6184SOL     OW19450   1.697   6.450   5.999
 6184SOL    HW119451   1.648   6.474   5.915
 6184SOL    HW219452   1.631   6.437   6.073
 6185SOL     OW19453   1.530   4.551   6.828
 6185SOL    HW119454   1.430   4.546   6.832
 6185SOL    HW219455   1.557   4.621   6.762
 6186SOL     OW19456   6.014   0.012   3.995
 6186SOL    HW119457   6.000   6.999   4.086
 6186SOL    HW219458   6.083   0.084   4.002
 6187SOL     OW19459   4.742   4.195   4.383
 6187SOL    HW119460   4.814   4.221   4.318
 6187SOL    HW219461   4.660   4.248   4.363
 6188SOL     OW19462   2.205   6.336   1.257
 6188SOL    HW119463   2.171   6.271   1.324
 6188SOL    HW219464   2.290   6.302   1.216
 6189SOL     OW19465   4.474   4.525   3.793
 6189SOL    HW119466   4.392   4.549   3.845
 6189SOL    HW219467   4.523   4.451   3.839
 6190SOL     OW19468   6.242   3.916   6.224
 6190SOL    HW119469   6.144   3.923   6.208
 6190SOL    HW219470   6.291   3.988   6.175
 6191SOL     OW19471   4.809   2.617   0.249
 6191SOL    HW119472   4.726   2.669   0.272
 6191SOL    HW219473   4.809   2.531   0.300
 6192SOL     OW19474   3.453   3.330   0.241
 6192SOL    HW119475   3.489   3.256   0.184
 6192SOL    HW219476   3.503   3.332   0.328
 6193SOL     OW19477   4.779   1.153   2.955
 6193SOL    HW119478   4.807   1.112   2.868
 6193SOL    HW219479   4.782   1.083   3.027
 6194SOL     OW19480   1.731   6.685   0.079
 6194SOL    HW119481   1.816   6.716   0.036
 6194SOL    HW219482   1.750   6.657   0.174
 6195SOL     OW19483   3.640   5.598   5.663
 6195SOL    HW119484   3.548   5.575   5.632
 6195SOL    HW219485   3.685   5.655   5.594
 6196SOL     OW19486   5.472   2.249   1.352
 6196SOL    HW119487   5.538   2.258   1.277
 6196SOL    HW219488   5.437   2.155   1.354
 6197SOL     OW19489   4.402   4.109   0.540
 6197SOL    HW119490   4.356   4.024   0.568
 6197SOL    HW219491   4.358   4.187   0.585
 6198SOL     OW19492   3.276   5.574   2.385
 6198SOL    HW119493   3.241   5.667   2.395
 6198SOL    HW219494   3.217   5.509   2.433
 6199SOL     OW19495   0.618   0.009   1.075
 6199SOL    HW119496   0.631   7.022   1.173
 6199SOL    HW219497   0.525   0.042   1.058
 6200SOL     OW19498   1.994   0.942   5.793
 6200SOL    HW119499   2.061   1.000   5.746
 6200SOL    HW219500   2.024   0.847   5.787
 6201SOL     OW19501   2.036   3.825   5.500
 6201SOL    HW119502   2.007   3.774   5.419
 6201SOL    HW219503   1.983   3.795   5.579
 6202SOL     OW19504   3.994   2.015   1.527
 6202SOL    HW119505   3.907   2.038   1.571
 6202SOL    HW219506   4.020   1.921   1.550
 6203SOL     OW19507   5.324   6.882   3.455
 6203SOL    HW119508   5.317   6.981   3.451
 6203SOL    HW219509   5.300   6.843   3.365
 6204SOL     OW19510   0.649   5.147   5.578
 6204SOL    HW119511   0.572   5.152   5.642
 6204SOL    HW219512   0.664   5.237   5.537
 6205SOL     OW19513   5.485   6.476   0.170
 6205SOL    HW119514   5.447   6.394   0.211
 6205SOL    HW219515   5.553   6.451   0.101
 6206SOL     OW19516   6.447   0.355   2.911
 6206SOL    HW119517   6.347   0.360   2.913
 6206SOL    HW219518   6.480   0.395   2.825
 6207SOL     OW19519   1.317   4.244   4.371
 6207SOL    HW119520   1.320   4.192   4.286
 6207SOL    HW219521   1.410   4.274   4.396
 6208SOL     OW19522   6.125   0.794   6.830
 6208SOL    HW119523   6.224   0.806   6.840
 6208SOL    HW219524   6.088   0.872   6.779
 6209SOL     OW19525   4.901   5.601   6.969
 6209SOL    HW119526   4.821   5.560   6.924
 6209SOL    HW219527   4.941   5.534   0.004
 6210SOL     OW19528   6.034   4.946   3.378
 6210SOL    HW119529   5.984   4.984   3.301
 6210SOL    HW219530   5.970   4.916   3.449
 6211SOL     OW19531   3.387   6.583   4.341
 6211SOL    HW119532   3.319   6.536   4.285
 6211SOL    HW219533   3.416   6.522   4.415
 6212SOL     OW19534   2.013   5.193   3.014
 6212SOL    HW119535   2.093   5.220   2.961
 6212SOL    HW219536   1.935   5.180   2.953
 6213SOL     OW19537   5.174   0.223   6.836
 6213SOL    HW119538   5.112   0.296   6.809
 6213SOL    HW219539   5.228   0.253   6.915
 6214SOL     OW19540   5.500   4.907   2.974
 6214SOL    HW119541   5.440   4.886   3.052
 6214SOL    HW219542   5.594   4.884   2.997
 6215SOL     OW19543   4.097   1.912   6.676
 6215SOL    HW119544   4.027   1.877   6.738
 6215SOL    HW219545   4.097   2.012   6.679
 6216SOL     OW19546   6.900   2.609   2.355
 6216SOL    HW119547   6.997   2.625   2.370
 6216SOL    HW219548   6.884   2.512   2.339
 6217SOL     OW19549   6.821   2.782   2.559
 6217SOL    HW119550   6.875   2.863   2.584
 6217SOL    HW219551   6.876   2.722   2.500
 6218SOL     OW19552   3.381   5.562   4.978
 6218SOL    HW119553   3.338   5.483   5.023
 6218SOL    HW219554   3.373   5.552   4.879
 6219SOL     OW19555   1.145   1.699   4.554
 6219SOL    HW119556   1.157   1.794   4.583
 6219SOL    HW219557   1.131   1.641   4.634
 6220SOL     OW19558   1.130   3.334   5.486
 6220SOL    HW119559   1.183   3.416   5.465
 6220SOL    HW219560   1.167   3.257   5.435
 6221SOL     OW19561   6.264   6.091   6.585
 6221SOL    HW119562   6.228   6.001   6.607
 6221SOL    HW219563   6.192   6.160   6.593
 6222SOL     OW19564   0.669   6.486   1.148
 6222SOL    HW119565   0.581   6.532   1.163
 6222SOL    HW219566   0.722   6.488   1.233
 6223SOL     OW19567   0.024   4.143   4.827
 6223SOL    HW119568   0.072   4.056   4.837
 6223SOL    HW219569   6.957   4.126   4.801
 6224SOL     OW19570   2.139   1.744   6.257
 6224SOL    HW119571   2.064   1.808   6.243
 6224SOL    HW219572   2.212   1.789   6.308
 6225SOL     OW19573   3.281   3.165   1.138
 6225SOL    HW119574   3.312   3.197   1.227
 6225SOL    HW219575   3.359   3.155   1.077
 6226SOL     OW19576   5.351   2.186   4.710
 6226SOL    HW119577   5.411   2.168   4.787
 6226SOL    HW219578   5.337   2.101   4.658
 6227SOL     OW19579   3.590   5.647   6.329
 6227SOL    HW119580   3.633   5.565   6.289
 6227SOL    HW219581   3.621   5.657   6.424
 6228SOL     OW19582   0.158   3.118   2.403
 6228SOL    HW119583   0.225   3.089   2.471
 6228SOL    HW219584   0.150   3.218   2.405
 6229SOL     OW19585   0.754   2.963   2.339
 6229SOL    HW119586   0.828   3.026   2.321
 6229SOL    HW219587   0.755   2.889   2.271
 6230SOL     OW19588   1.401   0.986   4.029
 6230SOL    HW119589   1.354   1.065   4.068
 6230SOL    HW219590   1.383   0.983   3.930
 6231SOL     OW19591   6.868   4.575   1.484
 6231SOL    HW119592   6.947   4.515   1.475
 6231SOL    HW219593   6.897   4.664   1.519
 6232SOL     OW19594   6.144   2.006   1.121
 6232SOL    HW119595   6.144   1.942   1.198
 6232SOL    HW219596   6.103   1.961   1.041
 6233SOL     OW19597   5.593   0.968   6.901
 6233SOL    HW119598   5.532   1.047   6.896
 6233SOL    HW219599   5.546   0.893   6.947
 6234SOL     OW19600   6.703   1.358   5.791
 6234SOL    HW119601   6.672   1.447   5.759
 6234SOL    HW219602   6.749   1.310   5.717
 6235SOL     OW19603   1.175   0.194   2.152
 6235SOL    HW119604   1.253   0.145   2.114
 6235SOL    HW219605   1.140   0.144   2.232
 6236SOL     OW19606   1.009   4.913   0.474
 6236SOL    HW119607   0.986   4.830   0.424
 6236SOL    HW219608   0.957   4.990   0.437
 6237SOL     OW19609   3.208   6.153   6.887
 6237SOL    HW119610   3.132   6.095   6.916
 6237SOL    HW219611   3.290   6.127   6.938
 6238SOL     OW19612   3.839   4.853   2.973
 6238SOL    HW119613   3.893   4.877   3.053
 6238SOL    HW219614   3.849   4.925   2.903
 6239SOL     OW19615   2.972   6.604   1.747
 6239SOL    HW119616   2.880   6.567   1.733
 6239SOL    HW219617   2.967   6.703   1.754
 6240SOL     OW19618   3.146   2.827   6.463
 6240SOL    HW119619   3.161   2.839   6.365
 6240SOL    HW219620   3.054   2.860   6.486
 6241SOL     OW19621   2.543   0.682   2.078
 6241SOL    HW119622   2.453   0.668   2.120
 6241SOL    HW219623   2.531   0.727   1.990
 6242SOL     OW19624   5.219   0.396   3.565
 6242SOL    HW119625   5.176   0.444   3.488
 6242SOL    HW219626   5.284   0.456   3.610
 6243SOL     OW19627   5.498   6.665   3.491
 6243SOL    HW119628   5.471   6.761   3.502
 6243SOL    HW219629   5.422   6.606   3.519
 6244SOL     OW19630   1.608   2.578   2.091
 6244SOL    HW119631   1.592   2.528   2.005
 6244SOL    HW219632   1.566   2.528   2.167
 6245SOL     OW19633   1.765   5.130   0.990
 6245SOL    HW119634   1.768   5.040   0.945
 6245SOL    HW219635   1.844   5.138   1.051
 6246SOL     OW19636   1.861   2.949   5.930
 6246SOL    HW119637   1.953   2.973   5.898
 6246SOL    HW219638   1.825   3.023   5.987
 6247SOL     OW19639   0.958   6.494   3.740
 6247SOL    HW119640   0.947   6.558   3.664
 6247SOL    HW219641   0.923   6.536   3.824
 6248SOL     OW19642   2.863   3.853   1.103
 6248SOL    HW119643   2.926   3.778   1.082
 6248SOL    HW219644   2.788   3.818   1.160
 6249SOL     OW19645   0.863   4.130   0.344
 6249SOL    HW119646   0.916   4.048   0.320
 6249SOL    HW219647   0.857   4.190   0.264
 6250SOL     OW19648   6.666   6.022   0.264
 6250SOL    HW119649   6.615   6.007   0.179
 6250SOL    HW219650   6.704   5.935   0.295
 6251SOL     OW19651   3.449   6.357   6.954
 6251SOL    HW119652   3.509   6.417   7.007
 6251SOL    HW219653   3.356   6.394   6.954
 6252SOL     OW19654   1.638   6.794   5.578
 6252SOL    HW119655   1.694   6.803   5.660
 6252SOL    HW219656   1.672   6.856   5.507
 6253SOL     OW19657   2.149   3.782   2.765
 6253SOL    HW119658   2.215   3.708   2.777
 6253SOL    HW219659   2.162   3.825   2.676
 6254SOL     OW19660   4.889   1.193   0.881
 6254SOL    HW119661   4.833   1.230   0.955
 6254SOL    HW219662   4.834   1.183   0.798
 6255SOL     OW19663   2.405   1.249   1.366
 6255SOL    HW119664   2.384   1.206   1.278
 6255SOL    HW219665   2.346   1.328   1.379
 6256SOL     OW19666   3.336   5.579   3.018
 6256SOL    HW119667   3.429   5.587   2.984
 6256SOL    HW219668   3.287   5.665   3.003
 6257SOL     OW19669   5.113   2.277   1.227
 6257SOL    HW119670   5.146   2.289   1.133
 6257SOL    HW219671   5.128   2.182   1.255
 6258SOL     OW19672   4.644   0.433   3.821
 6258SOL    HW119673   4.581   0.440   3.744
 6258SOL    HW219674   4.737   0.453   3.790
 6259SOL     OW19675   2.822   2.538   0.552
 6259SOL    HW119676   2.742   2.599   0.551
 6259SOL    HW219677   2.821   2.484   0.637
 6260SOL     OW19678   2.624   4.824   0.143
 6260SOL    HW119679   2.634   4.740   0.090
 6260SOL    HW219680   2.702   4.835   0.204
 6261SOL     OW19681   3.644   0.282   6.543
 6261SOL    HW119682   3.591   0.228   6.478
 6261SOL    HW219683   3.583   0.321   6.612
 6262SOL     OW19684   1.727   4.369   1.045
 6262SOL    HW119685   1.692   4.287   1.000
 6262SOL    HW219686   1.654   4.409   1.101
 6263SOL     OW19687   0.179   0.831   5.864
 6263SOL    HW119688   0.210   0.857   5.956
 6263SOL    HW219689   0.189   0.733   5.852
 6264SOL     OW19690   1.474   6.905   0.839
 6264SOL    HW119691   1.492   6.836   0.909
 6264SOL    HW219692   1.408   6.869   0.772
 6265SOL     OW19693   3.475   4.274   0.735
 6265SOL    HW119694   3.480   4.219   0.818
 6265SOL    HW219695   3.396   4.335   0.740
 6266SOL     OW19696   4.411   0.238   4.638
 6266SOL    HW119697   4.325   0.289   4.647
 6266SOL    HW219698   4.390   0.142   4.621
 6267SOL     OW19699   2.739   0.255   7.011
 6267SOL    HW119700   2.744   0.351   0.010
 6267SOL    HW219701   2.707   0.200   0.060
 6268SOL     OW19702   3.444   6.385   3.304
 6268SOL    HW119703   3.456   6.286   3.302
 6268SOL    HW219704   3.350   6.407   3.330
 6269SOL     OW19705   6.759   6.004   2.096
 6269SOL    HW119706   6.825   6.066   2.054
 6269SOL    HW219707   6.715   5.948   2.025
 6270SOL     OW19708   1.645   6.952   5.272
 6270SOL    HW119709   1.721   7.013   5.296
 6270SOL    HW219710   1.567   7.007   5.241
 6271SOL     OW19711   5.866   2.230   5.638
 6271SOL    HW119712   5.846   2.147   5.689
 6271SOL    HW219713   5.816   2.230   5.551
 6272SOL     OW19714   1.059   2.969   6.033
 6272SOL    HW119715   1.048   3.066   6.057
 6272SOL    HW219716   0.989   2.915   6.080
 6273SOL     OW19717   1.687   0.539   2.483
 6273SOL    HW119718   1.746   0.495   2.416
 6273SOL    HW219719   1.662   0.631   2.451
 6274SOL     OW19720   2.329   5.570   6.010
 6274SOL    HW119721   2.262   5.589   5.939
 6274SOL    HW219722   2.420   5.598   5.979
 6275SOL     OW19723   2.003   6.296   4.934
 6275SOL    HW119724   2.092   6.325   4.969
 6275SOL    HW219725   1.992   6.326   4.839
 6276SOL     OW19726   1.751   5.197   4.177
 6276SOL    HW119727   1.711   5.120   4.227
 6276SOL    HW219728   1.851   5.195   4.188
 6277SOL     OW19729   5.219   3.347   1.529
 6277SOL    HW119730   5.289   3.283   1.500
 6277SOL    HW219731   5.260   3.438   1.539
 6278SOL     OW19732   4.861   6.790   4.554
 6278SOL    HW119733   4.909   6.826   4.634
 6278SOL    HW219734   4.829   6.865   4.497
 6279SOL     OW19735   3.636   0.570   6.499
 6279SOL    HW119736   3.681   0.637   6.558
 6279SOL    HW219737   3.641   0.479   6.540
 6280SOL     OW19738   0.850   2.139   6.021
 6280SOL    HW119739   0.943   2.143   5.983
 6280SOL    HW219740   0.812   2.231   6.024
 6281SOL     OW19741   1.493   5.687   4.267
 6281SOL    HW119742   1.591   5.705   4.269
 6281SOL    HW219743   1.472   5.623   4.193
 6282SOL     OW19744   1.134   0.849   4.731
 6282SOL    HW119745   1.037   0.857   4.709
 6282SOL    HW219746   1.159   0.753   4.734
 6283SOL     OW19747   6.437   3.222   5.521
 6283SOL    HW119748   6.453   3.254   5.614
 6283SOL    HW219749   6.348   3.253   5.489
 6284SOL     OW19750   2.312   5.583   5.128
 6284SOL    HW119751   2.367   5.611   5.207
 6284SOL    HW219752   2.244   5.653   5.108
 6285SOL     OW19753   0.958   2.824   3.525
 6285SOL    HW119754   0.941   2.787   3.617
 6285SOL    HW219755   0.925   2.760   3.456
 6286SOL     OW19756   6.631   1.850   3.907
 6286SOL    HW119757   6.683   1.920   3.858
 6286SOL    HW219758   6.670   1.760   3.886
 6287SOL     OW19759   4.255   5.061   2.925
 6287SOL    HW119760   4.329   5.121   2.954
 6287SOL    HW219761   4.280   4.966   2.943
 6288SOL     OW19762   6.156   4.719   2.426
 6288SOL    HW119763   6.216   4.660   2.373
 6288SOL    HW219764   6.209   4.764   2.498
 6289SOL     OW19765   1.279   4.849   2.547
 6289SOL    HW119766   1.341   4.915   2.590
 6289SOL    HW219767   1.295   4.849   2.448
 6290SOL     OW19768   6.118   3.604   4.190
 6290SOL    HW119769   6.196   3.654   4.228
 6290SOL    HW219770   6.142   3.507   4.183
 6291SOL     OW19771   3.654   3.373   4.128
 6291SOL    HW119772   3.708   3.329   4.057
 6291SOL    HW219773   3.661   3.472   4.120
 6292SOL     OW19774   1.619   2.253   3.721
 6292SOL    HW119775   1.593   2.321   3.789
 6292SOL    HW219776   1.685   2.293   3.657
 6293SOL     OW19777   3.862   0.255   0.062
 6293SOL    HW119778   3.839   0.176   0.119
 6293SOL    HW219779   3.865   0.337   0.118
 6294SOL     OW19780   3.561   4.897   3.683
 6294SOL    HW119781   3.619   4.978   3.690
 6294SOL    HW219782   3.618   4.816   3.675
 6295SOL     OW19783   5.067   5.085   5.217
 6295SOL    HW119784   5.046   4.988   5.212
 6295SOL    HW219785   5.000   5.131   5.275
 6296SOL     OW19786   0.050   6.787   4.966
 6296SOL    HW119787   0.147   6.773   4.987
 6296SOL    HW219788   0.003   6.824   5.046
 6297SOL     OW19789   4.821   0.305   5.509
 6297SOL    HW119790   4.782   0.276   5.597
 6297SOL    HW219791   4.860   0.225   5.463
 6298SOL     OW19792   1.519   2.718   5.596
 6298SOL    HW119793   1.535   2.633   5.546
 6298SOL    HW219794   1.603   2.772   5.598
 6299SOL     OW19795   4.993   1.434   0.350
 6299SOL    HW119796   4.943   1.421   0.265
 6299SOL    HW219797   5.081   1.386   0.344
 6300SOL     OW19798   5.235   0.624   5.879
 6300SOL    HW119799   5.291   0.629   5.796
 6300SOL    HW219800   5.198   0.531   5.889
 6301SOL     OW19801   3.171   0.811   1.314
 6301SOL    HW119802   3.156   0.725   1.266
 6301SOL    HW219803   3.269   0.833   1.313
 6302SOL     OW19804   1.475   1.540   4.030
 6302SOL    HW119805   1.451   1.524   3.935
 6302SOL    HW219806   1.540   1.616   4.036
 6303SOL     OW19807   2.291   1.105   4.692
 6303SOL    HW119808   2.201   1.090   4.734
 6303SOL    HW219809   2.360   1.114   4.764
 6304SOL     OW19810   2.313   1.286   0.541
 6304SOL    HW119811   2.297   1.193   0.575
 6304SOL    HW219812   2.298   1.351   0.615
 6305SOL     OW19813   6.321   6.825   0.961
 6305SOL    HW119814   6.385   6.850   1.034
 6305SOL    HW219815   6.256   6.899   0.946
 6306SOL     OW19816   1.431   3.804   4.319
 6306SOL    HW119817   1.499   3.743   4.279
 6306SOL    HW219818   1.462   3.899   4.309
 6307SOL     OW19819   3.902   3.948   5.775
 6307SOL    HW119820   3.858   3.991   5.696
 6307SOL    HW219821   3.991   3.911   5.748
 6308SOL     OW19822   1.809   1.494   4.511
 6308SOL    HW119823   1.798   1.587   4.476
 6308SOL    HW219824   1.865   1.497   4.594
 6309SOL     OW19825   4.883   3.955   4.469
 6309SOL    HW119826   4.796   3.999   4.447
 6309SOL    HW219827   4.924   4.001   4.548
 6310SOL     OW19828   1.963   5.590   3.596
 6310SOL    HW119829   1.955   5.504   3.545
 6310SOL    HW219830   1.936   5.575   3.691
 6311SOL     OW19831   5.624   0.201   5.653
 6311SOL    HW119832   5.535   0.231   5.689
 6311SOL    HW219833   5.671   0.279   5.611
 6312SOL     OW19834   6.010   5.257   5.681
 6312SOL    HW119835   5.929   5.245   5.623
 6312SOL    HW219836   6.090   5.274   5.623
 6313SOL     OW19837   1.719   5.810   3.220
 6313SOL    HW119838   1.708   5.798   3.319
 6313SOL    HW219839   1.638   5.775   3.174
 6314SOL     OW19840   4.031   6.355   1.518
 6314SOL    HW119841   4.083   6.305   1.588
 6314SOL    HW219842   3.956   6.405   1.562
 6315SOL     OW19843   3.629   2.761   5.873
 6315SOL    HW119844   3.605   2.696   5.946
 6315SOL    HW219845   3.672   2.841   5.914
 6316SOL     OW19846   4.878   2.083   6.425
 6316SOL    HW119847   4.808   2.130   6.371
 6316SOL    HW219848   4.853   2.086   6.522
 6317SOL     OW19849   5.060   5.343   3.633
 6317SOL    HW119850   5.107   5.432   3.638
 6317SOL    HW219851   5.112   5.282   3.574
 6318SOL     OW19852   3.020   2.045   4.665
 6318SOL    HW119853   3.094   2.086   4.611
 6318SOL    HW219854   2.969   1.980   4.609
 6319SOL     OW19855   0.449   2.310   3.465
 6319SOL    HW119856   0.547   2.300   3.484
 6319SOL    HW219857   0.398   2.242   3.518
 6320SOL     OW19858   5.863   4.556   5.206
 6320SOL    HW119859   5.885   4.653   5.200
 6320SOL    HW219860   5.766   4.542   5.189
 6321SOL     OW19861   3.171   4.751   1.118
 6321SOL    HW119862   3.114   4.669   1.117
 6321SOL    HW219863   3.267   4.725   1.121
 6322SOL     OW19864   1.781   2.261   6.871
 6322SOL    HW119865   1.846   2.328   6.907
 6322SOL    HW219866   1.805   2.170   6.906
 6323SOL     OW19867   3.404   2.863   1.357
 6323SOL    HW119868   3.397   2.774   1.403
 6323SOL    HW219869   3.316   2.911   1.364
 6324SOL     OW19870   5.095   0.017   6.651
 6324SOL    HW119871   5.097   0.089   6.721
 6324SOL    HW219872   5.188   7.015   6.631
 6325SOL     OW19873   2.037   2.015   2.364
 6325SOL    HW119874   1.959   1.965   2.404
 6325SOL    HW219875   2.050   2.101   2.413
 6326SOL     OW19876   4.678   5.878   2.097
 6326SOL    HW119877   4.639   5.967   2.071
 6326SOL    HW219878   4.767   5.867   2.054
 6327SOL     OW19879   0.238   0.734   5.458
 6327SOL    HW119880   0.225   0.661   5.392
 6327SOL    HW219881   0.293   0.701   5.535
 6328SOL     OW19882   2.370   3.995   0.651
 6328SOL    HW119883   2.419   3.921   0.604
 6328SOL    HW219884   2.380   4.080   0.600
 6329SOL     OW19885   2.454   2.606   2.885
 6329SOL    HW119886   2.366   2.586   2.841
 6329SOL    HW219887   2.521   2.537   2.857
 6330SOL     OW19888   4.711   0.930   1.486
 6330SOL    HW119889   4.720   1.029   1.499
 6330SOL    HW219890   4.784   0.883   1.537
 6331SOL     OW19891   6.149   2.245   0.096
 6331SOL    HW119892   6.225   2.262   0.158
 6331SOL    HW219893   6.068   2.220   0.148
 6332SOL     OW19894   6.805   3.707   2.107
 6332SOL    HW119895   6.720   3.728   2.058
 6332SOL    HW219896   6.856   3.792   2.124
 6333SOL     OW19897   4.138   4.801   4.409
 6333SOL    HW119898   4.118   4.876   4.345
 6333SOL    HW219899   4.065   4.795   4.477
 6334SOL     OW19900   2.499   0.147   2.323
 6334SOL    HW119901   2.534   0.240   2.339
 6334SOL    HW219902   2.400   0.146   2.338
 6335SOL     OW19903   4.556   1.444   0.363
 6335SOL    HW119904   4.627   1.381   0.332
 6335SOL    HW219905   4.478   1.391   0.397
 6336SOL     OW19906   0.228   1.879   6.351
 6336SOL    HW119907   0.233   1.872   6.451
 6336SOL    HW219908   0.181   1.964   6.326
 6337SOL     OW19909   4.736   4.233   6.154
 6337SOL    HW119910   4.719   4.242   6.056
 6337SOL    HW219911   4.693   4.309   6.203
 6338SOL     OW19912   3.121   2.187   2.586
 6338SOL    HW119913   3.124   2.119   2.659
 6338SOL    HW219914   3.214   2.219   2.565
 6339SOL     OW19915   0.847   2.964   2.912
 6339SOL    HW119916   0.807   2.891   2.968
 6339SOL    HW219917   0.815   3.053   2.944
 6340SOL     OW19918   1.692   4.826   2.703
 6340SOL    HW119919   1.602   4.783   2.707
 6340SOL    HW219920   1.760   4.764   2.743
 6341SOL     OW19921   0.716   4.410   3.955
 6341SOL    HW119922   0.753   4.496   3.990
 6341SOL    HW219923   0.674   4.425   3.866
 6342SOL     OW19924   2.685   1.914   1.941
 6342SOL    HW119925   2.721   2.003   1.911
 6342SOL    HW219926   2.761   1.856   1.971
 6343SOL     OW19927   5.216   2.285   6.776
 6343SOL    HW119928   5.193   2.302   6.680
 6343SOL    HW219929   5.275   2.358   6.810
 6344SOL     OW19930   5.946   3.448   5.685
 6344SOL    HW119931   5.963   3.393   5.604
 6344SOL    HW219932   5.942   3.545   5.659
 6345SOL     OW19933   4.486   1.805   2.054
 6345SOL    HW119934   4.505   1.758   1.968
 6345SOL    HW219935   4.528   1.896   2.052
 6346SOL     OW19936   6.853   3.683   3.623
 6346SOL    HW119937   6.823   3.675   3.528
 6346SOL    HW219938   6.917   3.759   3.632
 6347SOL     OW19939   2.035   0.500   1.481
 6347SOL    HW119940   2.044   0.588   1.433
 6347SOL    HW219941   2.123   0.454   1.484
 6348SOL     OW19942   1.342   4.220   5.009
 6348SOL    HW119943   1.418   4.156   5.023
 6348SOL    HW219944   1.323   4.228   4.911
 6349SOL     OW19945   3.494   6.794   1.215
 6349SOL    HW119946   3.419   6.732   1.238
 6349SOL    HW219947   3.477   6.836   1.126
 6350SOL     OW19948   2.722   4.742   3.957
 6350SOL    HW119949   2.637   4.758   4.008
 6350SOL    HW219950   2.783   4.819   3.969
 6351SOL     OW19951   6.387   3.218   2.764
 6351SOL    HW119952   6.375   3.263   2.676
 6351SOL    HW219953   6.473   3.166   2.763
 6352SOL     OW19954   2.327   5.109   4.571
 6352SOL    HW119955   2.384   5.166   4.630
 6352SOL    HW219956   2.301   5.026   4.620
 6353SOL     OW19957   6.683   1.163   6.393
 6353SOL    HW119958   6.734   1.100   6.334
 6353SOL    HW219959   6.589   1.129   6.404
 6354SOL     OW19960   1.542   0.406   2.776
 6354SOL    HW119961   1.455   0.446   2.806
 6354SOL    HW219962   1.524   0.340   2.704
 6355SOL     OW19963   1.486   5.367   6.085
 6355SOL    HW119964   1.521   5.461   6.078
 6355SOL    HW219965   1.430   5.359   6.168
 6356SOL     OW19966   4.005   5.035   2.835
 6356SOL    HW119967   4.101   5.028   2.861
 6356SOL    HW219968   3.977   5.131   2.834
 6357SOL     OW19969   5.274   2.700   1.917
 6357SOL    HW119970   5.248   2.787   1.959
 6357SOL    HW219971   5.373   2.701   1.898
 6358SOL     OW19972   1.280   1.978   6.008
 6358SOL    HW119973   1.262   2.043   5.935
 6358SOL    HW219974   1.367   2.002   6.052
 6359SOL     OW19975   6.463   7.027   5.791
 6359SOL    HW119976   6.464   0.053   5.707
 6359SOL    HW219977   6.557   7.014   5.824
 6360SOL     OW19978   1.923   3.868   4.322
 6360SOL    HW119979   1.863   3.826   4.390
 6360SOL    HW219980   2.005   3.903   4.367
 6361SOL     OW19981   6.276   0.048   0.473
 6361SOL    HW119982   6.306   6.980   0.476
 6361SOL    HW219983   6.356   0.108   0.472
 6362SOL     OW19984   6.430   5.436   6.448
 6362SOL    HW119985   6.404   5.353   6.397
 6362SOL    HW219986   6.360   5.457   6.516
 6363SOL     OW19987   1.950   4.535   3.226
 6363SOL    HW119988   1.881   4.505   3.291
 6363SOL    HW219989   1.998   4.455   3.189
 6364SOL     OW19990   3.249   1.373   5.721
 6364SOL    HW119991   3.156   1.399   5.749
 6364SOL    HW219992   3.267   1.279   5.750
 6365SOL     OW19993   5.381   6.575   4.573
 6365SOL    HW119994   5.323   6.654   4.552
 6365SOL    HW219995   5.472   6.607   4.599
 6366SOL     OW19996   0.804   5.886   6.421
 6366SOL    HW119997   0.846   5.845   6.340
 6366SOL    HW219998   0.785   5.982   6.405
 6367SOL     OW19999   3.554   0.472   4.122
 6367SOL    HW120000   3.551   0.548   4.187
 6367SOL    HW220001   3.614   0.495   4.046
 6368SOL     OW20002   3.687   6.836   3.582
 6368SOL    HW120003   3.683   6.933   3.558
 6368SOL    HW220004   3.730   6.826   3.671
 6369SOL     OW20005   2.727   4.977   4.805
 6369SOL    HW120006   2.823   4.993   4.825
 6369SOL    HW220007   2.670   5.032   4.865
 6370SOL     OW20008   1.058   3.397   2.545
 6370SOL    HW120009   1.014   3.369   2.630
 6370SOL    HW220010   1.002   3.466   2.499
 6371SOL     OW20011   5.035   3.325   3.774
 6371SOL    HW120012   4.981   3.248   3.808
 6371SOL    HW220013   5.038   3.397   3.844
 6372SOL     OW20014   3.403   0.169   1.696
 6372SOL    HW120015   3.419   0.267   1.691
 6372SOL    HW220016   3.489   0.120   1.678
 6373SOL     OW20017   5.585   4.480   3.634
 6373SOL    HW120018   5.523   4.507   3.560
 6373SOL    HW220019   5.649   4.555   3.652
 6374SOL     OW20020   3.562   3.989   4.170
 6374SOL    HW120021   3.517   4.043   4.242
 6374SOL    HW220022   3.652   3.960   4.202
 6375SOL     OW20023   0.266   1.758   4.061
 6375SOL    HW120024   0.241   1.663   4.076
 6375SOL    HW220025   0.204   1.818   4.112
 6376SOL     OW20026   6.236   2.558   5.444
 6376SOL    HW120027   6.295   2.495   5.495
 6376SOL    HW220028   6.161   2.507   5.403
 6377SOL     OW20029   6.530   1.797   5.476
 6377SOL    HW120030   6.623   1.835   5.477
 6377SOL    HW220031   6.497   1.793   5.382
 6378SOL     OW20032   5.373   4.839   3.228
 6378SOL    HW120033   5.308   4.785   3.281
 6378SOL    HW220034   5.436   4.886   3.291
 6379SOL     OW20035   2.315   4.321   4.323
 6379SOL    HW120036   2.304   4.234   4.277
 6379SOL    HW220037   2.321   4.307   4.422
 6380SOL     OW20038   0.445   1.597   6.017
 6380SOL    HW120039   0.534   1.560   5.989
 6380SOL    HW220040   0.374   1.528   6.001
 6381SOL     OW20041   3.786   3.338   2.044
 6381SOL    HW120042   3.710   3.399   2.019
 6381SOL    HW220043   3.842   3.382   2.114
 6382SOL     OW20044   1.428   2.733   0.727
 6382SOL    HW120045   1.382   2.665   0.671
 6382SOL    HW220046   1.359   2.792   0.770
 6383SOL     OW20047   2.033   2.308   2.497
 6383SOL    HW120048   2.064   2.378   2.433
 6383SOL    HW220049   2.063   2.332   2.590
 6384SOL     OW20050   5.515   4.117   1.270
 6384SOL    HW120051   5.554   4.047   1.329
 6384SOL    HW220052   5.476   4.074   1.188
 6385SOL     OW20053   6.693   4.366   4.496
 6385SOL    HW120054   6.647   4.346   4.582
 6385SOL    HW220055   6.786   4.329   4.497
 6386SOL     OW20056   2.547   4.413   6.038
 6386SOL    HW120057   2.621   4.448   6.095
 6386SOL    HW220058   2.577   4.329   5.992
 6387SOL     OW20059   0.679   1.525   6.620
 6387SOL    HW120060   0.592   1.565   6.649
 6387SOL    HW220061   0.754   1.581   6.655
 6388SOL     OW20062   4.058   4.936   1.451
 6388SOL    HW120063   4.153   4.911   1.437
 6388SOL    HW220064   4.052   5.012   1.515
 6389SOL     OW20065   0.982   6.020   2.518
 6389SOL    HW120066   1.029   6.015   2.430
 6389SOL    HW220067   0.928   5.937   2.532
 6390SOL     OW20068   1.512   2.018   4.630
 6390SOL    HW120069   1.460   1.936   4.608
 6390SOL    HW220070   1.530   2.022   4.729
 6391SOL     OW20071   3.198   0.005   5.758
 6391SOL    HW120072   3.270   6.973   5.793
 6391SOL    HW220073   3.119   6.979   5.732
 6392SOL     OW20074   2.300   0.081   3.653
 6392SOL    HW120075   2.276   0.170   3.615
 6392SOL    HW220076   2.399   0.072   3.657
 6393SOL     OW20077   6.109   6.534   1.491
 6393SOL    HW120078   6.168   6.488   1.556
 6393SOL    HW220079   6.158   6.611   1.449
 6394SOL     OW20080   2.214   4.778   0.832
 6394SOL    HW120081   2.202   4.735   0.742
 6394SOL    HW220082   2.166   4.865   0.834
 6395SOL     OW20083   5.971   2.538   1.495
 6395SOL    HW120084   6.027   2.455   1.495
 6395SOL    HW220085   6.020   2.610   1.446
 6396SOL     OW20086   5.406   2.875   6.627
 6396SOL    HW120087   5.330   2.917   6.676
 6396SOL    HW220088   5.484   2.937   6.627
 6397SOL     OW20089   5.760   2.339   6.568
 6397SOL    HW120090   5.706   2.269   6.614
 6397SOL    HW220091   5.846   2.353   6.617
 6398SOL     OW20092   3.383   0.524   0.681
 6398SOL    HW120093   3.302   0.546   0.626
 6398SOL    HW220094   3.389   0.425   0.692
 6399SOL     OW20095   1.654   4.831   6.669
 6399SOL    HW120096   1.636   4.852   6.765
 6399SOL    HW220097   1.739   4.877   6.641
 6400SOL     OW20098   1.893   5.716   2.787
 6400SOL    HW120099   1.979   5.678   2.820
 6400SOL    HW220100   1.869   5.674   2.699
 6401SOL     OW20101   6.675   4.470   3.926
 6401SOL    HW120102   6.727   4.533   3.983
 6401SOL    HW220103   6.705   4.478   3.831
 6402SOL     OW20104   3.566   1.041   2.983
 6402SOL    HW120105   3.553   1.133   2.946
 6402SOL    HW220106   3.486   1.014   3.036
 6403SOL     OW20107   0.550   6.370   6.578
 6403SOL    HW120108   0.481   6.425   6.626
 6403SOL    HW220109   0.507   6.326   6.499
 6404SOL     OW20110   3.881   1.121   3.121
 6404SOL    HW120111   3.876   1.220   3.133
 6404SOL    HW220112   3.844   1.096   3.032
 6405SOL     OW20113   1.803   0.982   3.407
 6405SOL    HW120114   1.844   1.043   3.475
 6405SOL    HW220115   1.853   0.989   3.321
 6406SOL     OW20116   1.994   2.437   3.451
 6406SOL    HW120117   2.054   2.483   3.385
 6406SOL    HW220118   1.984   2.494   3.533
 6407SOL     OW20119   3.105   0.420   3.083
 6407SOL    HW120120   3.023   0.368   3.058
 6407SOL    HW220121   3.110   0.429   3.182
 6408SOL     OW20122   6.005   2.299   6.688
 6408SOL    HW120123   6.041   2.366   6.753
 6408SOL    HW220124   6.028   2.207   6.718
 6409SOL     OW20125   0.348   4.326   3.015
 6409SOL    HW120126   0.347   4.258   2.942
 6409SOL    HW220127   0.391   4.410   2.983
 6410SOL     OW20128   1.940   1.139   0.322
 6410SOL    HW120129   2.010   1.207   0.299
 6410SOL    HW220130   1.886   1.173   0.399
 6411SOL     OW20131   0.086   2.835   3.079
 6411SOL    HW120132   0.142   2.814   3.159
 6411SOL    HW220133   0.142   2.831   2.997
 6412SOL     OW20134   0.062   2.942   5.581
 6412SOL    HW120135   0.033   2.995   5.660
 6412SOL    HW220136   0.010   2.972   5.500
 6413SOL     OW20137   5.196   4.695   3.031
 6413SOL    HW120138   5.218   4.670   2.937
 6413SOL    HW220139   5.265   4.758   3.066
 6414SOL     OW20140   6.116   0.574   1.691
 6414SOL    HW120141   6.112   0.541   1.786
 6414SOL    HW220142   6.211   0.590   1.666
 6415SOL     OW20143   2.474   2.380   2.529
 6415SOL    HW120144   2.466   2.406   2.432
 6415SOL    HW220145   2.570   2.367   2.552
 6416SOL     OW20146   1.291   1.364   5.827
 6416SOL    HW120147   1.237   1.387   5.746
 6416SOL    HW220148   1.241   1.297   5.882
 6417SOL     OW20149   7.021   4.648   2.402
 6417SOL    HW120150   6.990   4.553   2.414
 6417SOL    HW220151   0.011   4.665   2.306
 6418SOL     OW20152   5.702   4.506   2.010
 6418SOL    HW120153   5.664   4.414   2.001
 6418SOL    HW220154   5.640   4.572   1.966
 6419SOL     OW20155   2.200   5.092   2.414
 6419SOL    HW120156   2.266   5.096   2.339
 6419SOL    HW220157   2.121   5.149   2.392
 6420SOL     OW20158   2.601   3.394   5.825
 6420SOL    HW120159   2.660   3.431   5.754
 6420SOL    HW220160   2.508   3.385   5.791
 6421SOL     OW20161   5.268   1.574   1.948
 6421SOL    HW120162   5.345   1.544   1.893
 6421SOL    HW220163   5.184   1.533   1.913
 6422SOL     OW20164   0.300   0.321   4.129
 6422SOL    HW120165   0.245   0.241   4.155
 6422SOL    HW220166   0.339   0.307   4.038
 6423SOL     OW20167   5.005   4.783   2.323
 6423SOL    HW120168   5.021   4.854   2.255
 6423SOL    HW220169   4.912   4.748   2.314
 6424SOL     OW20170   6.936   5.605   5.564
 6424SOL    HW120171   0.001   5.599   5.528
 6424SOL    HW220172   6.938   5.645   5.656
 6425SOL     OW20173   6.548   5.335   3.158
 6425SOL    HW120174   6.476   5.337   3.227
 6425SOL    HW220175   6.632   5.299   3.199
 6426SOL     OW20176   0.376   4.570   3.371
 6426SOL    HW120177   0.460   4.546   3.420
 6426SOL    HW220178   0.334   4.486   3.335
 6427SOL     OW20179   2.030   3.187   6.598
 6427SOL    HW120180   1.940   3.221   6.572
 6427SOL    HW220181   2.086   3.175   6.515
 6428SOL     OW20182   6.663   3.344   0.686
 6428SOL    HW120183   6.593   3.374   0.751
 6428SOL    HW220184   6.646   3.249   0.660
 6429SOL     OW20185   0.574   1.576   5.106
 6429SOL    HW120186   0.579   1.636   5.025
 6429SOL    HW220187   0.505   1.505   5.090
 6430SOL     OW20188   5.117   0.845   2.219
 6430SOL    HW120189   5.112   0.876   2.313
 6430SOL    HW220190   5.075   0.754   2.211
 6431SOL     OW20191   5.500   6.620   3.201
 6431SOL    HW120192   5.510   6.663   3.291
 6431SOL    HW220193   5.535   6.682   3.131
 6432SOL     OW20194   4.169   4.071   6.893
 6432SOL    HW120195   4.175   4.111   6.985
 6432SOL    HW220196   4.113   4.130   6.835
 6433SOL     OW20197   3.565   4.408   0.519
 6433SOL    HW120198   3.532   4.363   0.602
 6433SOL    HW220199   3.592   4.339   0.452
 6434SOL     OW20200   2.099   3.797   0.451
 6434SOL    HW120201   2.134   3.885   0.418
 6434SOL    HW220202   2.061   3.809   0.543
 6435SOL     OW20203   4.329   5.736   6.775
 6435SOL    HW120204   4.323   5.700   6.868
 6435SOL    HW220205   4.405   5.801   6.770
 6436SOL     OW20206   2.073   3.140   3.988
 6436SOL    HW120207   2.143   3.069   3.977
 6436SOL    HW220208   2.020   3.147   3.903
 6437SOL     OW20209   2.075   1.302   0.960
 6437SOL    HW120210   2.063   1.248   0.877
 6437SOL    HW220211   2.161   1.352   0.956
 6438SOL     OW20212   0.569   4.826   6.368
 6438SOL    HW120213   0.552   4.829   6.467
 6438SOL    HW220214   0.644   4.763   6.349
 6439SOL     OW20215   6.735   0.269   1.769
 6439SOL    HW120216   6.789   0.272   1.854
 6439SOL    HW220217   6.663   0.339   1.774
 6440SOL     OW20218   2.390   1.795   1.849
 6440SOL    HW120219   2.447   1.749   1.780
 6440SOL    HW220220   2.346   1.874   1.807
 6441SOL     OW20221   0.953   6.968   2.579
 6441SOL    HW120222   0.952   6.916   2.493
 6441SOL    HW220223   1.047   6.978   2.611
 6442SOL     OW20224   1.936   1.664   3.055
 6442SOL    HW120225   1.936   1.608   3.138
 6442SOL    HW220226   2.005   1.628   2.991
 6443SOL     OW20227   3.790   2.756   0.558
 6443SOL    HW120228   3.707   2.700   0.554
 6443SOL    HW220229   3.770   2.846   0.521
 6444SOL     OW20230   0.899   2.711   3.771
 6444SOL    HW120231   0.873   2.730   3.865
 6444SOL    HW220232   0.981   2.653   3.770
 6445SOL     OW20233   4.835   2.693   5.738
 6445SOL    HW120234   4.873   2.650   5.656
 6445SOL    HW220235   4.901   2.758   5.775
 6446SOL     OW20236   1.088   0.918   6.202
 6446SOL    HW120237   1.138   0.832   6.216
 6446SOL    HW220238   1.025   0.908   6.125
 6447SOL     OW20239   0.083   5.811   2.539
 6447SOL    HW120240   0.182   5.805   2.532
 6447SOL    HW220241   0.044   5.820   2.447
 6448SOL     OW20242   5.353   4.385   2.187
 6448SOL    HW120243   5.337   4.483   2.174
 6448SOL    HW220244   5.307   4.354   2.270
 6449SOL     OW20245   3.482   4.657   0.811
 6449SOL    HW120246   3.511   4.745   0.848
 6449SOL    HW220247   3.388   4.665   0.777
 6450SOL     OW20248   0.106   3.320   1.677
 6450SOL    HW120249   0.017   3.274   1.680
 6450SOL    HW220250   0.174   3.256   1.641
 6451SOL     OW20251   2.611   6.443   4.831
 6451SOL    HW120252   2.585   6.353   4.866
 6451SOL    HW220253   2.680   6.433   4.760
 6452SOL     OW20254   3.445   5.976   5.205
 6452SOL    HW120255   3.380   5.979   5.129
 6452SOL    HW220256   3.536   6.001   5.172
 6453SOL     OW20257   1.585   6.307   0.137
 6453SOL    HW120258   1.530   6.375   0.184
 6453SOL    HW220259   1.635   6.351   0.062
 6454SOL     OW20260   3.192   1.202   3.832
 6454SOL    HW120261   3.159   1.136   3.764
 6454SOL    HW220262   3.128   1.205   3.909
 6455SOL     OW20263   0.998   1.860   3.810
 6455SOL    HW120264   1.057   1.940   3.801
 6455SOL    HW220265   0.906   1.881   3.776
 6456SOL     OW20266   1.967   0.448   3.682
 6456SOL    HW120267   1.928   0.524   3.630
 6456SOL    HW220268   1.931   0.450   3.775
 6457SOL     OW20269   4.988   0.936   0.952
 6457SOL    HW120270   5.028   0.936   1.043
 6457SOL    HW220271   4.954   1.027   0.930
 6458SOL     OW20272   0.868   6.888   3.673
 6458SOL    HW120273   0.942   6.950   3.698
 6458SOL    HW220274   0.799   6.937   3.621
 6459SOL     OW20275   5.846   5.403   0.547
 6459SOL    HW120276   5.938   5.377   0.578
 6459SOL    HW220277   5.778   5.361   0.607
 6460SOL     OW20278   4.606   5.263   5.657
 6460SOL    HW120279   4.581   5.239   5.750
 6460SOL    HW220280   4.592   5.184   5.597
 6461SOL     OW20281   2.971   5.115   5.113
 6461SOL    HW120282   3.032   5.117   5.192
 6461SOL    HW220283   2.987   5.032   5.060
 6462SOL     OW20284   2.338   2.718   5.167
 6462SOL    HW120285   2.371   2.810   5.146
 6462SOL    HW220286   2.415   2.656   5.177
 6463SOL     OW20287   1.710   3.981   6.568
 6463SOL    HW120288   1.690   3.918   6.493
 6463SOL    HW220289   1.751   4.065   6.531
 6464SOL     OW20290   0.988   5.142   5.137
 6464SOL    HW120291   1.002   5.051   5.099
 6464SOL    HW220292   0.890   5.160   5.145
 6465SOL     OW20293   6.214   2.599   3.785
 6465SOL    HW120294   6.161   2.599   3.700
 6465SOL    HW220295   6.261   2.511   3.794
 6466SOL     OW20296   1.038   1.421   6.635
 6466SOL    HW120297   0.969   1.450   6.570
 6466SOL    HW220298   1.070   1.499   6.688
 6467SOL     OW20299   3.094   0.917   0.110
 6467SOL    HW120300   3.108   0.986   0.181
 6467SOL    HW220301   3.015   0.861   0.133
 6468SOL     OW20302   3.814   6.512   1.631
 6468SOL    HW120303   3.754   6.476   1.702
 6468SOL    HW220304   3.840   6.606   1.654
 6469SOL     OW20305   4.804   0.504   5.302
 6469SOL    HW120306   4.720   0.485   5.250
 6469SOL    HW220307   4.823   0.427   5.363
 6470SOL     OW20308   6.009   5.257   6.629
 6470SOL    HW120309   6.001   5.228   6.533
 6470SOL    HW220310   5.930   5.313   6.654
 6471SOL     OW20311   6.678   5.756   5.803
 6471SOL    HW120312   6.626   5.801   5.729
 6471SOL    HW220313   6.616   5.701   5.858
 6472SOL     OW20314   0.335   4.693   0.979
 6472SOL    HW120315   0.431   4.670   0.962
 6472SOL    HW220316   0.282   4.682   0.895
 6473SOL     OW20317   2.237   1.662   4.142
 6473SOL    HW120318   2.163   1.617   4.193
 6473SOL    HW220319   2.275   1.736   4.197
 6474SOL     OW20320   1.895   3.274   5.834
 6474SOL    HW120321   1.982   3.261   5.883
 6474SOL    HW220322   1.905   3.246   5.739
 6475SOL     OW20323   6.795   5.109   4.585
 6475SOL    HW120324   6.770   5.206   4.578
 6475SOL    HW220325   6.883   5.100   4.631
 6476SOL     OW20326   4.371   3.581   1.635
 6476SOL    HW120327   4.351   3.603   1.539
 6476SOL    HW220328   4.393   3.483   1.642
 6477SOL     OW20329   0.091   4.501   1.383
 6477SOL    HW120330   0.097   4.401   1.376
 6477SOL    HW220331   0.075   4.540   1.292
 6478SOL     OW20332   3.451   6.246   2.267
 6478SOL    HW120333   3.365   6.294   2.282
 6478SOL    HW220334   3.482   6.205   2.352
 6479SOL     OW20335   3.910   5.601   3.507
 6479SOL    HW120336   3.921   5.541   3.427
 6479SOL    HW220337   3.822   5.583   3.551
 6480SOL     OW20338   3.246   2.802   5.595
 6480SOL    HW120339   3.210   2.752   5.516
 6480SOL    HW220340   3.273   2.894   5.567
 6481SOL     OW20341   3.009   1.894   1.934
 6481SOL    HW120342   3.035   1.958   2.006
 6481SOL    HW220343   2.987   1.945   1.851
 6482SOL     OW20344   0.270   1.150   6.145
 6482SOL    HW120345   0.355   1.190   6.110
 6482SOL    HW220346   0.199   1.155   6.075
 6483SOL     OW20347   2.478   5.702   1.475
 6483SOL    HW120348   2.419   5.633   1.433
 6483SOL    HW220349   2.422   5.766   1.528
 6484SOL     OW20350   3.831   0.341   2.943
 6484SOL    HW120351   3.741   0.384   2.958
 6484SOL    HW220352   3.865   0.304   3.030
 6485SOL     OW20353   2.073   3.632   3.788
 6485SOL    HW120354   1.994   3.678   3.829
 6485SOL    HW220355   2.156   3.657   3.839
 6486SOL     OW20356   1.215   4.603   4.146
 6486SOL    HW120357   1.271   4.686   4.149
 6486SOL    HW220358   1.124   4.625   4.111
 6487SOL     OW20359   6.769   5.897   4.901
 6487SOL    HW120360   6.718   5.813   4.920
 6487SOL    HW220361   6.706   5.971   4.878
 6488SOL     OW20362   2.779   5.722   4.737
 6488SOL    HW120363   2.759   5.766   4.824
 6488SOL    HW220364   2.861   5.666   4.746
 6489SOL     OW20365   2.622   3.633   6.781
 6489SOL    HW120366   2.644   3.729   6.795
 6489SOL    HW220367   2.656   3.579   6.859
 6490SOL     OW20368   4.192   2.637   6.983
 6490SOL    HW120369   4.103   2.592   6.968
 6490SOL    HW220370   4.226   2.613   0.046
 6491SOL     OW20371   4.321   1.221   6.859
 6491SOL    HW120372   4.295   1.230   6.763
 6491SOL    HW220373   4.283   1.297   6.911
 6492SOL     OW20374   5.878   5.949   6.997
 6492SOL    HW120375   5.820   5.946   0.051
 6492SOL    HW220376   5.894   6.044   6.971
 6493SOL     OW20377   1.797   6.301   5.113
 6493SOL    HW120378   1.728   6.253   5.059
 6493SOL    HW220379   1.880   6.311   5.059
 6494SOL     OW20380   6.960   1.341   3.267
 6494SOL    HW120381   7.020   1.357   3.188
 6494SOL    HW220382   6.941   1.428   3.312
 6495SOL     OW20383   5.254   6.342   4.518
 6495SOL    HW120384   5.159   6.366   4.535
 6495SOL    HW220385   5.312   6.422   4.532
 6496SOL     OW20386   0.345   6.705   2.420
 6496SOL    HW120387   0.309   6.711   2.326
 6496SOL    HW220388   0.331   6.793   2.466
 6497SOL     OW20389   2.483   3.335   6.750
 6497SOL    HW120390   2.504   3.433   6.750
 6497SOL    HW220391   2.562   3.285   6.786
 6498SOL     OW20392   2.296   4.443   4.069
 6498SOL    HW120393   2.380   4.496   4.057
 6498SOL    HW220394   2.304   4.384   4.149
 6499SOL     OW20395   5.904   2.397   4.978
 6499SOL    HW120396   5.932   2.335   5.051
 6499SOL    HW220397   5.904   2.491   5.011
 6500SOL     OW20398   7.004   4.467   3.485
 6500SOL    HW120399   6.955   4.468   3.398
 6500SOL    HW220400   0.027   4.381   3.493
 6501SOL     OW20401   6.761   2.351   0.083
 6501SOL    HW120402   6.849   2.305   0.095
 6501SOL    HW220403   6.688   2.282   0.079
 6502SOL     OW20404   6.435   3.763   2.970
 6502SOL    HW120405   6.415   3.807   2.883
 6502SOL    HW220406   6.503   3.690   2.957
 6503SOL     OW20407   5.521   0.004   3.694
 6503SOL    HW120408   5.460   0.058   3.636
 6503SOL    HW220409   5.467   6.979   3.759
 6504SOL     OW20410   4.976   6.331   6.345
 6504SOL    HW120411   5.006   6.416   6.389
 6504SOL    HW220412   5.056   6.281   6.312
 6505SOL     OW20413   5.467   4.478   1.728
 6505SOL    HW120414   5.557   4.470   1.685
 6505SOL    HW220415   5.438   4.389   1.762
 6506SOL     OW20416   0.108   3.064   0.791
 6506SOL    HW120417   0.182   3.014   0.745
 6506SOL    HW220418   0.148   3.133   0.851
 6507SOL     OW20419   1.627   5.938   6.001
 6507SOL    HW120420   1.716   5.912   6.037
 6507SOL    HW220421   1.638   5.986   5.914
 6508SOL     OW20422   2.305   1.698   3.255
 6508SOL    HW120423   2.371   1.751   3.201
 6508SOL    HW220424   2.347   1.672   3.341
 6509SOL     OW20425   2.400   2.497   4.327
 6509SOL    HW120426   2.372   2.588   4.295
 6509SOL    HW220427   2.324   2.433   4.315
 6510SOL     OW20428   0.147   5.367   6.641
 6510SOL    HW120429   0.231   5.416   6.665
 6510SOL    HW220430   0.147   5.277   6.686
 6511SOL     OW20431   5.222   0.923   4.937
 6511SOL    HW120432   5.254   0.962   4.850
 6511SOL    HW220433   5.141   0.974   4.968
 6512SOL     OW20434   5.121   0.201   2.705
 6512SOL    HW120435   5.163   0.233   2.790
 6512SOL    HW220436   5.054   0.268   2.673
 6513SOL     OW20437   3.229   5.390   3.202
 6513SOL    HW120438   3.269   5.442   3.127
 6513SOL    HW220439   3.270   5.418   3.288
 6514SOL     OW20440   5.983   0.351   3.253
 6514SOL    HW120441   6.081   0.331   3.256
 6514SOL    HW220442   5.932   0.266   3.262
 6515SOL     OW20443   0.502   4.997   4.069
 6515SOL    HW120444   0.512   4.974   3.972
 6515SOL    HW220445   0.518   4.915   4.124
 6516SOL     OW20446   0.254   2.610   0.634
 6516SOL    HW120447   0.291   2.655   0.553
 6516SOL    HW220448   0.329   2.566   0.685
 6517SOL     OW20449   6.223   1.059   0.814
 6517SOL    HW120450   6.307   1.111   0.801
 6517SOL    HW220451   6.203   1.052   0.912
 6518SOL     OW20452   0.277   6.450   6.755
 6518SOL    HW120453   0.335   6.455   6.837
 6518SOL    HW220454   0.224   6.365   6.757
 6519SOL     OW20455   2.447   1.886   3.144
 6519SOL    HW120456   2.395   1.895   3.059
 6519SOL    HW220457   2.515   1.959   3.150
 6520SOL     OW20458   6.529   5.734   2.875
 6520SOL    HW120459   6.559   5.729   2.779
 6520SOL    HW220460   6.502   5.643   2.906
 6521SOL     OW20461   1.347   1.401   4.484
 6521SOL    HW120462   1.308   1.421   4.574
 6521SOL    HW220463   1.358   1.486   4.433
 6522SOL     OW20464   3.399   4.389   6.938
 6522SOL    HW120465   3.449   4.474   6.920
 6522SOL    HW220466   3.373   4.385   0.006
 6523SOL     OW20467   3.304   1.007   6.559
 6523SOL    HW120468   3.304   1.087   6.618
 6523SOL    HW220469   3.245   1.022   6.481
 6524SOL     OW20470   3.333   2.948   2.890
 6524SOL    HW120471   3.293   3.017   2.950
 6524SOL    HW220472   3.408   2.902   2.938
 6525SOL     OW20473   2.252   2.966   2.909
 6525SOL    HW120474   2.258   3.061   2.940
 6525SOL    HW220475   2.186   2.916   2.965
 6526SOL     OW20476   0.924   6.650   5.331
 6526SOL    HW120477   0.861   6.721   5.363
 6526SOL    HW220478   0.894   6.561   5.366
 6527SOL     OW20479   0.667   1.673   4.473
 6527SOL    HW120480   0.655   1.768   4.441
 6527SOL    HW220481   0.763   1.658   4.494
 6528SOL     OW20482   0.161   0.609   3.442
 6528SOL    HW120483   0.169   0.661   3.527
 6528SOL    HW220484   0.120   0.667   3.371
 6529SOL     OW20485   6.429   1.511   3.268
 6529SOL    HW120486   6.509   1.451   3.273
 6529SOL    HW220487   6.357   1.467   3.215
 6530SOL     OW20488   6.479   4.058   1.088
 6530SOL    HW120489   6.466   4.155   1.066
 6530SOL    HW220490   6.571   4.030   1.063
 6531SOL     OW20491   5.233   3.489   4.451
 6531SOL    HW120492   5.134   3.495   4.465
 6531SOL    HW220493   5.253   3.421   4.381
 6532SOL     OW20494   5.749   0.841   0.854
 6532SOL    HW120495   5.848   0.827   0.857
 6532SOL    HW220496   5.703   0.754   0.840
 6533SOL     OW20497   5.271   5.792   1.722
 6533SOL    HW120498   5.315   5.881   1.733
 6533SOL    HW220499   5.211   5.774   1.799
 6534SOL     OW20500   2.881   4.712   1.605
 6534SOL    HW120501   2.803   4.663   1.642
 6534SOL    HW220502   2.962   4.692   1.660
 6535SOL     OW20503   0.193   3.233   4.373
 6535SOL    HW120504   0.178   3.323   4.415
 6535SOL    HW220505   0.169   3.162   4.439
 6536SOL     OW20506   6.474   2.164   5.817
 6536SOL    HW120507   6.496   2.204   5.906
 6536SOL    HW220508   6.557   2.155   5.763
 6537SOL     OW20509   6.101   5.577   6.831
 6537SOL    HW120510   6.052   5.664   6.824
 6537SOL    HW220511   6.087   5.538   6.922
 6538SOL     OW20512   3.810   4.435   6.927
 6538SOL    HW120513   3.822   4.361   6.994
 6538SOL    HW220514   3.737   4.496   6.959
 6539SOL     OW20515   3.018   1.380   6.087
 6539SOL    HW120516   2.951   1.306   6.096
 6539SOL    HW220517   3.109   1.344   6.107
 6540SOL     OW20518   4.589   1.792   5.314
 6540SOL    HW120519   4.510   1.741   5.349
 6540SOL    HW220520   4.648   1.818   5.391
 6541SOL     OW20521   4.043   2.078   5.051
 6541SOL    HW120522   4.069   1.982   5.068
 6541SOL    HW220523   3.961   2.081   4.994
 6542SOL     OW20524   6.818   4.530   3.663
 6542SOL    HW120525   6.874   4.495   3.589
 6542SOL    HW220526   6.842   4.626   3.680
 6543SOL     OW20527   6.251   3.978   7.016
 6543SOL    HW120528   6.188   3.974   6.938
 6543SOL    HW220529   6.274   4.073   0.008
 6544SOL     OW20530   0.608   5.887   3.461
 6544SOL    HW120531   0.537   5.957   3.470
 6544SOL    HW220532   0.592   5.834   3.377
 6545SOL     OW20533   5.513   2.200   6.717
 6545SOL    HW120534   5.457   2.172   6.796
 6545SOL    HW220535   5.454   2.241   6.648
 6546SOL     OW20536   4.561   4.595   6.237
 6546SOL    HW120537   4.637   4.636   6.286
 6546SOL    HW220538   4.477   4.604   6.291
 6547SOL     OW20539   4.441   1.592   5.757
 6547SOL    HW120540   4.435   1.678   5.706
 6547SOL    HW220541   4.464   1.612   5.853
 6548SOL     OW20542   1.161   3.408   6.628
 6548SOL    HW120543   1.075   3.369   6.661
 6548SOL    HW220544   1.238   3.358   6.669
 6549SOL     OW20545   3.460   1.661   0.610
 6549SOL    HW120546   3.518   1.623   0.683
 6549SOL    HW220547   3.402   1.733   0.648
 6550SOL     OW20548   6.813   6.103   3.234
 6550SOL    HW120549   6.889   6.163   3.260
 6550SOL    HW220550   6.849   6.022   3.187
 6551SOL     OW20551   2.014   4.034   2.144
 6551SOL    HW120552   2.095   4.066   2.192
 6551SOL    HW220553   2.025   3.937   2.120
 6552SOL     OW20554   2.148   0.446   4.907
 6552SOL    HW120555   2.136   0.528   4.964
 6552SOL    HW220556   2.243   0.440   4.878
 6553SOL     OW20557   0.315   1.679   2.002
 6553SOL    HW120558   0.369   1.763   1.996
 6553SOL    HW220559   0.221   1.702   2.028
 6554SOL     OW20560   5.738   1.961   5.679
 6554SOL    HW120561   5.728   2.017   5.761
 6554SOL    HW220562   5.714   1.866   5.700
 6555SOL     OW20563   1.152   1.768   1.826
 6555SOL    HW120564   1.150   1.671   1.853
 6555SOL    HW220565   1.246   1.801   1.832
 6556SOL     OW20566   4.467   4.585   5.278
 6556SOL    HW120567   4.406   4.592   5.357
 6556SOL    HW220568   4.413   4.567   5.196
 6557SOL     OW20569   5.416   5.419   1.521
 6557SOL    HW120570   5.439   5.487   1.452
 6557SOL    HW220571   5.422   5.460   1.612
 6558SOL     OW20572   6.076   6.106   1.307
 6558SOL    HW120573   6.136   6.031   1.281
 6558SOL    HW220574   6.065   6.107   1.407
 6559SOL     OW20575   6.574   4.103   0.225
 6559SOL    HW120576   6.495   4.046   0.251
 6559SOL    HW220577   6.616   4.066   0.142
 6560SOL     OW20578   3.815   3.072   1.661
 6560SOL    HW120579   3.753   3.125   1.604
 6560SOL    HW220580   3.827   3.118   1.749
 6561SOL     OW20581   3.495   3.748   2.065
 6561SOL    HW120582   3.445   3.751   1.978
 6561SOL    HW220583   3.431   3.764   2.140
 6562SOL     OW20584   5.873   4.999   6.741
 6562SOL    HW120585   5.820   4.980   6.658
 6562SOL    HW220586   5.938   5.073   6.722
 6563SOL     OW20587   0.404   6.537   0.186
 6563SOL    HW120588   0.398   6.630   0.148
 6563SOL    HW220589   0.367   6.537   0.278
 6564SOL     OW20590   0.560   3.841   2.281
 6564SOL    HW120591   0.539   3.748   2.250
 6564SOL    HW220592   0.505   3.906   2.228
 6565SOL     OW20593   6.354   2.094   4.192
 6565SOL    HW120594   6.322   2.073   4.099
 6565SOL    HW220595   6.403   2.181   4.191
 6566SOL     OW20596   3.457   6.927   0.996
 6566SOL    HW120597   3.389   6.870   0.951
 6566SOL    HW220598   3.424   7.021   1.003
 6567SOL     OW20599   4.125   2.293   1.287
 6567SOL    HW120600   4.180   2.310   1.205
 6567SOL    HW220601   4.103   2.196   1.292
 6568SOL     OW20602   5.200   5.081   3.152
 6568SOL    HW120603   5.256   4.999   3.140
 6568SOL    HW220604   5.229   5.151   3.086
 6569SOL     OW20605   3.417   4.564   1.230
 6569SOL    HW120606   3.400   4.510   1.312
 6569SOL    HW220607   3.467   4.647   1.254
 6570SOL     OW20608   4.640   6.649   1.344
 6570SOL    HW120609   4.576   6.654   1.421
 6570SOL    HW220610   4.724   6.698   1.367
 6571SOL     OW20611   2.522   6.605   2.168
 6571SOL    HW120612   2.501   6.654   2.252
 6571SOL    HW220613   2.618   6.577   2.169
 6572SOL     OW20614   6.445   5.069   5.423
 6572SOL    HW120615   6.437   4.970   5.435
 6572SOL    HW220616   6.469   5.112   5.510
 6573SOL     OW20617   2.856   1.497   2.419
 6573SOL    HW120618   2.948   1.474   2.386
 6573SOL    HW220619   2.834   1.439   2.497
 6574SOL     OW20620   2.961   6.078   2.464
 6574SOL    HW120621   3.002   6.054   2.552
 6574SOL    HW220622   2.957   5.996   2.406
 6575SOL     OW20623   0.904   1.548   1.365
 6575SOL    HW120624   0.808   1.521   1.356
 6575SOL    HW220625   0.953   1.527   1.280
 6576SOL     OW20626   1.301   6.559   6.836
 6576SOL    HW120627   1.248   6.552   6.752
 6576SOL    HW220628   1.253   6.511   6.910
 6577SOL     OW20629   0.258   1.456   3.525
 6577SOL    HW120630   0.206   1.370   3.518
 6577SOL    HW220631   0.202   1.524   3.573
 6578SOL     OW20632   0.417   4.606   2.916
 6578SOL    HW120633   0.380   4.648   2.999
 6578SOL    HW220634   0.342   4.590   2.851
 6579SOL     OW20635   0.034   3.802   4.551
 6579SOL    HW120636   7.008   3.857   4.487
 6579SOL    HW220637   0.033   3.846   4.641
 6580SOL     OW20638   6.564   1.304   1.324
 6580SOL    HW120639   6.533   1.217   1.362
 6580SOL    HW220640   6.554   1.302   1.224
 6581SOL     OW20641   3.592   1.247   6.284
 6581SOL    HW120642   3.597   1.185   6.363
 6581SOL    HW220643   3.682   1.254   6.241
 6582SOL     OW20644   1.421   0.493   1.748
 6582SOL    HW120645   1.344   0.465   1.691
 6582SOL    HW220646   1.418   0.442   1.834
 6583SOL     OW20647   4.070   0.761   5.678
 6583SOL    HW120648   4.049   0.806   5.592
 6583SOL    HW220649   3.992   0.770   5.740
 6584SOL     OW20650   5.223   1.710   0.045
 6584SOL    HW120651   5.255   1.794   0.002
 6584SOL    HW220652   5.162   1.732   0.121
 6585SOL     OW20653   6.233   1.190   0.401
 6585SOL    HW120654   6.210   1.275   0.450
 6585SOL    HW220655   6.256   1.211   0.306
 6586SOL     OW20656   5.902   2.442   6.088
 6586SOL    HW120657   5.864   2.385   6.015
 6586SOL    HW220658   5.930   2.530   6.049
 6587SOL     OW20659   3.022   5.461   3.944
 6587SOL    HW120660   2.968   5.506   3.873
 6587SOL    HW220661   3.009   5.509   4.031
 6588SOL     OW20662   1.841   3.878   1.342
 6588SOL    HW120663   1.883   3.858   1.430
 6588SOL    HW220664   1.894   3.834   1.269
 6589SOL     OW20665   4.244   0.758   6.346
 6589SOL    HW120666   4.187   0.749   6.427
 6589SOL    HW220667   4.193   0.802   6.272
 6590SOL     OW20668   0.756   1.468   6.162
 6590SOL    HW120669   0.754   1.554   6.214
 6590SOL    HW220670   0.696   1.401   6.205
 6591SOL     OW20671   5.588   6.126   2.385
 6591SOL    HW120672   5.540   6.157   2.303
 6591SOL    HW220673   5.553   6.037   2.414
 6592SOL     OW20674   5.545   6.434   4.312
 6592SOL    HW120675   5.505   6.416   4.402
 6592SOL    HW220676   5.629   6.488   4.322
 6593SOL     OW20677   2.423   2.542   3.494
 6593SOL    HW120678   2.416   2.452   3.453
 6593SOL    HW220679   2.496   2.543   3.563
 6594SOL     OW20680   3.732   1.314   0.777
 6594SOL    HW120681   3.688   1.296   0.689
 6594SOL    HW220682   3.784   1.233   0.805
 6595SOL     OW20683   0.321   3.510   0.366
 6595SOL    HW120684   0.340   3.519   0.269
 6595SOL    HW220685   0.249   3.575   0.392
 6596SOL     OW20686   4.081   6.810   4.596
 6596SOL    HW120687   4.099   6.820   4.498
 6596SOL    HW220688   4.168   6.800   4.645
 6597SOL     OW20689   1.473   6.358   3.024
 6597SOL    HW120690   1.426   6.330   3.107
 6597SOL    HW220691   1.572   6.348   3.037
 6598SOL     OW20692   1.541   6.358   4.637
 6598SOL    HW120693   1.543   6.437   4.699
 6598SOL    HW220694   1.447   6.343   4.606
 6599SOL     OW20695   3.801   5.246   5.375
 6599SOL    HW120696   3.745   5.283   5.300
 6599SOL    HW220697   3.829   5.153   5.352
 6600SOL     OW20698   5.105   5.527   5.785
 6600SOL    HW120699   5.119   5.450   5.722
 6600SOL    HW220700   5.189   5.581   5.790
 6601SOL     OW20701   0.959   1.139   0.595
 6601SOL    HW120702   0.944   1.080   0.515
 6601SOL    HW220703   0.962   1.234   0.566
 6602SOL     OW20704   6.206   1.591   1.748
 6602SOL    HW120705   6.153   1.507   1.752
 6602SOL    HW220706   6.250   1.599   1.658
 6603SOL     OW20707   0.973   2.895   4.301
 6603SOL    HW120708   1.036   2.818   4.311
 6603SOL    HW220709   1.001   2.969   4.362
 6604SOL     OW20710   2.604   6.355   1.435
 6604SOL    HW120711   2.591   6.338   1.337
 6604SOL    HW220712   2.551   6.435   1.462
 6605SOL     OW20713   5.081   5.100   0.804
 6605SOL    HW120714   5.157   5.053   0.848
 6605SOL    HW220715   5.056   5.181   0.857
 6606SOL     OW20716   4.717   6.958   1.903
 6606SOL    HW120717   4.715   6.990   1.998
 6606SOL    HW220718   4.703   0.008   1.841
 6607SOL     OW20719   2.208   2.285   1.243
 6607SOL    HW120720   2.265   2.296   1.324
 6607SOL    HW220721   2.237   2.203   1.193
 6608SOL     OW20722   5.270   4.810   1.885
 6608SOL    HW120723   5.171   4.817   1.876
 6608SOL    HW220724   5.313   4.889   1.842
 6609SOL     OW20725   4.637   1.078   6.389
 6609SOL    HW120726   4.666   1.164   6.432
 6609SOL    HW220727   4.568   1.034   6.447
 6610SOL     OW20728   2.151   0.478   6.542
 6610SOL    HW120729   2.124   0.575   6.540
 6610SOL    HW220730   2.235   0.467   6.490
 6611SOL     OW20731   6.740   2.744   3.308
 6611SOL    HW120732   6.692   2.819   3.352
 6611SOL    HW220733   6.678   2.697   3.245
 6612SOL     OW20734   6.822   3.132   6.911
 6612SOL    HW120735   6.781   3.157   6.998
 6612SOL    HW220736   6.897   3.194   6.890
 6613SOL     OW20737   5.731   5.831   3.969
 6613SOL    HW120738   5.767   5.857   4.059
 6613SOL    HW220739   5.680   5.746   3.977
 6614SOL     OW20740   5.072   6.221   6.899
 6614SOL    HW120741   5.135   6.144   6.885
 6614SOL    HW220742   5.090   6.262   6.989
 6615SOL     OW20743   0.902   4.266   4.342
 6615SOL    HW120744   0.974   4.335   4.335
 6615SOL    HW220745   0.918   4.194   4.274
 6616SOL     OW20746   4.437   1.049   6.170
 6616SOL    HW120747   4.428   1.002   6.083
 6616SOL    HW220748   4.525   1.024   6.212
 6617SOL     OW20749   3.306   6.033   3.386
 6617SOL    HW120750   3.310   5.956   3.449
 6617SOL    HW220751   3.262   6.005   3.301
 6618SOL     OW20752   1.081   3.467   2.993
 6618SOL    HW120753   1.165   3.440   2.944
 6618SOL    HW220754   1.104   3.491   3.087
 6619SOL     OW20755   6.492   6.804   4.799
 6619SOL    HW120756   6.454   6.711   4.795
 6619SOL    HW220757   6.492   6.844   4.708
 6620SOL     OW20758   2.086   2.628   5.284
 6620SOL    HW120759   2.031   2.706   5.311
 6620SOL    HW220760   2.172   2.660   5.244
 6621SOL     OW20761   2.640   3.230   0.128
 6621SOL    HW120762   2.597   3.159   0.184
 6621SOL    HW220763   2.592   3.316   0.140
 6622SOL     OW20764   6.099   6.374   2.003
 6622SOL    HW120765   6.017   6.424   1.974
 6622SOL    HW220766   6.074   6.300   2.065
 6623SOL     OW20767   3.189   3.376   1.393
 6623SOL    HW120768   3.114   3.348   1.333
 6623SOL    HW220769   3.153   3.397   1.484
 6624SOL     OW20770   2.157   0.453   3.924
 6624SOL    HW120771   2.078   0.418   3.974
 6624SOL    HW220772   2.228   0.383   3.919
 6625SOL     OW20773   5.418   1.770   6.371
 6625SOL    HW120774   5.422   1.868   6.394
 6625SOL    HW220775   5.493   1.722   6.416
 6626SOL     OW20776   3.852   4.888   3.755
 6626SOL    HW120777   3.933   4.872   3.811
 6626SOL    HW220778   3.875   4.876   3.659
 6627SOL     OW20779   2.356   0.461   5.744
 6627SOL    HW120780   2.297   0.487   5.821
 6627SOL    HW220781   2.451   0.462   5.774
 6628SOL     OW20782   4.930   5.088   3.690
 6628SOL    HW120783   4.838   5.050   3.697
 6628SOL    HW220784   4.925   5.185   3.666
 6629SOL     OW20785   2.488   6.231   0.113
 6629SOL    HW120786   2.529   6.185   0.192
 6629SOL    HW220787   2.482   6.329   0.132
 6630SOL     OW20788   3.692   1.540   1.354
 6630SOL    HW120789   3.689   1.635   1.385
 6630SOL    HW220790   3.787   1.515   1.334
 6631SOL     OW20791   4.245   0.273   2.213
 6631SOL    HW120792   4.172   0.258   2.146
 6631SOL    HW220793   4.221   0.351   2.271
 6632SOL     OW20794   0.343   0.845   1.649
 6632SOL    HW120795   0.338   0.943   1.669
 6632SOL    HW220796   0.284   0.824   1.571
 6633SOL     OW20797   1.609   5.166   5.782
 6633SOL    HW120798   1.515   5.200   5.784
 6633SOL    HW220799   1.625   5.114   5.698
 6634SOL     OW20800   5.493   3.568   5.881
 6634SOL    HW120801   5.541   3.516   5.951
 6634SOL    HW220802   5.534   3.550   5.792
 6635SOL     OW20803   4.226   5.531   3.332
 6635SOL    HW120804   4.209   5.446   3.281
 6635SOL    HW220805   4.215   5.514   3.430
 6636SOL     OW20806   2.867   1.996   5.967
 6636SOL    HW120807   2.937   1.970   6.033
 6636SOL    HW220808   2.806   2.065   6.007
 6637SOL     OW20809   1.625   0.229   6.267
 6637SOL    HW120810   1.631   0.312   6.211
 6637SOL    HW220811   1.691   0.162   6.233
 6638SOL     OW20812   3.980   4.869   5.087
 6638SOL    HW120813   3.891   4.896   5.052
 6638SOL    HW220814   3.975   4.855   5.186
 6639SOL     OW20815   5.676   6.426   6.992
 6639SOL    HW120816   5.695   6.439   6.895
 6639SOL    HW220817   5.741   6.360   0.003
 6640SOL     OW20818   6.724   2.191   5.667
 6640SOL    HW120819   6.740   2.191   5.568
 6640SOL    HW220820   6.722   2.285   5.700
 6641SOL     OW20821   2.285   2.793   6.478
 6641SOL    HW120822   2.363   2.842   6.516
 6641SOL    HW220823   2.284   2.699   6.514
 6642SOL     OW20824   2.673   5.576   0.439
 6642SOL    HW120825   2.715   5.645   0.497
 6642SOL    HW220826   2.698   5.484   0.472
 6643SOL     OW20827   6.518   4.547   6.715
 6643SOL    HW120828   6.556   4.577   6.803
 6643SOL    HW220829   6.460   4.619   6.677
 6644SOL     OW20830   2.789   4.879   1.898
 6644SOL    HW120831   2.881   4.875   1.859
 6644SOL    HW220832   2.767   4.790   1.938
 6645SOL     OW20833   6.870   4.940   0.326
 6645SOL    HW120834   6.814   4.887   0.390
 6645SOL    HW220835   6.943   4.986   0.377
 6646SOL     OW20836   3.948   6.110   4.476
 6646SOL    HW120837   3.881   6.129   4.548
 6646SOL    HW220838   3.899   6.092   4.390
 6647SOL     OW20839   3.607   1.350   2.237
 6647SOL    HW120840   3.513   1.367   2.207
 6647SOL    HW220841   3.666   1.422   2.203
 6648SOL     OW20842   3.118   5.785   2.051
 6648SOL    HW120843   3.082   5.872   2.017
 6648SOL    HW220844   3.043   5.719   2.059
 6649SOL     OW20845   4.872   1.881   6.820
 6649SOL    HW120846   4.917   1.855   6.735
 6649SOL    HW220847   4.817   1.963   6.806
 6650SOL     OW20848   4.300   1.367   5.337
 6650SOL    HW120849   4.305   1.404   5.429
 6650SOL    HW220850   4.205   1.346   5.314
 6651SOL     OW20851   1.637   1.883   6.648
 6651SOL    HW120852   1.708   1.950   6.670
 6651SOL    HW220853   1.669   1.824   6.574
 6652SOL     OW20854   6.622   4.975   0.712
 6652SOL    HW120855   6.529   5.009   0.699
 6652SOL    HW220856   6.687   5.049   0.695
 6653SOL     OW20857   3.620   3.275   2.937
 6653SOL    HW120858   3.575   3.191   2.908
 6653SOL    HW220859   3.601   3.348   2.871
 6654SOL     OW20860   2.211   3.224   0.970
 6654SOL    HW120861   2.175   3.317   0.978
 6654SOL    HW220862   2.191   3.173   1.054
 6655SOL     OW20863   3.201   6.811   1.525
 6655SOL    HW120864   3.279   6.750   1.539
 6655SOL    HW220865   3.203   6.884   1.593
 6656SOL     OW20866   5.719   1.516   2.817
 6656SOL    HW120867   5.641   1.534   2.758
 6656SOL    HW220868   5.779   1.596   2.819
 6657SOL     OW20869   4.970   6.012   6.568
 6657SOL    HW120870   4.895   6.078   6.575
 6657SOL    HW220871   4.957   5.940   6.636
 6658SOL     OW20872   5.941   1.726   4.885
 6658SOL    HW120873   6.013   1.707   4.952
 6658SOL    HW220874   5.969   1.690   4.796
 6659SOL     OW20875   2.580   2.290   0.498
 6659SOL    HW120876   2.640   2.353   0.447
 6659SOL    HW220877   2.637   2.228   0.553
 6660SOL     OW20878   0.115   6.157   0.981
 6660SOL    HW120879   0.194   6.217   0.972
 6660SOL    HW220880   0.075   6.140   0.891
 6661SOL     OW20881   0.650   5.404   3.986
 6661SOL    HW120882   0.579   5.397   4.055
 6661SOL    HW220883   0.612   5.384   3.896
 6662SOL     OW20884   1.645   0.390   6.482
 6662SOL    HW120885   1.618   0.311   6.426
 6662SOL    HW220886   1.631   0.474   6.430
 6663SOL     OW20887   0.106   5.484   3.093
 6663SOL    HW120888   0.067   5.435   3.015
 6663SOL    HW220889   0.158   5.563   3.061
 6664SOL     OW20890   1.714   6.861   1.344
 6664SOL    HW120891   1.703   6.950   1.300
 6664SOL    HW220892   1.788   6.810   1.299
 6665SOL     OW20893   2.127   0.561   2.663
 6665SOL    HW120894   2.097   0.510   2.743
 6665SOL    HW220895   2.127   0.659   2.684
 6666SOL     OW20896   5.949   1.636   5.900
 6666SOL    HW120897   5.951   1.552   5.954
 6666SOL    HW220898   5.951   1.614   5.803
 6667SOL     OW20899   6.918   5.322   5.336
 6667SOL    HW120900   6.832   5.323   5.387
 6667SOL    HW220901   6.926   5.405   5.282
 6668SOL     OW20902   6.784   6.054   1.655
 6668SOL    HW120903   6.686   6.046   1.640
 6668SOL    HW220904   6.809   6.151   1.659
 6669SOL     OW20905   2.256   2.965   4.362
 6669SOL    HW120906   2.312   3.045   4.339
 6669SOL    HW220907   2.242   2.961   4.461
 6670SOL     OW20908   3.290   3.310   6.424
 6670SOL    HW120909   3.288   3.373   6.502
 6670SOL    HW220910   3.316   3.219   6.456
 6671SOL     OW20911   5.447   5.603   1.317
 6671SOL    HW120912   5.539   5.630   1.346
 6671SOL    HW220913   5.380   5.666   1.356
 6672SOL     OW20914   1.271   1.956   4.827
 6672SOL    HW120915   1.273   1.980   4.924
 6672SOL    HW220916   1.310   2.030   4.773
 6673SOL     OW20917   4.704   6.236   3.525
 6673SOL    HW120918   4.620   6.272   3.566
 6673SOL    HW220919   4.726   6.288   3.442
 6674SOL     OW20920   0.845   5.358   6.673
 6674SOL    HW120921   0.892   5.436   6.631
 6674SOL    HW220922   0.784   5.316   6.606
 6675SOL     OW20923   4.538   3.987   1.720
 6675SOL    HW120924   4.500   3.988   1.627
 6675SOL    HW220925   4.501   4.063   1.773
 6676SOL     OW20926   0.276   3.907   5.520
 6676SOL    HW120927   0.265   3.810   5.542
 6676SOL    HW220928   0.336   3.916   5.440
 6677SOL     OW20929   0.143   2.677   0.215
 6677SOL    HW120930   0.120   2.590   0.172
 6677SOL    HW220931   0.071   2.744   0.197
 6678SOL     OW20932   1.700   2.466   0.194
 6678SOL    HW120933   1.710   2.525   0.274
 6678SOL    HW220934   1.783   2.411   0.183
 6679SOL     OW20935   2.656   1.833   4.258
 6679SOL    HW120936   2.639   1.753   4.316
 6679SOL    HW220937   2.682   1.911   4.316
 6680SOL     OW20938   4.230   6.494   6.312
 6680SOL    HW120939   4.238   6.506   6.213
 6680SOL    HW220940   4.145   6.536   6.344
 6681SOL     OW20941   5.066   4.921   7.015
 6681SOL    HW120942   5.140   4.856   6.997
 6681SOL    HW220943   5.010   4.888   0.063
 6682SOL     OW20944   0.895   4.064   2.454
 6682SOL    HW120945   0.908   4.145   2.512
 6682SOL    HW220946   0.948   4.074   2.370
 6683SOL     OW20947   5.163   2.695   6.023
 6683SOL    HW120948   5.080   2.712   6.076
 6683SOL    HW220949   5.233   2.657   6.083
 6684SOL     OW20950   2.160   6.918   0.951
 6684SOL    HW120951   2.195   6.829   0.979
 6684SOL    HW220952   2.128   6.968   1.031
 6685SOL     OW20953   5.422   2.555   5.476
 6685SOL    HW120954   5.469   2.642   5.467
 6685SOL    HW220955   5.465   2.501   5.549
 6686SOL     OW20956   5.234   5.564   3.667
 6686SOL    HW120957   5.274   5.546   3.757
 6686SOL    HW220958   5.219   5.662   3.656
 6687SOL     OW20959   0.523   1.774   1.495
 6687SOL    HW120960   0.459   1.799   1.568
 6687SOL    HW220961   0.589   1.848   1.482
 6688SOL     OW20962   0.219   4.165   1.743
 6688SOL    HW120963   0.237   4.181   1.840
 6688SOL    HW220964   0.299   4.192   1.689
 6689SOL     OW20965   4.184   3.020   0.727
 6689SOL    HW120966   4.170   3.099   0.787
 6689SOL    HW220967   4.142   2.939   0.766
 6690SOL     OW20968   2.608   0.974   1.942
 6690SOL    HW120969   2.608   0.922   2.027
 6690SOL    HW220970   2.574   0.917   1.867
 6691SOL     OW20971   3.195   5.498   1.745
 6691SOL    HW120972   3.245   5.450   1.673
 6691SOL    HW220973   3.258   5.531   1.814
 6692SOL     OW20974   2.839   4.737   5.325
 6692SOL    HW120975   2.746   4.764   5.297
 6692SOL    HW220976   2.881   4.684   5.252
 6693SOL     OW20977   4.843   3.604   6.380
 6693SOL    HW120978   4.882   3.537   6.443
 6693SOL    HW220979   4.887   3.692   6.393
 6694SOL     OW20980   4.799   6.176   6.957
 6694SOL    HW120981   4.870   6.157   6.890
 6694SOL    HW220982   4.796   6.274   6.977
 6695SOL     OW20983   1.601   1.815   5.958
 6695SOL    HW120984   1.552   1.893   5.998
 6695SOL    HW220985   1.679   1.849   5.904
 6696SOL     OW20986   1.504   2.286   0.536
 6696SOL    HW120987   1.593   2.310   0.574
 6696SOL    HW220988   1.515   2.254   0.442
 6697SOL     OW20989   4.438   2.411   3.333
 6697SOL    HW120990   4.376   2.366   3.269
 6697SOL    HW220991   4.509   2.347   3.362
 6698SOL     OW20992   3.365   2.803   0.393
 6698SOL    HW120993   3.454   2.812   0.349
 6698SOL    HW220994   3.300   2.761   0.330
 6699SOL     OW20995   3.548   4.633   6.957
 6699SOL    HW120996   3.612   4.696   6.913
 6699SOL    HW220997   3.502   4.678   0.005
 6700SOL     OW20998   0.231   5.643   1.045
 6700SOL    HW120999   0.154   5.706   1.049
 6700SOL    HW221000   0.285   5.652   1.129
 6701SOL     OW21001   6.126   2.739   1.423
 6701SOL    HW121002   6.157   2.794   1.501
 6701SOL    HW221003   6.205   2.706   1.372
 6702SOL     OW21004   2.738   2.636   0.279
 6702SOL    HW121005   2.819   2.680   0.319
 6702SOL    HW221006   2.663   2.701   0.275
 6703SOL     OW21007   6.435   1.880   6.992
 6703SOL    HW121008   6.445   1.834   6.904
 6703SOL    HW221009   6.494   1.836   0.032
 6704SOL     OW21010   4.357   2.135   2.883
 6704SOL    HW121011   4.395   2.060   2.937
 6704SOL    HW221012   4.324   2.100   2.795
 6705SOL     OW21013   0.111   2.033   1.897
 6705SOL    HW121014   0.178   2.076   1.957
 6705SOL    HW221015   0.077   1.949   1.940
 6706SOL     OW21016   1.091   4.113   0.736
 6706SOL    HW121017   1.002   4.157   0.756
 6706SOL    HW221018   1.079   4.014   0.731
 6707SOL     OW21019   6.965   5.513   4.688
 6707SOL    HW121020   6.910   5.560   4.619
 6707SOL    HW221021   7.024   5.445   4.643
 6708SOL     OW21022   1.806   5.522   2.595
 6708SOL    HW121023   1.792   5.423   2.602
 6708SOL    HW221024   1.717   5.566   2.579
 6709SOL     OW21025   3.118   5.652   1.505
 6709SOL    HW121026   3.140   5.629   1.600
 6709SOL    HW221027   3.087   5.569   1.458
 6710SOL     OW21028   2.075   2.111   5.847
 6710SOL    HW121029   2.140   2.184   5.870
 6710SOL    HW221030   2.112   2.055   5.773
 6711SOL     OW21031   6.101   4.657   6.702
 6711SOL    HW121032   6.044   4.586   6.661
 6711SOL    HW221033   6.051   4.700   6.778
 6712SOL     OW21034   4.673   5.611   0.526
 6712SOL    HW121035   4.755   5.667   0.530
 6712SOL    HW221036   4.690   5.530   0.470
 6713SOL     OW21037   2.220   1.724   1.405
 6713SOL    HW121038   2.291   1.788   1.431
 6713SOL    HW221039   2.150   1.771   1.351
 6714SOL     OW21040   5.243   0.755   5.589
 6714SOL    HW121041   5.291   0.838   5.619
 6714SOL    HW221042   5.270   0.732   5.496
 6715SOL     OW21043   0.242   0.769   0.208
 6715SOL    HW121044   0.302   0.697   0.243
 6715SOL    HW221045   0.204   0.821   0.284
 6716SOL     OW21046   1.151   6.434   2.071
 6716SOL    HW121047   1.138   6.337   2.047
 6716SOL    HW221048   1.205   6.440   2.155
 6717SOL     OW21049   4.637   2.591   0.679
 6717SOL    HW121050   4.718   2.564   0.730
 6717SOL    HW221051   4.568   2.628   0.742
 6718SOL     OW21052   3.986   6.194   6.333
 6718SOL    HW121053   4.085   6.180   6.335
 6718SOL    HW221054   3.957   6.239   6.418
 6719SOL     OW21055   0.223   0.310   6.158
 6719SOL    HW121056   0.164   0.236   6.189
 6719SOL    HW221057   0.240   0.373   6.235
 6720SOL     OW21058   2.315   6.220   1.936
 6720SOL    HW121059   2.385   6.150   1.947
 6720SOL    HW221060   2.310   6.276   2.019
 6721SOL     OW21061   6.203   6.787   4.673
 6721SOL    HW121062   6.270   6.818   4.739
 6721SOL    HW221063   6.193   6.688   4.680
 6722SOL     OW21064   5.137   3.179   1.011
 6722SOL    HW121065   5.133   3.209   1.107
 6722SOL    HW221066   5.064   3.113   0.994
 6723SOL     OW21067   2.403   6.949   3.383
 6723SOL    HW121068   2.322   6.940   3.442
 6723SOL    HW221069   2.478   6.989   3.436
 6724SOL     OW21070   1.266   4.235   5.661
 6724SOL    HW121071   1.286   4.230   5.759
 6724SOL    HW221072   1.201   4.163   5.636
 6725SOL     OW21073   1.127   4.215   2.056
 6725SOL    HW121074   1.067   4.245   2.130
 6725SOL    HW221075   1.165   4.295   2.009
 6726SOL     OW21076   1.522   1.951   4.219
 6726SOL    HW121077   1.542   2.049   4.220
 6726SOL    HW221078   1.462   1.931   4.141
 6727SOL     OW21079   5.632   3.963   5.806
 6727SOL    HW121080   5.617   4.024   5.729
 6727SOL    HW221081   5.594   3.873   5.785
 6728SOL     OW21082   4.557   1.283   4.938
 6728SOL    HW121083   4.615   1.361   4.960
 6728SOL    HW221084   4.523   1.241   5.022
 6729SOL     OW21085   6.442   1.538   2.525
 6729SOL    HW121086   6.359   1.589   2.504
 6729SOL    HW221087   6.447   1.520   2.623
 6730SOL     OW21088   2.124   6.668   6.768
 6730SOL    HW121089   2.070   6.614   6.704
 6730SOL    HW221090   2.173   6.740   6.718
 6731SOL     OW21091   2.580   4.363   1.078
 6731SOL    HW121092   2.630   4.432   1.025
 6731SOL    HW221093   2.486   4.356   1.043
 6732SOL     OW21094   3.115   5.669   6.526
 6732SOL    HW121095   3.138   5.730   6.601
 6732SOL    HW221096   3.181   5.681   6.451
 6733SOL     OW21097   4.288   5.268   6.517
 6733SOL    HW121098   4.313   5.218   6.434
 6733SOL    HW221099   4.368   5.277   6.576
 6734SOL     OW21100   0.886   3.388   5.863
 6734SOL    HW121101   0.960   3.452   5.885
 6734SOL    HW221102   0.883   3.374   5.764
 6735SOL     OW21103   0.487   5.661   5.312
 6735SOL    HW121104   0.425   5.608   5.254
 6735SOL    HW221105   0.580   5.656   5.276
 6736SOL     OW21106   1.973   3.527   0.493
 6736SOL    HW121107   2.039   3.585   0.444
 6736SOL    HW221108   1.920   3.474   0.427
 6737SOL     OW21109   2.250   2.056   1.116
 6737SOL    HW121110   2.178   1.994   1.147
 6737SOL    HW221111   2.332   2.003   1.094
 6738SOL     OW21112   1.787   2.770   2.013
 6738SOL    HW121113   1.884   2.747   2.008
 6738SOL    HW221114   1.733   2.685   2.017
 6739SOL     OW21115   3.315   5.645   5.845
 6739SOL    HW121116   3.302   5.593   5.761
 6739SOL    HW221117   3.348   5.737   5.822
 6740SOL     OW21118   2.040   1.493   4.285
 6740SOL    HW121119   2.065   1.558   4.357
 6740SOL    HW221120   1.964   1.436   4.317
 6741SOL     OW21121   4.485   1.650   6.018
 6741SOL    HW121122   4.583   1.641   6.034
 6741SOL    HW221123   4.444   1.706   6.090
 6742SOL     OW21124   0.325   5.608   3.854
 6742SOL    HW121125   0.373   5.523   3.837
 6742SOL    HW221126   0.388   5.676   3.891
 6743SOL     OW21127   4.297   4.145   6.528
 6743SOL    HW121128   4.371   4.078   6.515
 6743SOL    HW221129   4.232   4.138   6.453
 6744SOL     OW21130   4.045   5.560   6.146
 6744SOL    HW121131   4.037   5.651   6.106
 6744SOL    HW221132   4.027   5.491   6.076
 6745SOL     OW21133   0.785   5.345   2.699
 6745SOL    HW121134   0.764   5.433   2.656
 6745SOL    HW221135   0.825   5.361   2.790
 6746SOL     OW21136   0.054   0.816   2.099
 6746SOL    HW121137   0.025   0.835   2.193
 6746SOL    HW221138   0.122   0.884   2.070
 6747SOL     OW21139   5.639   6.223   4.181
 6747SOL    HW121140   5.598   6.304   4.224
 6747SOL    HW221141   5.708   6.184   4.241
 6748SOL     OW21142   1.056   0.767   2.442
 6748SOL    HW121143   1.155   0.757   2.444
 6748SOL    HW221144   1.013   0.678   2.430
 6749SOL     OW21145   2.934   6.921   6.967
 6749SOL    HW121146   2.979   6.983   0.004
 6749SOL    HW221147   2.879   6.975   6.903
 6750SOL     OW21148   3.679   1.732   4.686
 6750SOL    HW121149   3.764   1.777   4.657
 6750SOL    HW221150   3.611   1.801   4.709
 6751SOL     OW21151   3.096   2.151   3.689
 6751SOL    HW121152   3.145   2.120   3.608
 6751SOL    HW221153   3.005   2.183   3.664
 6752SOL     OW21154   6.375   2.513   1.550
 6752SOL    HW121155   6.306   2.544   1.616
 6752SOL    HW221156   6.331   2.484   1.465
 6753SOL     OW21157   4.437   1.544   6.835
 6753SOL    HW121158   4.417   1.638   6.810
 6753SOL    HW221159   4.355   1.501   6.872
 6754SOL     OW21160   6.520   2.189   6.124
 6754SOL    HW121161   6.441   2.127   6.121
 6754SOL    HW221162   6.493   2.277   6.160
 6755SOL     OW21163   5.118   1.762   3.857
 6755SOL    HW121164   5.112   1.792   3.762
 6755SOL    HW221165   5.026   1.749   3.894
 6756SOL     OW21166   4.719   4.131   4.016
 6756SOL    HW121167   4.750   4.107   4.108
 6756SOL    HW221168   4.747   4.060   3.951
 6757SOL     OW21169   4.925   5.864   0.388
 6757SOL    HW121170   5.017   5.853   0.349
 6757SOL    HW221171   4.892   5.956   0.371
 6758SOL     OW21172   4.940   3.408   1.882
 6758SOL    HW121173   5.010   3.438   1.817
 6758SOL    HW221174   4.898   3.324   1.849
 6759SOL     OW21175   1.247   3.976   4.050
 6759SOL    HW121176   1.317   3.912   4.017
 6759SOL    HW221177   1.283   4.028   4.128
 6760SOL     OW21178   0.149   5.073   4.640
 6760SOL    HW121179   0.071   5.025   4.680
 6760SOL    HW221180   0.233   5.022   4.656
 6761SOL     OW21181   5.660   2.697   5.955
 6761SOL    HW121182   5.721   2.776   5.958
 6761SOL    HW221183   5.570   2.726   5.921
 6762SOL     OW21184   6.346   5.390   3.315
 6762SOL    HW121185   6.300   5.312   3.357
 6762SOL    HW221186   6.366   5.459   3.384
 6763SOL     OW21187   6.442   5.784   4.100
 6763SOL    HW121188   6.495   5.805   4.183
 6763SOL    HW221189   6.345   5.796   4.119
 6764SOL     OW21190   3.271   3.885   5.954
 6764SOL    HW121191   3.301   3.853   6.044
 6764SOL    HW221192   3.296   3.817   5.885
 6765SOL     OW21193   6.286   4.911   3.532
 6765SOL    HW121194   6.282   4.992   3.474
 6765SOL    HW221195   6.217   4.917   3.604
 6766SOL     OW21196   2.318   0.472   6.092
 6766SOL    HW121197   2.400   0.419   6.114
 6766SOL    HW221198   2.320   0.558   6.143
 6767SOL     OW21199   0.354   2.231   0.368
 6767SOL    HW121200   0.317   2.172   0.439
 6767SOL    HW221201   0.314   2.322   0.375
 6768SOL     OW21202   0.700   0.723   3.460
 6768SOL    HW121203   0.799   0.707   3.465
 6768SOL    HW221204   0.652   0.635   3.458
 6769SOL     OW21205   3.000   1.771   5.109
 6769SOL    HW121206   2.906   1.778   5.143
 6769SOL    HW221207   3.047   1.858   5.120
 6770SOL     OW21208   0.325   2.968   4.182
 6770SOL    HW121209   0.363   3.051   4.223
 6770SOL    HW221210   0.328   2.975   4.082
 6771SOL     OW21211   3.903   2.202   3.302
 6771SOL    HW121212   3.865   2.200   3.209
 6771SOL    HW221213   4.002   2.213   3.297
 6772SOL     OW21214   5.257   1.643   2.636
 6772SOL    HW121215   5.269   1.734   2.674
 6772SOL    HW221216   5.204   1.649   2.551
 6773SOL     OW21217   6.913   6.656   1.519
 6773SOL    HW121218   6.999   6.640   1.472
 6773SOL    HW221219   6.842   6.596   1.481
 6774SOL     OW21220   2.085   1.744   5.127
 6774SOL    HW121221   2.131   1.789   5.051
 6774SOL    HW221222   2.125   1.654   5.142
 6775SOL     OW21223   0.849   1.688   4.034
 6775SOL    HW121224   0.902   1.719   4.113
 6775SOL    HW221225   0.822   1.767   3.979
 6776SOL     OW21226   3.826   4.210   1.099
 6776SOL    HW121227   3.732   4.216   1.135
 6776SOL    HW221228   3.825   4.158   1.013
 6777SOL     OW21229   4.558   5.518   1.530
 6777SOL    HW121230   4.519   5.553   1.445
 6777SOL    HW221231   4.484   5.500   1.596
 6778SOL     OW21232   5.432   3.109   2.543
 6778SOL    HW121233   5.466   3.123   2.636
 6778SOL    HW221234   5.494   3.047   2.494
 6779SOL     OW21235   5.849   4.148   5.772
 6779SOL    HW121236   5.874   4.169   5.867
 6779SOL    HW221237   5.777   4.078   5.771
 6780SOL     OW21238   2.287   2.584   3.094
 6780SOL    HW121239   2.215   2.643   3.057
 6780SOL    HW221240   2.360   2.574   3.026
 6781SOL     OW21241   6.246   1.202   4.069
 6781SOL    HW121242   6.176   1.273   4.079
 6781SOL    HW221243   6.285   1.181   4.159
 6782SOL     OW21244   6.877   1.604   2.992
 6782SOL    HW121245   6.886   1.505   2.982
 6782SOL    HW221246   6.783   1.626   3.020
 6783SOL     OW21247   1.261   5.016   5.466
 6783SOL    HW121248   1.202   5.018   5.546
 6783SOL    HW221249   1.270   5.108   5.429
 6784SOL     OW21250   1.940   3.450   1.552
 6784SOL    HW121251   1.955   3.352   1.566
 6784SOL    HW221252   1.970   3.501   1.633
 6785SOL     OW21253   5.261   4.785   4.785
 6785SOL    HW121254   5.325   4.765   4.860
 6785SOL    HW221255   5.173   4.814   4.824
 6786SOL     OW21256   6.416   2.551   0.983
 6786SOL    HW121257   6.485   2.617   0.954
 6786SOL    HW221258   6.413   2.475   0.918
 6787SOL     OW21259   3.570   2.389   0.459
 6787SOL    HW121260   3.531   2.349   0.543
 6787SOL    HW221261   3.568   2.488   0.465
 6788SOL     OW21262   0.653   3.833   3.370
 6788SOL    HW121263   0.635   3.784   3.455
 6788SOL    HW221264   0.655   3.768   3.294
 6789SOL     OW21265   6.881   3.800   4.063
 6789SOL    HW121266   6.868   3.897   4.044
 6789SOL    HW221267   6.841   3.745   3.990
 6790SOL     OW21268   1.119   4.950   6.021
 6790SOL    HW121269   1.195   4.965   6.085
 6790SOL    HW221270   1.105   4.852   6.009
 6791SOL     OW21271   4.421   1.598   4.006
 6791SOL    HW121272   4.476   1.520   4.036
 6791SOL    HW221273   4.479   1.680   4.000
 6792SOL     OW21274   4.844   0.144   5.209
 6792SOL    HW121275   4.756   0.130   5.256
 6792SOL    HW221276   4.919   0.125   5.273
 6793SOL     OW21277   2.206   2.919   0.220
 6793SOL    HW121278   2.306   2.913   0.227
 6793SOL    HW221279   2.175   3.004   0.262
 6794SOL     OW21280   4.417   1.332   5.873
 6794SOL    HW121281   4.452   1.423   5.848
 6794SOL    HW221282   4.329   1.316   5.828
 6795SOL     OW21283   1.340   1.089   1.126
 6795SOL    HW121284   1.258   1.112   1.074
 6795SOL    HW221285   1.353   1.157   1.199
 6796SOL     OW21286   6.012   1.682   2.007
 6796SOL    HW121287   6.090   1.638   2.049
 6796SOL    HW221288   6.042   1.759   1.951
 6797SOL     OW21289   0.549   2.453   1.592
 6797SOL    HW121290   0.555   2.387   1.517
 6797SOL    HW221291   0.460   2.444   1.637
 6798SOL     OW21292   5.772   0.590   2.221
 6798SOL    HW121293   5.680   0.623   2.200
 6798SOL    HW221294   5.813   0.650   2.291
 6799SOL     OW21295   5.104   6.851   3.012
 6799SOL    HW121296   5.109   6.787   2.935
 6799SOL    HW221297   5.009   6.862   3.039
 6800SOL     OW21298   0.917   0.862   1.492
 6800SOL    HW121299   1.011   0.863   1.458
 6800SOL    HW221300   0.873   0.776   1.466
 6801SOL     OW21301   1.208   6.433   5.096
 6801SOL    HW121302   1.221   6.395   5.187
 6801SOL    HW221303   1.277   6.503   5.078
 6802SOL     OW21304   3.310   5.859   1.699
 6802SOL    HW121305   3.361   5.811   1.628
 6802SOL    HW221306   3.374   5.907   1.759
 6803SOL     OW21307   5.251   5.107   6.997
 6803SOL    HW121308   5.180   5.040   6.975
 6803SOL    HW221309   5.243   5.135   0.065
 6804SOL     OW21310   2.581   4.629   2.777
 6804SOL    HW121311   2.548   4.619   2.683
 6804SOL    HW221312   2.521   4.578   2.839
 6805SOL     OW21313   0.662   4.913   6.000
 6805SOL    HW121314   0.664   4.905   5.901
 6805SOL    HW221315   0.569   4.934   6.030
 6806SOL     OW21316   6.516   0.374   3.398
 6806SOL    HW121317   6.498   0.468   3.370
 6806SOL    HW221318   6.439   0.316   3.370
 6807SOL     OW21319   3.322   3.733   2.515
 6807SOL    HW121320   3.229   3.765   2.530
 6807SOL    HW221321   3.386   3.801   2.551
 6808SOL     OW21322   4.258   1.858   5.201
 6808SOL    HW121323   4.214   1.937   5.243
 6808SOL    HW221324   4.292   1.797   5.272
 6809SOL     OW21325   5.930   4.577   2.169
 6809SOL    HW121326   5.850   4.556   2.113
 6809SOL    HW221327   5.940   4.508   2.240
 6810SOL     OW21328   2.724   1.228   3.078
 6810SOL    HW121329   2.687   1.147   3.124
 6810SOL    HW221330   2.650   1.290   3.054
 6811SOL     OW21331   6.214   1.701   2.527
 6811SOL    HW121332   6.115   1.699   2.517
 6811SOL    HW221333   6.241   1.781   2.580
 6812SOL     OW21334   2.896   3.884   5.199
 6812SOL    HW121335   2.915   3.833   5.114
 6812SOL    HW221336   2.799   3.877   5.220
 6813SOL     OW21337   5.122   3.281   1.258
 6813SOL    HW121338   5.167   3.212   1.314
 6813SOL    HW221339   5.046   3.322   1.309
 6814SOL     OW21340   4.167   1.401   6.271
 6814SOL    HW121341   4.250   1.371   6.224
 6814SOL    HW221342   4.107   1.450   6.207
 6815SOL     OW21343   2.218   5.199   6.535
 6815SOL    HW121344   2.129   5.177   6.493
 6815SOL    HW221345   2.291   5.154   6.483
 6816SOL     OW21346   0.676   1.928   4.325
 6816SOL    HW121347   0.701   2.009   4.377
 6816SOL    HW221348   0.580   1.906   4.342
 6817SOL     OW21349   3.031   2.156   2.329
 6817SOL    HW121350   3.040   2.187   2.423
 6817SOL    HW221351   2.945   2.192   2.290
 6818SOL     OW21352   2.151   6.475   5.989
 6818SOL    HW121353   2.218   6.439   5.924
 6818SOL    HW221354   2.133   6.571   5.969
 6819SOL     OW21355   4.717   4.880   3.247
 6819SOL    HW121356   4.666   4.800   3.279
 6819SOL    HW221357   4.766   4.857   3.163
 6820SOL     OW21358   2.089   6.147   1.454
 6820SOL    HW121359   1.990   6.150   1.442
 6820SOL    HW221360   2.112   6.167   1.549
 6821SOL     OW21361   4.533   2.894   5.379
 6821SOL    HW121362   4.574   2.918   5.291
 6821SOL    HW221363   4.600   2.907   5.452
 6822SOL     OW21364   0.157   2.657   6.389
 6822SOL    HW121365   0.179   2.732   6.451
 6822SOL    HW221366   0.057   2.650   6.380
 6823SOL     OW21367   5.735   3.274   6.889
 6823SOL    HW121368   5.652   3.283   6.833
 6823SOL    HW221369   5.773   3.365   6.907
 6824SOL     OW21370   1.445   1.699   6.805
 6824SOL    HW121371   1.478   1.629   6.742
 6824SOL    HW221372   1.489   1.787   6.784
 6825SOL     OW21373   0.150   5.907   1.434
 6825SOL    HW121374   0.179   5.812   1.428
 6825SOL    HW221375   0.095   5.920   1.516
 6826SOL     OW21376   1.142   3.506   3.263
 6826SOL    HW121377   1.076   3.567   3.307
 6826SOL    HW221378   1.145   3.420   3.313
 6827SOL     OW21379   4.469   5.709   4.794
 6827SOL    HW121380   4.437   5.682   4.703
 6827SOL    HW221381   4.434   5.644   4.862
 6828SOL     OW21382   3.633   1.652   3.086
 6828SOL    HW121383   3.674   1.673   2.998
 6828SOL    HW221384   3.578   1.730   3.116
 6829SOL     OW21385   5.405   6.618   4.898
 6829SOL    HW121386   5.419   6.551   4.825
 6829SOL    HW221387   5.309   6.644   4.902
 6830SOL     OW21388   5.631   0.687   3.275
 6830SOL    HW121389   5.635   0.767   3.214
 6830SOL    HW221390   5.662   0.606   3.225
 6831SOL     OW21391   1.444   1.047   5.766
 6831SOL    HW121392   1.411   1.141   5.778
 6831SOL    HW221393   1.411   0.991   5.842
 6832SOL     OW21394   3.037   2.058   0.434
 6832SOL    HW121395   2.987   2.032   0.517
 6832SOL    HW221396   3.086   2.144   0.450
 6833SOL     OW21397   2.998   5.222   5.860
 6833SOL    HW121398   2.923   5.265   5.911
 6833SOL    HW221399   2.974   5.219   5.763
 6834SOL     OW21400   4.980   7.022   0.885
 6834SOL    HW121401   4.997   6.939   0.939
 6834SOL    HW221402   5.014   7.008   0.792
 6835SOL     OW21403   3.527   2.102   4.196
 6835SOL    HW121404   3.554   2.122   4.290
 6835SOL    HW221405   3.435   2.138   4.179
 6836SOL     OW21406   1.958   5.085   6.490
 6836SOL    HW121407   1.945   4.987   6.476
 6836SOL    HW221408   1.944   5.133   6.404
 6837SOL     OW21409   1.046   0.606   2.009
 6837SOL    HW121410   0.958   0.643   2.037
 6837SOL    HW221411   1.103   0.680   1.972
 6838SOL     OW21412   2.735   4.447   5.362
 6838SOL    HW121413   2.779   4.496   5.286
 6838SOL    HW221414   2.671   4.508   5.408
 6839SOL     OW21415   5.179   2.398   3.890
 6839SOL    HW121416   5.214   2.357   3.975
 6839SOL    HW221417   5.079   2.397   3.891
 6840SOL     OW21418   2.458   6.645   4.748
 6840SOL    HW121419   2.516   6.675   4.673
 6840SOL    HW221420   2.505   6.572   4.799
 6841SOL     OW21421   3.772   5.669   2.274
 6841SOL    HW121422   3.675   5.689   2.289
 6841SOL    HW221423   3.820   5.754   2.251
 6842SOL     OW21424   0.556   3.359   0.022
 6842SOL    HW121425   0.517   3.268   0.036
 6842SOL    HW221426   0.653   3.358   0.044
 6843SOL     OW21427   3.921   2.422   1.706
 6843SOL    HW121428   3.957   2.500   1.758
 6843SOL    HW221429   3.852   2.375   1.760
 6844SOL     OW21430   4.729   5.148   4.257
 6844SOL    HW121431   4.793   5.203   4.312
 6844SOL    HW221432   4.778   5.108   4.180
 6845SOL     OW21433   4.615   5.045   2.726
 6845SOL    HW121434   4.600   4.947   2.715
 6845SOL    HW221435   4.539   5.096   2.686
 6846SOL     OW21436   3.571   3.136   2.319
 6846SOL    HW121437   3.652   3.090   2.283
 6846SOL    HW221438   3.530   3.193   2.247
 6847SOL     OW21439   5.032   3.716   1.563
 6847SOL    HW121440   4.950   3.676   1.603
 6847SOL    HW221441   5.011   3.807   1.527
 6848SOL     OW21442   0.570   5.129   4.628
 6848SOL    HW121443   0.647   5.170   4.580
 6848SOL    HW221444   0.593   5.034   4.651
 6849SOL     OW21445   3.627   5.920   4.040
 6849SOL    HW121446   3.588   5.837   4.001
 6849SOL    HW221447   3.567   5.998   4.020
 6850SOL     OW21448   5.692   2.395   3.469
 6850SOL    HW121449   5.663   2.379   3.374
 6850SOL    HW221450   5.661   2.487   3.497
 6851SOL     OW21451   1.681   5.187   6.046
 6851SOL    HW121452   1.674   5.180   5.947
 6851SOL    HW221453   1.602   5.237   6.082
 6852SOL     OW21454   0.901   4.088   1.321
 6852SOL    HW121455   0.899   4.030   1.402
 6852SOL    HW221456   0.817   4.143   1.317
 6853SOL     OW21457   0.874   5.644   5.867
 6853SOL    HW121458   0.840   5.621   5.958
 6853SOL    HW221459   0.955   5.588   5.848
 6854SOL     OW21460   6.549   1.644   5.911
 6854SOL    HW121461   6.569   1.737   5.942
 6854SOL    HW221462   6.536   1.585   5.991
 6855SOL     OW21463   4.245   0.094   2.890
 6855SOL    HW121464   4.243   0.192   2.906
 6855SOL    HW221465   4.152   0.058   2.885
 6856SOL     OW21466   6.555   3.799   4.633
 6856SOL    HW121467   6.579   3.736   4.559
 6856SOL    HW221468   6.594   3.766   4.719
 6857SOL     OW21469   3.093   2.039   6.160
 6857SOL    HW121470   3.173   2.025   6.218
 6857SOL    HW221471   3.102   2.126   6.111
 6858SOL     OW21472   3.900   3.622   4.639
 6858SOL    HW121473   3.943   3.536   4.664
 6858SOL    HW221474   3.919   3.643   4.543
 6859SOL     OW21475   2.396   6.925   0.749
 6859SOL    HW121476   2.427   6.841   0.794
 6859SOL    HW221477   2.306   6.949   0.783
 6860SOL     OW21478   5.502   4.867   1.482
 6860SOL    HW121479   5.545   4.951   1.515
 6860SOL    HW221480   5.425   4.843   1.542
 6861SOL     OW21481   5.626   5.579   0.387
 6861SOL    HW121482   5.535   5.538   0.399
 6861SOL    HW221483   5.674   5.578   0.474
 6862SOL     OW21484   2.982   5.381   4.962
 6862SOL    HW121485   2.948   5.450   5.026
 6862SOL    HW221486   2.992   5.294   5.011
 6863SOL     OW21487   6.093   1.422   4.144
 6863SOL    HW121488   6.020   1.424   4.213
 6863SOL    HW221489   6.135   1.513   4.137
 6864SOL     OW21490   2.676   5.729   3.368
 6864SOL    HW121491   2.612   5.805   3.356
 6864SOL    HW221492   2.769   5.761   3.351
 6865SOL     OW21493   6.534   4.134   4.924
 6865SOL    HW121494   6.600   4.059   4.918
 6865SOL    HW221495   6.543   4.178   5.013
 6866SOL     OW21496   0.237   3.832   1.942
 6866SOL    HW121497   0.161   3.863   1.999
 6866SOL    HW221498   0.296   3.910   1.920
 6867SOL     OW21499   1.555   4.701   1.961
 6867SOL    HW121500   1.633   4.752   1.924
 6867SOL    HW221501   1.572   4.681   2.057
 6868SOL     OW21502   1.879   6.173   4.617
 6868SOL    HW121503   1.779   6.169   4.622
 6868SOL    HW221504   1.907   6.268   4.600
 6869SOL     OW21505   5.540   2.795   5.067
 6869SOL    HW121506   5.496   2.835   5.147
 6869SOL    HW221507   5.608   2.728   5.096
 6870SOL     OW21508   5.622   3.757   3.339
 6870SOL    HW121509   5.659   3.758   3.432
 6870SOL    HW221510   5.679   3.699   3.281
 6871SOL     OW21511   6.037   4.313   1.582
 6871SOL    HW121512   5.995   4.314   1.491
 6871SOL    HW221513   6.017   4.226   1.626
 6872SOL     OW21514   1.622   3.585   1.107
 6872SOL    HW121515   1.597   3.500   1.061
 6872SOL    HW221516   1.669   3.563   1.193
 6873SOL     OW21517   5.815   2.958   5.708
 6873SOL    HW121518   5.793   2.862   5.692
 6873SOL    HW221519   5.913   2.967   5.726
 6874SOL     OW21520   6.959   3.065   3.754
 6874SOL    HW121521   6.913   3.099   3.672
 6874SOL    HW221522   0.026   3.098   3.755
 6875SOL     OW21523   1.148   1.554   2.679
 6875SOL    HW121524   1.207   1.542   2.599
 6875SOL    HW221525   1.173   1.488   2.750
 6876SOL     OW21526   3.405   5.610   6.785
 6876SOL    HW121527   3.419   5.523   6.738
 6876SOL    HW221528   3.398   5.595   6.883
 6877SOL     OW21529   2.264   4.123   6.886
 6877SOL    HW121530   2.325   4.121   6.807
 6877SOL    HW221531   2.193   4.192   6.873
 6878SOL     OW21532   2.430   1.576   5.689
 6878SOL    HW121533   2.400   1.517   5.764
 6878SOL    HW221534   2.451   1.667   5.725
 6879SOL     OW21535   0.288   1.939   6.924
 6879SOL    HW121536   0.257   1.909   7.014
 6879SOL    HW221537   0.385   1.964   6.928
 6880SOL     OW21538   2.079   4.057   5.216
 6880SOL    HW121539   2.175   4.064   5.191
 6880SOL    HW221540   2.022   4.067   5.134
 6881SOL     OW21541   0.154   4.388   1.004
 6881SOL    HW121542   0.252   4.402   1.021
 6881SOL    HW221543   0.102   4.465   1.042
 6882SOL     OW21544   2.056   1.074   4.802
 6882SOL    HW121545   2.096   1.002   4.858
 6882SOL    HW221546   1.983   1.036   4.746
 6883SOL     OW21547   3.712   6.806   1.007
 6883SOL    HW121548   3.731   6.801   1.105
 6883SOL    HW221549   3.622   6.847   0.992
 6884SOL     OW21550   2.361   4.267   4.603
 6884SOL    HW121551   2.405   4.350   4.638
 6884SOL    HW221552   2.387   4.189   4.660
 6885SOL     OW21553   2.773   6.026   3.101
 6885SOL    HW121554   2.679   6.049   3.078
 6885SOL    HW221555   2.781   6.014   3.200
 6886SOL     OW21556   5.107   1.237   2.348
 6886SOL    HW121557   5.046   1.312   2.372
 6886SOL    HW221558   5.172   1.222   2.423
 6887SOL     OW21559   5.819   0.005   5.396
 6887SOL    HW121560   5.778   6.943   5.406
 6887SOL    HW221561   5.762   0.062   5.337
 6888SOL     OW21562   6.151   0.627   5.163
 6888SOL    HW121563   6.186   0.550   5.109
 6888SOL    HW221564   6.055   0.612   5.184
 6889SOL     OW21565   0.804   2.417   5.797
 6889SOL    HW121566   0.883   2.375   5.843
 6889SOL    HW221567   0.733   2.348   5.783
 6890SOL     OW21568   2.500   0.583   0.731
 6890SOL    HW121569   2.586   0.571   0.780
 6890SOL    HW221570   2.445   0.500   0.740
 6891SOL     OW21571   2.145   3.708   5.036
 6891SOL    HW121572   2.224   3.742   5.087
 6891SOL    HW221573   2.146   3.746   4.943
 6892SOL     OW21574   3.761   0.233   4.158
 6892SOL    HW121575   3.677   0.285   4.169
 6892SOL    HW221576   3.840   0.294   4.167
 6893SOL     OW21577   5.431   5.708   3.071
 6893SOL    HW121578   5.467   5.755   2.990
 6893SOL    HW221579   5.385   5.775   3.130
 6894SOL     OW21580   6.206   5.546   0.486
 6894SOL    HW121581   6.123   5.582   0.529
 6894SOL    HW221582   6.264   5.622   0.457
 6895SOL     OW21583   2.727   4.213   0.118
 6895SOL    HW121584   2.660   4.279   0.152
 6895SOL    HW221585   2.788   4.186   0.193
 6896SOL     OW21586   3.401   0.536   3.767
 6896SOL    HW121587   3.363   0.513   3.856
 6896SOL    HW221588   3.327   0.568   3.707
 6897SOL     OW21589   3.185   3.309   0.309
 6897SOL    HW121590   3.156   3.311   0.213
 6897SOL    HW221591   3.285   3.307   0.313
 6898SOL     OW21592   4.228   0.729   1.801
 6898SOL    HW121593   4.211   0.631   1.795
 6898SOL    HW221594   4.268   0.750   1.890
 6899SOL     OW21595   5.357   0.163   6.489
 6899SOL    HW121596   5.350   0.070   6.452
 6899SOL    HW221597   5.267   0.207   6.484
 6900SOL     OW21598   5.564   0.677   5.864
 6900SOL    HW121599   5.535   0.669   5.960
 6900SOL    HW221600   5.581   0.773   5.843
 6901SOL     OW21601   0.588   0.416   6.449
 6901SOL    HW121602   0.680   0.428   6.484
 6901SOL    HW221603   0.592   0.376   6.357
 6902SOL     OW21604   0.722   0.125   0.141
 6902SOL    HW121605   0.668   0.078   0.211
 6902SOL    HW221606   0.812   0.147   0.178
 6903SOL     OW21607   3.655   3.604   0.364
 6903SOL    HW121608   3.714   3.584   0.286
 6903SOL    HW221609   3.602   3.522   0.388
 6904SOL     OW21610   6.628   1.087   3.754
 6904SOL    HW121611   6.727   1.071   3.751
 6904SOL    HW221612   6.583   1.008   3.795
 6905SOL     OW21613   6.482   6.553   0.523
 6905SOL    HW121614   6.389   6.524   0.505
 6905SOL    HW221615   6.490   6.583   0.618
 6906SOL     OW21616   3.953   1.120   4.253
 6906SOL    HW121617   4.050   1.139   4.241
 6906SOL    HW221618   3.902   1.154   4.174
 6907SOL     OW21619   3.775   0.925   1.004
 6907SOL    HW121620   3.715   0.996   1.042
 6907SOL    HW221621   3.794   0.945   0.909
 6908SOL     OW21622   0.986   0.586   5.660
 6908SOL    HW121623   1.001   0.583   5.561
 6908SOL    HW221624   0.925   0.511   5.687
 6909SOL     OW21625   4.282   5.369   1.027
 6909SOL    HW121626   4.287   5.272   1.051
 6909SOL    HW221627   4.364   5.394   0.975
 6910SOL     OW21628   6.210   1.382   2.811
 6910SOL    HW121629   6.177   1.457   2.868
 6910SOL    HW221630   6.200   1.295   2.859
 6911SOL     OW21631   4.149   0.506   3.918
 6911SOL    HW121632   4.149   0.412   3.884
 6911SOL    HW221633   4.120   0.507   4.013
 6912SOL     OW21634   4.371   5.037   1.607
 6912SOL    HW121635   4.290   5.032   1.666
 6912SOL    HW221636   4.366   4.963   1.539
 6913SOL     OW21637   5.009   4.490   4.611
 6913SOL    HW121638   5.046   4.582   4.624
 6913SOL    HW221639   5.001   4.471   4.513
 6914SOL     OW21640   5.899   5.441   0.005
 6914SOL    HW121641   5.880   5.455   6.936
 6914SOL    HW221642   5.948   5.355   0.018
 6915SOL     OW21643   0.823   4.588   2.541
 6915SOL    HW121644   0.743   4.611   2.597
 6915SOL    HW221645   0.883   4.667   2.536
 6916SOL     OW21646   6.622   4.134   6.711
 6916SOL    HW121647   6.535   4.110   6.669
 6916SOL    HW221648   6.697   4.098   6.657
 6917SOL     OW21649   4.767   5.708   6.012
 6917SOL    HW121650   4.675   5.744   5.999
 6917SOL    HW221651   4.801   5.735   6.102
 6918SOL     OW21652   0.447   3.656   4.111
 6918SOL    HW121653   0.480   3.597   4.184
 6918SOL    HW221654   0.429   3.748   4.147
 6919SOL     OW21655   1.715   5.886   2.378
 6919SOL    HW121656   1.688   5.902   2.283
 6919SOL    HW221657   1.670   5.953   2.438
 6920SOL     OW21658   4.957   5.160   4.979
 6920SOL    HW121659   4.971   5.247   4.933
 6920SOL    HW221660   5.009   5.160   5.065
 6921SOL     OW21661   6.280   5.987   3.254
 6921SOL    HW121662   6.194   5.992   3.305
 6921SOL    HW221663   6.276   5.911   3.189
 6922SOL     OW21664   1.813   6.115   0.086
 6922SOL    HW121665   1.769   6.099   0.175
 6922SOL    HW221666   1.754   6.172   0.030
 6923SOL     OW21667   4.260   6.573   3.861
 6923SOL    HW121668   4.243   6.618   3.949
 6923SOL    HW221669   4.201   6.493   3.853
 6924SOL     OW21670   0.804   4.420   0.369
 6924SOL    HW121671   0.795   4.356   0.445
 6924SOL    HW221672   0.744   4.392   0.295
 6925SOL     OW21673   3.746   6.189   3.753
 6925SOL    HW121674   3.798   6.228   3.677
 6925SOL    HW221675   3.649   6.211   3.741
 6926SOL     OW21676   3.952   3.967   3.580
 6926SOL    HW121677   3.901   3.969   3.493
 6926SOL    HW221678   4.037   4.019   3.570
 6927SOL     OW21679   5.024   4.224   6.127
 6927SOL    HW121680   4.927   4.224   6.154
 6927SOL    HW221681   5.081   4.207   6.207
 6928SOL     OW21682   4.267   0.155   6.299
 6928SOL    HW121683   4.219   0.238   6.272
 6928SOL    HW221684   4.363   0.176   6.318
 6929SOL     OW21685   4.653   6.595   6.488
 6929SOL    HW121686   4.643   6.604   6.588
 6929SOL    HW221687   4.585   6.653   6.443
 6930SOL     OW21688   0.260   6.674   2.167
 6930SOL    HW121689   0.325   6.602   2.143
 6930SOL    HW221690   0.247   6.735   2.089
 6931SOL     OW21691   0.482   0.162   1.637
 6931SOL    HW121692   0.566   0.108   1.637
 6931SOL    HW221693   0.415   0.120   1.576
 6932SOL     OW21694   3.300   0.870   6.813
 6932SOL    HW121695   3.290   0.915   6.725
 6932SOL    HW221696   3.217   0.817   6.833
 6933SOL     OW21697   3.592   5.742   4.907
 6933SOL    HW121698   3.662   5.682   4.870
 6933SOL    HW221699   3.510   5.688   4.929
 6934SOL     OW21700   5.354   3.103   0.031
 6934SOL    HW121701   5.323   3.166   6.988
 6934SOL    HW221702   5.306   3.015   0.021
 6935SOL     OW21703   4.410   5.906   3.381
 6935SOL    HW121704   4.367   5.936   3.466
 6935SOL    HW221705   4.451   5.985   3.334
 6936SOL     OW21706   0.086   1.789   2.074
 6936SOL    HW121707   0.032   1.709   2.045
 6936SOL    HW221708   0.067   1.808   2.170
 6937SOL     OW21709   4.772   6.197   6.576
 6937SOL    HW121710   4.755   6.227   6.482
 6937SOL    HW221711   4.685   6.178   6.621
 6938SOL     OW21712   4.928   3.977   5.726
 6938SOL    HW121713   4.908   3.887   5.765
 6938SOL    HW221714   4.922   3.973   5.627
 6939SOL     OW21715   0.208   4.815   2.443
 6939SOL    HW121716   0.235   4.827   2.538
 6939SOL    HW221717   0.179   4.721   2.428
 6940SOL     OW21718   4.563   0.452   0.262
 6940SOL    HW121719   4.607   0.540   0.279
 6940SOL    HW221720   4.476   0.467   0.215
 6941SOL     OW21721   3.567   3.480   1.993
 6941SOL    HW121722   3.571   3.574   2.027
 6941SOL    HW221723   3.548   3.481   1.895
 6942SOL     OW21724   0.100   2.371   0.670
 6942SOL    HW121725   0.171   2.432   0.635
 6942SOL    HW221726   0.136   2.317   0.745
 6943SOL     OW21727   5.190   6.721   6.364
 6943SOL    HW121728   5.193   6.669   6.449
 6943SOL    HW221729   5.247   6.674   6.296
 6944SOL     OW21730   1.564   5.891   5.276
 6944SOL    HW121731   1.518   5.854   5.195
 6944SOL    HW221732   1.511   5.968   5.311
 6945SOL     OW21733   6.186   3.587   6.741
 6945SOL    HW121734   6.090   3.593   6.769
 6945SOL    HW221735   6.192   3.575   6.642
 6946SOL     OW21736   6.036   4.988   2.444
 6946SOL    HW121737   6.072   4.900   2.412
 6946SOL    HW221738   5.971   4.972   2.518
 6947SOL     OW21739   4.220   0.011   3.613
 6947SOL    HW121740   4.309   0.057   3.616
 6947SOL    HW221741   4.231   6.942   3.634
 6948SOL     OW21742   4.919   0.472   0.335
 6948SOL    HW121743   4.927   0.382   0.379
 6948SOL    HW221744   4.972   0.539   0.387
 6949SOL     OW21745   4.766   6.502   3.280
 6949SOL    HW121746   4.853   6.532   3.318
 6949SOL    HW221747   4.773   6.407   3.251
 6950SOL     OW21748   2.282   0.327   3.058
 6950SOL    HW121749   2.363   0.271   3.076
 6950SOL    HW221750   2.291   0.415   3.105
 6951SOL     OW21751   6.769   6.498   6.093
 6951SOL    HW121752   6.837   6.567   6.118
 6951SOL    HW221753   6.781   6.473   5.997
 6952SOL     OW21754   6.988   5.157   3.389
 6952SOL    HW121755   0.038   5.220   3.392
 6952SOL    HW221756   7.022   5.063   3.395
 6953SOL     OW21757   5.244   1.041   5.666
 6953SOL    HW121758   5.153   1.011   5.697
 6953SOL    HW221759   5.273   1.119   5.721
 6954SOL     OW21760   0.726   3.167   3.884
 6954SOL    HW121761   0.794   3.121   3.941
 6954SOL    HW221762   0.695   3.250   3.930
 6955SOL     OW21763   6.598   0.008   1.722
 6955SOL    HW121764   6.627   0.104   1.719
 6955SOL    HW221765   6.646   6.985   1.650
 6956SOL     OW21766   4.405   5.622   2.302
 6956SOL    HW121767   4.420   5.524   2.296
 6956SOL    HW221768   4.309   5.642   2.281
 6957SOL     OW21769   6.720   4.995   1.471
 6957SOL    HW121770   6.780   4.955   1.402
 6957SOL    HW221771   6.631   4.949   1.469
 6958SOL     OW21772   2.255   2.321   5.836
 6958SOL    HW121773   2.245   2.418   5.856
 6958SOL    HW221774   2.353   2.298   5.833
 6959SOL     OW21775   2.996   1.248   4.952
 6959SOL    HW121776   2.989   1.321   4.884
 6959SOL    HW221777   3.072   1.187   4.927
 6960SOL     OW21778   0.299   5.041   0.341
 6960SOL    HW121779   0.284   5.123   0.288
 6960SOL    HW221780   0.279   5.059   0.438
 6961SOL     OW21781   0.650   2.071   3.653
 6961SOL    HW121782   0.595   2.124   3.718
 6961SOL    HW221783   0.668   2.126   3.572
 6962SOL     OW21784   5.631   5.155   2.851
 6962SOL    HW121785   5.591   5.065   2.871
 6962SOL    HW221786   5.698   5.178   2.922
 6963SOL     OW21787   0.191   5.366   1.360
 6963SOL    HW121788   0.195   5.270   1.388
 6963SOL    HW221789   0.098   5.400   1.375
 6964SOL     OW21790   4.711   4.769   5.567
 6964SOL    HW121791   4.678   4.856   5.605
 6964SOL    HW221792   4.671   4.754   5.477
 6965SOL     OW21793   6.478   3.371   6.006
 6965SOL    HW121794   6.506   3.304   6.075
 6965SOL    HW221795   6.435   3.449   6.051
 6966SOL     OW21796   5.387   2.648   2.777
 6966SOL    HW121797   5.316   2.655   2.707
 6966SOL    HW221798   5.406   2.738   2.814
 6967SOL     OW21799   1.834   1.796   5.267
 6967SOL    HW121800   1.843   1.810   5.366
 6967SOL    HW221801   1.924   1.805   5.224
 6968SOL     OW21802   4.160   6.182   0.894
 6968SOL    HW121803   4.204   6.256   0.944
 6968SOL    HW221804   4.063   6.204   0.880
 6969SOL     OW21805   3.846   1.574   1.836
 6969SOL    HW121806   3.795   1.520   1.769
 6969SOL    HW221807   3.921   1.519   1.873
 6970SOL     OW21808   3.836   4.020   0.891
 6970SOL    HW121809   3.898   4.007   0.814
 6970SOL    HW221810   3.747   3.980   0.869
 6971SOL     OW21811   6.547   2.632   2.122
 6971SOL    HW121812   6.645   2.614   2.111
 6971SOL    HW221813   6.508   2.661   2.034
 6972SOL     OW21814   5.442   4.254   4.429
 6972SOL    HW121815   5.451   4.228   4.333
 6972SOL    HW221816   5.434   4.172   4.485
 6973SOL     OW21817   1.607   4.885   4.783
 6973SOL    HW121818   1.679   4.830   4.825
 6973SOL    HW221819   1.642   4.930   4.702
 6974SOL     OW21820   3.749   3.246   3.477
 6974SOL    HW121821   3.749   3.263   3.378
 6974SOL    HW221822   3.655   3.228   3.508
 6975SOL     OW21823   3.590   0.040   5.370
 6975SOL    HW121824   3.546   7.016   5.444
 6975SOL    HW221825   3.543   0.022   5.284
 6976SOL     OW21826   3.693   4.850   6.865
 6976SOL    HW121827   3.754   4.867   6.788
 6976SOL    HW221828   3.730   4.892   6.948
 6977SOL     OW21829   5.302   1.848   1.679
 6977SOL    HW121830   5.376   1.867   1.744
 6977SOL    HW221831   5.257   1.934   1.655
 6978SOL     OW21832   6.472   0.757   1.840
 6978SOL    HW121833   6.408   0.727   1.910
 6978SOL    HW221834   6.566   0.741   1.871
 6979SOL     OW21835   1.284   5.682   2.166
 6979SOL    HW121836   1.380   5.667   2.143
 6979SOL    HW221837   1.226   5.658   2.088
 6980SOL     OW21838   2.107   0.778   3.464
 6980SOL    HW121839   2.015   0.772   3.503
 6980SOL    HW221840   2.101   0.795   3.366
 6981SOL     OW21841   2.339   4.240   6.639
 6981SOL    HW121842   2.258   4.279   6.595
 6981SOL    HW221843   2.389   4.184   6.573
 6982SOL     OW21844   1.689   0.933   4.054
 6982SOL    HW121845   1.590   0.938   4.070
 6982SOL    HW221846   1.728   1.025   4.058
 6983SOL     OW21847   0.300   0.896   4.217
 6983SOL    HW121848   0.237   0.902   4.140
 6983SOL    HW221849   0.392   0.873   4.185
 6984SOL     OW21850   2.436   1.552   5.143
 6984SOL    HW121851   2.438   1.604   5.229
 6984SOL    HW221852   2.403   1.610   5.069
 6985SOL     OW21853   3.837   5.464   2.439
 6985SOL    HW121854   3.831   5.548   2.386
 6985SOL    HW221855   3.767   5.400   2.407
 6986SOL     OW21856   2.380   6.366   5.869
 6986SOL    HW121857   2.386   6.271   5.839
 6986SOL    HW221858   2.463   6.390   5.919
 6987SOL     OW21859   0.138   1.974   6.001
 6987SOL    HW121860   0.237   1.959   6.003
 6987SOL    HW221861   0.094   1.896   5.956
 6988SOL     OW21862   5.994   1.107   5.020
 6988SOL    HW121863   5.998   1.037   5.091
 6988SOL    HW221864   5.930   1.179   5.046
 6989SOL     OW21865   1.164   1.672   3.219
 6989SOL    HW121866   1.233   1.731   3.177
 6989SOL    HW221867   1.079   1.723   3.231
 6990SOL     OW21868   4.896   1.864   0.280
 6990SOL    HW121869   4.884   1.822   0.190
 6990SOL    HW221870   4.905   1.963   0.270
 6991SOL     OW21871   2.569   4.696   5.032
 6991SOL    HW121872   2.522   4.723   5.116
 6991SOL    HW221873   2.668   4.690   5.050
 6992SOL     OW21874   5.927   6.085   4.810
 6992SOL    HW121875   5.842   6.110   4.766
 6992SOL    HW221876   5.952   6.155   4.878
 6993SOL     OW21877   5.976   6.417   3.033
 6993SOL    HW121878   5.912   6.399   2.959
 6993SOL    HW221879   5.927   6.454   3.112
 6994SOL     OW21880   0.815   3.463   5.196
 6994SOL    HW121881   0.770   3.453   5.108
 6994SOL    HW221882   0.757   3.424   5.268
 6995SOL     OW21883   6.201   5.233   4.646
 6995SOL    HW121884   6.149   5.148   4.653
 6995SOL    HW221885   6.277   5.221   4.582
 6996SOL     OW21886   2.726   0.709   5.031
 6996SOL    HW121887   2.714   0.784   4.966
 6996SOL    HW221888   2.658   0.638   5.013
 6997SOL     OW21889   4.808   6.475   5.617
 6997SOL    HW121890   4.824   6.418   5.537
 6997SOL    HW221891   4.872   6.450   5.690
 6998SOL     OW21892   1.821   3.361   1.877
 6998SOL    HW121893   1.778   3.432   1.821
 6998SOL    HW221894   1.921   3.371   1.872
 6999SOL     OW21895   2.545   1.702   6.731
 6999SOL    HW121896   2.460   1.735   6.773
 6999SOL    HW221897   2.593   1.642   6.795
 7000SOL     OW21898   0.240   6.136   2.721
 7000SOL    HW121899   0.197   6.215   2.678
 7000SOL    HW221900   0.339   6.153   2.730
 7001SOL     OW21901   2.625   2.470   6.075
 7001SOL    HW121902   2.645   2.463   5.977
 7001SOL    HW221903   2.698   2.425   6.127
 7002SOL     OW21904   2.425   4.480   3.738
 7002SOL    HW121905   2.363   4.516   3.669
 7002SOL    HW221906   2.507   4.443   3.694
 7003SOL     OW21907   2.808   0.079   6.816
 7003SOL    HW121908   2.767   0.141   6.884
 7003SOL    HW221909   2.801   0.121   6.725
 7004SOL     OW21910   2.020   4.565   1.633
 7004SOL    HW121911   2.031   4.590   1.537
 7004SOL    HW221912   1.948   4.498   1.643
 7005SOL     OW21913   0.419   5.981   5.656
 7005SOL    HW121914   0.512   6.007   5.683
 7005SOL    HW221915   0.422   5.897   5.602
 7006SOL     OW21916   5.169   4.358   5.184
 7006SOL    HW121917   5.203   4.269   5.154
 7006SOL    HW221918   5.184   4.368   5.282
 7007SOL     OW21919   5.030   6.557   3.273
 7007SOL    HW121920   5.104   6.623   3.277
 7007SOL    HW221921   5.034   6.507   3.187
 7008SOL     OW21922   2.441   4.859   4.075
 7008SOL    HW121923   2.366   4.799   4.046
 7008SOL    HW221924   2.461   4.842   4.172
 7009SOL     OW21925   6.505   4.851   2.225
 7009SOL    HW121926   6.560   4.890   2.299
 7009SOL    HW221927   6.539   4.883   2.137
 7010SOL     OW21928   4.270   4.684   5.866
 7010SOL    HW121929   4.302   4.771   5.829
 7010SOL    HW221930   4.191   4.700   5.925
 7011SOL     OW21931   1.368   6.922   5.706
 7011SOL    HW121932   1.457   6.884   5.730
 7011SOL    HW221933   1.370   6.953   5.611
 7012SOL     OW21934   1.593   0.688   1.882
 7012SOL    HW121935   1.646   0.731   1.808
 7012SOL    HW221936   1.528   0.623   1.843
 7013SOL     OW21937   0.877   6.488   0.940
 7013SOL    HW121938   0.914   6.570   0.984
 7013SOL    HW221939   0.827   6.434   1.008
 7014SOL     OW21940   4.525   4.212   1.062
 7014SOL    HW121941   4.520   4.239   1.159
 7014SOL    HW221942   4.455   4.144   1.043
 7015SOL     OW21943   5.482   3.551   1.873
 7015SOL    HW121944   5.522   3.568   1.963
 7015SOL    HW221945   5.404   3.488   1.882
 7016SOL     OW21946   4.118   4.719   2.741
 7016SOL    HW121947   4.090   4.787   2.673
 7016SOL    HW221948   4.039   4.662   2.765
 7017SOL     OW21949   2.380   1.179   2.292
 7017SOL    HW121950   2.351   1.142   2.204
 7017SOL    HW221951   2.302   1.184   2.354
 7018SOL     OW21952   0.085   4.453   4.873
 7018SOL    HW121953   0.181   4.456   4.845
 7018SOL    HW221954   0.061   4.539   4.918
 7019SOL     OW21955   2.780   4.627   6.769
 7019SOL    HW121956   2.850   4.556   6.771
 7019SOL    HW221957   2.761   4.652   6.674
 7020SOL     OW21958   5.333   6.714   0.501
 7020SOL    HW121959   5.274   6.698   0.421
 7020SOL    HW221960   5.429   6.706   0.475
 7021SOL     OW21961   2.932   0.887   5.354
 7021SOL    HW121962   3.005   0.875   5.287
 7021SOL    HW221963   2.881   0.801   5.363
 7022SOL     OW21964   4.854   4.170   0.268
 7022SOL    HW121965   4.774   4.161   0.328
 7022SOL    HW221966   4.923   4.103   0.295
 7023SOL     OW21967   6.729   2.371   3.190
 7023SOL    HW121968   6.752   2.348   3.285
 7023SOL    HW221969   6.809   2.411   3.145
 7024SOL     OW21970   1.690   5.893   6.526
 7024SOL    HW121971   1.768   5.956   6.522
 7024SOL    HW221972   1.609   5.939   6.490
 7025SOL     OW21973   3.450   1.524   6.756
 7025SOL    HW121974   3.480   1.560   6.844
 7025SOL    HW221975   3.352   1.540   6.745
 7026SOL     OW21976   2.717   1.606   1.772
 7026SOL    HW121977   2.653   1.538   1.807
 7026SOL    HW221978   2.806   1.564   1.757
 7027SOL     OW21979   3.399   6.025   3.020
 7027SOL    HW121980   3.425   6.121   3.034
 7027SOL    HW221981   3.471   5.965   3.054
 7028SOL     OW21982   5.780   6.385   4.517
 7028SOL    HW121983   5.735   6.314   4.572
 7028SOL    HW221984   5.863   6.415   4.564
 7029SOL     OW21985   3.944   6.666   6.742
 7029SOL    HW121986   3.909   6.723   6.668
 7029SOL    HW221987   3.882   6.589   6.758
 7030SOL     OW21988   0.400   3.440   5.801
 7030SOL    HW121989   0.315   3.386   5.809
 7030SOL    HW221990   0.400   3.489   5.714
 7031SOL     OW21991   2.308   5.819   3.747
 7031SOL    HW121992   2.309   5.724   3.717
 7031SOL    HW221993   2.225   5.837   3.800
 7032SOL     OW21994   4.529   6.876   3.726
 7032SOL    HW121995   4.549   6.958   3.780
 7032SOL    HW221996   4.430   6.864   3.719
 7033SOL     OW21997   6.614   1.396   4.257
 7033SOL    HW121998   6.603   1.297   4.271
 7033SOL    HW221999   6.568   1.423   4.173
 7034SOL     OW22000   5.320   0.818   3.083
 7034SOL    HW122001   5.344   0.824   2.986
 7034SOL    HW222002   5.301   0.910   3.118
 7035SOL     OW22003   1.223   6.901   2.663
 7035SOL    HW122004   1.202   6.806   2.686
 7035SOL    HW222005   1.264   6.905   2.572
 7036SOL     OW22006   6.523   5.970   1.568
 7036SOL    HW122007   6.573   5.884   1.555
 7036SOL    HW222008   6.428   5.951   1.593
 7037SOL     OW22009   0.209   6.635   6.562
 7037SOL    HW122010   0.234   6.560   6.623
 7037SOL    HW222011   0.217   6.604   6.467
 7038SOL     OW22012   1.741   3.725   4.473
 7038SOL    HW122013   1.656   3.693   4.513
 7038SOL    HW222014   1.796   3.646   4.446
 7039SOL     OW22015   2.979   6.659   0.001
 7039SOL    HW122016   2.993   6.757   7.019
 7039SOL    HW222017   2.981   6.635   0.098
 7040SOL     OW22018   4.831   2.571   5.978
 7040SOL    HW122019   4.857   2.475   5.983
 7040SOL    HW222020   4.827   2.599   5.882
 7041SOL     OW22021   1.285   1.915   3.176
 7041SOL    HW122022   1.371   1.868   3.196
 7041SOL    HW222023   1.301   1.989   3.110
 7042SOL     OW22024   5.415   5.270   6.399
 7042SOL    HW122025   5.340   5.336   6.406
 7042SOL    HW222026   5.483   5.304   6.334
 7043SOL     OW22027   2.227   2.801   2.687
 7043SOL    HW122028   2.242   2.871   2.757
 7043SOL    HW222029   2.226   2.711   2.730
 7044SOL     OW22030   4.964   4.493   3.021
 7044SOL    HW122031   5.050   4.543   3.030
 7044SOL    HW222032   4.980   4.396   3.041
 7045SOL     OW22033   4.664   6.385   1.396
 7045SOL    HW122034   4.644   6.482   1.389
 7045SOL    HW222035   4.752   6.365   1.353
 7046SOL     OW22036   3.658   1.819   3.819
 7046SOL    HW122037   3.580   1.878   3.839
 7046SOL    HW222038   3.722   1.867   3.759
 7047SOL     OW22039   1.132   2.429   3.186
 7047SOL    HW122040   1.151   2.524   3.212
 7047SOL    HW222041   1.203   2.397   3.123
 7048SOL     OW22042   1.127   5.868   1.360
 7048SOL    HW122043   1.092   5.788   1.311
 7048SOL    HW222044   1.221   5.849   1.391
 7049SOL     OW22045   2.755   0.812   0.901
 7049SOL    HW122046   2.763   0.714   0.917
 7049SOL    HW222047   2.742   0.860   0.988
 7050SOL     OW22048   3.204   4.009   3.751
 7050SOL    HW122049   3.191   3.965   3.840
 7050SOL    HW222050   3.292   4.058   3.750
 7051SOL     OW22051   0.349   0.282   1.009
 7051SOL    HW122052   0.347   0.310   1.105
 7051SOL    HW222053   0.347   0.363   0.951
 7052SOL     OW22054   6.451   2.329   4.431
 7052SOL    HW122055   6.393   2.248   4.434
 7052SOL    HW222056   6.394   2.412   4.429
 7053SOL     OW22057   0.142   3.128   6.371
 7053SOL    HW122058   0.166   3.189   6.295
 7053SOL    HW222059   0.082   3.177   6.435
 7054SOL     OW22060   1.281   6.492   1.412
 7054SOL    HW122061   1.240   6.481   1.502
 7054SOL    HW222062   1.378   6.469   1.417
 7055SOL     OW22063   4.295   6.610   5.537
 7055SOL    HW122064   4.257   6.582   5.625
 7055SOL    HW222065   4.376   6.555   5.517
 7056SOL     OW22066   5.839   4.942   3.585
 7056SOL    HW122067   5.791   5.015   3.535
 7056SOL    HW222068   5.823   4.954   3.683
 7057SOL     OW22069   0.620   4.173   4.691
 7057SOL    HW122070   0.647   4.078   4.699
 7057SOL    HW222071   0.699   4.228   4.662
 7058SOL     OW22072   0.186   5.570   5.471
 7058SOL    HW122073   0.190   5.583   5.372
 7058SOL    HW222074   0.258   5.624   5.514
 7059SOL     OW22075   0.110   0.399   2.029
 7059SOL    HW122076   0.059   0.376   2.112
 7059SOL    HW222077   0.066   0.476   1.983
 7060SOL     OW22078   3.628   0.207   1.411
 7060SOL    HW122079   3.711   0.174   1.366
 7060SOL    HW222080   3.548   0.163   1.369
 7061SOL     OW22081   0.061   1.941   3.616
 7061SOL    HW122082   0.058   2.002   3.694
 7061SOL    HW222083   7.001   1.943   3.568
 7062SOL     OW22084   5.822   1.380   5.617
 7062SOL    HW122085   5.860   1.462   5.575
 7062SOL    HW222086   5.897   1.318   5.644
 7063SOL     OW22087   1.320   6.616   0.750
 7063SOL    HW122088   1.338   6.692   0.688
 7063SOL    HW222089   1.304   6.532   0.697
 7064SOL     OW22090   4.365   2.341   1.546
 7064SOL    HW122091   4.331   2.252   1.576
 7064SOL    HW222092   4.296   2.412   1.563
 7065SOL     OW22093   4.872   3.889   1.070
 7065SOL    HW122094   4.875   3.847   1.160
 7065SOL    HW222095   4.795   3.852   1.018
 7066SOL     OW22096   3.701   0.540   0.527
 7066SOL    HW122097   3.758   0.615   0.492
 7066SOL    HW222098   3.610   0.547   0.486
 7067SOL     OW22099   1.526   2.685   5.271
 7067SOL    HW122100   1.481   2.774   5.262
 7067SOL    HW222101   1.572   2.662   5.186
 7068SOL     OW22102   0.594   3.643   3.177
 7068SOL    HW122103   0.546   3.555   3.180
 7068SOL    HW222104   0.650   3.647   3.094
 7069SOL     OW22105   6.839   3.138   4.978
 7069SOL    HW122106   6.917   3.194   4.951
 7069SOL    HW222107   6.760   3.197   4.997
 7070SOL     OW22108   6.645   5.408   4.872
 7070SOL    HW122109   6.738   5.428   4.901
 7070SOL    HW222110   6.628   5.309   4.878
 7071SOL     OW22111   0.196   6.913   5.199
 7071SOL    HW122112   0.125   6.984   5.201
 7071SOL    HW222113   0.282   6.952   5.168
 7072SOL     OW22114   6.741   0.635   6.191
 7072SOL    HW122115   6.675   0.600   6.124
 7072SOL    HW222116   6.822   0.576   6.190
 7073SOL     OW22117   6.359   0.775   4.653
 7073SOL    HW122118   6.286   0.785   4.721
 7073SOL    HW222119   6.446   0.805   4.693
 7074SOL     OW22120   3.722   2.856   2.313
 7074SOL    HW122121   3.704   2.782   2.247
 7074SOL    HW222122   3.796   2.914   2.278
 7075SOL     OW22123   1.277   6.305   4.608
 7075SOL    HW122124   1.211   6.297   4.533
 7075SOL    HW222125   1.233   6.347   4.687
 7076SOL     OW22126   4.018   2.419   0.746
 7076SOL    HW122127   4.058   2.476   0.675
 7076SOL    HW222128   4.079   2.344   0.768
 7077SOL     OW22129   2.358   5.399   5.644
 7077SOL    HW122130   2.304   5.466   5.594
 7077SOL    HW222131   2.347   5.414   5.743
 7078SOL     OW22132   6.547   0.270   2.127
 7078SOL    HW122133   6.530   0.295   2.032
 7078SOL    HW222134   6.464   0.232   2.168
 7079SOL     OW22135   6.542   6.661   5.728
 7079SOL    HW122136   6.491   6.586   5.771
 7079SOL    HW222137   6.631   6.669   5.772
 7080SOL     OW22138   4.355   2.175   3.876
 7080SOL    HW122139   4.356   2.150   3.779
 7080SOL    HW222140   4.437   2.228   3.897
 7081SOL     OW22141   3.578   0.940   5.519
 7081SOL    HW122142   3.568   0.871   5.590
 7081SOL    HW222143   3.579   0.897   5.429
 7082SOL     OW22144   5.771   6.464   0.562
 7082SOL    HW122145   5.700   6.534   0.567
 7082SOL    HW222146   5.736   6.385   0.511
 7083SOL     OW22147   3.354   1.292   6.363
 7083SOL    HW122148   3.317   1.229   6.295
 7083SOL    HW222149   3.449   1.313   6.341
 7084SOL     OW22150   6.743   0.033   5.295
 7084SOL    HW122151   6.741   6.986   5.229
 7084SOL    HW222152   6.833   0.038   5.337
 7085SOL     OW22153   1.859   1.017   3.045
 7085SOL    HW122154   1.889   1.111   3.062
 7085SOL    HW222155   1.929   0.954   3.077
 7086SOL     OW22156   5.404   1.485   6.294
 7086SOL    HW122157   5.340   1.560   6.310
 7086SOL    HW222158   5.354   1.405   6.261
 7087SOL     OW22159   0.261   3.506   3.733
 7087SOL    HW122160   0.172   3.503   3.777
 7087SOL    HW222161   0.252   3.543   3.640
 7088SOL     OW22162   4.921   3.042   4.162
 7088SOL    HW122163   4.907   3.135   4.198
 7088SOL    HW222164   5.017   3.032   4.135
 7089SOL     OW22165   3.223   2.473   6.226
 7089SOL    HW122166   3.199   2.483   6.323
 7089SOL    HW222167   3.160   2.408   6.183
 7090SOL     OW22168   2.538   1.359   5.882
 7090SOL    HW122169   2.580   1.286   5.829
 7090SOL    HW222170   2.605   1.396   5.946
 7091SOL     OW22171   6.864   2.005   6.714
 7091SOL    HW122172   6.939   2.041   6.770
 7091SOL    HW222173   6.797   2.077   6.699
 7092SOL     OW22174   4.143   2.956   7.022
 7092SOL    HW122175   4.218   3.004   0.040
 7092SOL    HW222176   4.175   2.866   6.991
 7093SOL     OW22177   2.936   3.600   3.830
 7093SOL    HW122178   2.977   3.514   3.799
 7093SOL    HW222179   2.931   3.663   3.752
 7094SOL     OW22180   0.444   6.718   5.388
 7094SOL    HW122181   0.461   6.654   5.463
 7094SOL    HW222182   0.379   6.677   5.323
 7095SOL     OW22183   2.990   2.671   6.873
 7095SOL    HW122184   2.957   2.630   6.788
 7095SOL    HW222185   3.079   2.714   6.857
 7096SOL     OW22186   6.089   1.386   3.785
 7096SOL    HW122187   6.036   1.365   3.867
 7096SOL    HW222188   6.183   1.410   3.812
 7097SOL     OW22189   6.743   0.707   1.900
 7097SOL    HW122190   6.687   0.685   1.980
 7097SOL    HW222191   6.823   0.646   1.898
 7098SOL     OW22192   1.308   6.061   4.984
 7098SOL    HW122193   1.267   6.092   5.070
 7098SOL    HW222194   1.397   6.105   4.973
 7099SOL     OW22195   2.062   0.995   4.382
 7099SOL    HW122196   2.032   1.086   4.410
 7099SOL    HW222197   2.020   0.972   4.294
 7100SOL     OW22198   5.136   3.606   1.034
 7100SOL    HW122199   5.157   3.700   1.008
 7100SOL    HW222200   5.066   3.570   0.973
 7101SOL     OW22201   2.093   0.421   4.345
 7101SOL    HW122202   2.153   0.341   4.344
 7101SOL    HW222203   2.079   0.452   4.439
 7102SOL     OW22204   4.317   0.690   0.840
 7102SOL    HW122205   4.360   0.700   0.929
 7102SOL    HW222206   4.351   0.608   0.795
 7103SOL     OW22207   4.067   5.817   0.135
 7103SOL    HW122208   4.055   5.910   0.100
 7103SOL    HW222209   3.980   5.768   0.128
 7104SOL     OW22210   0.908   3.553   4.619
 7104SOL    HW122211   0.977   3.482   4.631
 7104SOL    HW222212   0.816   3.514   4.629
 7105SOL     OW22213   3.666   3.002   5.417
 7105SOL    HW122214   3.610   3.085   5.416
 7105SOL    HW222215   3.738   3.011   5.485
 7106SOL     OW22216   3.388   2.919   3.751
 7106SOL    HW122217   3.398   2.964   3.840
 7106SOL    HW222218   3.463   2.947   3.691
 7107SOL     OW22219   2.876   0.910   0.660
 7107SOL    HW122220   2.855   0.887   0.755
 7107SOL    HW222221   2.829   0.846   0.599
 7108SOL     OW22222   4.537   6.350   1.155
 7108SOL    HW122223   4.579   6.355   1.246
 7108SOL    HW222224   4.549   6.438   1.108
 7109SOL     OW22225   3.504   6.807   6.357
 7109SOL    HW122226   3.573   6.876   6.381
 7109SOL    HW222227   3.465   6.769   6.441
 7110SOL     OW22228   5.451   4.966   4.008
 7110SOL    HW122229   5.372   4.984   4.068
 7110SOL    HW222230   5.524   5.031   4.030
 7111SOL     OW22231   1.822   2.986   4.507
 7111SOL    HW122232   1.839   3.048   4.583
 7111SOL    HW222233   1.873   2.902   4.520
 7112SOL     OW22234   1.986   5.628   4.311
 7112SOL    HW122235   1.957   5.633   4.407
 7112SOL    HW222236   2.034   5.542   4.295
 7113SOL     OW22237   3.089   3.693   4.629
 7113SOL    HW122238   3.131   3.768   4.679
 7113SOL    HW222239   3.036   3.637   4.693
 7114SOL     OW22240   4.177   6.697   1.737
 7114SOL    HW122241   4.190   6.797   1.740
 7114SOL    HW222242   4.214   6.662   1.651
 7115SOL     OW22243   5.178   2.360   1.804
 7115SOL    HW122244   5.239   2.377   1.881
 7115SOL    HW222245   5.220   2.296   1.741
 7116SOL     OW22246   5.730   3.080   3.196
 7116SOL    HW122247   5.712   3.146   3.123
 7116SOL    HW222248   5.808   3.023   3.170
 7117SOL     OW22249   0.123   0.156   4.241
 7117SOL    HW122250   0.141   0.130   4.336
 7117SOL    HW222251   0.026   0.180   4.231
 7118SOL     OW22252   4.235   3.161   1.013
 7118SOL    HW122253   4.267   3.084   1.068
 7118SOL    HW222254   4.312   3.220   0.990
 7119SOL     OW22255   4.783   1.453   3.482
 7119SOL    HW122256   4.850   1.527   3.478
 7119SOL    HW222257   4.830   1.368   3.507
 7120SOL     OW22258   3.804   1.430   3.145
 7120SOL    HW122259   3.877   1.474   3.094
 7120SOL    HW222260   3.720   1.484   3.137
 7121SOL     OW22261   2.118   0.182   2.717
 7121SOL    HW122262   2.217   0.197   2.712
 7121SOL    HW222263   2.075   0.258   2.766
 7122SOL     OW22264   6.479   1.171   6.705
 7122SOL    HW122265   6.391   1.185   6.749
 7122SOL    HW222266   6.493   1.073   6.690
 7123SOL     OW22267   3.173   5.228   1.260
 7123SOL    HW122268   3.160   5.265   1.168
 7123SOL    HW222269   3.146   5.132   1.261
 7124SOL     OW22270   1.102   3.692   0.316
 7124SOL    HW122271   1.123   3.688   0.218
 7124SOL    HW222272   1.187   3.700   0.368
 7125SOL     OW22273   0.140   6.585   1.422
 7125SOL    HW122274   0.214   6.517   1.420
 7125SOL    HW222275   0.109   6.603   1.329
 7126SOL     OW22276   2.550   4.461   0.175
 7126SOL    HW122277   2.509   4.536   0.225
 7126SOL    HW222278   2.599   4.497   0.095
 7127SOL     OW22279   2.434   5.622   4.353
 7127SOL    HW122280   2.503   5.619   4.426
 7127SOL    HW222281   2.476   5.592   4.267
 7128SOL     OW22282   2.858   5.063   0.440
 7128SOL    HW122283   2.893   4.994   0.503
 7128SOL    HW222284   2.934   5.104   0.390
 7129SOL     OW22285   3.525   0.623   0.871
 7129SOL    HW122286   3.478   0.571   0.800
 7129SOL    HW222287   3.612   0.657   0.835
 7130SOL     OW22288   3.164   4.912   4.745
 7130SOL    HW122289   3.223   4.945   4.671
 7130SOL    HW222290   3.070   4.903   4.712
 7131SOL     OW22291   2.343   2.110   0.353
 7131SOL    HW122292   2.406   2.145   0.423
 7131SOL    HW222293   2.341   2.011   0.357
 7132SOL     OW22294   3.417   3.973   1.563
 7132SOL    HW122295   3.410   3.896   1.499
 7132SOL    HW222296   3.355   4.046   1.534
 7133SOL     OW22297   5.528   4.907   3.446
 7133SOL    HW122298   5.509   4.877   3.539
 7133SOL    HW222299   5.603   4.973   3.447
 7134SOL     OW22300   5.928   5.676   3.003
 7134SOL    HW122301   5.979   5.762   2.999
 7134SOL    HW222302   5.956   5.623   3.083
 7135SOL     OW22303   1.851   1.837   3.506
 7135SOL    HW122304   1.890   1.757   3.552
 7135SOL    HW222305   1.921   1.908   3.500
 7136SOL     OW22306   2.371   2.002   0.761
 7136SOL    HW122307   2.416   1.963   0.842
 7136SOL    HW222308   2.397   2.098   0.751
 7137SOL     OW22309   5.111   0.934   5.259
 7137SOL    HW122310   5.202   0.900   5.237
 7137SOL    HW222311   5.049   0.857   5.270
 7138SOL     OW22312   3.233   2.557   0.607
 7138SOL    HW122313   3.174   2.625   0.564
 7138SOL    HW222314   3.240   2.575   0.705
 7139SOL     OW22315   4.941   3.103   2.132
 7139SOL    HW122316   4.858   3.067   2.090
 7139SOL    HW222317   4.968   3.043   2.208
 7140SOL     OW22318   6.289   3.338   4.837
 7140SOL    HW122319   6.268   3.354   4.933
 7140SOL    HW222320   6.308   3.425   4.792
 7141SOL     OW22321   3.266   6.632   1.193
 7141SOL    HW122322   3.215   6.717   1.209
 7141SOL    HW222323   3.219   6.557   1.239
 7142SOL     OW22324   4.219   6.738   2.750
 7142SOL    HW122325   4.287   6.752   2.678
 7142SOL    HW222326   4.266   6.719   2.836
 7143SOL     OW22327   1.267   2.342   6.407
 7143SOL    HW122328   1.180   2.320   6.363
 7143SOL    HW222329   1.321   2.402   6.347
 7144SOL     OW22330   1.174   1.413   3.124
 7144SOL    HW122331   1.225   1.415   3.038
 7144SOL    HW222332   1.166   1.506   3.160
 7145SOL     OW22333   4.201   6.225   6.070
 7145SOL    HW122334   4.229   6.256   6.160
 7145SOL    HW222335   4.108   6.259   6.051
 7146SOL     OW22336   2.087   0.402   0.033
 7146SOL    HW122337   2.076   0.492   0.075
 7146SOL    HW222338   2.099   0.412   6.962
 7147SOL     OW22339   6.258   6.563   3.559
 7147SOL    HW122340   6.217   6.653   3.572
 7147SOL    HW222341   6.257   6.513   3.646
 7148SOL     OW22342   0.092   6.129   1.808
 7148SOL    HW122343   0.064   6.045   1.761
 7148SOL    HW222344   0.106   6.201   1.741
 7149SOL     OW22345   6.972   6.570   3.417
 7149SOL    HW122346   6.892   6.529   3.374
 7149SOL    HW222347   6.964   6.670   3.415
 7150SOL     OW22348   4.557   2.616   1.569
 7150SOL    HW122349   4.648   2.589   1.601
 7150SOL    HW222350   4.499   2.637   1.648
 7151SOL     OW22351   0.908   5.995   0.892
 7151SOL    HW122352   0.969   6.071   0.868
 7151SOL    HW222353   0.955   5.908   0.876
 7152SOL     OW22354   0.434   2.293   5.630
 7152SOL    HW122355   0.412   2.327   5.721
 7152SOL    HW222356   0.352   2.260   5.584
 7153SOL     OW22357   3.462   6.129   4.034
 7153SOL    HW122358   3.481   6.225   4.011
 7153SOL    HW222359   3.406   6.125   4.117
 7154SOL     OW22360   4.121   5.981   4.900
 7154SOL    HW122361   4.213   5.977   4.860
 7154SOL    HW222362   4.060   5.920   4.849
 7155SOL     OW22363   1.867   6.362   1.562
 7155SOL    HW122364   1.859   6.458   1.591
 7155SOL    HW222365   1.867   6.357   1.463
 7156SOL     OW22366   0.938   4.918   4.756
 7156SOL    HW122367   0.952   4.990   4.688
 7156SOL    HW222368   1.007   4.847   4.743
 7157SOL     OW22369   5.896   4.711   0.979
 7157SOL    HW122370   5.988   4.750   0.976
 7157SOL    HW222371   5.830   4.784   1.000
 7158SOL     OW22372   0.249   6.974   3.141
 7158SOL    HW122373   0.348   6.964   3.131
 7158SOL    HW222374   0.223   6.960   3.236
 7159SOL     OW22375   0.375   4.312   2.420
 7159SOL    HW122376   0.295   4.252   2.420
 7159SOL    HW222377   0.415   4.315   2.328
 7160SOL     OW22378   6.565   0.653   2.995
 7160SOL    HW122379   6.491   0.628   3.058
 7160SOL    HW222380   6.640   0.588   3.004
 7161SOL     OW22381   3.306   4.147   4.645
 7161SOL    HW122382   3.216   4.184   4.669
 7161SOL    HW222383   3.378   4.204   4.685
 7162SOL     OW22384   3.309   6.221   5.572
 7162SOL    HW122385   3.257   6.291   5.621
 7162SOL    HW222386   3.245   6.156   5.530
 7163SOL     OW22387   3.236   6.715   3.826
 7163SOL    HW122388   3.166   6.653   3.788
 7163SOL    HW222389   3.282   6.762   3.751
 7164SOL     OW22390   1.844   2.183   2.901
 7164SOL    HW122391   1.914   2.249   2.874
 7164SOL    HW222392   1.776   2.228   2.959
 7165SOL     OW22393   6.199   0.842   1.159
 7165SOL    HW122394   6.108   0.872   1.132
 7165SOL    HW222395   6.194   0.790   1.245
 7166SOL     OW22396   5.114   3.769   0.548
 7166SOL    HW122397   5.195   3.713   0.528
 7166SOL    HW222398   5.118   3.801   0.643
 7167SOL     OW22399   5.080   3.932   5.135
 7167SOL    HW122400   5.141   3.954   5.211
 7167SOL    HW222401   5.090   4.002   5.064
 7168SOL     OW22402   1.182   2.619   3.732
 7168SOL    HW122403   1.220   2.630   3.640
 7168SOL    HW222404   1.231   2.547   3.780
 7169SOL     OW22405   0.942   2.955   4.870
 7169SOL    HW122406   0.945   2.957   4.970
 7169SOL    HW222407   0.975   3.042   4.834
 7170SOL     OW22408   4.089   5.194   3.823
 7170SOL    HW122409   4.186   5.217   3.816
 7170SOL    HW222410   4.043   5.260   3.883
 7171SOL     OW22411   5.678   4.041   6.096
 7171SOL    HW122412   5.736   3.999   6.026
 7171SOL    HW222413   5.592   3.990   6.103
 7172SOL     OW22414   1.106   0.202   5.874
 7172SOL    HW122415   1.129   0.193   5.777
 7172SOL    HW222416   1.171   0.265   5.917
 7173SOL     OW22417   0.580   4.638   5.552
 7173SOL    HW122418   0.512   4.685   5.609
 7173SOL    HW222419   0.549   4.637   5.457
 7174SOL     OW22420   1.146   5.364   6.796
 7174SOL    HW122421   1.099   5.442   6.753
 7174SOL    HW222422   1.224   5.337   6.740
 7175SOL     OW22423   5.913   3.091   0.784
 7175SOL    HW122424   5.956   3.001   0.786
 7175SOL    HW222425   5.859   3.104   0.867
 7176SOL     OW22426   0.574   5.187   2.717
 7176SOL    HW122427   0.498   5.207   2.654
 7176SOL    HW222428   0.643   5.258   2.710
 7177SOL     OW22429   2.370   6.672   3.580
 7177SOL    HW122430   2.396   6.674   3.483
 7177SOL    HW222431   2.442   6.713   3.635
 7178SOL     OW22432   2.426   2.541   5.636
 7178SOL    HW122433   2.377   2.623   5.608
 7178SOL    HW222434   2.395   2.463   5.582
 7179SOL     OW22435   1.683   3.453   5.056
 7179SOL    HW122436   1.678   3.445   5.155
 7179SOL    HW222437   1.602   3.411   5.015
 7180SOL     OW22438   1.297   5.722   6.274
 7180SOL    HW122439   1.263   5.813   6.249
 7180SOL    HW222440   1.223   5.655   6.266
 7181SOL     OW22441   2.884   6.858   1.042
 7181SOL    HW122442   2.829   6.809   1.109
 7181SOL    HW222443   2.893   6.803   0.959
 7182SOL     OW22444   0.874   2.899   5.410
 7182SOL    HW122445   0.821   2.922   5.328
 7182SOL    HW222446   0.844   2.955   5.487
 7183SOL     OW22447   1.747   4.870   1.864
 7183SOL    HW122448   1.732   4.956   1.815
 7183SOL    HW222449   1.830   4.826   1.830
 7184SOL     OW22450   0.473   0.009   3.781
 7184SOL    HW122451   0.522   0.092   3.751
 7184SOL    HW222452   0.539   6.970   3.816
 7185SOL     OW22453   5.098   2.231   5.925
 7185SOL    HW122454   5.188   2.273   5.910
 7185SOL    HW222455   5.105   2.132   5.912
 7186SOL     OW22456   0.208   0.188   5.680
 7186SOL    HW122457   0.275   0.202   5.607
 7186SOL    HW222458   0.256   0.170   5.766
 7187SOL     OW22459   1.709   4.796   1.129
 7187SOL    HW122460   1.726   4.852   1.047
 7187SOL    HW222461   1.617   4.759   1.125
 7188SOL     OW22462   5.324   6.927   0.663
 7188SOL    HW122463   5.227   6.925   0.687
 7188SOL    HW222464   5.347   6.846   0.610
 7189SOL     OW22465   6.467   1.018   7.015
 7189SOL    HW122466   6.389   1.070   6.981
 7189SOL    HW222467   6.438   0.926   0.013
 7190SOL     OW22468   5.414   3.380   3.228
 7190SOL    HW122469   5.339   3.360   3.165
 7190SOL    HW222470   5.496   3.331   3.199
 7191SOL     OW22471   0.897   4.309   2.601
 7191SOL    HW122472   0.804   4.278   2.622
 7191SOL    HW222473   0.894   4.402   2.564
 7192SOL     OW22474   2.241   5.972   4.784
 7192SOL    HW122475   2.145   5.952   4.803
 7192SOL    HW222476   2.249   6.064   4.745
 7193SOL     OW22477   3.151   2.033   3.175
 7193SOL    HW122478   3.180   2.094   3.100
 7193SOL    HW222479   3.127   1.944   3.137
 7194SOL     OW22480   2.273   2.444   1.009
 7194SOL    HW122481   2.275   2.372   1.078
 7194SOL    HW222482   2.358   2.496   1.012
 7195SOL     OW22483   0.543   5.145   6.722
 7195SOL    HW122484   0.577   5.180   6.635
 7195SOL    HW222485   0.566   5.209   6.795
 7196SOL     OW22486   2.889   3.560   2.399
 7196SOL    HW122487   2.923   3.522   2.313
 7196SOL    HW222488   2.789   3.565   2.397
 7197SOL     OW22489   6.897   2.632   5.992
 7197SOL    HW122490   6.812   2.608   6.037
 7197SOL    HW222491   6.969   2.567   6.019
 7198SOL     OW22492   1.054   0.707   5.007
 7198SOL    HW122493   0.998   0.700   5.089
 7198SOL    HW222494   0.996   0.698   4.926
 7199SOL     OW22495   1.750   0.808   2.063
 7199SOL    HW122496   1.664   0.775   2.024
 7199SOL    HW222497   1.739   0.822   2.162
 7200SOL     OW22498   2.474   0.882   0.091
 7200SOL    HW122499   2.426   0.812   0.037
 7200SOL    HW222500   2.561   0.904   0.047
 7201SOL     OW22501   1.488   5.043   3.541
 7201SOL    HW122502   1.559   5.101   3.580
 7201SOL    HW222503   1.466   5.074   3.449
 7202SOL     OW22504   3.687   7.006   6.424
 7202SOL    HW122505   3.755   0.048   6.401
 7202SOL    HW222506   3.595   0.015   6.410
 7203SOL     OW22507   6.050   1.246   0.717
 7203SOL    HW122508   6.103   1.164   0.738
 7203SOL    HW222509   6.039   1.300   0.800
 7204SOL     OW22510   5.821   6.694   4.717
 7204SOL    HW122511   5.869   6.619   4.671
 7204SOL    HW222512   5.737   6.715   4.668
 7205SOL     OW22513   1.879   6.592   3.534
 7205SOL    HW122514   1.875   6.540   3.449
 7205SOL    HW222515   1.806   6.561   3.595
 7206SOL     OW22516   1.041   0.461   1.390
 7206SOL    HW122517   1.087   0.440   1.304
 7206SOL    HW222518   1.024   0.559   1.396
 7207SOL     OW22519   3.657   6.881   1.434
 7207SOL    HW122520   3.601   6.855   1.355
 7207SOL    HW222521   3.737   6.820   1.440
 7208SOL     OW22522   4.307   6.476   4.493
 7208SOL    HW122523   4.223   6.435   4.460
 7208SOL    HW222524   4.376   6.475   4.421
 7209SOL     OW22525   2.972   3.344   3.392
 7209SOL    HW122526   2.918   3.287   3.330
 7209SOL    HW222527   2.945   3.440   3.381
 7210SOL     OW22528   5.352   0.163   3.544
 7210SOL    HW122529   5.286   0.238   3.540
 7210SOL    HW222530   5.444   0.199   3.527
 7211SOL     OW22531   1.500   5.824   3.754
 7211SOL    HW122532   1.403   5.844   3.764
 7211SOL    HW222533   1.538   5.880   3.680
 7212SOL     OW22534   0.944   5.951   3.660
 7212SOL    HW122535   1.001   5.916   3.586
 7212SOL    HW222536   0.990   6.028   3.704
 7213SOL     OW22537   5.843   0.054   5.711
 7213SOL    HW122538   5.783   0.125   5.675
 7213SOL    HW222539   5.842   7.003   5.649
 7214SOL     OW22540   2.466   5.076   3.900
 7214SOL    HW122541   2.487   4.987   3.941
 7214SOL    HW222542   2.369   5.078   3.875
 7215SOL     OW22543   0.546   3.510   4.399
 7215SOL    HW122544   0.543   3.609   4.402
 7215SOL    HW222545   0.469   3.472   4.450
 7216SOL     OW22546   2.656   6.045   6.670
 7216SOL    HW122547   2.602   5.978   6.618
 7216SOL    HW222548   2.594   6.102   6.725
 7217SOL     OW22549   1.674   4.618   1.583
 7217SOL    HW122550   1.738   4.641   1.510
 7217SOL    HW222551   1.591   4.672   1.572
 7218SOL     OW22552   4.701   3.016   5.588
 7218SOL    HW122553   4.683   2.943   5.653
 7218SOL    HW222554   4.635   3.090   5.602
 7219SOL     OW22555   4.841   5.431   3.081
 7219SOL    HW122556   4.834   5.332   3.091
 7219SOL    HW222557   4.774   5.476   3.139
 7220SOL     OW22558   6.689   5.681   3.591
 7220SOL    HW122559   6.678   5.715   3.497
 7220SOL    HW222560   6.600   5.650   3.626
 7221SOL     OW22561   5.085   5.381   4.902
 7221SOL    HW122562   5.143   5.344   4.975
 7221SOL    HW222563   5.143   5.409   4.825
 7222SOL     OW22564   6.389   6.461   0.267
 7222SOL    HW122565   6.314   6.395   0.269
 7222SOL    HW222566   6.437   6.460   0.354
 7223SOL     OW22567   3.238   1.768   1.658
 7223SOL    HW122568   3.166   1.786   1.591
 7223SOL    HW222569   3.199   1.723   1.738
 7224SOL     OW22570   5.975   2.085   4.696
 7224SOL    HW122571   5.960   2.176   4.733
 7224SOL    HW222572   6.016   2.092   4.605
 7225SOL     OW22573   1.433   5.500   6.699
 7225SOL    HW122574   1.514   5.545   6.660
 7225SOL    HW222575   1.426   5.407   6.664
 7226SOL     OW22576   0.533   0.695   0.666
 7226SOL    HW122577   0.550   0.598   0.648
 7226SOL    HW222578   0.448   0.723   0.621
 7227SOL     OW22579   0.869   2.120   0.476
 7227SOL    HW122580   0.774   2.120   0.508
 7227SOL    HW222581   0.871   2.109   0.377
 7228SOL     OW22582   6.850   0.997   2.014
 7228SOL    HW122583   6.800   0.912   2.032
 7228SOL    HW222584   6.903   0.988   1.930
 7229SOL     OW22585   0.619   0.625   3.962
 7229SOL    HW122586   0.615   0.614   4.062
 7229SOL    HW222587   0.702   0.675   3.938
 7230SOL     OW22588   4.457   5.252   4.841
 7230SOL    HW122589   4.529   5.266   4.774
 7230SOL    HW222590   4.475   5.308   4.922
 7231SOL     OW22591   4.264   0.283   0.279
 7231SOL    HW122592   4.225   0.309   0.191
 7231SOL    HW222593   4.345   0.226   0.263
 7232SOL     OW22594   3.687   4.876   3.301
 7232SOL    HW122595   3.640   4.875   3.212
 7232SOL    HW222596   3.681   4.967   3.341
 7233SOL     OW22597   0.655   2.898   4.747
 7233SOL    HW122598   0.606   2.872   4.830
 7233SOL    HW222599   0.745   2.934   4.771
 7234SOL     OW22600   6.285   2.892   2.106
 7234SOL    HW122601   6.224   2.873   2.029
 7234SOL    HW222602   6.275   2.819   2.174
 7235SOL     OW22603   6.517   3.625   3.514
 7235SOL    HW122604   6.589   3.583   3.459
 7235SOL    HW222605   6.428   3.595   3.481
 7236SOL     OW22606   3.360   1.876   2.916
 7236SOL    HW122607   3.356   1.811   2.992
 7236SOL    HW222608   3.363   1.969   2.952
 7237SOL     OW22609   6.679   6.568   4.946
 7237SOL    HW122610   6.608   6.542   4.880
 7237SOL    HW222611   6.748   6.625   4.900
 7238SOL     OW22612   2.444   1.838   1.483
 7238SOL    HW122613   2.531   1.835   1.532
 7238SOL    HW222614   2.407   1.931   1.483
 7239SOL     OW22615   2.112   1.857   3.156
 7239SOL    HW122616   2.034   1.794   3.147
 7239SOL    HW222617   2.183   1.814   3.211
 7240SOL     OW22618   2.902   4.057   0.256
 7240SOL    HW122619   2.939   4.135   0.306
 7240SOL    HW222620   2.875   3.986   0.322
 7241SOL     OW22621   3.259   0.558   6.207
 7241SOL    HW122622   3.244   0.637   6.146
 7241SOL    HW222623   3.301   0.484   6.155
 7242SOL     OW22624   5.852   4.369   0.101
 7242SOL    HW122625   5.918   4.330   0.166
 7242SOL    HW222626   5.834   4.464   0.125
 7243SOL     OW22627   1.174   4.343   6.666
 7243SOL    HW122628   1.079   4.348   6.635
 7243SOL    HW222629   1.232   4.392   6.601
 7244SOL     OW22630   4.523   0.681   1.066
 7244SOL    HW122631   4.483   0.759   1.115
 7244SOL    HW222632   4.617   0.702   1.039
 7245SOL     OW22633   0.329   2.663   4.862
 7245SOL    HW122634   0.234   2.650   4.890
 7245SOL    HW222635   0.388   2.601   4.915
 7246SOL     OW22636   6.896   6.648   4.423
 7246SOL    HW122637   6.926   6.719   4.487
 7246SOL    HW222638   6.913   6.558   4.463
 7247SOL     OW22639   2.488   6.750   2.706
 7247SOL    HW122640   2.407   6.694   2.689
 7247SOL    HW222641   2.461   6.833   2.756
 7248SOL     OW22642   3.490   1.116   3.698
 7248SOL    HW122643   3.464   1.199   3.649
 7248SOL    HW222644   3.574   1.133   3.751
 7249SOL     OW22645   5.634   4.271   1.064
 7249SOL    HW122646   5.591   4.229   1.143
 7249SOL    HW222647   5.705   4.334   1.094
 7250SOL     OW22648   2.189   4.754   6.265
 7250SOL    HW122649   2.202   4.775   6.362
 7250SOL    HW222650   2.145   4.832   6.220
 7251SOL     OW22651   6.591   0.142   5.563
 7251SOL    HW122652   6.635   0.169   5.478
 7251SOL    HW222653   6.542   0.220   5.602
 7252SOL     OW22654   3.408   3.439   4.649
 7252SOL    HW122655   3.338   3.368   4.658
 7252SOL    HW222656   3.392   3.511   4.716
 7253SOL     OW22657   1.676   6.131   0.323
 7253SOL    HW122658   1.688   6.154   0.419
 7253SOL    HW222659   1.633   6.207   0.275
 7254SOL     OW22660   3.363   5.563   4.696
 7254SOL    HW122661   3.348   5.476   4.648
 7254SOL    HW222662   3.426   5.619   4.643
 7255SOL     OW22663   3.194   3.161   2.026
 7255SOL    HW122664   3.190   3.149   2.125
 7255SOL    HW222665   3.267   3.226   2.003
 7256SOL     OW22666   4.754   4.809   4.557
 7256SOL    HW122667   4.692   4.888   4.550
 7256SOL    HW222668   4.845   4.841   4.585
 7257SOL     OW22669   6.245   2.840   3.526
 7257SOL    HW122670   6.203   2.755   3.495
 7257SOL    HW222671   6.294   2.823   3.612
 7258SOL     OW22672   4.596   0.497   4.265
 7258SOL    HW122673   4.566   0.587   4.297
 7258SOL    HW222674   4.554   0.426   4.322
 7259SOL     OW22675   2.926   4.455   0.214
 7259SOL    HW122676   2.983   4.398   0.273
 7259SOL    HW222677   2.895   4.401   0.135
 7260SOL     OW22678   3.823   1.922   3.243
 7260SOL    HW122679   3.903   1.890   3.294
 7260SOL    HW222680   3.847   2.005   3.192
 7261SOL     OW22681   2.350   3.344   1.580
 7261SOL    HW122682   2.432   3.371   1.632
 7261SOL    HW222683   2.276   3.407   1.600
 7262SOL     OW22684   5.906   2.649   4.346
 7262SOL    HW122685   5.840   2.712   4.387
 7262SOL    HW222686   5.878   2.555   4.364
 7263SOL     OW22687   1.427   5.320   1.642
 7263SOL    HW122688   1.462   5.370   1.721
 7263SOL    HW222689   1.467   5.357   1.559
 7264SOL     OW22690   0.071   1.326   6.927
 7264SOL    HW122691   0.114   1.285   6.847
 7264SOL    HW222692   0.133   1.320   7.006
 7265SOL     OW22693   5.622   5.535   6.117
 7265SOL    HW122694   5.542   5.567   6.065
 7265SOL    HW222695   5.699   5.596   6.099
 7266SOL     OW22696   4.722   0.864   1.216
 7266SOL    HW122697   4.699   0.866   1.314
 7266SOL    HW222698   4.686   0.946   1.172
 7267SOL     OW22699   6.925   4.500   5.178
 7267SOL    HW122700   6.882   4.551   5.252
 7267SOL    HW222701   6.967   4.563   5.113
 7268SOL     OW22702   4.057   5.767   2.410
 7268SOL    HW122703   4.082   5.678   2.372
 7268SOL    HW222704   4.043   5.758   2.509
 7269SOL     OW22705   0.799   5.303   1.680
 7269SOL    HW122706   0.818   5.276   1.774
 7269SOL    HW222707   0.872   5.363   1.647
 7270SOL     OW22708   2.616   2.088   3.186
 7270SOL    HW122709   2.641   2.139   3.268
 7270SOL    HW222710   2.695   2.081   3.125
 7271SOL     OW22711   0.108   4.263   2.771
 7271SOL    HW122712   0.180   4.332   2.771
 7271SOL    HW222713   0.033   4.294   2.830
 7272SOL     OW22714   5.298   2.796   2.536
 7272SOL    HW122715   5.206   2.768   2.511
 7272SOL    HW222716   5.365   2.740   2.487
 7273SOL     OW22717   5.600   3.930   1.655
 7273SOL    HW122718   5.652   3.965   1.733
 7273SOL    HW222719   5.516   3.888   1.688
 7274SOL     OW22720   0.048   5.146   5.822
 7274SOL    HW122721   0.093   5.066   5.863
 7274SOL    HW222722   0.014   5.121   5.731
 7275SOL     OW22723   6.570   0.539   0.227
 7275SOL    HW122724   6.663   0.526   0.191
 7275SOL    HW222725   6.539   0.632   0.205
 7276SOL     OW22726   2.624   1.802   3.668
 7276SOL    HW122727   2.642   1.729   3.602
 7276SOL    HW222728   2.685   1.790   3.747
 7277SOL     OW22729   4.743   1.370   5.925
 7277SOL    HW122730   4.732   1.322   6.012
 7277SOL    HW222731   4.829   1.422   5.926
 7278SOL     OW22732   4.021   1.795   3.382
 7278SOL    HW122733   3.948   1.784   3.450
 7278SOL    HW222734   4.038   1.708   3.337
 7279SOL     OW22735   4.206   4.345   1.119
 7279SOL    HW122736   4.204   4.346   1.019
 7279SOL    HW222737   4.116   4.372   1.155
 7280SOL     OW22738   5.228   2.354   5.345
 7280SOL    HW122739   5.244   2.255   5.347
 7280SOL    HW222740   5.316   2.402   5.345
 7281SOL     OW22741   3.633   6.709   0.713
 7281SOL    HW122742   3.651   6.708   0.811
 7281SOL    HW222743   3.673   6.628   0.671
 7282SOL     OW22744   6.858   5.509   2.168
 7282SOL    HW122745   6.882   5.580   2.234
 7282SOL    HW222746   6.916   5.517   2.087
 7283SOL     OW22747   2.806   6.029   2.133
 7283SOL    HW122748   2.891   6.035   2.080
 7283SOL    HW222749   2.819   5.967   2.210
 7284SOL     OW22750   6.843   2.796   3.709
 7284SOL    HW122751   6.914   2.748   3.658
 7284SOL    HW222752   6.878   2.885   3.738
 7285SOL     OW22753   4.653   2.693   1.869
 7285SOL    HW122754   4.616   2.785   1.852
 7285SOL    HW222755   4.730   2.699   1.933
 7286SOL     OW22756   0.691   1.109   0.662
 7286SOL    HW122757   0.791   1.116   0.667
 7286SOL    HW222758   0.652   1.200   0.651
 7287SOL     OW22759   0.430   2.805   3.709
 7287SOL    HW122760   0.334   2.789   3.689
 7287SOL    HW222761   0.462   2.737   3.775
 7288SOL     OW22762   2.872   2.254   2.689
 7288SOL    HW122763   2.808   2.286   2.620
 7288SOL    HW222764   2.960   2.232   2.646
 7289SOL     OW22765   5.824   2.478   1.999
 7289SOL    HW122766   5.737   2.511   1.961
 7289SOL    HW222767   5.898   2.538   1.969
 7290SOL     OW22768   4.176   1.291   5.738
 7290SOL    HW122769   4.085   1.283   5.779
 7290SOL    HW222770   4.211   1.200   5.717
 7291SOL     OW22771   3.359   6.900   0.000
 7291SOL    HW122772   3.345   6.822   0.061
 7291SOL    HW222773   3.337   6.873   6.934
 7292SOL     OW22774   1.365   0.129   3.311
 7292SOL    HW122775   1.296   0.106   3.379
 7292SOL    HW222776   1.449   0.077   3.329
 7293SOL     OW22777   1.420   0.722   5.311
 7293SOL    HW122778   1.363   0.648   5.277
 7293SOL    HW222779   1.439   0.787   5.236
 7294SOL     OW22780   3.116   4.691   1.774
 7294SOL    HW122781   3.049   4.630   1.817
 7294SOL    HW222782   3.184   4.637   1.725
 7295SOL     OW22783   6.467   4.683   1.794
 7295SOL    HW122784   6.396   4.687   1.723
 7295SOL    HW222785   6.550   4.644   1.755
 7296SOL     OW22786   3.578   4.890   3.038
 7296SOL    HW122787   3.668   4.863   3.004
 7296SOL    HW222788   3.508   4.865   2.972
 7297SOL     OW22789   3.433   6.683   1.585
 7297SOL    HW122790   3.466   6.757   1.644
 7297SOL    HW222791   3.508   6.620   1.566
 7298SOL     OW22792   4.468   5.691   6.536
 7298SOL    HW122793   4.534   5.624   6.572
 7298SOL    HW222794   4.411   5.724   6.611
 7299SOL     OW22795   1.068   2.799   6.922
 7299SOL    HW122796   1.166   2.818   6.919
 7299SOL    HW222797   1.051   2.706   6.889
 7300SOL     OW22798   1.135   5.369   2.061
 7300SOL    HW122799   1.124   5.286   2.006
 7300SOL    HW222800   1.217   5.361   2.118
 7301SOL     OW22801   6.051   0.138   5.887
 7301SOL    HW122802   5.997   0.130   5.804
 7301SOL    HW222803   6.062   0.048   5.930
 7302SOL     OW22804   5.253   2.971   6.262
 7302SOL    HW122805   5.292   2.956   6.171
 7302SOL    HW222806   5.230   2.883   6.303
 7303SOL     OW22807   2.911   1.187   0.876
 7303SOL    HW122808   2.844   1.157   0.809
 7303SOL    HW222809   2.902   1.285   0.891
 7304SOL     OW22810   2.562   5.032   1.302
 7304SOL    HW122811   2.580   4.988   1.214
 7304SOL    HW222812   2.465   5.021   1.325
 7305SOL     OW22813   5.884   2.197   0.172
 7305SOL    HW122814   5.879   2.141   0.090
 7305SOL    HW222815   5.858   2.291   0.150
 7306SOL     OW22816   3.335   1.847   0.749
 7306SOL    HW122817   3.389   1.875   0.829
 7306SOL    HW222818   3.279   1.924   0.718
 7307SOL     OW22819   3.209   6.687   2.043
 7307SOL    HW122820   3.182   6.780   2.017
 7307SOL    HW222821   3.308   6.679   2.038
 7308SOL     OW22822   5.686   1.005   2.089
 7308SOL    HW122823   5.665   1.103   2.097
 7308SOL    HW222824   5.632   0.966   2.015
 7309SOL     OW22825   2.385   5.843   2.934
 7309SOL    HW122826   2.458   5.904   2.903
 7309SOL    HW222827   2.422   5.753   2.952
 7310SOL     OW22828   1.513   3.328   0.331
 7310SOL    HW122829   1.476   3.323   0.238
 7310SOL    HW222830   1.610   3.350   0.327
 7311SOL     OW22831   0.320   0.211   0.704
 7311SOL    HW122832   0.328   0.285   0.771
 7311SOL    HW222833   0.223   0.188   0.692
 7312SOL     OW22834   6.847   1.958   5.711
 7312SOL    HW122835   6.799   2.046   5.711
 7312SOL    HW222836   6.945   1.974   5.723
 7313SOL     OW22837   2.315   0.987   1.449
 7313SOL    HW122838   2.341   1.063   1.390
 7313SOL    HW222839   2.256   1.020   1.522
 7314SOL     OW22840   6.830   4.252   0.008
 7314SOL    HW122841   6.880   4.188   0.067
 7314SOL    HW222842   6.760   4.202   6.985
 7315SOL     OW22843   6.726   5.357   2.546
 7315SOL    HW122844   6.817   5.316   2.533
 7315SOL    HW222845   6.722   5.401   2.635
 7316SOL     OW22846   2.635   2.123   6.075
 7316SOL    HW122847   2.574   2.043   6.074
 7316SOL    HW222848   2.615   2.178   6.156
 7317SOL     OW22849   3.555   1.451   1.907
 7317SOL    HW122850   3.612   1.370   1.923
 7317SOL    HW222851   3.533   1.457   1.809
 7318SOL     OW22852   3.480   6.925   2.250
 7318SOL    HW122853   3.557   6.986   2.232
 7318SOL    HW222854   3.464   6.866   2.171
 7319SOL     OW22855   6.945   4.122   0.248
 7319SOL    HW122856   7.009   4.103   0.323
 7319SOL    HW222857   6.876   4.188   0.278
 7320SOL     OW22858   6.753   4.009   1.000
 7320SOL    HW122859   6.825   4.078   0.992
 7320SOL    HW222860   6.773   3.933   0.938
 7321SOL     OW22861   1.892   6.180   5.915
 7321SOL    HW122862   1.885   6.210   6.010
 7321SOL    HW222863   1.984   6.146   5.898
 7322SOL     OW22864   0.934   1.246   3.072
 7322SOL    HW122865   0.964   1.162   3.117
 7322SOL    HW222866   1.012   1.305   3.055
 7323SOL     OW22867   1.882   1.733   1.127
 7323SOL    HW122868   1.824   1.674   1.183
 7323SOL    HW222869   1.974   1.694   1.121
 7324SOL     OW22870   5.841   4.710   2.871
 7324SOL    HW122871   5.752   4.668   2.891
 7324SOL    HW222872   5.906   4.639   2.845
 7325SOL     OW22873   3.743   0.635   5.374
 7325SOL    HW122874   3.828   0.639   5.322
 7325SOL    HW222875   3.670   0.600   5.315
 7326SOL     OW22876   3.193   0.790   6.446
 7326SOL    HW122877   3.269   0.725   6.444
 7326SOL    HW222878   3.135   0.771   6.525
 7327SOL     OW22879   5.807   3.556   3.258
 7327SOL    HW122880   5.893   3.523   3.297
 7327SOL    HW222881   5.811   3.553   3.159
 7328SOL     OW22882   3.823   5.438   5.794
 7328SOL    HW122883   3.768   5.398   5.868
 7328SOL    HW222884   3.765   5.496   5.737
 7329SOL     OW22885   2.128   3.191   0.241
 7329SOL    HW122886   2.076   3.247   0.176
 7329SOL    HW222887   2.102   3.215   0.335
 7330SOL     OW22888   2.944   3.070   1.419
 7330SOL    HW122889   2.953   3.152   1.363
 7330SOL    HW222890   2.858   3.023   1.397
 7331SOL     OW22891   4.957   0.365   2.125
 7331SOL    HW122892   4.988   0.330   2.213
 7331SOL    HW222893   4.984   0.302   2.052
 7332SOL     OW22894   3.767   3.747   6.920
 7332SOL    HW122895   3.830   3.739   6.998
 7332SOL    HW222896   3.689   3.804   6.945
 7333SOL     OW22897   6.688   3.116   1.904
 7333SOL    HW122898   6.770   3.121   1.846
 7333SOL    HW222899   6.710   3.146   1.996
 7334SOL     OW22900   3.008   7.001   5.442
 7334SOL    HW122901   3.096   0.000   5.403
 7334SOL    HW222902   2.988   6.906   5.418
 7335SOL     OW22903   6.917   3.631   2.829
 7335SOL    HW122904   6.829   3.628   2.875
 7335SOL    HW222905   6.974   3.702   2.871
 7336SOL     OW22906   1.586   6.202   1.221
 7336SOL    HW122907   1.592   6.202   1.121
 7336SOL    HW222908   1.496   6.169   1.249
 7337SOL     OW22909   3.188   2.855   1.965
 7337SOL    HW122910   3.138   2.878   2.048
 7337SOL    HW222911   3.235   2.936   1.930
 7338SOL     OW22912   5.376   2.743   1.285
 7338SOL    HW122913   5.297   2.754   1.224
 7338SOL    HW222914   5.394   2.646   1.299
 7339SOL     OW22915   6.863   6.426   5.081
 7339SOL    HW122916   6.892   6.344   5.032
 7339SOL    HW222917   6.782   6.464   5.037
 7340SOL     OW22918   3.331   1.021   7.021
 7340SOL    HW122919   3.322   0.953   6.948
 7340SOL    HW222920   3.245   1.025   0.045
 7341SOL     OW22921   0.174   4.578   3.867
 7341SOL    HW122922   0.109   4.503   3.881
 7341SOL    HW222923   0.174   4.605   3.771
 7342SOL     OW22924   6.809   0.669   0.129
 7342SOL    HW122925   6.826   0.758   0.087
 7342SOL    HW222926   6.877   0.651   0.200
 7343SOL     OW22927   5.855   4.049   2.158
 7343SOL    HW122928   5.839   4.048   2.256
 7343SOL    HW222929   5.809   4.128   2.117
 7344SOL     OW22930   1.786   6.788   6.611
 7344SOL    HW122931   1.790   6.888   6.607
 7344SOL    HW222932   1.702   6.759   6.656
 7345SOL     OW22933   4.230   5.198   5.580
 7345SOL    HW122934   4.132   5.218   5.581
 7345SOL    HW222935   4.268   5.220   5.670
 7346SOL     OW22936   3.656   4.493   0.941
 7346SOL    HW122937   3.580   4.495   0.876
 7346SOL    HW222938   3.676   4.586   0.971
 7347SOL     OW22939   6.215   2.303   2.004
 7347SOL    HW122940   6.175   2.276   1.916
 7347SOL    HW222941   6.303   2.256   2.016
 7348SOL     OW22942   1.346   3.049   3.996
 7348SOL    HW122943   1.355   2.981   3.924
 7348SOL    HW222944   1.251   3.081   4.001
 7349SOL     OW22945   3.336   2.075   1.612
 7349SOL    HW122946   3.296   2.057   1.522
 7349SOL    HW222947   3.379   1.992   1.646
 7350SOL     OW22948   0.713   2.259   3.448
 7350SOL    HW122949   0.781   2.329   3.472
 7350SOL    HW222950   0.756   2.190   3.390
 7351SOL     OW22951   4.078   4.586   6.461
 7351SOL    HW122952   4.067   4.590   6.361
 7351SOL    HW222953   4.003   4.531   6.499
 7352SOL     OW22954   1.291   1.526   2.447
 7352SOL    HW122955   1.364   1.594   2.440
 7352SOL    HW222956   1.228   1.537   2.370
 7353SOL     OW22957   6.388   1.715   4.812
 7353SOL    HW122958   6.335   1.725   4.728
 7353SOL    HW222959   6.474   1.766   4.803
 7354SOL     OW22960   6.631   0.835   6.342
 7354SOL    HW122961   6.661   0.760   6.282
 7354SOL    HW222962   6.536   0.820   6.369
 7355SOL     OW22963   1.060   6.460   1.238
 7355SOL    HW122964   1.141   6.458   1.296
 7355SOL    HW222965   1.029   6.367   1.219
 7356SOL     OW22966   5.953   2.632   6.444
 7356SOL    HW122967   5.866   2.661   6.405
 7356SOL    HW222968   5.993   2.560   6.387
 7357SOL     OW22969   4.678   0.694   0.589
 7357SOL    HW122970   4.657   0.770   0.651
 7357SOL    HW222971   4.641   0.715   0.498
 7358SOL     OW22972   3.473   2.141   3.650
 7358SOL    HW122973   3.459   2.240   3.639
 7358SOL    HW222974   3.508   2.122   3.742
 7359SOL     OW22975   3.732   3.099   1.913
 7359SOL    HW122976   3.722   3.177   1.975
 7359SOL    HW222977   3.645   3.082   1.866
 7360SOL     OW22978   1.795   3.084   5.216
 7360SOL    HW122979   1.852   3.166   5.223
 7360SOL    HW222980   1.705   3.103   5.255
 7361SOL     OW22981   5.354   6.599   0.740
 7361SOL    HW122982   5.442   6.633   0.774
 7361SOL    HW222983   5.322   6.658   0.666
 7362SOL     OW22984   0.787   0.085   4.959
 7362SOL    HW122985   0.734   0.001   4.972
 7362SOL    HW222986   0.859   0.068   4.893
 7363SOL     OW22987   6.106   2.447   0.443
 7363SOL    HW122988   6.127   2.533   0.489
 7363SOL    HW222989   6.015   2.452   0.402
 7364SOL     OW22990   4.108   6.549   1.012
 7364SOL    HW122991   4.015   6.586   1.009
 7364SOL    HW222992   4.105   6.453   1.038
 7365SOL     OW22993   2.979   6.982   2.581
 7365SOL    HW122994   3.052   6.983   2.513
 7365SOL    HW222995   2.982   0.038   2.635
 7366SOL     OW22996   0.889   5.145   6.855
 7366SOL    HW122997   0.843   5.197   6.926
 7366SOL    HW222998   0.880   5.192   6.767
 7367SOL     OW22999   4.562   3.976   1.274
 7367SOL    HW123000   4.583   3.997   1.179
 7367SOL    HW223001   4.606   4.043   1.334
 7368SOL     OW23002   3.294   3.631   4.453
 7368SOL    HW123003   3.217   3.645   4.515
 7368SOL    HW223004   3.345   3.716   4.443
 7369SOL     OW23005   4.702   3.505   1.178
 7369SOL    HW123006   4.675   3.523   1.273
 7369SOL    HW223007   4.713   3.406   1.165
 7370SOL     OW23008   1.914   0.289   6.760
 7370SOL    HW123009   1.832   0.232   6.772
 7370SOL    HW223010   1.972   0.249   6.689
 7371SOL     OW23011   2.902   5.177   3.893
 7371SOL    HW123012   2.954   5.254   3.931
 7371SOL    HW223013   2.930   5.162   3.798
 7372SOL     OW23014   3.796   6.973   5.133
 7372SOL    HW123015   3.699   6.955   5.147
 7372SOL    HW223016   3.821   6.949   5.039
 7373SOL     OW23017   4.164   0.907   3.490
 7373SOL    HW123018   4.158   0.833   3.557
 7373SOL    HW223019   4.101   0.980   3.516
 7374SOL     OW23020   1.556   2.771   4.993
 7374SOL    HW123021   1.524   2.703   4.927
 7374SOL    HW223022   1.593   2.850   4.944
 7375SOL     OW23023   1.439   1.674   4.296
 7375SOL    HW123024   1.406   1.633   4.211
 7375SOL    HW223025   1.458   1.771   4.280
 7376SOL     OW23026   3.359   2.984   6.841
 7376SOL    HW123027   3.319   2.895   6.860
 7376SOL    HW223028   3.458   2.975   6.831
 7377SOL     OW23029   4.787   4.945   1.479
 7377SOL    HW123030   4.875   4.966   1.436
 7377SOL    HW223031   4.722   5.018   1.459
 7378SOL     OW23032   6.916   2.341   4.472
 7378SOL    HW123033   6.833   2.393   4.493
 7378SOL    HW223034   6.895   2.243   4.469
 7379SOL     OW23035   4.468   1.048   2.518
 7379SOL    HW123036   4.379   1.033   2.562
 7379SOL    HW223037   4.506   0.961   2.489
 7380SOL     OW23038   6.578   3.723   5.690
 7380SOL    HW123039   6.583   3.699   5.593
 7380SOL    HW223040   6.663   3.694   5.735
 7381SOL     OW23041   4.704   2.802   2.355
 7381SOL    HW123042   4.751   2.844   2.433
 7381SOL    HW223043   4.658   2.718   2.384
 7382SOL     OW23044   0.464   5.001   5.409
 7382SOL    HW123045   0.547   5.020   5.461
 7382SOL    HW223046   0.477   5.025   5.313
 7383SOL     OW23047   0.398   6.450   2.536
 7383SOL    HW123048   0.470   6.472   2.601
 7383SOL    HW223049   0.377   6.530   2.481
 7384SOL     OW23050   5.452   0.846   2.301
 7384SOL    HW123051   5.469   0.868   2.204
 7384SOL    HW223052   5.540   0.837   2.349
 7385SOL     OW23053   4.343   5.902   2.175
 7385SOL    HW123054   4.406   5.827   2.195
 7385SOL    HW223055   4.324   5.953   2.259
 7386SOL     OW23056   0.728   2.143   5.754
 7386SOL    HW123057   0.720   2.057   5.704
 7386SOL    HW223058   0.756   2.125   5.848
 7387SOL     OW23059   4.103   5.918   4.224
 7387SOL    HW123060   4.005   5.899   4.226
 7387SOL    HW223061   4.117   6.014   4.200
 7388SOL     OW23062   6.819   5.378   4.076
 7388SOL    HW123063   6.890   5.351   4.140
 7388SOL    HW223064   6.860   5.411   3.991
 7389SOL     OW23065   1.492   4.448   0.184
 7389SOL    HW123066   1.429   4.441   0.107
 7389SOL    HW223067   1.440   4.450   0.269
 7390SOL     OW23068   0.778   1.988   6.260
 7390SOL    HW123069   0.762   2.020   6.167
 7390SOL    HW223070   0.875   1.965   6.271
 7391SOL     OW23071   5.483   4.425   6.103
 7391SOL    HW123072   5.490   4.375   6.016
 7391SOL    HW223073   5.406   4.488   6.099
 7392SOL     OW23074   1.757   6.016   5.750
 7392SOL    HW123075   1.671   6.044   5.706
 7392SOL    HW223076   1.801   6.096   5.790
 7393SOL     OW23077   6.139   5.177   1.968
 7393SOL    HW123078   6.224   5.216   2.002
 7393SOL    HW223079   6.090   5.245   1.912
 7394SOL     OW23080   3.833   3.196   6.103
 7394SOL    HW123081   3.903   3.237   6.163
 7394SOL    HW223082   3.743   3.206   6.146
 7395SOL     OW23083   0.647   0.707   6.340
 7395SOL    HW123084   0.708   0.707   6.261
 7395SOL    HW223085   0.592   0.623   6.339
 7396SOL     OW23086   1.782   0.890   6.268
 7396SOL    HW123087   1.731   0.916   6.187
 7396SOL    HW223088   1.803   0.972   6.322
 7397SOL     OW23089   6.148   4.535   4.848
 7397SOL    HW123090   6.175   4.616   4.795
 7397SOL    HW223091   6.229   4.498   4.894
 7398SOL     OW23092   3.478   5.107   3.917
 7398SOL    HW123093   3.547   5.147   3.856
 7398SOL    HW223094   3.523   5.052   3.988
 7399SOL     OW23095   0.266   4.087   5.876
 7399SOL    HW123096   0.221   4.070   5.788
 7399SOL    HW223097   0.325   4.168   5.868
 7400SOL     OW23098   3.175   4.238   6.740
 7400SOL    HW123099   3.204   4.150   6.704
 7400SOL    HW223100   3.087   4.227   6.787
 7401SOL     OW23101   0.269   0.855   3.259
 7401SOL    HW123102   0.227   0.799   3.188
 7401SOL    HW223103   0.198   0.892   3.319
 7402SOL     OW23104   1.912   7.015   3.872
 7402SOL    HW123105   1.882   6.932   3.918
 7402SOL    HW223106   1.856   0.064   3.902
 7403SOL     OW23107   1.971   2.865   3.821
 7403SOL    HW123108   2.044   2.844   3.755
 7403SOL    HW223109   1.904   2.925   3.779
 7404SOL     OW23110   2.257   0.349   1.180
 7404SOL    HW123111   2.288   0.437   1.144
 7404SOL    HW223112   2.319   0.277   1.149
 7405SOL     OW23113   1.862   5.067   4.732
 7405SOL    HW123114   1.956   5.087   4.703
 7405SOL    HW223115   1.841   5.121   4.814
 7406SOL     OW23116   1.689   3.707   2.257
 7406SOL    HW123117   1.653   3.679   2.168
 7406SOL    HW223118   1.700   3.807   2.259
 7407SOL     OW23119   0.004   6.106   4.565
 7407SOL    HW123120   7.025   6.138   4.471
 7407SOL    HW223121   0.023   6.183   4.625
 7408SOL     OW23122   1.495   4.195   6.138
 7408SOL    HW123123   1.482   4.152   6.227
 7408SOL    HW223124   1.536   4.129   6.075
 7409SOL     OW23125   0.740   1.243   5.017
 7409SOL    HW123126   0.769   1.339   5.011
 7409SOL    HW223127   0.724   1.208   4.924
 7410SOL     OW23128   0.340   4.626   1.307
 7410SOL    HW123129   0.366   4.540   1.352
 7410SOL    HW223130   0.323   4.608   1.210
 7411SOL     OW23131   2.571   0.093   4.352
 7411SOL    HW123132   2.600   0.034   4.277
 7411SOL    HW223133   2.575   0.042   4.438
 7412SOL     OW23134   2.753   0.710   1.350
 7412SOL    HW123135   2.827   0.732   1.413
 7412SOL    HW223136   2.768   0.619   1.311
 7413SOL     OW23137   7.027   3.379   3.580
 7413SOL    HW123138   0.083   3.349   3.626
 7413SOL    HW223139   0.010   3.473   3.549
 7414SOL     OW23140   6.666   0.185   2.648
 7414SOL    HW123141   6.570   0.169   2.627
 7414SOL    HW223142   6.676   0.208   2.745
 7415SOL     OW23143   1.085   3.079   2.998
 7415SOL    HW123144   1.006   3.033   2.956
 7415SOL    HW223145   1.147   3.109   2.926
 7416SOL     OW23146   3.517   1.258   4.328
 7416SOL    HW123147   3.607   1.302   4.339
 7416SOL    HW223148   3.468   1.301   4.252
 7417SOL     OW23149   1.499   6.615   5.854
 7417SOL    HW123150   1.442   6.533   5.860
 7417SOL    HW223151   1.523   6.632   5.758
 7418SOL     OW23152   2.995   4.626   1.339
 7418SOL    HW123153   2.916   4.639   1.399
 7418SOL    HW223154   3.077   4.661   1.384
 7419SOL     OW23155   5.627   1.846   4.512
 7419SOL    HW123156   5.551   1.899   4.475
 7419SOL    HW223157   5.592   1.775   4.573
 7420SOL     OW23158   6.798   6.963   2.317
 7420SOL    HW123159   6.837   6.945   2.227
 7420SOL    HW223160   6.702   6.990   2.308
 7421SOL     OW23161   3.337   3.561   1.219
 7421SOL    HW123162   3.399   3.632   1.253
 7421SOL    HW223163   3.255   3.558   1.276
 7422SOL     OW23164   6.723   3.276   1.543
 7422SOL    HW123165   6.767   3.296   1.455
 7422SOL    HW223166   6.624   3.281   1.531
 7423SOL     OW23167   1.470   4.693   6.077
 7423SOL    HW123168   1.470   4.736   5.987
 7423SOL    HW223169   1.426   4.603   6.071
 7424SOL     OW23170   5.897   1.413   4.320
 7424SOL    HW123171   5.924   1.385   4.412
 7424SOL    HW223172   5.811   1.368   4.296
 7425SOL     OW23173   4.177   4.770   6.625
 7425SOL    HW123174   4.132   4.689   6.588
 7425SOL    HW223175   4.231   4.745   6.705
 7426SOL     OW23176   0.639   2.300   7.007
 7426SOL    HW123177   0.596   2.233   0.039
 7426SOL    HW223178   0.568   2.355   6.962
 7427SOL     OW23179   2.931   5.812   4.514
 7427SOL    HW123180   2.897   5.739   4.574
 7427SOL    HW223181   2.853   5.865   4.478
 7428SOL     OW23182   4.051   2.260   5.234
 7428SOL    HW123183   4.049   2.181   5.173
 7428SOL    HW223184   4.081   2.341   5.184
 7429SOL     OW23185   6.576   0.094   2.933
 7429SOL    HW123186   6.565   0.058   3.026
 7429SOL    HW223187   6.498   0.152   2.910
 7430SOL     OW23188   0.077   4.607   5.483
 7430SOL    HW123189   0.081   4.518   5.438
 7430SOL    HW223190   0.157   4.661   5.457
 7431SOL     OW23191   0.511   3.464   1.263
 7431SOL    HW123192   0.516   3.487   1.360
 7431SOL    HW223193   0.463   3.537   1.214
 7432SOL     OW23194   0.854   6.153   4.017
 7432SOL    HW123195   0.817   6.094   4.088
 7432SOL    HW223196   0.795   6.149   3.936
 7433SOL     OW23197   6.283   5.126   1.087
 7433SOL    HW123198   6.380   5.108   1.101
 7433SOL    HW223199   6.259   5.215   1.127
 7434SOL     OW23200   2.888   1.687   6.788
 7434SOL    HW123201   2.974   1.713   6.833
 7434SOL    HW223202   2.828   1.643   6.854
 7435SOL     OW23203   3.528   6.792   5.722
 7435SOL    HW123204   3.627   6.795   5.716
 7435SOL    HW223205   3.491   6.743   5.643
 7436SOL     OW23206   6.377   2.927   6.720
 7436SOL    HW123207   6.395   2.829   6.727
 7436SOL    HW223208   6.338   2.960   6.806
 7437SOL     OW23209   6.713   5.051   6.730
 7437SOL    HW123210   6.721   5.149   6.747
 7437SOL    HW223211   6.708   5.034   6.632
 7438SOL     OW23212   0.727   4.430   2.033
 7438SOL    HW123213   0.794   4.463   1.966
 7438SOL    HW223214   0.753   4.464   2.124
 7439SOL     OW23215   2.776   0.053   3.778
 7439SOL    HW123216   2.727   0.141   3.773
 7439SOL    HW223217   2.874   0.070   3.779
 7440SOL     OW23218   1.004   3.238   4.856
 7440SOL    HW123219   1.073   3.310   4.847
 7440SOL    HW223220   0.942   3.242   4.778
 7441SOL     OW23221   5.734   6.973   4.139
 7441SOL    HW123222   5.821   6.995   4.181
 7441SOL    HW223223   5.750   6.923   4.054
 7442SOL     OW23224   1.215   0.702   6.897
 7442SOL    HW123225   1.295   0.754   6.928
 7442SOL    HW223226   1.230   0.605   6.913
 7443SOL     OW23227   6.620   2.042   0.630
 7443SOL    HW123228   6.551   1.987   0.583
 7443SOL    HW223229   6.640   2.124   0.576
 7444SOL     OW23230   6.965   3.321   6.434
 7444SOL    HW123231   6.868   3.315   6.413
 7444SOL    HW223232   7.015   3.352   6.353
 7445SOL     OW23233   4.993   1.131   1.506
 7445SOL    HW123234   4.938   1.141   1.589
 7445SOL    HW223235   4.976   1.209   1.445
 7446SOL     OW23236   6.304   4.235   0.030
 7446SOL    HW123237   6.393   4.239   7.013
 7446SOL    HW223238   6.249   4.314   0.003
 7447SOL     OW23239   2.632   4.721   6.543
 7447SOL    HW123240   2.658   4.774   6.462
 7447SOL    HW223241   2.613   4.626   6.516
 7448SOL     OW23242   5.468   6.710   5.899
 7448SOL    HW123243   5.508   6.800   5.914
 7448SOL    HW223244   5.435   6.704   5.805
 7449SOL     OW23245   4.626   2.221   2.214
 7449SOL    HW123246   4.621   2.166   2.131
 7449SOL    HW223247   4.627   2.318   2.191
 7450SOL     OW23248   4.927   2.767   3.561
 7450SOL    HW123249   4.871   2.801   3.637
 7450SOL    HW223250   4.920   2.667   3.557
 7451SOL     OW23251   1.566   0.204   3.637
 7451SOL    HW123252   1.476   0.188   3.677
 7451SOL    HW223253   1.574   0.301   3.614
 7452SOL     OW23254   1.506   0.336   4.534
 7452SOL    HW123255   1.547   0.413   4.583
 7452SOL    HW223256   1.570   0.302   4.465
 7453SOL     OW23257   5.800   5.838   4.817
 7453SOL    HW123258   5.846   5.927   4.816
 7453SOL    HW223259   5.708   5.850   4.853
 7454SOL     OW23260   0.938   3.219   1.439
 7454SOL    HW123261   0.880   3.301   1.434
 7454SOL    HW223262   0.884   3.143   1.476
 7455SOL     OW23263   5.694   1.405   1.462
 7455SOL    HW123264   5.662   1.490   1.504
 7455SOL    HW223265   5.646   1.390   1.376
 7456SOL     OW23266   1.691   2.141   4.457
 7456SOL    HW123267   1.632   2.080   4.509
 7456SOL    HW223268   1.742   2.200   4.519
 7457SOL     OW23269   5.521   0.452   5.495
 7457SOL    HW123270   5.482   0.441   5.587
 7457SOL    HW223271   5.546   0.548   5.481
 7458SOL     OW23272   2.453   6.690   6.611
 7458SOL    HW123273   2.529   6.722   6.555
 7458SOL    HW223274   2.370   6.740   6.587
 7459SOL     OW23275   4.515   0.281   6.446
 7459SOL    HW123276   4.471   0.329   6.522
 7459SOL    HW223277   4.540   0.347   6.375
 7460SOL     OW23278   2.007   5.460   0.569
 7460SOL    HW123279   1.918   5.497   0.544
 7460SOL    HW223280   2.073   5.481   0.497
 7461SOL     OW23281   5.456   1.321   5.578
 7461SOL    HW123282   5.407   1.299   5.663
 7461SOL    HW223283   5.545   1.276   5.578
 7462SOL     OW23284   1.949   2.183   1.317
 7462SOL    HW123285   1.881   2.208   1.248
 7462SOL    HW223286   2.032   2.237   1.304
 7463SOL     OW23287   3.489   2.974   1.614
 7463SOL    HW123288   3.475   2.912   1.691
 7463SOL    HW223289   3.466   2.926   1.529
 7464SOL     OW23290   4.080   5.852   6.694
 7464SOL    HW123291   4.087   5.878   6.598
 7464SOL    HW223292   4.158   5.795   6.719
 7465SOL     OW23293   1.637   0.366   1.124
 7465SOL    HW123294   1.572   0.303   1.081
 7465SOL    HW223295   1.698   0.404   1.054
 7466SOL     OW23296   0.903   0.356   6.022
 7466SOL    HW123297   0.987   0.307   5.997
 7466SOL    HW223298   0.868   0.404   5.941
 7467SOL     OW23299   6.344   2.057   1.427
 7467SOL    HW123300   6.382   2.088   1.514
 7467SOL    HW223301   6.408   2.079   1.353
 7468SOL     OW23302   4.673   2.066   2.446
 7468SOL    HW123303   4.760   2.101   2.481
 7468SOL    HW223304   4.646   2.119   2.365
 7469SOL     OW23305   1.131   6.993   6.859
 7469SOL    HW123306   1.073   6.994   6.941
 7469SOL    HW223307   1.211   6.935   6.875
 7470SOL     OW23308   0.744   2.860   2.616
 7470SOL    HW123309   0.733   2.887   2.521
 7470SOL    HW223310   0.772   2.939   2.671
 7471SOL     OW23311   6.197   6.678   4.978
 7471SOL    HW123312   6.109   6.642   4.949
 7471SOL    HW223313   6.204   6.674   5.078
 7472SOL     OW23314   4.693   6.716   4.179
 7472SOL    HW123315   4.715   6.811   4.159
 7472SOL    HW223316   4.776   6.669   4.212
 7473SOL     OW23317   6.830   4.474   3.274
 7473SOL    HW123318   6.754   4.539   3.283
 7473SOL    HW223319   6.795   4.381   3.288
 7474SOL     OW23320   3.094   1.011   4.364
 7474SOL    HW123321   3.133   0.961   4.288
 7474SOL    HW223322   3.002   0.975   4.385
 7475SOL     OW23323   4.808   0.511   2.449
 7475SOL    HW123324   4.790   0.590   2.507
 7475SOL    HW223325   4.725   0.488   2.398
 7476SOL     OW23326   4.488   6.224   4.898
 7476SOL    HW123327   4.453   6.135   4.868
 7476SOL    HW223328   4.423   6.295   4.873
 7477SOL     OW23329   4.559   0.661   3.965
 7477SOL    HW123330   4.608   0.574   3.971
 7477SOL    HW223331   4.621   0.731   3.928
 7478SOL     OW23332   4.098   4.101   6.341
 7478SOL    HW123333   4.024   4.043   6.376
 7478SOL    HW223334   4.058   4.182   6.298
 7479SOL     OW23335   3.784   1.903   0.977
 7479SOL    HW123336   3.849   1.836   1.012
 7479SOL    HW223337   3.833   1.973   0.925
 7480SOL     OW23338   6.252   5.921   1.477
 7480SOL    HW123339   6.227   5.931   1.573
 7480SOL    HW223340   6.173   5.888   1.425
 7481SOL     OW23341   5.321   5.225   1.323
 7481SOL    HW123342   5.332   5.296   1.254
 7481SOL    HW223343   5.357   5.258   1.411
 7482SOL     OW23344   4.030   1.354   1.874
 7482SOL    HW123345   4.029   1.303   1.960
 7482SOL    HW223346   3.977   1.303   1.805
 7483SOL     OW23347   4.236   1.913   4.762
 7483SOL    HW123348   4.141   1.909   4.732
 7483SOL    HW223349   4.249   1.851   4.839
 7484SOL     OW23350   0.033   0.429   1.674
 7484SOL    HW123351   0.117   0.479   1.655
 7484SOL    HW223352   7.021   0.461   1.760
 7485SOL     OW23353   3.366   6.257   4.941
 7485SOL    HW123354   3.313   6.188   4.990
 7485SOL    HW223355   3.315   6.287   4.860
 7486SOL     OW23356   2.188   6.883   5.319
 7486SOL    HW123357   2.203   6.842   5.409
 7486SOL    HW223358   2.166   6.812   5.252
 7487SOL     OW23359   1.866   6.726   2.492
 7487SOL    HW123360   1.943   6.783   2.522
 7487SOL    HW223361   1.892   6.630   2.497
 7488SOL     OW23362   2.225   0.049   5.114
 7488SOL    HW123363   2.201   0.008   5.202
 7488SOL    HW223364   2.323   0.041   5.099
 7489SOL     OW23365   4.610   2.098   5.262
 7489SOL    HW123366   4.616   2.004   5.297
 7489SOL    HW223367   4.610   2.096   5.162
 7490SOL     OW23368   0.605   0.407   0.934
 7490SOL    HW123369   0.686   0.409   0.993
 7490SOL    HW223370   0.548   0.329   0.959
 7491SOL     OW23371   0.864   4.940   6.530
 7491SOL    HW123372   0.814   5.016   6.488
 7491SOL    HW223373   0.847   4.940   6.629
 7492SOL     OW23374   2.340   1.922   5.157
 7492SOL    HW123375   2.264   1.982   5.181
 7492SOL    HW223376   2.380   1.952   5.069
 7493SOL     OW23377   6.359   4.465   5.938
 7493SOL    HW123378   6.442   4.519   5.954
 7493SOL    HW223379   6.357   4.436   5.843
 7494SOL     OW23380   5.720   0.927   2.371
 7494SOL    HW123381   5.732   0.950   2.274
 7494SOL    HW223382   5.757   1.001   2.427
 7495SOL     OW23383   2.288   1.101   1.157
 7495SOL    HW123384   2.190   1.117   1.159
 7495SOL    HW223385   2.324   1.121   1.066
 7496SOL     OW23386   1.428   4.420   6.001
 7496SOL    HW123387   1.333   4.404   5.974
 7496SOL    HW223388   1.458   4.347   6.062
 7497SOL     OW23389   3.001   4.981   1.634
 7497SOL    HW123390   3.023   5.021   1.545
 7497SOL    HW223391   2.959   4.891   1.621
 7498SOL     OW23392   2.713   1.367   4.260
 7498SOL    HW123393   2.634   1.395   4.205
 7498SOL    HW223394   2.788   1.340   4.200
 7499SOL     OW23395   6.349   6.998   3.500
 7499SOL    HW123396   6.394   6.931   3.441
 7499SOL    HW223397   6.413   0.001   3.570
 7500SOL     OW23398   3.781   6.085   2.800
 7500SOL    HW123399   3.782   6.045   2.709
 7500SOL    HW223400   3.763   6.183   2.793
 7501SOL     OW23401   6.424   4.144   4.267
 7501SOL    HW123402   6.408   4.100   4.355
 7501SOL    HW223403   6.465   4.234   4.281
 7502SOL     OW23404   1.454   1.365   5.381
 7502SOL    HW123405   1.369   1.315   5.394
 7502SOL    HW223406   1.446   1.457   5.420
 7503SOL     OW23407   3.015   0.817   6.684
 7503SOL    HW123408   2.961   0.737   6.657
 7503SOL    HW223409   2.953   0.888   6.718
 7504SOL     OW23410   4.235   6.775   3.693
 7504SOL    HW123411   4.148   6.753   3.649
 7504SOL    HW223412   4.252   6.710   3.768
 7505SOL     OW23413   3.324   0.767   5.305
 7505SOL    HW123414   3.368   0.698   5.363
 7505SOL    HW223415   3.388   0.843   5.290
 7506SOL     OW23416   3.813   0.939   2.631
 7506SOL    HW123417   3.793   0.942   2.729
 7506SOL    HW223418   3.827   1.033   2.597
 7507SOL     OW23419   0.136   6.333   0.202
 7507SOL    HW123420   0.043   6.300   0.214
 7507SOL    HW223421   0.138   6.404   0.131
 7508SOL     OW23422   5.854   6.523   2.568
 7508SOL    HW123423   5.880   6.568   2.654
 7508SOL    HW223424   5.763   6.483   2.579
 7509SOL     OW23425   4.791   4.781   0.619
 7509SOL    HW123426   4.768   4.690   0.584
 7509SOL    HW223427   4.818   4.840   0.543
 7510SOL     OW23428   3.272   3.870   5.026
 7510SOL    HW123429   3.186   3.891   4.978
 7510SOL    HW223430   3.330   3.951   5.027
 7511SOL     OW23431   1.251   0.478   2.173
 7511SOL    HW123432   1.235   0.379   2.165
 7511SOL    HW223433   1.172   0.527   2.135
 7512SOL     OW23434   2.813   4.120   1.248
 7512SOL    HW123435   2.880   4.190   1.271
 7512SOL    HW223436   2.854   4.055   1.183
 7513SOL     OW23437   1.579   2.867   0.328
 7513SOL    HW123438   1.672   2.904   0.328
 7513SOL    HW223439   1.542   2.869   0.235
 7514SOL     OW23440   2.699   6.268   2.173
 7514SOL    HW123441   2.724   6.174   2.150
 7514SOL    HW223442   2.751   6.331   2.115
 7515SOL     OW23443   0.788   0.338   2.793
 7515SOL    HW123444   0.839   0.356   2.708
 7515SOL    HW223445   0.786   0.240   2.810
 7516SOL     OW23446   6.836   5.925   4.261
 7516SOL    HW123447   6.821   6.024   4.262
 7516SOL    HW223448   6.934   5.907   4.251
 7517SOL     OW23449   6.609   3.661   1.044
 7517SOL    HW123450   6.641   3.641   1.136
 7517SOL    HW223451   6.519   3.703   1.049
 7518SOL     OW23452   3.613   5.708   3.374
 7518SOL    HW123453   3.651   5.674   3.288
 7518SOL    HW223454   3.673   5.779   3.411
 7519SOL     OW23455   0.506   6.119   4.123
 7519SOL    HW123456   0.420   6.075   4.098
 7519SOL    HW223457   0.578   6.051   4.132
 7520SOL     OW23458   2.166   0.286   2.353
 7520SOL    HW123459   2.128   0.198   2.381
 7520SOL    HW223460   2.141   0.305   2.258
 7521SOL     OW23461   4.391   4.469   5.496
 7521SOL    HW123462   4.313   4.526   5.522
 7521SOL    HW223463   4.470   4.493   5.553
 7522SOL     OW23464   2.727   0.994   6.499
 7522SOL    HW123465   2.812   1.042   6.478
 7522SOL    HW223466   2.656   1.060   6.520
 7523SOL     OW23467   6.226   1.150   5.529
 7523SOL    HW123468   6.203   1.246   5.517
 7523SOL    HW223469   6.147   1.101   5.566
 7524SOL     OW23470   0.432   2.741   6.321
 7524SOL    HW123471   0.468   2.685   6.247
 7524SOL    HW223472   0.385   2.683   6.388
 7525SOL     OW23473   2.279   0.134   6.346
 7525SOL    HW123474   2.320   0.043   6.346
 7525SOL    HW223475   2.343   0.199   6.305
 7526SOL     OW23476   3.642   2.980   3.663
 7526SOL    HW123477   3.731   3.004   3.623
 7526SOL    HW223478   3.653   2.957   3.759
 7527SOL     OW23479   4.543   4.774   2.711
 7527SOL    HW123480   4.468   4.761   2.647
 7527SOL    HW223481   4.621   4.717   2.684
 7528SOL     OW23482   4.791   2.385   0.394
 7528SOL    HW123483   4.696   2.355   0.392
 7528SOL    HW223484   4.843   2.326   0.456
 7529SOL     OW23485   5.614   1.341   4.214
 7529SOL    HW123486   5.614   1.275   4.139
 7529SOL    HW223487   5.615   1.433   4.177
 7530SOL     OW23488   0.032   3.305   2.196
 7530SOL    HW123489   6.964   3.324   2.175
 7530SOL    HW223490   0.070   3.246   2.126
 7531SOL     OW23491   4.663   2.222   4.601
 7531SOL    HW123492   4.621   2.294   4.545
 7531SOL    HW223493   4.744   2.187   4.555
 7532SOL     OW23494   5.458   5.573   1.748
 7532SOL    HW123495   5.389   5.643   1.735
 7532SOL    HW223496   5.458   5.543   1.844
 7533SOL     OW23497   2.100   0.810   2.769
 7533SOL    HW123498   2.137   0.866   2.694
 7533SOL    HW223499   2.162   0.816   2.848
 7534SOL     OW23500   3.999   6.207   4.843
 7534SOL    HW123501   3.913   6.195   4.792
 7534SOL    HW223502   4.030   6.118   4.877
 7535SOL     OW23503   2.639   1.145   5.704
 7535SOL    HW123504   2.584   1.089   5.642
 7535SOL    HW223505   2.736   1.126   5.689
 7536SOL     OW23506   5.297   4.825   5.256
 7536SOL    HW123507   5.208   4.811   5.212
 7536SOL    HW223508   5.368   4.833   5.186
 7537SOL     OW23509   1.931   4.132   5.480
 7537SOL    HW123510   1.854   4.160   5.422
 7537SOL    HW223511   1.987   4.065   5.430
 7538SOL     OW23512   3.386   3.503   2.877
 7538SOL    HW123513   3.303   3.483   2.930
 7538SOL    HW223514   3.444   3.566   2.928
 7539SOL     OW23515   2.453   2.174   4.982
 7539SOL    HW123516   2.547   2.141   4.993
 7539SOL    HW223517   2.418   2.204   5.071
 7540SOL     OW23518   3.199   0.782   6.041
 7540SOL    HW123519   3.105   0.789   6.076
 7540SOL    HW223520   3.197   0.770   5.942
 7541SOL     OW23521   6.849   4.021   5.281
 7541SOL    HW123522   6.893   4.076   5.352
 7541SOL    HW223523   6.829   4.077   5.202
 7542SOL     OW23524   0.664   6.781   6.346
 7542SOL    HW123525   0.763   6.767   6.352
 7542SOL    HW223526   0.642   6.822   6.257
 7543SOL     OW23527   4.193   1.849   0.374
 7543SOL    HW123528   4.216   1.925   0.434
 7543SOL    HW223529   4.166   1.770   0.429
 7544SOL     OW23530   0.267   2.115   3.326
 7544SOL    HW123531   0.321   2.116   3.410
 7544SOL    HW223532   0.302   2.045   3.265
 7545SOL     OW23533   4.665   6.550   2.889
 7545SOL    HW123534   4.671   6.628   2.952
 7545SOL    HW223535   4.578   6.553   2.840
 7546SOL     OW23536   4.399   0.423   0.724
 7546SOL    HW123537   4.463   0.403   0.649
 7546SOL    HW223538   4.314   0.458   0.686
 7547SOL     OW23539   4.014   6.277   0.586
 7547SOL    HW123540   3.977   6.218   0.658
 7547SOL    HW223541   4.039   6.221   0.507
 7548SOL     OW23542   2.378   1.598   0.206
 7548SOL    HW123543   2.388   1.678   0.146
 7548SOL    HW223544   2.281   1.575   0.214
 7549SOL     OW23545   5.626   2.109   1.932
 7549SOL    HW123546   5.540   2.132   1.977
 7549SOL    HW223547   5.701   2.155   1.977
 7550SOL     OW23548   2.454   5.511   2.757
 7550SOL    HW123549   2.524   5.445   2.730
 7550SOL    HW223550   2.415   5.555   2.676
 7551SOL     OW23551   4.529   3.965   6.511
 7551SOL    HW123552   4.603   4.033   6.506
 7551SOL    HW223553   4.561   3.885   6.562
 7552SOL     OW23554   2.279   5.273   3.620
 7552SOL    HW123555   2.370   5.308   3.643
 7552SOL    HW223556   2.269   5.180   3.655
 7553SOL     OW23557   3.761   5.092   5.905
 7553SOL    HW123558   3.840   5.061   5.851
 7553SOL    HW223559   3.748   5.030   5.983
 7554SOL     OW23560   5.117   1.352   0.708
 7554SOL    HW123561   5.202   1.403   0.725
 7554SOL    HW223562   5.111   1.276   0.772
 7555SOL     OW23563   1.384   5.344   4.874
 7555SOL    HW123564   1.412   5.414   4.940
 7555SOL    HW223565   1.370   5.258   4.922
 7556SOL     OW23566   0.221   2.187   5.500
 7556SOL    HW123567   0.275   2.138   5.432
 7556SOL    HW223568   0.176   2.121   5.561
 7557SOL     OW23569   4.992   3.970   5.976
 7557SOL    HW123570   5.016   4.031   6.051
 7557SOL    HW223571   4.980   4.024   5.892
 7558SOL     OW23572   2.281   2.735   4.241
 7558SOL    HW123573   2.271   2.816   4.298
 7558SOL    HW223574   2.192   2.690   4.232
 7559SOL     OW23575   6.528   5.569   1.236
 7559SOL    HW123576   6.545   5.483   1.187
 7559SOL    HW223577   6.485   5.549   1.324
 7560SOL     OW23578   5.158   6.846   6.938
 7560SOL    HW123579   5.145   6.942   6.963
 7560SOL    HW223580   5.227   6.839   6.867
 7561SOL     OW23581   0.756   3.310   0.313
 7561SOL    HW123582   0.826   3.328   0.244
 7561SOL    HW223583   0.706   3.227   0.288
 7562SOL     OW23584   5.066   5.966   4.454
 7562SOL    HW123585   5.030   5.888   4.403
 7562SOL    HW223586   4.994   6.004   4.512
 7563SOL     OW23587   2.823   0.103   0.913
 7563SOL    HW123588   2.892   0.113   0.841
 7563SOL    HW223589   2.814   0.007   0.938
 7564SOL     OW23590   5.063   1.022   3.367
 7564SOL    HW123591   4.978   1.041   3.317
 7564SOL    HW223592   5.045   1.026   3.465
 7565SOL     OW23593   5.055   4.486   6.576
 7565SOL    HW123594   5.148   4.498   6.542
 7565SOL    HW223595   5.014   4.576   6.591
 7566SOL     OW23596   1.118   4.657   3.832
 7566SOL    HW123597   1.093   4.732   3.770
 7566SOL    HW223598   1.082   4.675   3.923
 7567SOL     OW23599   1.364   3.026   5.433
 7567SOL    HW123600   1.359   3.039   5.334
 7567SOL    HW223601   1.339   2.931   5.455
 7568SOL     OW23602   6.264   5.501   4.330
 7568SOL    HW123603   6.253   5.593   4.291
 7568SOL    HW223604   6.194   5.486   4.399
 7569SOL     OW23605   4.691   5.959   6.150
 7569SOL    HW123606   4.619   5.932   6.214
 7569SOL    HW223607   4.671   5.921   6.060
 7570SOL     OW23608   5.676   4.949   5.418
 7570SOL    HW123609   5.628   4.919   5.336
 7570SOL    HW223610   5.610   4.983   5.485
 7571SOL     OW23611   5.221   4.461   1.559
 7571SOL    HW123612   5.316   4.494   1.563
 7571SOL    HW223613   5.169   4.500   1.635
 7572SOL     OW23614   5.053   0.399   3.803
 7572SOL    HW123615   5.034   0.321   3.863
 7572SOL    HW223616   5.109   0.369   3.725
 7573SOL     OW23617   5.842   5.618   4.167
 7573SOL    HW123618   5.833   5.715   4.189
 7573SOL    HW223619   5.838   5.606   4.068
 7574SOL     OW23620   5.905   1.382   4.590
 7574SOL    HW123621   5.911   1.294   4.636
 7574SOL    HW223622   5.810   1.399   4.564
 7575SOL     OW23623   4.287   0.975   5.844
 7575SOL    HW123624   4.295   0.902   5.776
 7575SOL    HW223625   4.378   1.003   5.874
 7576SOL     OW23626   5.994   5.689   0.160
 7576SOL    HW123627   6.093   5.691   0.146
 7576SOL    HW223628   5.949   5.663   0.075
 7577SOL     OW23629   6.474   0.167   4.879
 7577SOL    HW123630   6.489   0.266   4.874
 7577SOL    HW223631   6.511   0.132   4.965
 7578SOL     OW23632   1.712   6.460   3.994
 7578SOL    HW123633   1.633   6.468   4.055
 7578SOL    HW223634   1.741   6.552   3.965
 7579SOL     OW23635   4.163   2.163   2.250
 7579SOL    HW123636   4.209   2.121   2.172
 7579SOL    HW223637   4.067   2.181   2.227
 7580SOL     OW23638   1.432   3.659   4.038
 7580SOL    HW123639   1.503   3.693   4.100
 7580SOL    HW223640   1.475   3.612   3.961
 7581SOL     OW23641   4.359   1.293   0.457
 7581SOL    HW123642   4.346   1.266   0.552
 7581SOL    HW223643   4.298   1.238   0.399
 7582SOL     OW23644   3.673   1.727   0.194
 7582SOL    HW123645   3.708   1.816   0.221
 7582SOL    HW223646   3.747   1.660   0.192
 7583SOL     OW23647   6.140   3.656   1.858
 7583SOL    HW123648   6.042   3.664   1.842
 7583SOL    HW223649   6.186   3.738   1.824
 7584SOL     OW23650   2.625   0.020   1.446
 7584SOL    HW123651   2.662   6.984   1.379
 7584SOL    HW223652   2.542   7.009   1.486
 7585SOL     OW23653   1.575   3.313   6.094
 7585SOL    HW123654   1.637   3.238   6.118
 7585SOL    HW223655   1.480   3.281   6.098
 7586SOL     OW23656   3.096   0.982   3.020
 7586SOL    HW123657   3.027   0.934   3.074
 7586SOL    HW223658   3.164   1.023   3.081
 7587SOL     OW23659   2.861   1.391   6.748
 7587SOL    HW123660   2.845   1.368   6.652
 7587SOL    HW223661   2.928   1.464   6.755
 7588SOL     OW23662   0.503   3.846   1.650
 7588SOL    HW123663   0.413   3.890   1.650
 7588SOL    HW223664   0.552   3.871   1.567
 7589SOL     OW23665   6.223   6.253   0.408
 7589SOL    HW123666   6.303   6.274   0.464
 7589SOL    HW223667   6.155   6.206   0.465
 7590SOL     OW23668   3.037   1.623   6.216
 7590SOL    HW123669   2.996   1.536   6.189
 7590SOL    HW223670   2.965   1.688   6.241
 7591SOL     OW23671   0.380   5.276   0.692
 7591SOL    HW123672   0.404   5.324   0.776
 7591SOL    HW223673   0.456   5.281   0.628
 7592SOL     OW23674   6.999   4.534   6.696
 7592SOL    HW123675   6.925   4.475   6.662
 7592SOL    HW223676   0.053   4.521   6.640
 7593SOL     OW23677   6.094   2.786   6.626
 7593SOL    HW123678   6.026   2.857   6.642
 7593SOL    HW223679   6.064   2.727   6.551
 7594SOL     OW23680   0.343   4.508   1.763
 7594SOL    HW123681   0.256   4.461   1.775
 7594SOL    HW223682   0.395   4.465   1.689
 7595SOL     OW23683   0.615   3.003   6.455
 7595SOL    HW123684   0.518   2.980   6.445
 7595SOL    HW223685   0.665   2.925   6.493
 7596SOL     OW23686   4.940   5.425   2.399
 7596SOL    HW123687   5.020   5.433   2.339
 7596SOL    HW223688   4.964   5.460   2.490
 7597SOL     OW23689   2.891   5.931   1.605
 7597SOL    HW123690   2.944   6.015   1.595
 7597SOL    HW223691   2.947   5.861   1.650
 7598SOL     OW23692   5.896   0.842   3.027
 7598SOL    HW123693   5.896   0.885   2.937
 7598SOL    HW223694   5.805   0.851   3.069
 7599SOL     OW23695   5.192   1.189   3.740
 7599SOL    HW123696   5.154   1.137   3.663
 7599SOL    HW223697   5.136   1.271   3.755
 7600SOL     OW23698   1.955   0.939   2.399
 7600SOL    HW123699   1.868   0.899   2.369
 7600SOL    HW223700   1.949   0.964   2.495
 7601SOL     OW23701   1.931   5.627   3.087
 7601SOL    HW123702   1.851   5.685   3.107
 7601SOL    HW223703   1.950   5.629   2.989
 7602SOL     OW23704   1.474   3.770   5.270
 7602SOL    HW123705   1.444   3.714   5.193
 7602SOL    HW223706   1.448   3.865   5.255
 7603SOL     OW23707   1.548   6.140   6.457
 7603SOL    HW123708   1.485   6.164   6.531
 7603SOL    HW223709   1.495   6.119   6.375
 7604SOL     OW23710   2.666   5.507   4.091
 7604SOL    HW123711   2.656   5.423   4.037
 7604SOL    HW223712   2.598   5.573   4.062
 7605SOL     OW23713   1.665   6.212   0.592
 7605SOL    HW123714   1.622   6.300   0.571
 7605SOL    HW223715   1.723   6.222   0.672
 7606SOL     OW23716   0.180   2.345   2.367
 7606SOL    HW123717   0.216   2.255   2.391
 7606SOL    HW223718   0.173   2.352   2.267
 7607SOL     OW23719   4.247   6.671   0.370
 7607SOL    HW123720   4.183   6.644   0.297
 7607SOL    HW223721   4.336   6.692   0.329
 7608SOL     OW23722   3.423   4.041   3.028
 7608SOL    HW123723   3.384   4.097   3.101
 7608SOL    HW223724   3.357   4.032   2.953
 7609SOL     OW23725   6.475   3.354   2.983
 7609SOL    HW123726   6.414   3.316   2.913
 7609SOL    HW223727   6.537   3.283   3.015
 7610SOL     OW23728   6.028   1.038   0.069
 7610SOL    HW123729   6.028   1.057   0.167
 7610SOL    HW223730   5.966   1.100   0.022
 7611SOL     OW23731   0.863   1.732   6.993
 7611SOL    HW123732   0.794   1.799   6.964
 7611SOL    HW223733   0.828   1.677   0.040
 7612SOL     OW23734   3.935   2.141   4.127
 7612SOL    HW123735   3.909   2.167   4.220
 7612SOL    HW223736   3.964   2.045   4.125
 7613SOL     OW23737   4.825   1.867   2.006
 7613SOL    HW123738   4.901   1.919   2.046
 7613SOL    HW223739   4.832   1.771   2.034
 7614SOL     OW23740   4.355   2.883   1.454
 7614SOL    HW123741   4.317   2.791   1.459
 7614SOL    HW223742   4.445   2.886   1.497
 7615SOL     OW23743   5.305   4.628   6.178
 7615SOL    HW123744   5.281   4.717   6.217
 7615SOL    HW223745   5.270   4.622   6.085
 7616SOL     OW23746   0.331   4.226   4.151
 7616SOL    HW123747   0.421   4.256   4.183
 7616SOL    HW223748   0.322   4.246   4.054
 7617SOL     OW23749   2.926   5.713   2.742
 7617SOL    HW123750   3.008   5.659   2.730
 7617SOL    HW223751   2.865   5.669   2.807
 7618SOL     OW23752   1.119   1.841   6.788
 7618SOL    HW123753   1.186   1.904   6.829
 7618SOL    HW223754   1.086   1.880   6.702
 7619SOL     OW23755   5.849   3.198   4.956
 7619SOL    HW123756   5.835   3.297   4.955
 7619SOL    HW223757   5.784   3.155   4.893
 7620SOL     OW23758   3.679   5.834   0.094
 7620SOL    HW123759   3.696   5.807   0.189
 7620SOL    HW223760   3.688   5.933   0.085
 7621SOL     OW23761   0.666   1.404   0.385
 7621SOL    HW123762   0.583   1.354   0.360
 7621SOL    HW223763   0.642   1.494   0.421
 7622SOL     OW23764   5.375   3.786   1.759
 7622SOL    HW123765   5.417   3.700   1.789
 7622SOL    HW223766   5.317   3.768   1.679
 7623SOL     OW23767   4.621   4.770   6.519
 7623SOL    HW123768   4.714   4.740   6.537
 7623SOL    HW223769   4.566   4.760   6.602
 7624SOL     OW23770   0.462   2.773   4.323
 7624SOL    HW123771   0.552   2.768   4.279
 7624SOL    HW223772   0.406   2.841   4.276
 7625SOL     OW23773   4.723   0.264   0.825
 7625SOL    HW123774   4.647   0.314   0.867
 7625SOL    HW223775   4.804   0.272   0.882
 7626SOL     OW23776   6.824   6.631   5.458
 7626SOL    HW123777   6.747   6.625   5.522
 7626SOL    HW223778   6.910   6.617   5.508
 7627SOL     OW23779   6.245   3.195   6.894
 7627SOL    HW123780   6.340   3.181   6.866
 7627SOL    HW223781   6.242   3.219   6.992
 7628SOL     OW23782   3.176   0.573   1.196
 7628SOL    HW123783   3.154   0.517   1.275
 7628SOL    HW223784   3.255   0.535   1.148
 7629SOL     OW23785   6.300   6.881   2.671
 7629SOL    HW123786   6.283   6.846   2.764
 7629SOL    HW223787   6.222   6.935   2.641
 7630SOL     OW23788   6.014   6.196   2.179
 7630SOL    HW123789   6.087   6.151   2.230
 7630SOL    HW223790   5.944   6.229   2.243
 7631SOL     OW23791   0.825   1.728   5.343
 7631SOL    HW123792   0.877   1.704   5.425
 7631SOL    HW223793   0.852   1.819   5.312
 7632SOL     OW23794   3.602   2.090   1.456
 7632SOL    HW123795   3.507   2.122   1.460
 7632SOL    HW223796   3.638   2.084   1.549
 7633SOL     OW23797   4.951   2.818   0.148
 7633SOL    HW123798   4.942   2.900   0.205
 7633SOL    HW223799   4.904   2.742   0.192
 7634SOL     OW23800   1.256   1.332   2.170
 7634SOL    HW123801   1.270   1.424   2.133
 7634SOL    HW223802   1.340   1.278   2.159
 7635SOL     OW23803   2.340   4.746   5.495
 7635SOL    HW123804   2.358   4.648   5.498
 7635SOL    HW223805   2.242   4.762   5.508
 7636SOL     OW23806   0.791   1.327   3.282
 7636SOL    HW123807   0.835   1.290   3.200
 7636SOL    HW223808   0.692   1.325   3.270
 7637SOL     OW23809   1.813   6.357   2.331
 7637SOL    HW123810   1.732   6.399   2.373
 7637SOL    HW223811   1.830   6.401   2.243
 7638SOL     OW23812   4.988   5.813   2.452
 7638SOL    HW123813   4.895   5.782   2.432
 7638SOL    HW223814   4.985   5.885   2.522
 7639SOL     OW23815   1.353   2.074   0.699
 7639SOL    HW123816   1.355   2.111   0.792
 7639SOL    HW223817   1.339   2.148   0.633
 7640SOL     OW23818   2.722   2.365   0.277
 7640SOL    HW123819   2.710   2.462   0.258
 7640SOL    HW223820   2.677   2.311   0.206
 7641SOL     OW23821   0.600   4.145   1.415
 7641SOL    HW123822   0.661   4.132   1.494
 7641SOL    HW223823   0.542   4.064   1.404
 7642SOL     OW23824   2.598   1.667   2.983
 7642SOL    HW123825   2.555   1.579   3.003
 7642SOL    HW223826   2.551   1.739   3.034
 7643SOL     OW23827   4.482   1.897   3.926
 7643SOL    HW123828   4.523   1.912   4.016
 7643SOL    HW223829   4.425   1.976   3.902
 7644SOL     OW23830   6.293   1.795   2.954
 7644SOL    HW123831   6.380   1.836   2.980
 7644SOL    HW223832   6.269   1.824   2.861
 7645SOL     OW23833   4.586   4.511   5.966
 7645SOL    HW123834   4.490   4.490   5.947
 7645SOL    HW223835   4.598   4.526   6.064
 7646SOL     OW23836   1.648   2.815   2.310
 7646SOL    HW123837   1.614   2.788   2.221
 7646SOL    HW223838   1.573   2.814   2.376
 7647SOL     OW23839   1.586   3.160   1.119
 7647SOL    HW123840   1.534   3.077   1.100
 7647SOL    HW223841   1.678   3.152   1.080
 7648SOL     OW23842   3.977   2.141   3.707
 7648SOL    HW123843   3.921   2.181   3.780
 7648SOL    HW223844   4.024   2.060   3.741
 7649SOL     OW23845   1.808   0.703   2.697
 7649SOL    HW123846   1.773   0.636   2.631
 7649SOL    HW223847   1.905   0.685   2.715
 7650SOL     OW23848   5.659   3.425   0.995
 7650SOL    HW123849   5.724   3.448   0.922
 7650SOL    HW223850   5.566   3.429   0.959
 7651SOL     OW23851   2.827   0.155   5.505
 7651SOL    HW123852   2.894   0.088   5.471
 7651SOL    HW223853   2.836   0.162   5.605
 7652SOL     OW23854   6.947   3.912   4.323
 7652SOL    HW123855   6.933   3.865   4.236
 7652SOL    HW223856   6.866   3.968   4.344
 7653SOL     OW23857   2.367   1.837   0.383
 7653SOL    HW123858   2.462   1.842   0.415
 7653SOL    HW223859   2.351   1.748   0.339
 7654SOL     OW23860   4.793   2.975   3.138
 7654SOL    HW123861   4.764   2.881   3.159
 7654SOL    HW223862   4.798   3.028   3.223
 7655SOL     OW23863   3.825   0.600   3.998
 7655SOL    HW123864   3.856   0.693   4.017
 7655SOL    HW223865   3.763   0.600   3.919
 7656SOL     OW23866   1.421   5.781   5.911
 7656SOL    HW123867   1.495   5.818   5.967
 7656SOL    HW223868   1.402   5.687   5.940
 7657SOL     OW23869   2.634   2.377   2.878
 7657SOL    HW123870   2.661   2.330   2.963
 7657SOL    HW223871   2.716   2.411   2.832
 7658SOL     OW23872   4.340   6.690   5.934
 7658SOL    HW123873   4.313   6.778   5.895
 7658SOL    HW223874   4.426   6.700   5.983
 7659SOL     OW23875   5.590   6.184   6.703
 7659SOL    HW123876   5.490   6.188   6.714
 7659SOL    HW223877   5.614   6.207   6.608
 7660SOL     OW23878   6.443   5.318   4.272
 7660SOL    HW123879   6.448   5.305   4.173
 7660SOL    HW223880   6.387   5.398   4.293
 7661SOL     OW23881   6.118   1.870   4.258
 7661SOL    HW123882   6.024   1.894   4.282
 7661SOL    HW223883   6.131   1.879   4.159
 7662SOL     OW23884   1.108   1.986   2.029
 7662SOL    HW123885   1.040   1.918   2.002
 7662SOL    HW223886   1.090   2.072   1.981
 7663SOL     OW23887   6.249   6.718   5.989
 7663SOL    HW123888   6.322   6.761   6.043
 7663SOL    HW223889   6.169   6.778   5.988
 7664SOL     OW23890   3.651   0.458   2.524
 7664SOL    HW123891   3.652   0.441   2.426
 7664SOL    HW223892   3.614   0.549   2.542
 7665SOL     OW23893   4.065   0.725   3.702
 7665SOL    HW123894   4.096   0.644   3.751
 7665SOL    HW223895   4.083   0.806   3.757
 7666SOL     OW23896   6.907   0.090   1.265
 7666SOL    HW123897   6.810   0.083   1.288
 7666SOL    HW223898   6.948   0.165   1.316
 7667SOL     OW23899   4.938   6.052   1.493
 7667SOL    HW123900   4.924   6.116   1.568
 7667SOL    HW223901   4.862   6.059   1.428
 7668SOL     OW23902   2.668   4.571   0.922
 7668SOL    HW123903   2.635   4.640   0.858
 7668SOL    HW223904   2.742   4.610   0.977
 7669SOL     OW23905   5.467   1.748   5.049
 7669SOL    HW123906   5.376   1.789   5.041
 7669SOL    HW223907   5.529   1.793   4.984
 7670SOL     OW23908   1.766   5.746   6.271
 7670SOL    HW123909   1.758   5.804   6.352
 7670SOL    HW223910   1.796   5.800   6.193
 7671SOL     OW23911   4.563   1.346   5.240
 7671SOL    HW123912   4.582   1.440   5.212
 7671SOL    HW223913   4.468   1.338   5.269
 7672SOL     OW23914   5.531   6.167   3.792
 7672SOL    HW123915   5.495   6.242   3.848
 7672SOL    HW223916   5.465   6.143   3.722
 7673SOL     OW23917   2.304   5.250   0.027
 7673SOL    HW123918   2.383   5.220   0.079
 7673SOL    HW223919   2.266   5.173   7.003
 7674SOL     OW23920   6.438   2.356   4.168
 7674SOL    HW123921   6.402   2.439   4.124
 7674SOL    HW223922   6.428   2.364   4.267
 7675SOL     OW23923   4.997   0.683   2.708
 7675SOL    HW123924   5.059   0.760   2.695
 7675SOL    HW223925   4.992   0.659   2.805
 7676SOL     OW23926   1.263   1.875   0.491
 7676SOL    HW123927   1.166   1.892   0.506
 7676SOL    HW223928   1.316   1.924   0.560
 7677SOL     OW23929   1.114   3.993   1.539
 7677SOL    HW123930   1.022   3.955   1.549
 7677SOL    HW223931   1.170   3.930   1.485
 7678SOL     OW23932   1.914   1.167   5.972
 7678SOL    HW123933   1.852   1.205   5.905
 7678SOL    HW223934   1.963   1.089   5.932
 7679SOL     OW23935   1.402   6.641   5.031
 7679SOL    HW123936   1.489   6.648   5.080
 7679SOL    HW223937   1.365   6.733   5.015
 7680SOL     OW23938   1.811   2.694   0.062
 7680SOL    HW123939   1.910   2.692   0.077
 7680SOL    HW223940   1.768   2.618   0.111
 7681SOL     OW23941   2.749   0.077   0.350
 7681SOL    HW123942   2.688   0.108   0.278
 7681SOL    HW223943   2.696   0.031   0.422
 7682SOL     OW23944   2.529   0.215   2.022
 7682SOL    HW123945   2.434   0.239   2.003
 7682SOL    HW223946   2.537   0.175   2.113
 7683SOL     OW23947   6.798   2.089   4.426
 7683SOL    HW123948   6.845   2.001   4.421
 7683SOL    HW223949   6.699   2.074   4.432
 7684SOL     OW23950   5.545   2.201   0.367
 7684SOL    HW123951   5.618   2.143   0.404
 7684SOL    HW223952   5.496   2.244   0.443
 7685SOL     OW23953   3.356   3.442   7.023
 7685SOL    HW123954   3.411   3.414   0.073
 7685SOL    HW223955   3.268   3.394   7.024
 7686SOL     OW23956   4.852   0.500   3.644
 7686SOL    HW123957   4.876   0.456   3.557
 7686SOL    HW223958   4.922   0.477   3.712
 7687SOL     OW23959   6.217   5.835   5.212
 7687SOL    HW123960   6.121   5.862   5.208
 7687SOL    HW223961   6.273   5.914   5.240
 7688SOL     OW23962   0.608   0.821   6.655
 7688SOL    HW123963   0.662   0.905   6.641
 7688SOL    HW223964   0.597   0.773   6.568
 7689SOL     OW23965   5.464   6.080   3.407
 7689SOL    HW123966   5.413   6.047   3.486
 7689SOL    HW223967   5.552   6.117   3.437
 7690SOL     OW23968   6.024   5.087   1.240
 7690SOL    HW123969   5.976   5.171   1.213
 7690SOL    HW223970   6.119   5.109   1.262
 7691SOL     OW23971   4.711   2.681   4.411
 7691SOL    HW123972   4.753   2.650   4.325
 7691SOL    HW223973   4.736   2.776   4.428
 7692SOL     OW23974   0.641   7.021   1.350
 7692SOL    HW123975   0.566   6.957   1.367
 7692SOL    HW223976   0.728   6.977   1.372
 7693SOL     OW23977   4.429   6.681   0.771
 7693SOL    HW123978   4.411   6.762   0.827
 7693SOL    HW223979   4.394   6.600   0.819
 7694SOL     OW23980   0.277   4.082   4.366
 7694SOL    HW123981   0.305   4.126   4.281
 7694SOL    HW223982   0.299   4.141   4.443
 7695SOL     OW23983   3.935   6.744   0.595
 7695SOL    HW123984   3.944   6.771   0.691
 7695SOL    HW223985   3.902   6.649   0.591
 7696SOL     OW23986   6.906   1.847   4.595
 7696SOL    HW123987   6.967   1.821   4.520
 7696SOL    HW223988   6.955   1.839   4.682
 7697SOL     OW23989   2.800   0.664   2.571
 7697SOL    HW123990   2.731   0.733   2.592
 7697SOL    HW223991   2.789   0.634   2.476
 7698SOL     OW23992   0.272   2.943   4.835
 7698SOL    HW123993   0.193   2.904   4.883
 7698SOL    HW223994   0.342   2.872   4.823
 7699SOL     OW23995   3.550   5.856   6.812
 7699SOL    HW123996   3.642   5.866   6.774
 7699SOL    HW223997   3.516   5.763   6.793
 7700SOL     OW23998   5.075   6.601   5.165
 7700SOL    HW123999   5.154   6.543   5.185
 7700SOL    HW224000   5.055   6.596   5.067
 7701SOL     OW24001   6.142   1.407   6.951
 7701SOL    HW124002   6.050   1.439   6.930
 7701SOL    HW224003   6.209   1.475   6.920
 7702SOL     OW24004   3.392   6.669   5.497
 7702SOL    HW124005   3.322   6.603   5.471
 7702SOL    HW224006   3.481   6.639   5.462
 7703SOL     OW24007   6.812   1.220   4.802
 7703SOL    HW124008   6.736   1.158   4.788
 7703SOL    HW224009   6.855   1.240   4.714
 7704SOL     OW24010   4.654   4.504   5.609
 7704SOL    HW124011   4.673   4.602   5.623
 7704SOL    HW224012   4.737   4.451   5.627
 7705SOL     OW24013   3.662   4.724   5.911
 7705SOL    HW124014   3.577   4.753   5.956
 7705SOL    HW224015   3.732   4.709   5.980
 7706SOL     OW24016   4.951   1.553   5.950
 7706SOL    HW124017   5.049   1.570   5.952
 7706SOL    HW224018   4.913   1.583   5.862
 7707SOL     OW24019   0.870   5.835   6.685
 7707SOL    HW124020   0.920   5.913   6.724
 7707SOL    HW224021   0.837   5.859   6.594
 7708SOL     OW24022   5.098   6.012   5.224
 7708SOL    HW124023   5.016   5.970   5.185
 7708SOL    HW224024   5.178   5.958   5.200
 7709SOL     OW24025   5.012   3.910   1.883
 7709SOL    HW124026   4.931   3.960   1.854
 7709SOL    HW224027   5.023   3.828   1.827
 7710SOL     OW24028   2.792   0.895   1.169
 7710SOL    HW124029   2.783   0.813   1.226
 7710SOL    HW224030   2.719   0.960   1.192
 7711SOL     OW24031   6.415   6.209   5.056
 7711SOL    HW124032   6.381   6.148   5.128
 7711SOL    HW224033   6.461   6.155   4.986
 7712SOL     OW24034   6.604   4.262   1.507
 7712SOL    HW124035   6.519   4.291   1.464
 7712SOL    HW224036   6.675   4.249   1.437
 7713SOL     OW24037   1.845   4.670   0.426
 7713SOL    HW124038   1.759   4.715   0.402
 7713SOL    HW224039   1.833   4.571   0.422
 7714SOL     OW24040   6.595   5.672   4.906
 7714SOL    HW124041   6.521   5.675   4.973
 7714SOL    HW224042   6.605   5.578   4.871
 7715SOL     OW24043   4.764   1.290   1.101
 7715SOL    HW124044   4.818   1.335   1.172
 7715SOL    HW224045   4.687   1.348   1.075
 7716SOL     OW24046   5.705   3.360   3.840
 7716SOL    HW124047   5.681   3.380   3.745
 7716SOL    HW224048   5.802   3.378   3.855
 7717SOL     OW24049   2.827   1.055   4.797
 7717SOL    HW124050   2.855   1.073   4.703
 7717SOL    HW224051   2.877   1.116   4.859
 7718SOL     OW24052   1.676   2.974   2.573
 7718SOL    HW124053   1.611   3.017   2.635
 7718SOL    HW224054   1.661   3.008   2.480
 7719SOL     OW24055   6.867   3.155   3.513
 7719SOL    HW124056   6.925   3.236   3.523
 7719SOL    HW224057   6.781   3.181   3.470
 7720SOL     OW24058   0.219   6.890   0.489
 7720SOL    HW124059   0.158   6.860   0.563
 7720SOL    HW224060   0.300   6.934   0.528
 7721SOL     OW24061   1.606   4.321   3.185
 7721SOL    HW124062   1.634   4.279   3.099
 7721SOL    HW224063   1.506   4.319   3.192
 7722SOL     OW24064   0.277   5.166   2.576
 7722SOL    HW124065   0.273   5.111   2.492
 7722SOL    HW224066   0.199   5.143   2.634
 7723SOL     OW24067   6.279   4.117   0.519
 7723SOL    HW124068   6.227   4.203   0.520
 7723SOL    HW224069   6.355   4.124   0.584
 7724SOL     OW24070   2.415   4.434   2.347
 7724SOL    HW124071   2.454   4.475   2.265
 7724SOL    HW224072   2.415   4.502   2.421
 7725SOL     OW24073   5.435   2.533   3.033
 7725SOL    HW124074   5.518   2.505   2.985
 7725SOL    HW224075   5.373   2.578   2.968
 7726SOL     OW24076   0.231   5.229   3.865
 7726SOL    HW124077   0.326   5.228   3.834
 7726SOL    HW224078   0.228   5.254   3.962
 7727SOL     OW24079   5.979   1.969   3.382
 7727SOL    HW124080   6.018   1.943   3.293
 7727SOL    HW224081   6.050   1.965   3.452
 7728SOL     OW24082   1.071   3.851   3.871
 7728SOL    HW124083   1.015   3.786   3.922
 7728SOL    HW224084   1.143   3.887   3.930
 7729SOL     OW24085   5.796   2.684   1.689
 7729SOL    HW124086   5.847   2.612   1.643
 7729SOL    HW224087   5.736   2.729   1.623
 7730SOL     OW24088   5.757   5.527   2.030
 7730SOL    HW124089   5.821   5.457   2.061
 7730SOL    HW224090   5.752   5.527   1.930
 7731SOL     OW24091   5.934   0.883   1.102
 7731SOL    HW124092   5.848   0.900   1.151
 7731SOL    HW224093   5.958   0.964   1.048
 7732SOL     OW24094   4.642   5.820   0.738
 7732SOL    HW124095   4.703   5.883   0.786
 7732SOL    HW224096   4.547   5.840   0.762
 7733SOL     OW24097   4.248   6.205   2.081
 7733SOL    HW124098   4.299   6.278   2.034
 7733SOL    HW224099   4.307   6.125   2.092
 7734SOL     OW24100   1.584   4.085   3.950
 7734SOL    HW124101   1.642   4.098   4.030
 7734SOL    HW224102   1.554   4.174   3.915
 7735SOL     OW24103   3.824   5.160   6.657
 7735SOL    HW124104   3.783   5.072   6.635
 7735SOL    HW224105   3.907   5.173   6.603
 7736SOL     OW24106   5.038   4.333   0.109
 7736SOL    HW124107   5.123   4.292   0.078
 7736SOL    HW224108   4.995   4.275   0.177
 7737SOL     OW24109   4.418   1.018   0.893
 7737SOL    HW124110   4.369   1.068   0.822
 7737SOL    HW224111   4.354   0.963   0.946
 7738SOL     OW24112   1.975   5.746   6.807
 7738SOL    HW124113   2.044   5.725   6.738
 7738SOL    HW224114   1.981   5.843   6.831
 7739SOL     OW24115   0.279   1.144   1.765
 7739SOL    HW124116   0.191   1.181   1.734
 7739SOL    HW224117   0.334   1.216   1.806
 7740SOL     OW24118   0.524   0.509   2.754
 7740SOL    HW124119   0.525   0.571   2.675
 7740SOL    HW224120   0.615   0.468   2.765
 7741SOL     OW24121   1.543   5.969   4.352
 7741SOL    HW124122   1.568   6.045   4.293
 7741SOL    HW224123   1.580   5.884   4.315
 7742SOL     OW24124   6.454   1.998   3.500
 7742SOL    HW124125   6.429   2.093   3.514
 7742SOL    HW224126   6.553   1.991   3.488
 7743SOL     OW24127   4.353   2.513   6.378
 7743SOL    HW124128   4.319   2.458   6.302
 7743SOL    HW224129   4.416   2.459   6.434
 7744SOL     OW24130   0.390   5.951   4.427
 7744SOL    HW124131   0.452   5.956   4.505
 7744SOL    HW224132   0.431   5.895   4.355
 7745SOL     OW24133   3.316   2.097   5.564
 7745SOL    HW124134   3.328   2.173   5.627
 7745SOL    HW224135   3.239   2.040   5.593
 7746SOL     OW24136   2.805   0.147   6.554
 7746SOL    HW124137   2.740   0.196   6.496
 7746SOL    HW224138   2.833   0.062   6.509
 7747SOL     OW24139   4.228   6.082   1.251
 7747SOL    HW124140   4.140   6.041   1.225
 7747SOL    HW224141   4.302   6.025   1.215
 7748SOL     OW24142   3.034   3.710   5.577
 7748SOL    HW124143   3.030   3.808   5.594
 7748SOL    HW224144   3.119   3.673   5.615
 7749SOL     OW24145   4.375   3.709   6.047
 7749SOL    HW124146   4.372   3.733   6.144
 7749SOL    HW224147   4.281   3.708   6.011
 7750SOL     OW24148   0.594   6.043   1.554
 7750SOL    HW124149   0.650   5.960   1.548
 7750SOL    HW224150   0.539   6.040   1.637
 7751SOL     OW24151   1.037   1.184   2.270
 7751SOL    HW124152   1.121   1.222   2.231
 7751SOL    HW224153   0.984   1.258   2.312
 7752SOL     OW24154   5.097   0.463   5.212
 7752SOL    HW124155   5.106   0.538   5.148
 7752SOL    HW224156   5.002   0.430   5.211
 7753SOL     OW24157   1.779   1.392   4.791
 7753SOL    HW124158   1.869   1.384   4.748
 7753SOL    HW224159   1.741   1.300   4.804
 7754SOL     OW24160   3.596   6.078   1.415
 7754SOL    HW124161   3.585   5.990   1.369
 7754SOL    HW224162   3.687   6.115   1.398
 7755SOL     OW24163   1.018   3.257   6.105
 7755SOL    HW124164   0.989   3.345   6.068
 7755SOL    HW224165   1.037   3.267   6.203
 7756SOL     OW24166   2.862   6.843   1.732
 7756SOL    HW124167   2.903   6.892   1.655
 7756SOL    HW224168   2.765   6.868   1.740
 7757SOL     OW24169   6.440   4.321   1.086
 7757SOL    HW124170   6.414   4.344   1.180
 7757SOL    HW224171   6.501   4.392   1.051
 7758SOL     OW24172   1.585   6.906   6.336
 7758SOL    HW124173   1.648   6.908   6.258
 7758SOL    HW224174   1.494   6.880   6.306
 7759SOL     OW24175   3.289   2.252   5.940
 7759SOL    HW124176   3.201   2.275   5.981
 7759SOL    HW224177   3.282   2.162   5.896
 7760SOL     OW24178   5.113   2.138   2.397
 7760SOL    HW124179   5.113   2.059   2.336
 7760SOL    HW224180   5.105   2.222   2.343
 7761SOL     OW24181   5.326   5.904   5.095
 7761SOL    HW124182   5.326   5.811   5.056
 7761SOL    HW224183   5.419   5.927   5.125
 7762SOL     OW24184   1.371   0.322   3.955
 7762SOL    HW124185   1.288   0.355   3.911
 7762SOL    HW224186   1.446   0.387   3.939
 7763SOL     OW24187   2.347   0.104   5.485
 7763SOL    HW124188   2.327   0.012   5.452
 7763SOL    HW224189   2.268   0.140   5.534
 7764SOL     OW24190   3.282   4.045   5.426
 7764SOL    HW124191   3.202   4.077   5.476
 7764SOL    HW224192   3.365   4.068   5.478
 7765SOL     OW24193   6.346   3.827   4.233
 7765SOL    HW124194   6.440   3.852   4.212
 7765SOL    HW224195   6.284   3.875   4.171
 7766SOL     OW24196   0.709   4.167   0.573
 7766SOL    HW124197   0.743   4.145   0.482
 7766SOL    HW224198   0.786   4.189   0.633
 7767SOL     OW24199   3.971   6.672   2.757
 7767SOL    HW124200   4.064   6.708   2.767
 7767SOL    HW224201   3.909   6.747   2.734
 7768SOL     OW24202   5.131   4.453   3.528
 7768SOL    HW124203   5.129   4.471   3.627
 7768SOL    HW224204   5.037   4.444   3.494
 7769SOL     OW24205   3.805   1.971   5.244
 7769SOL    HW124206   3.782   2.054   5.194
 7769SOL    HW224207   3.900   1.974   5.274
 7770SOL     OW24208   0.163   3.517   4.989
 7770SOL    HW124209   0.181   3.558   5.079
 7770SOL    HW224210   0.209   3.571   4.918
 7771SOL     OW24211   2.892   1.838   6.293
 7771SOL    HW124212   2.950   1.916   6.268
 7771SOL    HW224213   2.804   1.846   6.246
 7772SOL     OW24214   4.918   0.610   0.687
 7772SOL    HW124215   4.840   0.621   0.624
 7772SOL    HW224216   4.911   0.521   0.732
 7773SOL     OW24217   2.712   5.822   6.909
 7773SOL    HW124218   2.688   5.901   6.852
 7773SOL    HW224219   2.748   5.749   6.850
 7774SOL     OW24220   4.603   2.274   3.942
 7774SOL    HW124221   4.638   2.354   3.892
 7774SOL    HW224222   4.680   2.224   3.981
 7775SOL     OW24223   3.969   0.437   6.901
 7775SOL    HW124224   3.920   0.366   6.952
 7775SOL    HW224225   4.004   0.399   6.816
 7776SOL     OW24226   0.273   6.760   6.285
 7776SOL    HW124227   0.195   6.804   6.241
 7776SOL    HW224228   0.357   6.805   6.255
 7777SOL     OW24229   6.069   5.433   4.507
 7777SOL    HW124230   6.120   5.367   4.562
 7777SOL    HW224231   6.013   5.491   4.567
 7778SOL     OW24232   6.149   3.987   2.709
 7778SOL    HW124233   6.099   3.904   2.733
 7778SOL    HW224234   6.121   4.018   2.618
 7779SOL     OW24235   3.465   0.164   2.906
 7779SOL    HW124236   3.469   0.223   2.825
 7779SOL    HW224237   3.389   0.100   2.896
 7780SOL     OW24238   0.453   6.303   6.330
 7780SOL    HW124239   0.471   6.241   6.254
 7780SOL    HW224240   0.406   6.385   6.296
 7781SOL     OW24241   1.748   3.941   0.336
 7781SOL    HW124242   1.820   3.943   0.266
 7781SOL    HW224243   1.694   4.025   0.331
 7782SOL     OW24244   5.946   5.063   3.138
 7782SOL    HW124245   6.021   5.094   3.079
 7782SOL    HW224246   5.859   5.079   3.093
 7783SOL     OW24247   0.291   6.980   5.927
 7783SOL    HW124248   0.330   7.003   5.837
 7783SOL    HW224249   0.192   6.992   5.924
 7784SOL     OW24250   2.719   2.543   1.708
 7784SOL    HW124251   2.775   2.512   1.785
 7784SOL    HW224252   2.627   2.563   1.740
 7785SOL     OW24253   1.451   6.364   3.337
 7785SOL    HW124254   1.357   6.383   3.307
 7785SOL    HW224255   1.487   6.442   3.387
 7786SOL     OW24256   4.418   0.949   6.778
 7786SOL    HW124257   4.348   0.904   6.834
 7786SOL    HW224258   4.428   1.044   6.807
 7787SOL     OW24259   2.497   3.628   1.198
 7787SOL    HW124260   2.433   3.704   1.186
 7787SOL    HW224261   2.562   3.649   1.271
 7788SOL     OW24262   1.473   6.114   1.614
 7788SOL    HW124263   1.417   6.058   1.675
 7788SOL    HW224264   1.563   6.127   1.654
 7789SOL     OW24265   3.281   6.712   6.095
 7789SOL    HW124266   3.298   6.708   6.194
 7789SOL    HW224267   3.278   6.808   6.065
 7790SOL     OW24268   6.579   4.986   2.489
 7790SOL    HW124269   6.531   5.057   2.541
 7790SOL    HW224270   6.657   4.953   2.542
 7791SOL     OW24271   2.034   5.630   1.798
 7791SOL    HW124272   2.056   5.539   1.762
 7791SOL    HW224273   2.102   5.657   1.866
 7792SOL     OW24274   0.236   1.105   3.031
 7792SOL    HW124275   0.201   1.046   3.104
 7792SOL    HW224276   0.333   1.088   3.019
 7793SOL     OW24277   4.563   2.006   6.541
 7793SOL    HW124278   4.594   2.053   6.624
 7793SOL    HW224279   4.629   1.936   6.515
 7794SOL     OW24280   0.511   5.473   2.421
 7794SOL    HW124281   0.548   5.383   2.397
 7794SOL    HW224282   0.426   5.461   2.474
 7795SOL     OW24283   3.431   5.163   5.389
 7795SOL    HW124284   3.481   5.238   5.433
 7795SOL    HW224285   3.337   5.192   5.372
 7796SOL     OW24286   3.599   3.504   5.366
 7796SOL    HW124287   3.663   3.485   5.292
 7796SOL    HW224288   3.647   3.547   5.443
 7797SOL     OW24289   1.392   5.312   2.250
 7797SOL    HW124290   1.387   5.258   2.166
 7797SOL    HW224291   1.320   5.282   2.313
 7798SOL     OW24292   0.760   1.322   1.620
 7798SOL    HW124293   0.692   1.256   1.653
 7798SOL    HW224294   0.851   1.280   1.624
 7799SOL     OW24295   2.686   5.834   2.827
 7799SOL    HW124296   2.689   5.815   2.926
 7799SOL    HW224297   2.765   5.889   2.802
 7800SOL     OW24298   0.982   5.678   1.201
 7800SOL    HW124299   1.003   5.584   1.228
 7800SOL    HW224300   0.896   5.708   1.242
 7801SOL     OW24301   1.746   2.270   2.471
 7801SOL    HW124302   1.845   2.284   2.467
 7801SOL    HW224303   1.724   2.206   2.545
 7802SOL     OW24304   6.917   4.452   6.290
 7802SOL    HW124305   7.006   4.411   6.312
 7802SOL    HW224306   6.861   4.456   6.373
 7803SOL     OW24307   5.497   2.402   6.503
 7803SOL    HW124308   5.444   2.478   6.542
 7803SOL    HW224309   5.585   2.395   6.551
 7804SOL     OW24310   2.881   1.882   3.852
 7804SOL    HW124311   2.961   1.822   3.852
 7804SOL    HW224312   2.818   1.856   3.925
 7805SOL     OW24313   4.976   2.909   1.851
 7805SOL    HW124314   4.888   2.939   1.889
 7805SOL    HW224315   5.050   2.938   1.912
 7806SOL     OW24316   6.528   2.780   5.649
 7806SOL    HW124317   6.481   2.697   5.680
 7806SOL    HW224318   6.614   2.754   5.604
 7807SOL     OW24319   1.695   4.751   6.229
 7807SOL    HW124320   1.615   4.753   6.169
 7807SOL    HW224321   1.777   4.733   6.175
 7808SOL     OW24322   4.525   4.479   2.519
 7808SOL    HW124323   4.503   4.419   2.443
 7808SOL    HW224324   4.461   4.557   2.519
 7809SOL     OW24325   5.036   4.992   4.348
 7809SOL    HW124326   4.989   5.080   4.359
 7809SOL    HW224327   5.040   4.945   4.436
 7810SOL     OW24328   4.107   6.375   5.013
 7810SOL    HW124329   4.062   6.298   4.968
 7810SOL    HW224330   4.206   6.369   4.997
 7811SOL     OW24331   0.945   5.794   2.980
 7811SOL    HW124332   0.982   5.740   2.905
 7811SOL    HW224333   1.014   5.807   3.051
 7812SOL     OW24334   2.393   3.030   5.390
 7812SOL    HW124335   2.391   3.130   5.389
 7812SOL    HW224336   2.442   2.997   5.309
 7813SOL     OW24337   4.600   2.563   1.312
 7813SOL    HW124338   4.579   2.565   1.409
 7813SOL    HW224339   4.679   2.621   1.293
 7814SOL     OW24340   6.448   3.208   2.326
 7814SOL    HW124341   6.494   3.278   2.271
 7814SOL    HW224342   6.475   3.117   2.294
 7815SOL     OW24343   6.306   2.158   4.723
 7815SOL    HW124344   6.266   2.152   4.631
 7815SOL    HW224345   6.286   2.249   4.761
 7816SOL     OW24346   0.100   1.719   5.933
 7816SOL    HW124347   0.159   1.693   6.009
 7816SOL    HW224348   0.089   1.642   5.870
 7817SOL     OW24349   3.909   4.197   5.896
 7817SOL    HW124350   3.821   4.186   5.942
 7817SOL    HW224351   3.924   4.123   5.832
 7818SOL     OW24352   4.476   0.945   2.166
 7818SOL    HW124353   4.507   0.917   2.257
 7818SOL    HW224354   4.407   0.880   2.133
 7819SOL     OW24355   0.536   3.783   3.828
 7819SOL    HW124356   0.584   3.861   3.868
 7819SOL    HW224357   0.511   3.718   3.900
 7820SOL     OW24358   1.962   0.903   5.254
 7820SOL    HW124359   2.036   0.861   5.306
 7820SOL    HW224360   1.972   1.003   5.256
 7821SOL     OW24361   6.158   5.900   6.978
 7821SOL    HW124362   6.059   5.890   6.991
 7821SOL    HW224363   6.206   5.860   0.028
 7822SOL     OW24364   1.178   1.505   5.570
 7822SOL    HW124365   1.178   1.405   5.562
 7822SOL    HW224366   1.084   1.538   5.569
 7823SOL     OW24367   1.531   4.226   6.572
 7823SOL    HW124368   1.541   4.210   6.670
 7823SOL    HW224369   1.616   4.262   6.535
 7824SOL     OW24370   5.585   1.103   4.038
 7824SOL    HW124371   5.515   1.167   4.008
 7824SOL    HW224372   5.675   1.134   4.006
 7825SOL     OW24373   2.313   3.201   1.356
 7825SOL    HW124374   2.323   3.256   1.439
 7825SOL    HW224375   2.363   3.115   1.366
 7826SOL     OW24376   5.783   1.205   0.237
 7826SOL    HW124377   5.792   1.215   0.138
 7826SOL    HW224378   5.710   1.264   0.271
 7827SOL     OW24379   3.914   4.676   1.496
 7827SOL    HW124380   3.994   4.729   1.466
 7827SOL    HW224381   3.922   4.583   1.462
 7828SOL     OW24382   0.849   5.994   1.166
 7828SOL    HW124383   0.853   5.999   1.066
 7828SOL    HW224384   0.817   5.903   1.194
 7829SOL     OW24385   2.613   3.578   1.477
 7829SOL    HW124386   2.556   3.594   1.558
 7829SOL    HW224387   2.677   3.503   1.496
 7830SOL     OW24388   5.645   3.809   6.288
 7830SOL    HW124389   5.575   3.766   6.231
 7830SOL    HW224390   5.604   3.839   6.374
 7831SOL     OW24391   1.581   4.168   0.297
 7831SOL    HW124392   1.560   4.264   0.276
 7831SOL    HW224393   1.536   4.142   0.382
 7832SOL     OW24394   3.459   1.810   5.025
 7832SOL    HW124395   3.504   1.893   4.993
 7832SOL    HW224396   3.388   1.834   5.092
 7833SOL     OW24397   0.908   0.475   0.707
 7833SOL    HW124398   0.884   0.570   0.684
 7833SOL    HW224399   0.825   0.426   0.734
 7834SOL     OW24400   0.232   1.253   2.381
 7834SOL    HW124401   0.287   1.277   2.301
 7834SOL    HW224402   0.263   1.166   2.418
 7835SOL     OW24403   2.410   2.732   4.765
 7835SOL    HW124404   2.356   2.709   4.846
 7835SOL    HW224405   2.463   2.815   4.783
 7836SOL     OW24406   3.202   6.784   6.421
 7836SOL    HW124407   3.234   6.871   6.458
 7836SOL    HW224408   3.214   6.711   6.488
 7837SOL     OW24409   6.117   6.629   2.175
 7837SOL    HW124410   6.156   6.560   2.114
 7837SOL    HW224411   6.088   6.586   2.260
 7838SOL     OW24412   5.143   6.421   5.435
 7838SOL    HW124413   5.184   6.511   5.450
 7838SOL    HW224414   5.047   6.432   5.409
 7839SOL     OW24415   6.263   3.751   4.478
 7839SOL    HW124416   6.337   3.748   4.546
 7839SOL    HW224417   6.301   3.775   4.389
 7840SOL     OW24418   5.087   2.260   4.300
 7840SOL    HW124419   5.020   2.320   4.345
 7840SOL    HW224420   5.137   2.312   4.231
 7841SOL     OW24421   5.388   2.616   6.642
 7841SOL    HW124422   5.380   2.716   6.636
 7841SOL    HW224423   5.381   2.588   6.738
 7842SOL     OW24424   1.333   1.333   3.328
 7842SOL    HW124425   1.273   1.392   3.382
 7842SOL    HW224426   1.307   1.340   3.231
 7843SOL     OW24427   5.446   3.698   0.891
 7843SOL    HW124428   5.383   3.755   0.838
 7843SOL    HW224429   5.522   3.755   0.925
 7844SOL     OW24430   4.678   0.871   3.832
 7844SOL    HW124431   4.592   0.904   3.791
 7844SOL    HW224432   4.745   0.946   3.833
 7845SOL     OW24433   1.046   0.820   3.968
 7845SOL    HW124434   1.038   0.845   3.871
 7845SOL    HW224435   0.959   0.836   4.013
 7846SOL     OW24436   2.600   1.061   1.231
 7846SOL    HW124437   2.552   1.031   1.149
 7846SOL    HW224438   2.619   1.159   1.224
 7847SOL     OW24439   0.342   1.049   0.773
 7847SOL    HW124440   0.247   1.040   0.803
 7847SOL    HW224441   0.400   0.989   0.828
 7848SOL     OW24442   3.564   4.332   1.146
 7848SOL    HW124443   3.506   4.382   1.210
 7848SOL    HW224444   3.591   4.392   1.070
 7849SOL     OW24445   5.107   3.521   3.471
 7849SOL    HW124446   5.074   3.446   3.414
 7849SOL    HW224447   5.031   3.563   3.520
 7850SOL     OW24448   6.932   0.708   3.658
 7850SOL    HW124449   6.891   0.642   3.595
 7850SOL    HW224450   0.004   0.710   3.643
 7851SOL     OW24451   5.824   6.258   0.132
 7851SOL    HW124452   5.781   6.258   0.223
 7851SOL    HW224453   5.918   6.227   0.140
 7852SOL     OW24454   2.524   6.350   6.676
 7852SOL    HW124455   2.549   6.437   6.720
 7852SOL    HW224456   2.480   6.369   6.588
 7853SOL     OW24457   3.088   1.165   0.251
 7853SOL    HW124458   3.023   1.136   0.321
 7853SOL    HW224459   3.064   1.257   0.218
 7854SOL     OW24460   3.775   3.721   1.341
 7854SOL    HW124461   3.805   3.628   1.360
 7854SOL    HW224462   3.852   3.784   1.349
 7855SOL     OW24463   4.112   5.935   6.435
 7855SOL    HW124464   4.170   6.015   6.419
 7855SOL    HW224465   4.023   5.949   6.392
 7856SOL     OW24466   6.397   4.467   4.980
 7856SOL    HW124467   6.361   4.383   5.021
 7856SOL    HW224468   6.496   4.469   4.990
 7857SOL     OW24469   6.409   2.409   5.552
 7857SOL    HW124470   6.425   2.456   5.639
 7857SOL    HW224471   6.384   2.314   5.571
 7858SOL     OW24472   5.605   4.631   3.270
 7858SOL    HW124473   5.589   4.556   3.335
 7858SOL    HW224474   5.597   4.718   3.317
 7859SOL     OW24475   0.893   4.079   6.572
 7859SOL    HW124476   0.930   4.048   6.484
 7859SOL    HW224477   0.910   4.009   6.642
 7860SOL     OW24478   3.691   6.325   2.754
 7860SOL    HW124479   3.605   6.315   2.804
 7860SOL    HW224480   3.677   6.384   2.674
 7861SOL     OW24481   4.088   5.359   1.726
 7861SOL    HW124482   4.102   5.398   1.817
 7861SOL    HW224483   4.164   5.385   1.667
 7862SOL     OW24484   2.863   4.314   1.686
 7862SOL    HW124485   2.897   4.387   1.745
 7862SOL    HW224486   2.765   4.330   1.668
 7863SOL     OW24487   6.594   6.220   3.118
 7863SOL    HW124488   6.677   6.211   3.172
 7863SOL    HW224489   6.583   6.139   3.060
 7864SOL     OW24490   0.029   6.362   5.388
 7864SOL    HW124491   0.110   6.312   5.361
 7864SOL    HW224492   6.979   6.331   5.334
 7865SOL     OW24493   4.049   6.343   3.815
 7865SOL    HW124494   3.977   6.377   3.875
 7865SOL    HW224495   4.082   6.255   3.849
 7866SOL     OW24496   2.713   1.484   2.172
 7866SOL    HW124497   2.734   1.533   2.257
 7866SOL    HW224498   2.798   1.470   2.121
 7867SOL     OW24499   5.629   5.797   2.386
 7867SOL    HW124500   5.710   5.814   2.330
 7867SOL    HW224501   5.627   5.701   2.414
 7868SOL     OW24502   5.116   6.557   1.865
 7868SOL    HW124503   5.132   6.501   1.946
 7868SOL    HW224504   5.181   6.530   1.793
 7869SOL     OW24505   6.390   3.799   1.061
 7869SOL    HW124506   6.298   3.780   1.096
 7869SOL    HW224507   6.412   3.895   1.075
 7870SOL     OW24508   6.172   5.194   3.740
 7870SOL    HW124509   6.127   5.260   3.800
 7870SOL    HW224510   6.269   5.189   3.763
 7871SOL     OW24511   5.638   3.431   3.578
 7871SOL    HW124512   5.669   3.520   3.545
 7871SOL    HW224513   5.539   3.425   3.570
 7872SOL     OW24514   1.159   4.217   2.459
 7872SOL    HW124515   1.190   4.162   2.382
 7872SOL    HW224516   1.075   4.265   2.435
 7873SOL     OW24517   6.708   0.787   5.669
 7873SOL    HW124518   6.639   0.781   5.742
 7873SOL    HW224519   6.799   0.781   5.709
 7874SOL     OW24520   6.646   1.390   6.718
 7874SOL    HW124521   6.607   1.299   6.734
 7874SOL    HW224522   6.675   1.397   6.622
 7875SOL     OW24523   4.953   4.504   6.897
 7875SOL    HW124524   5.002   4.472   6.816
 7875SOL    HW224525   4.981   4.450   6.976
 7876SOL     OW24526   6.627   0.697   4.497
 7876SOL    HW124527   6.637   0.728   4.592
 7876SOL    HW224528   6.552   0.631   4.491
 7877SOL     OW24529   0.075   2.074   3.071
 7877SOL    HW124530   0.018   2.151   3.100
 7877SOL    HW224531   0.102   2.020   3.151
 7878SOL     OW24532   4.958   4.499   2.704
 7878SOL    HW124533   4.949   4.513   2.803
 7878SOL    HW224534   4.879   4.538   2.657
 7879SOL     OW24535   4.928   5.883   3.080
 7879SOL    HW124536   5.020   5.857   3.109
 7879SOL    HW224537   4.909   5.976   3.110
 7880SOL     OW24538   0.713   6.235   0.708
 7880SOL    HW124539   0.661   6.188   0.779
 7880SOL    HW224540   0.733   6.328   0.737
 7881SOL     OW24541   6.924   4.258   4.548
 7881SOL    HW124542   7.020   4.277   4.526
 7881SOL    HW224543   6.900   4.166   4.519
 7882SOL     OW24544   1.330   2.984   2.312
 7882SOL    HW124545   1.340   2.918   2.238
 7882SOL    HW224546   1.282   2.940   2.389
 7883SOL     OW24547   2.106   0.822   1.727
 7883SOL    HW124548   2.128   0.919   1.715
 7883SOL    HW224549   2.081   0.806   1.823
 7884SOL     OW24550   1.491   4.262   3.769
 7884SOL    HW124551   1.450   4.230   3.684
 7884SOL    HW224552   1.455   4.352   3.792
 7885SOL     OW24553   6.036   5.448   2.853
 7885SOL    HW124554   6.089   5.502   2.787
 7885SOL    HW224555   5.975   5.509   2.905
 7886SOL     OW24556   5.297   3.547   1.269
 7886SOL    HW124557   5.270   3.458   1.305
 7886SOL    HW224558   5.256   3.560   1.179
 7887SOL     OW24559   3.262   3.089   5.495
 7887SOL    HW124560   3.240   3.082   5.398
 7887SOL    HW224561   3.345   3.144   5.506
 7888SOL     OW24562   6.869   1.562   4.226
 7888SOL    HW124563   6.934   1.502   4.179
 7888SOL    HW224564   6.787   1.509   4.249
 7889SOL     OW24565   6.973   5.418   0.206
 7889SOL    HW124566   6.929   5.329   0.193
 7889SOL    HW224567   0.022   5.409   0.269
 7890SOL     OW24568   1.684   2.824   4.031
 7890SOL    HW124569   1.606   2.858   3.979
 7890SOL    HW224570   1.729   2.900   4.078
 7891SOL     OW24571   0.790   3.107   4.189
 7891SOL    HW124572   0.856   3.045   4.233
 7891SOL    HW224573   0.732   3.148   4.258
 7892SOL     OW24574   1.800   1.896   4.324
 7892SOL    HW124575   1.703   1.879   4.309
 7892SOL    HW224576   1.811   1.978   4.379
 7893SOL     OW24577   6.379   6.393   1.887
 7893SOL    HW124578   6.447   6.330   1.925
 7893SOL    HW224579   6.304   6.405   1.952
 7894SOL     OW24580   2.329   1.824   6.910
 7894SOL    HW124581   2.396   1.846   6.981
 7894SOL    HW224582   2.327   1.897   6.842
 7895SOL     OW24583   3.844   5.829   4.202
 7895SOL    HW124584   3.804   5.792   4.286
 7895SOL    HW224585   3.772   5.841   4.134
 7896SOL     OW24586   4.478   3.390   1.395
 7896SOL    HW124587   4.521   3.387   1.485
 7896SOL    HW224588   4.414   3.314   1.386
 7897SOL     OW24589   3.587   4.144   6.512
 7897SOL    HW124590   3.551   4.231   6.547
 7897SOL    HW224591   3.511   4.087   6.480
 7898SOL     OW24592   4.938   0.305   4.182
 7898SOL    HW124593   4.844   0.273   4.179
 7898SOL    HW224594   5.000   0.228   4.170
 7899SOL     OW24595   5.735   5.628   1.728
 7899SOL    HW124596   5.639   5.607   1.747
 7899SOL    HW224597   5.744   5.725   1.706
 7900SOL     OW24598   0.261   3.955   0.639
 7900SOL    HW124599   0.358   3.941   0.619
 7900SOL    HW224600   0.243   3.926   0.733
 7901SOL     OW24601   5.260   1.262   5.852
 7901SOL    HW124602   5.316   1.315   5.916
 7901SOL    HW224603   5.189   1.213   5.901
 7902SOL     OW24604   0.480   6.151   3.529
 7902SOL    HW124605   0.422   6.149   3.610
 7902SOL    HW224606   0.455   6.229   3.472
 7903SOL     OW24607   3.841   1.715   3.994
 7903SOL    HW124608   3.891   1.669   3.920
 7903SOL    HW224609   3.762   1.763   3.955
 7904SOL     OW24610   5.918   0.569   2.892
 7904SOL    HW124611   5.864   0.494   2.930
 7904SOL    HW224612   5.915   0.647   2.954
 7905SOL     OW24613   5.355   0.691   0.401
 7905SOL    HW124614   5.257   0.680   0.387
 7905SOL    HW224615   5.398   0.714   0.314
 7906SOL     OW24616   1.404   4.951   1.245
 7906SOL    HW124617   1.400   4.914   1.338
 7906SOL    HW224618   1.430   4.878   1.181
 7907SOL     OW24619   5.740   0.428   3.154
 7907SOL    HW124620   5.726   0.379   3.068
 7907SOL    HW224621   5.825   0.397   3.196
 7908SOL     OW24622   0.763   2.150   6.584
 7908SOL    HW124623   0.696   2.144   6.658
 7908SOL    HW224624   0.716   2.175   6.499
 7909SOL     OW24625   5.165   4.226   3.058
 7909SOL    HW124626   5.216   4.213   2.973
 7909SOL    HW224627   5.088   4.162   3.060
 7910SOL     OW24628   1.348   3.263   1.045
 7910SOL    HW124629   1.441   3.232   1.064
 7910SOL    HW224630   1.284   3.216   1.105
 7911SOL     OW24631   0.911   3.892   1.124
 7911SOL    HW124632   0.896   3.941   1.210
 7911SOL    HW224633   1.009   3.892   1.102
 7912SOL     OW24634   5.393   5.433   0.571
 7912SOL    HW124635   5.320   5.397   0.629
 7912SOL    HW224636   5.437   5.510   0.618
 7913SOL     OW24637   2.185   4.156   0.828
 7913SOL    HW124638   2.108   4.192   0.776
 7913SOL    HW224639   2.242   4.098   0.769
 7914SOL     OW24640   6.907   5.377   6.376
 7914SOL    HW124641   6.817   5.417   6.392
 7914SOL    HW224642   6.977   5.432   6.422
 7915SOL     OW24643   4.103   0.999   2.908
 7915SOL    HW124644   4.011   0.968   2.884
 7915SOL    HW224645   4.107   1.018   3.006
 7916SOL     OW24646   0.188   0.612   4.630
 7916SOL    HW124647   0.120   0.540   4.636
 7916SOL    HW224648   0.278   0.571   4.614
 7917SOL     OW24649   4.032   2.731   6.087
 7917SOL    HW124650   4.019   2.777   6.174
 7917SOL    HW224651   3.943   2.711   6.046
 7918SOL     OW24652   1.355   1.263   4.954
 7918SOL    HW124653   1.438   1.286   5.004
 7918SOL    HW224654   1.340   1.164   4.959
 7919SOL     OW24655   1.062   5.066   2.907
 7919SOL    HW124656   1.056   5.149   2.962
 7919SOL    HW224657   0.970   5.032   2.887
 7920SOL     OW24658   4.942   0.840   1.578
 7920SOL    HW124659   4.974   0.931   1.550
 7920SOL    HW224660   5.005   0.802   1.645
 7921SOL     OW24661   5.607   1.643   1.545
 7921SOL    HW124662   5.541   1.634   1.470
 7921SOL    HW224663   5.659   1.727   1.534
 7922SOL     OW24664   0.621   6.662   6.735
 7922SOL    HW124665   0.543   6.684   6.794
 7922SOL    HW224666   0.595   6.677   6.639
 7923SOL     OW24667   2.554   2.195   6.358
 7923SOL    HW124668   2.598   2.269   6.410
 7923SOL    HW224669   2.566   2.109   6.408
 7924SOL     OW24670   5.701   6.857   1.191
 7924SOL    HW124671   5.726   6.942   1.237
 7924SOL    HW224672   5.644   6.801   1.252
 7925SOL     OW24673   2.525   6.701   0.854
 7925SOL    HW124674   2.564   6.661   0.937
 7925SOL    HW224675   2.455   6.639   0.818
 7926SOL     OW24676   5.436   1.150   6.642
 7926SOL    HW124677   5.489   1.084   6.588
 7926SOL    HW224678   5.473   1.242   6.629
 7927SOL     OW24679   5.205   6.879   2.464
 7927SOL    HW124680   5.222   6.961   2.409
 7927SOL    HW224681   5.144   6.902   2.540
 7928SOL     OW24682   6.857   1.102   3.207
 7928SOL    HW124683   6.882   1.197   3.226
 7928SOL    HW224684   6.764   1.098   3.171
 7929SOL     OW24685   4.374   4.215   6.795
 7929SOL    HW124686   4.324   4.146   6.848
 7929SOL    HW224687   4.344   4.211   6.699
 7930SOL     OW24688   3.490   5.488   6.033
 7930SOL    HW124689   3.471   5.531   5.945
 7930SOL    HW224690   3.562   5.419   6.021
 7931SOL     OW24691   3.067   2.862   0.682
 7931SOL    HW124692   3.031   2.848   0.774
 7931SOL    HW224693   3.024   2.797   0.619
 7932SOL     OW24694   6.977   5.110   0.867
 7932SOL    HW124695   6.935   5.174   0.931
 7932SOL    HW224696   0.019   5.157   0.813
 7933SOL     OW24697   6.634   0.943   5.986
 7933SOL    HW124698   6.626   0.844   5.997
 7933SOL    HW224699   6.730   0.969   5.985
 7934SOL     OW24700   1.507   4.950   0.795
 7934SOL    HW124701   1.503   5.042   0.835
 7934SOL    HW224702   1.454   4.948   0.710
 7935SOL     OW24703   5.249   4.378   2.459
 7935SOL    HW124704   5.157   4.345   2.478
 7935SOL    HW224705   5.309   4.355   2.536
 7936SOL     OW24706   2.587   6.155   3.848
 7936SOL    HW124707   2.489   6.165   3.831
 7936SOL    HW224708   2.637   6.200   3.774
 7937SOL     OW24709   1.351   5.803   4.538
 7937SOL    HW124710   1.332   5.787   4.441
 7937SOL    HW224711   1.424   5.742   4.568
 7938SOL     OW24712   5.238   0.039   5.769
 7938SOL    HW124713   5.291   0.006   5.691
 7938SOL    HW224714   5.198   6.989   5.817
 7939SOL     OW24715   0.539   1.935   5.277
 7939SOL    HW124716   0.476   1.936   5.355
 7939SOL    HW224717   0.561   1.840   5.254
 7940SOL     OW24718   3.617   1.803   2.177
 7940SOL    HW124719   3.682   1.846   2.241
 7940SOL    HW224720   3.572   1.875   2.123
 7941SOL     OW24721   4.503   6.522   3.165
 7941SOL    HW124722   4.601   6.505   3.172
 7941SOL    HW224723   4.462   6.526   3.256
 7942SOL     OW24724   0.926   2.700   2.354
 7942SOL    HW124725   1.002   2.711   2.418
 7942SOL    HW224726   0.946   2.749   2.269
 7943SOL     OW24727   1.284   4.744   5.720
 7943SOL    HW124728   1.240   4.776   5.636
 7943SOL    HW224729   1.351   4.812   5.750
 7944SOL     OW24730   0.965   2.307   1.920
 7944SOL    HW124731   1.019   2.379   1.876
 7944SOL    HW224732   0.874   2.304   1.877
 7945SOL     OW24733   6.420   5.153   2.638
 7945SOL    HW124734   6.328   5.192   2.646
 7945SOL    HW224735   6.479   5.191   2.710
 7946SOL     OW24736   3.874   0.286   5.706
 7946SOL    HW124737   3.816   0.225   5.653
 7946SOL    HW224738   3.969   0.279   5.675
 7947SOL     OW24739   2.008   2.230   5.008
 7947SOL    HW124740   1.962   2.283   5.079
 7947SOL    HW224741   1.946   2.161   4.972
 7948SOL     OW24742   1.269   4.894   1.744
 7948SOL    HW124743   1.323   4.948   1.679
 7948SOL    HW224744   1.276   4.797   1.720
 7949SOL     OW24745   4.322   4.439   5.957
 7949SOL    HW124746   4.299   4.526   5.914
 7949SOL    HW224747   4.273   4.431   6.044
 7950SOL     OW24748   5.809   6.113   5.434
 7950SOL    HW124749   5.864   6.189   5.400
 7950SOL    HW224750   5.717   6.147   5.457
 7951SOL     OW24751   2.180   4.905   2.916
 7951SOL    HW124752   2.205   4.891   2.820
 7951SOL    HW224753   2.221   4.990   2.950
 7952SOL     OW24754   6.388   3.495   6.926
 7952SOL    HW124755   6.443   3.417   6.896
 7952SOL    HW224756   6.310   3.506   6.865
 7953SOL     OW24757   4.402   1.794   0.953
 7953SOL    HW124758   4.393   1.717   0.889
 7953SOL    HW224759   4.319   1.849   0.951
 7954SOL     OW24760   4.266   3.740   6.382
 7954SOL    HW124761   4.362   3.715   6.398
 7954SOL    HW224762   4.257   3.839   6.381
 7955SOL     OW24763   2.175   1.504   6.142
 7955SOL    HW124764   2.168   1.598   6.175
 7955SOL    HW224765   2.131   1.496   6.053
 7956SOL     OW24766   5.845   1.795   1.768
 7956SOL    HW124767   5.878   1.889   1.776
 7956SOL    HW224768   5.862   1.761   1.676
 7957SOL     OW24769   3.466   0.548   5.944
 7957SOL    HW124770   3.482   0.606   6.024
 7957SOL    HW224771   3.459   0.605   5.862
 7958SOL     OW24772   5.831   4.580   6.568
 7958SOL    HW124773   5.795   4.579   6.661
 7958SOL    HW224774   5.803   4.665   6.522
 7959SOL     OW24775   5.134   0.673   6.318
 7959SOL    HW124776   5.104   0.737   6.246
 7959SOL    HW224777   5.104   0.707   6.407
 7960SOL     OW24778   0.396   1.582   6.286
 7960SOL    HW124779   0.401   1.679   6.310
 7960SOL    HW224780   0.426   1.570   6.191
 7961SOL     OW24781   6.732   6.980   0.681
 7961SOL    HW124782   6.774   6.892   0.705
 7961SOL    HW224783   6.717   6.984   0.582
 7962SOL     OW24784   6.839   1.637   6.145
 7962SOL    HW124785   6.918   1.590   6.185
 7962SOL    HW224786   6.861   1.734   6.134
 7963SOL     OW24787   6.306   4.523   4.111
 7963SOL    HW124788   6.336   4.508   4.205
 7963SOL    HW224789   6.359   4.598   4.070
 7964SOL     OW24790   6.977   2.704   1.656
 7964SOL    HW124791   6.959   2.606   1.650
 7964SOL    HW224792   6.907   2.748   1.711
 7965SOL     OW24793   4.802   2.757   6.866
 7965SOL    HW124794   4.846   2.821   6.928
 7965SOL    HW224795   4.860   2.742   6.786
 7966SOL     OW24796   4.104   3.749   6.000
 7966SOL    HW124797   4.145   3.825   6.050
 7966SOL    HW224798   4.008   3.739   6.026
 7967SOL     OW24799   1.956   5.314   2.389
 7967SOL    HW124800   1.954   5.377   2.311
 7967SOL    HW224801   1.949   5.220   2.356
 7968SOL     OW24802   6.364   2.082   5.005
 7968SOL    HW124803   6.380   2.109   4.910
 7968SOL    HW224804   6.282   2.026   5.010
 7969SOL     OW24805   4.904   6.117   0.284
 7969SOL    HW124806   4.896   6.190   0.352
 7969SOL    HW224807   5.001   6.105   0.259
 7970SOL     OW24808   5.856   2.581   2.644
 7970SOL    HW124809   5.951   2.576   2.611
 7970SOL    HW224810   5.847   2.527   2.727
 7971SOL     OW24811   3.001   1.569   1.744
 7971SOL    HW124812   2.992   1.600   1.839
 7971SOL    HW224813   3.014   1.469   1.743
 7972SOL     OW24814   2.918   3.086   1.709
 7972SOL    HW124815   2.891   2.993   1.731
 7972SOL    HW224816   2.942   3.093   1.612
 7973SOL     OW24817   5.397   4.049   3.920
 7973SOL    HW124818   5.328   4.041   3.992
 7973SOL    HW224819   5.410   3.959   3.876
 7974SOL     OW24820   6.270   1.181   4.820
 7974SOL    HW124821   6.309   1.273   4.823
 7974SOL    HW224822   6.185   1.179   4.872
 7975SOL     OW24823   4.193   0.196   0.539
 7975SOL    HW124824   4.280   0.153   0.563
 7975SOL    HW224825   4.206   0.255   0.459
 7976SOL     OW24826   0.860   0.127   5.782
 7976SOL    HW124827   0.845   0.034   5.749
 7976SOL    HW224828   0.944   0.131   5.836
 7977SOL     OW24829   5.987   6.070   2.595
 7977SOL    HW124830   6.061   6.112   2.649
 7977SOL    HW224831   5.936   6.141   2.548
 7978SOL     OW24832   0.468   3.555   6.854
 7978SOL    HW124833   0.504   3.648   6.845
 7978SOL    HW224834   0.501   3.515   6.939
 7979SOL     OW24835   2.042   4.364   5.900
 7979SOL    HW124836   2.013   4.307   5.977
 7979SOL    HW224837   2.060   4.457   5.932
 7980SOL     OW24838   3.223   5.492   6.143
 7980SOL    HW124839   3.320   5.466   6.138
 7980SOL    HW224840   3.193   5.528   6.055
 7981SOL     OW24841   0.985   4.792   2.174
 7981SOL    HW124842   0.975   4.844   2.260
 7981SOL    HW224843   1.048   4.716   2.189
 7982SOL     OW24844   1.702   1.550   5.960
 7982SOL    HW124845   1.671   1.524   5.869
 7982SOL    HW224846   1.648   1.627   5.993
 7983SOL     OW24847   5.518   1.311   1.269
 7983SOL    HW124848   5.429   1.305   1.312
 7983SOL    HW224849   5.510   1.291   1.171
 7984SOL     OW24850   0.897   1.644   0.781
 7984SOL    HW124851   0.865   1.672   0.690
 7984SOL    HW224852   0.837   1.571   0.816
 7985SOL     OW24853   2.658   2.084   4.677
 7985SOL    HW124854   2.661   2.042   4.587
 7985SOL    HW224855   2.728   2.155   4.684
 7986SOL     OW24856   3.883   1.578   5.344
 7986SOL    HW124857   3.858   1.622   5.258
 7986SOL    HW224858   3.912   1.484   5.327
 7987SOL     OW24859   2.404   3.841   0.901
 7987SOL    HW124860   2.425   3.923   0.848
 7987SOL    HW224861   2.378   3.867   0.994
 7988SOL     OW24862   0.538   0.600   1.525
 7988SOL    HW124863   0.512   0.534   1.594
 7988SOL    HW224864   0.457   0.630   1.474
 7989SOL     OW24865   1.726   4.137   0.056
 7989SOL    HW124866   1.811   4.150   0.109
 7989SOL    HW224867   1.648   4.144   0.118
 7990SOL     OW24868   2.698   5.932   4.395
 7990SOL    HW124869   2.633   5.970   4.330
 7990SOL    HW224870   2.650   5.903   4.478
 7991SOL     OW24871   5.324   1.838   4.363
 7991SOL    HW124872   5.275   1.751   4.371
 7991SOL    HW224873   5.261   1.913   4.381
 7992SOL     OW24874   2.316   0.457   0.369
 7992SOL    HW124875   2.313   0.553   0.341
 7992SOL    HW224876   2.332   0.400   0.289
 7993SOL     OW24877   0.279   6.849   1.963
 7993SOL    HW124878   0.184   6.870   1.939
 7993SOL    HW224879   0.337   6.927   1.941
 7994SOL     OW24880   4.964   0.575   2.959
 7994SOL    HW124881   5.029   0.500   2.975
 7994SOL    HW224882   4.895   0.576   3.031
 7995SOL     OW24883   5.708   4.111   2.944
 7995SOL    HW124884   5.674   4.158   3.025
 7995SOL    HW224885   5.639   4.047   2.911
 7996SOL     OW24886   4.322   0.157   3.972
 7996SOL    HW124887   4.396   0.213   4.008
 7996SOL    HW224888   4.297   0.190   3.881
 7997SOL     OW24889   0.164   1.890   0.136
 7997SOL    HW124890   0.149   1.989   0.144
 7997SOL    HW224891   0.122   1.844   0.214
 7998SOL     OW24892   2.586   6.842   0.208
 7998SOL    HW124893   2.490   6.851   0.184
 7998SOL    HW224894   2.634   6.795   0.135
 7999SOL     OW24895   1.336   1.662   5.976
 7999SOL    HW124896   1.336   1.568   6.011
 7999SOL    HW224897   1.430   1.693   5.965
 8000SOL     OW24898   6.036   0.169   6.501
 8000SOL    HW124899   6.044   0.259   6.543
 8000SOL    HW224900   6.028   0.179   6.402
 8001SOL     OW24901   4.397   6.458   1.600
 8001SOL    HW124902   4.319   6.401   1.574
 8001SOL    HW224903   4.431   6.507   1.520
 8002SOL     OW24904   0.538   1.669   5.669
 8002SOL    HW124905   0.586   1.631   5.748
 8002SOL    HW224906   0.542   1.604   5.593
 8003SOL     OW24907   1.824   6.462   2.081
 8003SOL    HW124908   1.769   6.530   2.033
 8003SOL    HW224909   1.910   6.503   2.111
 8004SOL     OW24910   2.040   2.868   3.362
 8004SOL    HW124911   2.029   2.799   3.291
 8004SOL    HW224912   2.131   2.861   3.403
 8005SOL     OW24913   2.735   0.435   4.000
 8005SOL    HW124914   2.710   0.417   4.095
 8005SOL    HW224915   2.818   0.385   3.977
 8006SOL     OW24916   3.425   5.502   5.507
 8006SOL    HW124917   3.364   5.451   5.567
 8006SOL    HW224918   3.383   5.511   5.416
 8007SOL     OW24919   5.429   2.124   6.404
 8007SOL    HW124920   5.509   2.088   6.356
 8007SOL    HW224921   5.447   2.219   6.431
 8008SOL     OW24922   3.309   5.926   0.198
 8008SOL    HW124923   3.319   5.998   0.129
 8008SOL    HW224924   3.220   5.933   0.242
 8009SOL     OW24925   4.643   1.043   1.035
 8009SOL    HW124926   4.555   1.056   0.989
 8009SOL    HW224927   4.688   1.131   1.048
 8010SOL     OW24928   2.923   2.376   5.320
 8010SOL    HW124929   3.007   2.363   5.267
 8010SOL    HW224930   2.893   2.471   5.313
 8011SOL     OW24931   3.829   1.892   1.922
 8011SOL    HW124932   3.734   1.910   1.947
 8011SOL    HW224933   3.857   1.803   1.959
 8012SOL     OW24934   0.656   2.765   6.589
 8012SOL    HW124935   0.714   2.686   6.570
 8012SOL    HW224936   0.563   2.747   6.557
 8013SOL     OW24937   0.693   2.992   3.286
 8013SOL    HW124938   0.672   2.977   3.383
 8013SOL    HW224939   0.784   3.031   3.277
 8014SOL     OW24940   1.808   0.510   3.921
 8014SOL    HW124941   1.842   0.440   3.983
 8014SOL    HW224942   1.801   0.597   3.969
 8015SOL     OW24943   2.122   0.054   6.037
 8015SOL    HW124944   2.155   0.117   6.107
 8015SOL    HW224945   2.200   0.007   5.995
 8016SOL     OW24946   3.865   1.205   4.969
 8016SOL    HW124947   3.795   1.210   4.898
 8016SOL    HW224948   3.948   1.164   4.931
 8017SOL     OW24949   6.868   6.913   6.902
 8017SOL    HW124950   6.939   6.937   6.836
 8017SOL    HW224951   6.788   6.971   6.887
 8018SOL     OW24952   3.715   2.722   0.043
 8018SOL    HW124953   3.762   2.707   0.130
 8018SOL    HW224954   3.714   2.820   0.022
 8019SOL     OW24955   2.531   3.611   0.786
 8019SOL    HW124956   2.478   3.687   0.822
 8019SOL    HW224957   2.557   3.550   0.861
 8020SOL     OW24958   6.043   0.452   6.263
 8020SOL    HW124959   6.077   0.461   6.356
 8020SOL    HW224960   6.001   0.362   6.251
 8021SOL     OW24961   2.124   2.660   1.145
 8021SOL    HW124962   2.129   2.560   1.141
 8021SOL    HW224963   2.137   2.699   1.054
 8022SOL     OW24964   6.057   0.478   1.930
 8022SOL    HW124965   5.995   0.446   2.001
 8022SOL    HW224966   6.087   0.401   1.874
 8023SOL     OW24967   5.857   5.280   2.692
 8023SOL    HW124968   5.904   5.345   2.753
 8023SOL    HW224969   5.797   5.222   2.745
 8024SOL     OW24970   1.473   6.042   6.184
 8024SOL    HW124971   1.526   5.993   6.115
 8024SOL    HW224972   1.391   5.989   6.206
 8025SOL     OW24973   1.565   5.208   1.218
 8025SOL    HW124974   1.523   5.118   1.230
 8025SOL    HW224975   1.626   5.206   1.138
 8026SOL     OW24976   6.848   4.535   0.671
 8026SOL    HW124977   6.928   4.585   0.704
 8026SOL    HW224978   6.874   4.443   0.644
 8027SOL     OW24979   3.569   6.665   5.102
 8027SOL    HW124980   3.473   6.686   5.084
 8027SOL    HW224981   3.580   6.565   5.109
 8028SOL     OW24982   2.451   5.965   4.161
 8028SOL    HW124983   2.453   5.874   4.120
 8028SOL    HW224984   2.363   5.980   4.205
 8029SOL     OW24985   4.948   2.220   1.804
 8029SOL    HW124986   5.038   2.262   1.820
 8029SOL    HW224987   4.877   2.278   1.843
 8030SOL     OW24988   6.113   5.326   0.602
 8030SOL    HW124989   6.163   5.379   0.534
 8030SOL    HW224990   6.153   5.341   0.692
 8031SOL     OW24991   6.289   6.807   3.246
 8031SOL    HW124992   6.241   6.728   3.209
 8031SOL    HW224993   6.383   6.782   3.270
 8032SOL     OW24994   4.950   3.389   1.454
 8032SOL    HW124995   5.027   3.390   1.517
 8032SOL    HW224996   4.874   3.440   1.495
 8033SOL     OW24997   4.468   3.581   6.934
 8033SOL    HW124998   4.545   3.519   6.945
 8033SOL    HW224999   4.391   3.548   6.989
 8034SOL     OW25000   5.369   0.325   5.739
 8034SOL    HW125001   5.375   0.364   5.831
 8034SOL    HW225002   5.324   0.236   5.744
 8035SOL     OW25003   4.797   0.847   2.016
 8035SOL    HW125004   4.894   0.861   1.997
 8035SOL    HW225005   4.786   0.766   2.073
 8036SOL     OW25006   0.073   2.982   3.452
 8036SOL    HW125007   0.155   3.037   3.469
 8036SOL    HW225008   7.026   3.043   3.426
 8037SOL     OW25009   1.375   3.299   0.084
 8037SOL    HW125010   1.294   3.357   0.072
 8037SOL    HW225011   1.350   3.203   0.070
 8038SOL     OW25012   5.450   6.220   2.191
 8038SOL    HW125013   5.404   6.226   2.103
 8038SOL    HW225014   5.468   6.311   2.227
 8039SOL     OW25015   0.492   2.480   5.118
 8039SOL    HW125016   0.412   2.421   5.126
 8039SOL    HW225017   0.565   2.432   5.070
 8040SOL     OW25018   1.911   6.025   6.857
 8040SOL    HW125019   1.939   6.112   6.896
 8040SOL    HW225020   1.940   6.020   6.761
 8041SOL     OW25021   3.249   1.303   2.464
 8041SOL    HW125022   3.228   1.315   2.561
 8041SOL    HW225023   3.200   1.373   2.411
 8042SOL     OW25024   4.324   4.122   5.363
 8042SOL    HW125025   4.229   4.136   5.392
 8042SOL    HW225026   4.374   4.072   5.434
 8043SOL     OW25027   4.156   5.098   0.501
 8043SOL    HW125028   4.094   5.055   0.566
 8043SOL    HW225029   4.223   5.030   0.469
 8044SOL     OW25030   3.170   3.237   0.885
 8044SOL    HW125031   3.236   3.173   0.926
 8044SOL    HW225032   3.202   3.331   0.896
 8045SOL     OW25033   6.909   1.974   2.633
 8045SOL    HW125034   6.888   1.876   2.639
 8045SOL    HW225035   6.981   1.997   2.698
 8046SOL     OW25036   0.564   5.198   2.369
 8046SOL    HW125037   0.627   5.241   2.304
 8046SOL    HW225038   0.582   5.100   2.372
 8047SOL     OW25039   3.802   0.071   6.763
 8047SOL    HW125040   3.836   0.032   6.849
 8047SOL    HW225041   3.844   0.161   6.749
 8048SOL     OW25042   3.595   3.117   6.597
 8048SOL    HW125043   3.523   3.172   6.639
 8048SOL    HW225044   3.684   3.159   6.617
 8049SOL     OW25045   1.302   6.611   0.151
 8049SOL    HW125046   1.313   6.710   0.157
 8049SOL    HW225047   1.311   6.571   0.242
 8050SOL     OW25048   2.148   3.759   4.764
 8050SOL    HW125049   2.212   3.831   4.735
 8050SOL    HW225050   2.097   3.727   4.684
 8051SOL     OW25051   4.686   5.667   4.136
 8051SOL    HW125052   4.600   5.644   4.183
 8051SOL    HW225053   4.675   5.752   4.085
 8052SOL     OW25054   2.388   2.070   1.972
 8052SOL    HW125055   2.473   2.023   1.950
 8052SOL    HW225056   2.324   2.006   2.013
 8053SOL     OW25057   2.848   2.632   5.318
 8053SOL    HW125058   2.932   2.686   5.309
 8053SOL    HW225059   2.778   2.686   5.364
 8054SOL     OW25060   5.875   3.801   5.008
 8054SOL    HW125061   5.861   3.731   4.938
 8054SOL    HW225062   5.826   3.884   4.981
 8055SOL     OW25063   0.359   1.308   5.307
 8055SOL    HW125064   0.282   1.253   5.339
 8055SOL    HW225065   0.436   1.248   5.283
 8056SOL     OW25066   3.352   6.570   3.520
 8056SOL    HW125067   3.443   6.543   3.489
 8056SOL    HW225068   3.284   6.504   3.488
 8057SOL     OW25069   2.694   2.151   2.212
 8057SOL    HW125070   2.723   2.219   2.144
 8057SOL    HW225071   2.662   2.069   2.165
 8058SOL     OW25072   3.072   6.482   2.966
 8058SOL    HW125073   3.162   6.525   2.960
 8058SOL    HW225074   3.008   6.530   2.906
 8059SOL     OW25075   2.879   0.955   5.632
 8059SOL    HW125076   2.908   0.926   5.541
 8059SOL    HW225077   2.921   1.042   5.655
 8060SOL     OW25078   0.094   1.646   6.284
 8060SOL    HW125079   0.176   1.595   6.310
 8060SOL    HW225080   0.116   1.743   6.274
 8061SOL     OW25081   0.158   0.769   2.944
 8061SOL    HW125082   0.096   0.788   2.868
 8061SOL    HW225083   0.110   0.716   3.014
 8062SOL     OW25084   4.196   5.314   4.771
 8062SOL    HW125085   4.285   5.284   4.804
 8062SOL    HW225086   4.190   5.414   4.778
 8063SOL     OW25087   2.909   1.468   2.793
 8063SOL    HW125088   2.837   1.533   2.770
 8063SOL    HW225089   2.915   1.460   2.893
 8064SOL     OW25090   6.505   3.183   0.004
 8064SOL    HW125091   6.486   3.115   0.074
 8064SOL    HW225092   6.583   3.239   0.033
 8065SOL     OW25093   3.768   6.876   4.496
 8065SOL    HW125094   3.808   6.787   4.519
 8065SOL    HW225095   3.836   6.948   4.514
 8066SOL     OW25096   6.466   0.331   4.350
 8066SOL    HW125097   6.502   0.394   4.282
 8066SOL    HW225098   6.366   0.334   4.349
 8067SOL     OW25099   4.927   2.518   3.605
 8067SOL    HW125100   4.851   2.468   3.646
 8067SOL    HW225101   5.003   2.455   3.587
 8068SOL     OW25102   0.708   4.825   0.953
 8068SOL    HW125103   0.662   4.905   0.916
 8068SOL    HW225104   0.732   4.841   1.049
 8069SOL     OW25105   2.542   5.058   2.063
 8069SOL    HW125106   2.637   5.073   2.091
 8069SOL    HW225107   2.540   5.026   1.968
 8070SOL     OW25108   4.116   3.380   0.759
 8070SOL    HW125109   4.213   3.380   0.785
 8070SOL    HW225110   4.063   3.335   0.831
 8071SOL     OW25111   3.960   6.641   4.781
 8071SOL    HW125112   3.887   6.699   4.818
 8071SOL    HW225113   4.006   6.689   4.707
 8072SOL     OW25114   2.990   2.382   0.751
 8072SOL    HW125115   3.029   2.434   0.827
 8072SOL    HW225116   3.055   2.378   0.675
 8073SOL     OW25117   2.917   6.423   5.033
 8073SOL    HW125118   2.958   6.499   4.983
 8073SOL    HW225119   2.842   6.385   4.978
 8074SOL     OW25120   2.707   1.331   1.209
 8074SOL    HW125121   2.760   1.411   1.238
 8074SOL    HW225122   2.690   1.336   1.110
 8075SOL     OW25123   0.319   6.851   0.811
 8075SOL    HW125124   0.359   6.855   0.720
 8075SOL    HW225125   0.336   6.938   0.858
 8076SOL     OW25126   0.194   0.563   5.855
 8076SOL    HW125127   0.273   0.515   5.892
 8076SOL    HW225128   0.110   0.521   5.889
 8077SOL     OW25129   3.754   6.014   2.509
 8077SOL    HW125130   3.822   6.085   2.492
 8077SOL    HW225131   3.715   5.983   2.423
 8078SOL     OW25132   1.016   1.780   0.996
 8078SOL    HW125133   0.998   1.877   1.015
 8078SOL    HW225134   0.977   1.756   0.907
 8079SOL     OW25135   6.451   1.374   4.015
 8079SOL    HW125136   6.435   1.377   3.916
 8079SOL    HW225137   6.377   1.323   4.060
 8080SOL     OW25138   1.441   2.759   1.859
 8080SOL    HW125139   1.403   2.824   1.793
 8080SOL    HW225140   1.455   2.671   1.815
 8081SOL     OW25141   6.383   4.994   5.797
 8081SOL    HW125142   6.384   4.936   5.879
 8081SOL    HW225143   6.409   4.939   5.718
 8082SOL     OW25144   3.637   0.475   2.007
 8082SOL    HW125145   3.575   0.432   1.942
 8082SOL    HW225146   3.625   0.574   2.004
 8083SOL     OW25147   5.246   3.025   4.516
 8083SOL    HW125148   5.301   3.050   4.436
 8083SOL    HW225149   5.300   2.967   4.577
 8084SOL     OW25150   2.966   0.841   6.217
 8084SOL    HW125151   2.884   0.794   6.248
 8084SOL    HW225152   3.036   0.837   6.288
 8085SOL     OW25153   6.788   6.372   2.855
 8085SOL    HW125154   6.692   6.357   2.874
 8085SOL    HW225155   6.798   6.434   2.777
 8086SOL     OW25156   0.140   1.254   0.805
 8086SOL    HW125157   0.090   1.192   0.865
 8086SOL    HW225158   0.231   1.217   0.787
 8087SOL     OW25159   1.850   0.349   6.091
 8087SOL    HW125160   1.875   0.253   6.096
 8087SOL    HW225161   1.874   0.394   6.177
 8088SOL     OW25162   5.753   0.299   7.020
 8088SOL    HW125163   5.803   0.313   6.934
 8088SOL    HW225164   5.817   0.271   0.064
 8089SOL     OW25165   5.821   2.950   6.322
 8089SOL    HW125166   5.816   2.856   6.287
 8089SOL    HW225167   5.801   2.950   6.420
 8090SOL     OW25168   4.426   1.334   6.153
 8090SOL    HW125169   4.415   1.356   6.056
 8090SOL    HW225170   4.422   1.235   6.165
 8091SOL     OW25171   1.477   4.472   4.938
 8091SOL    HW125172   1.561   4.441   4.894
 8091SOL    HW225173   1.464   4.423   5.024
 8092SOL     OW25174   4.939   1.976   5.680
 8092SOL    HW125175   5.011   1.976   5.611
 8092SOL    HW225176   4.961   1.909   5.751
 8093SOL     OW25177   3.028   5.240   3.326
 8093SOL    HW125178   3.113   5.279   3.289
 8093SOL    HW225179   2.949   5.287   3.285
 8094SOL     OW25180   0.752   3.030   5.599
 8094SOL    HW125181   0.718   2.953   5.652
 8094SOL    HW225182   0.739   3.115   5.650
 8095SOL     OW25183   0.661   4.855   4.742
 8095SOL    HW125184   0.759   4.863   4.761
 8095SOL    HW225185   0.644   4.772   4.690
 8096SOL     OW25186   2.057   0.432   2.897
 8096SOL    HW125187   2.070   0.446   2.996
 8096SOL    HW225188   1.965   0.394   2.881
 8097SOL     OW25189   4.429   0.288   4.334
 8097SOL    HW125190   4.461   0.248   4.421
 8097SOL    HW225191   4.334   0.261   4.318
 8098SOL     OW25192   2.343   6.483   3.767
 8098SOL    HW125193   2.251   6.452   3.744
 8098SOL    HW225194   2.367   6.562   3.710
 8099SOL     OW25195   4.633   6.319   4.692
 8099SOL    HW125196   4.568   6.276   4.756
 8099SOL    HW225197   4.593   6.321   4.601
 8100SOL     OW25198   6.734   1.624   6.814
 8100SOL    HW125199   6.829   1.647   6.795
 8100SOL    HW225200   6.713   1.532   6.781
 8101SOL     OW25201   1.495   5.250   0.419
 8101SOL    HW125202   1.572   5.236   0.482
 8101SOL    HW225203   1.413   5.206   0.456
 8102SOL     OW25204   0.380   3.795   3.566
 8102SOL    HW125205   0.294   3.746   3.559
 8102SOL    HW225206   0.438   3.752   3.636
 8103SOL     OW25207   3.661   0.078   2.200
 8103SOL    HW125208   3.619   0.164   2.228
 8103SOL    HW225209   3.655   0.069   2.101
 8104SOL     OW25210   1.743   0.337   5.257
 8104SOL    HW125211   1.690   0.386   5.326
 8104SOL    HW225212   1.777   0.251   5.294
 8105SOL     OW25213   0.155   2.623   2.378
 8105SOL    HW125214   0.225   2.652   2.313
 8105SOL    HW225215   0.159   2.524   2.389
 8106SOL     OW25216   2.709   6.326   3.296
 8106SOL    HW125217   2.710   6.263   3.219
 8106SOL    HW225218   2.634   6.391   3.285
 8107SOL     OW25219   1.236   5.823   4.212
 8107SOL    HW125220   1.328   5.807   4.174
 8107SOL    HW225221   1.204   5.740   4.257
 8108SOL     OW25222   6.555   2.183   0.017
 8108SOL    HW125223   6.480   2.248   0.003
 8108SOL    HW225224   6.541   2.102   6.988
 8109SOL     OW25225   0.211   3.637   6.800
 8109SOL    HW125226   0.311   3.625   6.803
 8109SOL    HW225227   0.171   3.568   6.740
 8110SOL     OW25228   4.033   5.004   1.996
 8110SOL    HW125229   3.998   5.024   2.088
 8110SOL    HW225230   4.133   4.999   1.999
 8111SOL     OW25231   4.918   1.210   4.489
 8111SOL    HW125232   4.949   1.234   4.582
 8111SOL    HW225233   4.950   1.119   4.466
 8112SOL     OW25234   2.266   2.585   4.593
 8112SOL    HW125235   2.305   2.638   4.668
 8112SOL    HW225236   2.338   2.563   4.527
 8113SOL     OW25237   6.753   3.762   0.819
 8113SOL    HW125238   6.705   3.709   0.889
 8113SOL    HW225239   6.772   3.704   0.740
 8114SOL     OW25240   1.505   3.589   2.060
 8114SOL    HW125241   1.486   3.580   1.962
 8114SOL    HW225242   1.494   3.501   2.104
 8115SOL     OW25243   3.003   6.379   5.627
 8115SOL    HW125244   2.953   6.296   5.653
 8115SOL    HW225245   3.072   6.399   5.696
 8116SOL     OW25246   4.246   4.875   0.053
 8116SOL    HW125247   4.258   4.786   0.096
 8116SOL    HW225248   4.282   4.946   0.112
 8117SOL     OW25249   2.431   0.321   3.608
 8117SOL    HW125250   2.448   0.271   3.523
 8117SOL    HW225251   2.374   0.401   3.589
 8118SOL     OW25252   5.421   4.147   6.282
 8118SOL    HW125253   5.508   4.184   6.313
 8118SOL    HW225254   5.402   4.179   6.189
 8119SOL     OW25255   5.264   6.525   6.176
 8119SOL    HW125256   5.199   6.486   6.111
 8119SOL    HW225257   5.315   6.452   6.221
 8120SOL     OW25258   2.974   4.895   0.642
 8120SOL    HW125259   3.000   4.958   0.715
 8120SOL    HW225260   3.054   4.872   0.587
 8121SOL     OW25261   0.720   4.902   1.220
 8121SOL    HW125262   0.717   5.001   1.233
 8121SOL    HW225263   0.644   4.859   1.269
 8122SOL     OW25264   0.578   4.340   3.164
 8122SOL    HW125265   0.641   4.350   3.087
 8122SOL    HW225266   0.498   4.288   3.135
 8123SOL     OW25267   0.027   2.085   6.906
 8123SOL    HW125268   0.089   2.007   6.913
 8123SOL    HW225269   7.021   2.109   6.998
 8124SOL     OW25270   5.289   6.250   3.286
 8124SOL    HW125271   5.198   6.208   3.288
 8124SOL    HW225272   5.350   6.201   3.349
 8125SOL     OW25273   0.960   1.149   2.563
 8125SOL    HW125274   0.912   1.094   2.632
 8125SOL    HW225275   0.915   1.238   2.553
 8126SOL     OW25276   5.177   4.727   3.448
 8126SOL    HW125277   5.120   4.805   3.422
 8126SOL    HW225278   5.124   4.643   3.444
 8127SOL     OW25279   2.793   3.355   6.443
 8127SOL    HW125280   2.762   3.267   6.477
 8127SOL    HW225281   2.860   3.341   6.370
 8128SOL     OW25282   3.092   2.100   2.084
 8128SOL    HW125283   3.115   2.080   2.179
 8128SOL    HW225284   3.022   2.172   2.081
 8129SOL     OW25285   3.796   1.612   6.314
 8129SOL    HW125286   3.799   1.575   6.407
 8129SOL    HW225287   3.701   1.633   6.289
 8130SOL     OW25288   0.735   6.155   6.731
 8130SOL    HW125289   0.713   6.236   6.676
 8130SOL    HW225290   0.651   6.110   6.760
 8131SOL     OW25291   2.982   1.435   2.047
 8131SOL    HW125292   3.015   1.366   1.983
 8131SOL    HW225293   3.036   1.519   2.037
 8132SOL     OW25294   5.684   6.241   4.761
 8132SOL    HW125295   5.654   6.266   4.853
 8132SOL    HW225296   5.611   6.190   4.715
 8133SOL     OW25297   3.643   5.244   2.403
 8133SOL    HW125298   3.566   5.299   2.369
 8133SOL    HW225299   3.622   5.147   2.391
 8134SOL     OW25300   6.953   1.898   6.167
 8134SOL    HW125301   6.939   1.934   6.259
 8134SOL    HW225302   0.015   1.927   6.133
 8135SOL     OW25303   1.865   1.223   1.604
 8135SOL    HW125304   1.841   1.316   1.576
 8135SOL    HW225305   1.897   1.171   1.525
 8136SOL     OW25306   5.269   5.080   2.039
 8136SOL    HW125307   5.348   5.026   2.067
 8136SOL    HW225308   5.203   5.083   2.115
 8137SOL     OW25309   3.157   1.532   5.195
 8137SOL    HW125310   3.087   1.463   5.215
 8137SOL    HW225311   3.112   1.616   5.163
 8138SOL     OW25312   5.675   1.090   1.508
 8138SOL    HW125313   5.729   1.167   1.474
 8138SOL    HW225314   5.578   1.108   1.492
 8139SOL     OW25315   6.941   1.340   2.342
 8139SOL    HW125316   6.937   1.363   2.439
 8139SOL    HW225317   7.002   1.405   2.295
 8140SOL     OW25318   5.355   0.822   5.219
 8140SOL    HW125319   5.362   0.743   5.280
 8140SOL    HW225320   5.352   0.790   5.124
 8141SOL     OW25321   4.923   5.203   5.834
 8141SOL    HW125322   4.873   5.287   5.858
 8141SOL    HW225323   5.021   5.221   5.831
 8142SOL     OW25324   6.654   5.292   0.434
 8142SOL    HW125325   6.687   5.274   0.527
 8142SOL    HW225326   6.554   5.289   0.433
 8143SOL     OW25327   6.161   4.733   0.637
 8143SOL    HW125328   6.192   4.687   0.720
 8143SOL    HW225329   6.238   4.779   0.592
 8144SOL     OW25330   5.651   6.733   7.020
 8144SOL    HW125331   5.562   6.778   7.021
 8144SOL    HW225332   5.638   6.634   7.018
 8145SOL     OW25333   5.810   5.949   1.875
 8145SOL    HW125334   5.799   6.048   1.881
 8145SOL    HW225335   5.734   5.904   1.922
 8146SOL     OW25336   3.543   1.405   4.996
 8146SOL    HW125337   3.599   1.465   5.053
 8146SOL    HW225338   3.478   1.460   4.943
 8147SOL     OW25339   5.754   2.690   3.241
 8147SOL    HW125340   5.700   2.728   3.165
 8147SOL    HW225341   5.705   2.704   3.327
 8148SOL     OW25342   5.154   3.705   2.210
 8148SOL    HW125343   5.176   3.692   2.307
 8148SOL    HW225344   5.232   3.677   2.154
 8149SOL     OW25345   2.681   5.411   2.159
 8149SOL    HW125346   2.771   5.392   2.199
 8149SOL    HW225347   2.612   5.409   2.231
 8150SOL     OW25348   0.042   5.117   0.476
 8150SOL    HW125349   0.045   5.139   0.573
 8150SOL    HW225350   0.095   5.184   0.425
 8151SOL     OW25351   0.313   2.544   2.907
 8151SOL    HW125352   0.283   2.465   2.961
 8151SOL    HW225353   0.405   2.571   2.936
 8152SOL     OW25354   0.380   2.282   2.607
 8152SOL    HW125355   0.467   2.298   2.559
 8152SOL    HW225356   0.305   2.315   2.550
 8153SOL     OW25357   3.650   0.069   3.480
 8153SOL    HW125358   3.649   0.103   3.574
 8153SOL    HW225359   3.659   0.146   3.416
 8154SOL     OW25360   1.997   5.888   3.620
 8154SOL    HW125361   1.991   5.872   3.718
 8154SOL    HW225362   2.034   5.806   3.575
 8155SOL     OW25363   2.887   3.700   1.958
 8155SOL    HW125364   2.831   3.618   1.967
 8155SOL    HW225365   2.935   3.718   2.044
 8156SOL     OW25366   5.535   6.970   5.925
 8156SOL    HW125367   5.605   0.005   5.890
 8156SOL    HW225368   5.477   7.018   5.991
 8157SOL     OW25369   5.911   5.705   6.117
 8157SOL    HW125370   5.880   5.684   6.025
 8157SOL    HW225371   5.865   5.788   6.150
 8158SOL     OW25372   0.830   5.470   0.697
 8158SOL    HW125373   0.776   5.549   0.666
 8158SOL    HW225374   0.812   5.453   0.794
 8159SOL     OW25375   2.350   5.850   2.254
 8159SOL    HW125376   2.363   5.947   2.233
 8159SOL    HW225377   2.433   5.799   2.231
 8160SOL     OW25378   4.441   1.353   1.683
 8160SOL    HW125379   4.485   1.440   1.659
 8160SOL    HW225380   4.344   1.368   1.701
 8161SOL     OW25381   4.932   0.477   1.145
 8161SOL    HW125382   4.982   0.465   1.059
 8161SOL    HW225383   4.859   0.408   1.151
 8162SOL     OW25384   6.470   6.794   6.300
 8162SOL    HW125385   6.374   6.821   6.298
 8162SOL    HW225386   6.481   6.712   6.356
 8163SOL     OW25387   2.513   4.297   5.613
 8163SOL    HW125388   2.445   4.299   5.687
 8163SOL    HW225389   2.502   4.213   5.560
 8164SOL     OW25390   5.606   3.467   0.534
 8164SOL    HW125391   5.667   3.491   0.610
 8164SOL    HW225392   5.629   3.523   0.455
 8165SOL     OW25393   1.422   4.413   0.458
 8165SOL    HW125394   1.449   4.335   0.514
 8165SOL    HW225395   1.453   4.497   0.502
 8166SOL     OW25396   2.125   1.082   1.843
 8166SOL    HW125397   2.032   1.109   1.870
 8166SOL    HW225398   2.154   1.138   1.765
 8167SOL     OW25399   5.515   1.646   4.201
 8167SOL    HW125400   5.497   1.712   4.273
 8167SOL    HW225401   5.449   1.659   4.127
 8168SOL     OW25402   3.440   2.130   2.640
 8168SOL    HW125403   3.499   2.058   2.677
 8168SOL    HW225404   3.435   2.120   2.541
 8169SOL     OW25405   4.745   3.262   1.090
 8169SOL    HW125406   4.665   3.244   1.033
 8169SOL    HW225407   4.784   3.175   1.120
 8170SOL     OW25408   1.644   5.726   3.467
 8170SOL    HW125409   1.588   5.802   3.499
 8170SOL    HW225410   1.694   5.686   3.545
 8171SOL     OW25411   0.615   1.852   6.562
 8171SOL    HW125412   0.696   1.816   6.609
 8171SOL    HW225413   0.588   1.939   6.604
 8172SOL     OW25414   0.071   1.021   0.902
 8172SOL    HW125415   0.082   0.946   0.966
 8172SOL    HW225416   7.025   1.001   0.838
 8173SOL     OW25417   3.060   2.232   6.974
 8173SOL    HW125418   3.084   2.228   6.877
 8173SOL    HW225419   3.127   2.180   7.027
 8174SOL     OW25420   5.345   1.808   1.060
 8174SOL    HW125421   5.384   1.718   1.040
 8174SOL    HW225422   5.251   1.812   1.027
 8175SOL     OW25423   0.217   2.898   6.514
 8175SOL    HW125424   0.126   2.896   6.555
 8175SOL    HW225425   0.224   2.975   6.451
 8176SOL     OW25426   2.664   5.707   2.117
 8176SOL    HW125427   2.660   5.608   2.127
 8176SOL    HW225428   2.616   5.734   2.033
 8177SOL     OW25429   1.609   5.977   3.557
 8177SOL    HW125430   1.649   6.056   3.604
 8177SOL    HW225431   1.549   6.010   3.484
 8178SOL     OW25432   1.527   0.153   5.950
 8178SOL    HW125433   1.474   0.111   6.023
 8178SOL    HW225434   1.521   0.097   5.867
 8179SOL     OW25435   3.827   3.535   0.148
 8179SOL    HW125436   3.882   3.456   0.175
 8179SOL    HW225437   3.886   3.602   0.102
 8180SOL     OW25438   6.340   6.835   3.904
 8180SOL    HW125439   6.356   6.858   4.000
 8180SOL    HW225440   6.423   6.852   3.852
 8181SOL     OW25441   2.606   1.997   2.831
 8181SOL    HW125442   2.548   2.069   2.794
 8181SOL    HW225443   2.673   2.037   2.893
 8182SOL     OW25444   3.317   1.971   6.361
 8182SOL    HW125445   3.408   2.009   6.346
 8182SOL    HW225446   3.324   1.890   6.419
 8183SOL     OW25447   0.681   3.105   5.266
 8183SOL    HW125448   0.665   3.184   5.324
 8183SOL    HW225449   0.607   3.039   5.278
 8184SOL     OW25450   6.051   1.284   5.816
 8184SOL    HW125451   6.144   1.323   5.813
 8184SOL    HW225452   6.004   1.317   5.897
 8185SOL     OW25453   2.903   0.494   0.547
 8185SOL    HW125454   2.932   0.437   0.624
 8185SOL    HW225455   2.849   0.439   0.483
 8186SOL     OW25456   3.190   6.412   5.818
 8186SOL    HW125457   3.223   6.322   5.846
 8186SOL    HW225458   3.251   6.483   5.852
 8187SOL     OW25459   1.385   1.749   5.259
 8187SOL    HW125460   1.351   1.703   5.178
 8187SOL    HW225461   1.457   1.814   5.234
 8188SOL     OW25462   4.955   1.881   2.762
 8188SOL    HW125463   4.943   1.933   2.678
 8188SOL    HW225464   4.883   1.905   2.827
 8189SOL     OW25465   4.978   4.293   2.519
 8189SOL    HW125466   4.904   4.234   2.485
 8189SOL    HW225467   4.942   4.354   2.591
 8190SOL     OW25468   5.698   4.401   4.148
 8190SOL    HW125469   5.772   4.352   4.194
 8190SOL    HW225470   5.732   4.443   4.064
 8191SOL     OW25471   1.934   5.228   3.908
 8191SOL    HW125472   1.937   5.233   3.809
 8191SOL    HW225473   1.891   5.311   3.945
 8192SOL     OW25474   2.999   5.510   0.425
 8192SOL    HW125475   2.906   5.543   0.444
 8192SOL    HW225476   3.024   5.442   0.493
 8193SOL     OW25477   6.187   6.369   5.098
 8193SOL    HW125478   6.280   6.337   5.081
 8193SOL    HW225479   6.189   6.460   5.138
 8194SOL     OW25480   6.319   2.774   7.021
 8194SOL    HW125481   6.317   2.741   6.926
 8194SOL    HW225482   6.228   2.763   0.033
 8195SOL     OW25483   0.329   0.476   0.825
 8195SOL    HW125484   0.423   0.488   0.795
 8195SOL    HW225485   0.268   0.526   0.763
 8196SOL     OW25486   4.150   6.376   5.681
 8196SOL    HW125487   4.179   6.342   5.592
 8196SOL    HW225488   4.057   6.344   5.700
 8197SOL     OW25489   5.999   1.170   6.399
 8197SOL    HW125490   5.991   1.196   6.495
 8197SOL    HW225491   6.063   1.231   6.352
 8198SOL     OW25492   2.762   6.764   2.668
 8198SOL    HW125493   2.794   6.859   2.668
 8198SOL    HW225494   2.663   6.762   2.681
 8199SOL     OW25495   0.027   3.681   6.999
 8199SOL    HW125496   0.095   3.685   6.926
 8199SOL    HW225497   0.013   3.772   0.009
 8200SOL     OW25498   4.426   5.158   1.169
 8200SOL    HW125499   4.485   5.237   1.185
 8200SOL    HW225500   4.358   5.152   1.242
 8201SOL     OW25501   4.941   1.383   4.716
 8201SOL    HW125502   4.892   1.414   4.798
 8201SOL    HW225503   4.999   1.458   4.682
 8202SOL     OW25504   1.815   5.443   4.052
 8202SOL    HW125505   1.782   5.358   4.092
 8202SOL    HW225506   1.740   5.509   4.046
 8203SOL     OW25507   4.473   3.658   0.786
 8203SOL    HW125508   4.503   3.587   0.722
 8203SOL    HW225509   4.543   3.670   0.857
 8204SOL     OW25510   3.633   6.527   1.451
 8204SOL    HW125511   3.691   6.497   1.527
 8204SOL    HW225512   3.576   6.451   1.420
 8205SOL     OW25513   5.588   5.108   1.612
 8205SOL    HW125514   5.656   5.061   1.667
 8205SOL    HW225515   5.508   5.130   1.668
 8206SOL     OW25516   3.368   2.643   6.084
 8206SOL    HW125517   3.294   2.594   6.131
 8206SOL    HW225518   3.334   2.733   6.054
 8207SOL     OW25519   3.002   4.839   5.528
 8207SOL    HW125520   2.957   4.817   5.442
 8207SOL    HW225521   2.964   4.783   5.602
 8208SOL     OW25522   2.496   5.760   1.889
 8208SOL    HW125523   2.405   5.745   1.928
 8208SOL    HW225524   2.508   5.857   1.868
 8209SOL     OW25525   1.571   0.716   5.529
 8209SOL    HW125526   1.613   0.807   5.539
 8209SOL    HW225527   1.510   0.717   5.450
 8210SOL     OW25528   2.734   0.733   0.515
 8210SOL    HW125529   2.647   0.731   0.465
 8210SOL    HW225530   2.760   0.641   0.541
 8211SOL     OW25531   3.621   4.169   4.575
 8211SOL    HW125532   3.682   4.111   4.521
 8211SOL    HW225533   3.622   4.139   4.670
 8212SOL     OW25534   2.345   0.319   0.793
 8212SOL    HW125535   2.252   0.319   0.829
 8212SOL    HW225536   2.408   0.286   0.864
 8213SOL     OW25537   4.499   5.444   2.941
 8213SOL    HW125538   4.512   5.490   3.029
 8213SOL    HW225539   4.499   5.345   2.955
 8214SOL     OW25540   2.465   5.684   3.967
 8214SOL    HW125541   2.379   5.683   4.018
 8214SOL    HW225542   2.464   5.760   3.901
 8215SOL     OW25543   4.141   6.486   6.683
 8215SOL    HW125544   4.218   6.537   6.646
 8215SOL    HW225545   4.068   6.549   6.708
 8216SOL     OW25546   4.767   6.243   3.188
 8216SOL    HW125547   4.781   6.285   3.098
 8216SOL    HW225548   4.672   6.212   3.196
 8217SOL     OW25549   2.259   4.084   2.981
 8217SOL    HW125550   2.234   4.162   2.924
 8217SOL    HW225551   2.251   3.999   2.928
 8218SOL     OW25552   1.995   0.409   4.670
 8218SOL    HW125553   2.071   0.419   4.734
 8218SOL    HW225554   1.937   0.490   4.673
 8219SOL     OW25555   3.339   4.041   1.876
 8219SOL    HW125556   3.269   4.037   1.947
 8219SOL    HW225557   3.357   3.949   1.841
 8220SOL     OW25558   3.366   4.276   5.278
 8220SOL    HW125559   3.300   4.347   5.301
 8220SOL    HW225560   3.347   4.194   5.333
 8221SOL     OW25561   6.013   4.017   3.209
 8221SOL    HW125562   6.029   4.111   3.181
 8221SOL    HW225563   6.099   3.976   3.239
 8222SOL     OW25564   6.281   3.101   1.403
 8222SOL    HW125565   6.275   3.028   1.336
 8222SOL    HW225566   6.201   3.099   1.463
 8223SOL     OW25567   0.000   5.663   5.225
 8223SOL    HW125568   6.964   5.601   5.180
 8223SOL    HW225569   6.997   5.757   5.214
 8224SOL     OW25570   4.993   1.778   0.716
 8224SOL    HW125571   5.075   1.815   0.672
 8224SOL    HW225572   4.986   1.680   0.695
 8225SOL     OW25573   4.161   0.442   0.055
 8225SOL    HW125574   4.187   0.534   0.085
 8225SOL    HW225575   4.072   0.445   0.011
 8226SOL     OW25576   3.602   0.581   7.005
 8226SOL    HW125577   3.632   0.615   0.066
 8226SOL    HW225578   3.579   0.657   6.945
 8227SOL     OW25579   5.328   1.475   2.880
 8227SOL    HW125580   5.232   1.498   2.895
 8227SOL    HW225581   5.337   1.379   2.853
 8228SOL     OW25582   0.335   1.453   5.080
 8228SOL    HW125583   0.328   1.393   5.160
 8228SOL    HW225584   0.285   1.412   5.004
 8229SOL     OW25585   3.781   4.636   1.267
 8229SOL    HW125586   3.705   4.574   1.290
 8229SOL    HW225587   3.816   4.677   1.352
 8230SOL     OW25588   4.255   0.427   5.748
 8230SOL    HW125589   4.315   0.500   5.778
 8230SOL    HW225590   4.304   0.367   5.685
 8231SOL     OW25591   3.292   0.969   2.090
 8231SOL    HW125592   3.268   1.043   2.027
 8231SOL    HW225593   3.260   0.992   2.181
 8232SOL     OW25594   4.283   0.764   2.089
 8232SOL    HW125595   4.230   0.715   2.159
 8232SOL    HW225596   4.239   0.851   2.069
 8233SOL     OW25597   0.498   0.919   5.329
 8233SOL    HW125598   0.497   0.958   5.421
 8233SOL    HW225599   0.501   0.992   5.261
 8234SOL     OW25600   2.546   3.864   6.922
 8234SOL    HW125601   2.592   3.864   7.011
 8234SOL    HW225602   2.449   3.843   6.935
 8235SOL     OW25603   6.991   4.910   6.761
 8235SOL    HW125604   0.020   4.979   6.808
 8235SOL    HW225605   6.904   4.951   6.734
 8236SOL     OW25606   0.329   6.277   5.833
 8236SOL    HW125607   0.375   6.306   5.749
 8236SOL    HW225608   0.305   6.180   5.825
 8237SOL     OW25609   4.694   5.577   6.319
 8237SOL    HW125610   4.665   5.557   6.412
 8237SOL    HW225611   4.755   5.656   6.319
 8238SOL     OW25612   2.444   5.504   0.305
 8238SOL    HW125613   2.521   5.535   0.361
 8238SOL    HW225614   2.459   5.531   0.210
 8239SOL     OW25615   0.902   1.742   4.864
 8239SOL    HW125616   0.987   1.782   4.900
 8239SOL    HW225617   0.837   1.730   4.938
 8240SOL     OW25618   3.992   3.092   4.063
 8240SOL    HW125619   4.074   3.129   4.107
 8240SOL    HW225620   3.982   2.995   4.086
 8241SOL     OW25621   1.238   2.984   6.584
 8241SOL    HW125622   1.212   2.998   6.488
 8241SOL    HW225623   1.156   2.988   6.641
 8242SOL     OW25624   1.011   3.769   4.480
 8242SOL    HW125625   1.001   3.864   4.506
 8242SOL    HW225626   0.958   3.711   4.541
 8243SOL     OW25627   0.880   5.053   6.055
 8243SOL    HW125628   0.965   5.000   6.041
 8243SOL    HW225629   0.802   4.993   6.042
 8244SOL     OW25630   0.892   0.574   3.698
 8244SOL    HW125631   0.888   0.485   3.653
 8244SOL    HW225632   0.973   0.624   3.666
 8245SOL     OW25633   5.147   1.370   4.104
 8245SOL    HW125634   5.181   1.288   4.151
 8245SOL    HW225635   5.215   1.443   4.112
 8246SOL     OW25636   1.209   3.903   6.793
 8246SOL    HW125637   1.229   3.832   6.725
 8246SOL    HW225638   1.295   3.938   6.831
 8247SOL     OW25639   2.663   5.079   3.280
 8247SOL    HW125640   2.698   5.157   3.228
 8247SOL    HW225641   2.740   5.024   3.313
 8248SOL     OW25642   0.448   5.521   2.896
 8248SOL    HW125643   0.542   5.545   2.922
 8248SOL    HW225644   0.415   5.447   2.955
 8249SOL     OW25645   2.192   1.987   5.636
 8249SOL    HW125646   2.280   2.030   5.616
 8249SOL    HW225647   2.146   1.964   5.551
 8250SOL     OW25648   2.176   1.620   7.025
 8250SOL    HW125649   2.195   1.700   6.969
 8250SOL    HW225650   2.125   1.648   0.079
 8251SOL     OW25651   0.183   2.985   5.206
 8251SOL    HW125652   0.212   3.058   5.144
 8251SOL    HW225653   0.258   2.919   5.215
 8252SOL     OW25654   2.283   2.527   6.587
 8252SOL    HW125655   2.262   2.526   6.685
 8252SOL    HW225656   2.202   2.501   6.535
 8253SOL     OW25657   3.785   5.898   6.676
 8253SOL    HW125658   3.885   5.893   6.683
 8253SOL    HW225659   3.760   5.927   6.583
 8254SOL     OW25660   5.882   5.071   0.549
 8254SOL    HW125661   5.957   5.137   0.539
 8254SOL    HW225662   5.904   5.007   0.623
 8255SOL     OW25663   0.371   0.331   5.929
 8255SOL    HW125664   0.433   0.255   5.906
 8255SOL    HW225665   0.333   0.316   6.020
 8256SOL     OW25666   1.364   6.292   2.585
 8256SOL    HW125667   1.272   6.276   2.620
 8256SOL    HW225668   1.401   6.207   2.549
 8257SOL     OW25669   5.443   4.274   4.138
 8257SOL    HW125670   5.529   4.323   4.124
 8257SOL    HW225671   5.390   4.277   4.053
 8258SOL     OW25672   5.654   2.863   1.539
 8258SOL    HW125673   5.673   2.916   1.456
 8258SOL    HW225674   5.555   2.854   1.551
 8259SOL     OW25675   4.289   2.339   4.521
 8259SOL    HW125676   4.360   2.403   4.490
 8259SOL    HW225677   4.257   2.366   4.612
 8260SOL     OW25678   2.575   0.008   0.573
 8260SOL    HW125679   2.486   6.994   0.595
 8260SOL    HW225680   2.564   0.107   0.563
 8261SOL     OW25681   5.854   6.260   2.835
 8261SOL    HW125682   5.873   6.169   2.872
 8261SOL    HW225683   5.936   6.298   2.794
 8262SOL     OW25684   0.636   4.578   1.000
 8262SOL    HW125685   0.661   4.674   0.992
 8262SOL    HW225686   0.719   4.522   0.999
 8263SOL     OW25687   6.675   2.221   6.695
 8263SOL    HW125688   6.666   2.299   6.758
 8263SOL    HW225689   6.585   2.187   6.670
 8264SOL     OW25690   1.877   0.131   2.266
 8264SOL    HW125691   1.955   0.128   2.329
 8264SOL    HW225692   1.868   0.042   2.220
 8265SOL     OW25693   4.746   0.279   1.174
 8265SOL    HW125694   4.740   0.275   1.274
 8265SOL    HW225695   4.674   0.223   1.134
 8266SOL     OW25696   2.568   0.013   3.580
 8266SOL    HW125697   2.624   0.082   3.627
 8266SOL    HW225698   2.561   6.960   3.638
 8267SOL     OW25699   1.070   4.530   2.831
 8267SOL    HW125700   1.118   4.618   2.833
 8267SOL    HW225701   1.051   4.505   2.736
 8268SOL     OW25702   3.320   3.551   6.595
 8268SOL    HW125703   3.411   3.590   6.579
 8268SOL    HW225704   3.287   3.580   6.685
 8269SOL     OW25705   4.277   2.319   3.121
 8269SOL    HW125706   4.262   2.411   3.086
 8269SOL    HW225707   4.329   2.266   3.054
 8270SOL     OW25708   4.170   6.978   5.601
 8270SOL    HW125709   4.089   6.924   5.624
 8270SOL    HW225710   4.146   0.046   5.595
 8271SOL     OW25711   5.238   6.152   4.327
 8271SOL    HW125712   5.224   6.231   4.387
 8271SOL    HW225713   5.185   6.074   4.362
 8272SOL     OW25714   0.611   0.423   2.275
 8272SOL    HW125715   0.686   0.487   2.259
 8272SOL    HW225716   0.524   0.467   2.254
 8273SOL     OW25717   2.254   6.573   6.982
 8273SOL    HW125718   2.225   6.594   6.889
 8273SOL    HW225719   2.313   6.647   7.016
 8274SOL     OW25720   5.035   5.374   0.037
 8274SOL    HW125721   5.115   5.406   0.088
 8274SOL    HW225722   4.975   5.323   0.098
 8275SOL     OW25723   6.864   0.426   4.040
 8275SOL    HW125724   6.956   0.453   4.071
 8275SOL    HW225725   6.815   0.507   4.009
 8276SOL     OW25726   0.059   2.819   5.960
 8276SOL    HW125727   0.069   2.864   6.049
 8276SOL    HW225728   6.997   2.776   5.954
 8277SOL     OW25729   1.362   6.334   5.857
 8277SOL    HW125730   1.287   6.339   5.792
 8277SOL    HW225731   1.433   6.273   5.821
 8278SOL     OW25732   3.777   2.283   6.669
 8278SOL    HW125733   3.719   2.293   6.588
 8278SOL    HW225734   3.808   2.373   6.699
 8279SOL     OW25735   4.498   6.101   6.413
 8279SOL    HW125736   4.579   6.155   6.390
 8279SOL    HW225737   4.515   6.005   6.390
 8280SOL     OW25738   5.204   2.519   0.974
 8280SOL    HW125739   5.175   2.570   1.055
 8280SOL    HW225740   5.210   2.581   0.896
 8281SOL     OW25741   1.320   5.120   0.587
 8281SOL    HW125742   1.291   5.117   0.682
 8281SOL    HW225743   1.325   5.028   0.550
 8282SOL     OW25744   2.853   2.651   1.149
 8282SOL    HW125745   2.757   2.666   1.172
 8282SOL    HW225746   2.885   2.567   1.194
 8283SOL     OW25747   0.379   4.710   3.992
 8283SOL    HW125748   0.379   4.706   4.092
 8283SOL    HW225749   0.297   4.665   3.957
 8284SOL     OW25750   2.462   2.421   2.268
 8284SOL    HW125751   2.526   2.413   2.192
 8284SOL    HW225752   2.401   2.342   2.269
 8285SOL     OW25753   3.176   4.126   5.850
 8285SOL    HW125754   3.214   4.050   5.904
 8285SOL    HW225755   3.247   4.195   5.835
 8286SOL     OW25756   5.273   1.225   4.844
 8286SOL    HW125757   5.357   1.221   4.899
 8286SOL    HW225758   5.269   1.147   4.782
 8287SOL     OW25759   1.297   0.282   3.568
 8287SOL    HW125760   1.231   0.345   3.609
 8287SOL    HW225761   1.388   0.324   3.566
 8288SOL     OW25762   1.891   1.850   2.531
 8288SOL    HW125763   1.855   1.768   2.574
 8288SOL    HW225764   1.915   1.917   2.601
 8289SOL     OW25765   6.216   1.969   5.271
 8289SOL    HW125766   6.239   2.062   5.299
 8289SOL    HW225767   6.299   1.921   5.242
 8290SOL     OW25768   3.651   2.652   1.735
 8290SOL    HW125769   3.654   2.563   1.780
 8290SOL    HW225770   3.670   2.640   1.637
 8291SOL     OW25771   5.836   6.801   6.341
 8291SOL    HW125772   5.896   6.755   6.276
 8291SOL    HW225773   5.892   6.857   6.403
 8292SOL     OW25774   1.052   4.922   5.634
 8292SOL    HW125775   1.037   4.853   5.705
 8292SOL    HW225776   0.998   4.899   5.553
 8293SOL     OW25777   2.903   5.268   2.297
 8293SOL    HW125778   2.872   5.200   2.231
 8293SOL    HW225779   2.929   5.222   2.382
 8294SOL     OW25780   6.987   3.748   6.232
 8294SOL    HW125781   7.001   3.818   6.161
 8294SOL    HW225782   0.045   3.734   6.282
 8295SOL     OW25783   5.167   3.862   2.974
 8295SOL    HW125784   5.109   3.844   3.054
 8295SOL    HW225785   5.111   3.863   2.892
 8296SOL     OW25786   3.155   5.652   0.663
 8296SOL    HW125787   3.127   5.656   0.566
 8296SOL    HW225788   3.186   5.559   0.684
 8297SOL     OW25789   6.710   4.244   2.610
 8297SOL    HW125790   6.736   4.333   2.573
 8297SOL    HW225791   6.656   4.257   2.693
 8298SOL     OW25792   0.832   0.710   0.161
 8298SOL    HW125793   0.898   0.782   0.181
 8298SOL    HW225794   0.862   0.659   0.081
 8299SOL     OW25795   0.334   3.628   1.785
 8299SOL    HW125796   0.313   3.695   1.857
 8299SOL    HW225797   0.403   3.667   1.723
 8300SOL     OW25798   6.479   5.065   3.816
 8300SOL    HW125799   6.524   5.106   3.895
 8300SOL    HW225800   6.416   4.994   3.847
 8301SOL     OW25801   3.503   6.692   0.403
 8301SOL    HW125802   3.435   6.754   0.442
 8301SOL    HW225803   3.462   6.640   0.328
 8302SOL     OW25804   3.676   6.444   4.249
 8302SOL    HW125805   3.615   6.432   4.171
 8302SOL    HW225806   3.758   6.492   4.220
 8303SOL     OW25807   6.276   0.117   2.156
 8303SOL    HW125808   6.286   0.052   2.231
 8303SOL    HW225809   6.194   0.093   2.103
 8304SOL     OW25810   6.041   3.447   3.643
 8304SOL    HW125811   5.980   3.466   3.721
 8304SOL    HW225812   6.134   3.435   3.677
 8305SOL     OW25813   4.756   5.459   3.977
 8305SOL    HW125814   4.847   5.464   3.937
 8305SOL    HW225815   4.743   5.535   4.040
 8306SOL     OW25816   6.206   1.083   2.238
 8306SOL    HW125817   6.152   1.141   2.177
 8306SOL    HW225818   6.193   1.113   2.333
 8307SOL     OW25819   1.724   4.966   2.126
 8307SOL    HW125820   1.680   5.056   2.120
 8307SOL    HW225821   1.742   4.931   2.035
 8308SOL     OW25822   0.927   4.788   0.083
 8308SOL    HW125823   0.927   4.766   0.181
 8308SOL    HW225824   0.998   4.733   0.038
 8309SOL     OW25825   6.663   4.470   5.039
 8309SOL    HW125826   6.713   4.415   4.972
 8309SOL    HW225827   6.718   4.477   5.123
 8310SOL     OW25828   0.706   6.962   0.721
 8310SOL    HW125829   0.712   6.903   0.801
 8310SOL    HW225830   0.739   0.025   0.744
 8311SOL     OW25831   5.783   6.360   3.994
 8311SOL    HW125832   5.831   6.302   3.928
 8311SOL    HW225833   5.722   6.303   4.049
 8312SOL     OW25834   4.855   0.213   0.035
 8312SOL    HW125835   4.777   0.244   7.009
 8312SOL    HW225836   4.903   0.292   0.072
 8313SOL     OW25837   4.565   0.441   5.106
 8313SOL    HW125838   4.466   0.438   5.104
 8313SOL    HW225839   4.602   0.377   5.039
 8314SOL     OW25840   5.471   6.334   5.789
 8314SOL    HW125841   5.481   6.314   5.887
 8314SOL    HW225842   5.374   6.334   5.766
 8315SOL     OW25843   3.505   2.884   4.810
 8315SOL    HW125844   3.419   2.911   4.853
 8315SOL    HW225845   3.582   2.906   4.871
 8316SOL     OW25846   0.708   2.698   0.501
 8316SOL    HW125847   0.782   2.631   0.505
 8316SOL    HW225848   0.677   2.709   0.407
 8317SOL     OW25849   1.937   1.740   4.529
 8317SOL    HW125850   1.932   1.839   4.516
 8317SOL    HW225851   2.029   1.708   4.506
 8318SOL     OW25852   3.913   0.272   6.461
 8318SOL    HW125853   3.814   0.283   6.475
 8318SOL    HW225854   3.929   0.198   6.396
 8319SOL     OW25855   1.376   0.089   6.178
 8319SOL    HW125856   1.464   0.112   6.220
 8319SOL    HW225857   1.353   7.022   6.198
 8320SOL     OW25858   3.539   3.838   4.464
 8320SOL    HW125859   3.579   3.838   4.555
 8320SOL    HW225860   3.503   3.930   4.443
 8321SOL     OW25861   0.351   0.229   0.204
 8321SOL    HW125862   0.429   0.273   0.249
 8321SOL    HW225863   0.268   0.282   0.223
 8322SOL     OW25864   6.624   1.204   0.377
 8322SOL    HW125865   6.599   1.234   0.285
 8322SOL    HW225866   6.554   1.141   0.411
 8323SOL     OW25867   4.808   4.654   1.030
 8323SOL    HW125868   4.813   4.716   0.952
 8323SOL    HW225869   4.714   4.624   1.042
 8324SOL     OW25870   6.229   0.143   6.698
 8324SOL    HW125871   6.278   0.230   6.688
 8324SOL    HW225872   6.162   0.134   6.624
 8325SOL     OW25873   1.763   5.742   4.744
 8325SOL    HW125874   1.672   5.717   4.710
 8325SOL    HW225875   1.786   5.686   4.824
 8326SOL     OW25876   2.517   3.805   0.481
 8326SOL    HW125877   2.576   3.856   0.544
 8326SOL    HW225878   2.524   3.707   0.502
 8327SOL     OW25879   0.514   0.663   5.199
 8327SOL    HW125880   0.522   0.752   5.244
 8327SOL    HW225881   0.559   0.666   5.110
 8328SOL     OW25882   0.786   6.712   5.809
 8328SOL    HW125883   0.840   6.675   5.885
 8328SOL    HW225884   0.713   6.770   5.846
 8329SOL     OW25885   0.576   2.810   4.981
 8329SOL    HW125886   0.586   2.724   4.932
 8329SOL    HW225887   0.614   2.801   5.073
 8330SOL     OW25888   3.771   0.768   6.672
 8330SOL    HW125889   3.835   0.846   6.675
 8330SOL    HW225890   3.701   0.780   6.742
 8331SOL     OW25891   1.945   2.029   0.259
 8331SOL    HW125892   1.996   1.959   0.210
 8331SOL    HW225893   1.890   1.987   0.331
 8332SOL     OW25894   5.544   4.708   1.820
 8332SOL    HW125895   5.502   4.625   1.783
 8332SOL    HW225896   5.481   4.749   1.887
 8333SOL     OW25897   2.082   5.022   0.814
 8333SOL    HW125898   2.152   5.081   0.775
 8333SOL    HW225899   2.069   5.043   0.911
 8334SOL     OW25900   2.682   2.355   6.562
 8334SOL    HW125901   2.761   2.391   6.612
 8334SOL    HW225902   2.635   2.430   6.516
 8335SOL     OW25903   5.099   3.140   6.419
 8335SOL    HW125904   5.008   3.113   6.388
 8335SOL    HW225905   5.168   3.093   6.365
 8336SOL     OW25906   1.303   3.644   2.745
 8336SOL    HW125907   1.233   3.669   2.678
 8336SOL    HW225908   1.287   3.692   2.831
 8337SOL     OW25909   0.896   1.461   4.737
 8337SOL    HW125910   0.823   1.393   4.737
 8337SOL    HW225911   0.860   1.550   4.766
 8338SOL     OW25912   3.705   4.864   2.204
 8338SOL    HW125913   3.642   4.910   2.266
 8338SOL    HW225914   3.656   4.837   2.121
 8339SOL     OW25915   0.216   0.687   0.677
 8339SOL    HW125916   0.121   0.711   0.694
 8339SOL    HW225917   0.221   0.621   0.602
 8340SOL     OW25918   5.079   2.093   0.701
 8340SOL    HW125919   5.111   2.081   0.607
 8340SOL    HW225920   4.982   2.066   0.707
 8341SOL     OW25921   3.373   0.215   0.097
 8341SOL    HW125922   3.417   0.137   0.140
 8341SOL    HW225923   3.441   0.267   0.044
 8342SOL     OW25924   3.781   6.453   6.777
 8342SOL    HW125925   3.735   6.516   6.839
 8342SOL    HW225926   3.731   6.366   6.775
 8343SOL     OW25927   6.834   4.235   3.780
 8343SOL    HW125928   6.821   4.164   3.711
 8343SOL    HW225929   6.755   4.296   3.780
 8344SOL     OW25930   0.796   5.307   4.542
 8344SOL    HW125931   0.734   5.328   4.466
 8344SOL    HW225932   0.825   5.393   4.585
 8345SOL     OW25933   5.137   0.913   2.716
 8345SOL    HW125934   5.189   0.954   2.791
 8345SOL    HW225935   5.197   0.904   2.636
 8346SOL     OW25936   4.573   3.313   5.829
 8346SOL    HW125937   4.486   3.312   5.878
 8346SOL    HW225938   4.567   3.379   5.753
 8347SOL     OW25939   2.394   6.954   5.969
 8347SOL    HW125940   2.431   6.880   6.026
 8347SOL    HW225941   2.454   6.968   5.890
 8348SOL     OW25942   4.031   6.438   1.266
 8348SOL    HW125943   4.018   6.373   1.341
 8348SOL    HW225944   4.120   6.424   1.224
 8349SOL     OW25945   0.654   6.188   2.166
 8349SOL    HW125946   0.676   6.192   2.263
 8349SOL    HW225947   0.575   6.128   2.152
 8350SOL     OW25948   2.772   0.110   6.002
 8350SOL    HW125949   2.735   0.034   6.055
 8350SOL    HW225950   2.700   0.146   5.942
 8351SOL     OW25951   6.486   4.729   4.705
 8351SOL    HW125952   6.478   4.721   4.605
 8351SOL    HW225953   6.396   4.743   4.745
 8352SOL     OW25954   2.824   6.087   1.801
 8352SOL    HW125955   2.844   6.178   1.763
 8352SOL    HW225956   2.849   6.017   1.735
 8353SOL     OW25957   0.969   4.001   2.012
 8353SOL    HW125958   1.021   4.083   2.034
 8353SOL    HW225959   0.991   3.929   2.078
 8354SOL     OW25960   3.456   6.640   3.980
 8354SOL    HW125961   3.474   6.713   4.047
 8354SOL    HW225962   3.378   6.666   3.924
 8355SOL     OW25963   1.053   6.723   6.168
 8355SOL    HW125964   1.052   6.819   6.140
 8355SOL    HW225965   1.143   6.683   6.146
 8356SOL     OW25966   1.752   5.723   1.724
 8356SOL    HW125967   1.793   5.770   1.646
 8356SOL    HW225968   1.825   5.697   1.788
 8357SOL     OW25969   4.065   5.399   5.932
 8357SOL    HW125970   3.985   5.395   5.872
 8357SOL    HW225971   4.148   5.381   5.878
 8358SOL     OW25972   1.325   2.458   5.236
 8358SOL    HW125973   1.359   2.551   5.226
 8358SOL    HW225974   1.332   2.430   5.332
 8359SOL     OW25975   3.013   0.719   4.998
 8359SOL    HW125976   2.949   0.652   5.035
 8359SOL    HW225977   3.046   0.779   5.072
 8360SOL     OW25978   4.930   6.467   0.831
 8360SOL    HW125979   4.903   6.506   0.919
 8360SOL    HW225980   4.924   6.538   0.761
 8361SOL     OW25981   2.240   6.878   6.610
 8361SOL    HW125982   2.273   6.947   6.674
 8361SOL    HW225983   2.165   6.917   6.555
 8362SOL     OW25984   6.499   3.106   0.689
 8362SOL    HW125985   6.404   3.102   0.658
 8362SOL    HW225986   6.504   3.081   0.785
 8363SOL     OW25987   4.274   2.243   0.850
 8363SOL    HW125988   4.349   2.236   0.917
 8363SOL    HW225989   4.307   2.291   0.769
 8364SOL     OW25990   0.563   2.670   3.327
 8364SOL    HW125991   0.573   2.768   3.310
 8364SOL    HW225992   0.612   2.647   3.411
 8365SOL     OW25993   2.041   2.739   1.923
 8365SOL    HW125994   2.118   2.776   1.976
 8365SOL    HW225995   2.069   2.654   1.878
 8366SOL     OW25996   4.292   5.697   0.960
 8366SOL    HW125997   4.363   5.628   0.942
 8366SOL    HW225998   4.229   5.701   0.883
 8367SOL     OW25999   3.880   5.385   4.951
 8367SOL    HW126000   3.801   5.346   4.999
 8367SOL    HW226001   3.921   5.314   4.893
 8368SOL     OW26002   1.229   6.255   0.263
 8368SOL    HW126003   1.211   6.323   0.193
 8368SOL    HW226004   1.184   6.169   0.239
 8369SOL     OW26005   1.174   1.731   0.750
 8369SOL    HW126006   1.210   1.719   0.658
 8369SOL    HW226007   1.088   1.681   0.759
 8370SOL     OW26008   3.113   1.787   6.916
 8370SOL    HW126009   3.138   1.818   7.008
 8370SOL    HW226010   3.141   1.856   6.849
 8371SOL     OW26011   1.399   2.961   5.133
 8371SOL    HW126012   1.301   2.945   5.119
 8371SOL    HW226013   1.451   2.893   5.081
 8372SOL     OW26014   2.468   6.718   2.397
 8372SOL    HW126015   2.548   6.774   2.422
 8372SOL    HW226016   2.399   6.726   2.469
 8373SOL     OW26017   0.942   1.617   4.403
 8373SOL    HW126018   1.021   1.659   4.447
 8373SOL    HW226019   0.956   1.518   4.398
 8374SOL     OW26020   1.099   1.133   4.207
 8374SOL    HW126021   1.130   1.165   4.297
 8374SOL    HW226022   1.003   1.157   4.195
 8375SOL     OW26023   4.330   0.878   5.562
 8375SOL    HW126024   4.233   0.878   5.537
 8375SOL    HW226025   4.368   0.969   5.550
 8376SOL     OW26026   1.556   0.902   3.386
 8376SOL    HW126027   1.645   0.947   3.388
 8376SOL    HW226028   1.494   0.955   3.328
 8377SOL     OW26029   5.657   5.183   6.808
 8377SOL    HW126030   5.662   5.130   6.723
 8377SOL    HW226031   5.605   5.131   6.876
 8378SOL     OW26032   5.426   5.554   3.481
 8378SOL    HW126033   5.420   5.519   3.388
 8378SOL    HW226034   5.346   5.526   3.533
 8379SOL     OW26035   5.265   1.870   2.030
 8379SOL    HW126036   5.352   1.878   1.982
 8379SOL    HW226037   5.223   1.782   2.006
 8380SOL     OW26038   0.303   5.874   6.402
 8380SOL    HW126039   0.322   5.930   6.322
 8380SOL    HW226040   0.379   5.881   6.467
 8381SOL     OW26041   6.899   2.248   2.891
 8381SOL    HW126042   6.989   2.241   2.848
 8381SOL    HW226043   6.905   2.309   2.970
 8382SOL     OW26044   2.475   0.321   6.822
 8382SOL    HW126045   2.489   0.388   6.749
 8382SOL    HW226046   2.555   0.319   6.882
 8383SOL     OW26047   2.705   0.381   4.358
 8383SOL    HW126048   2.661   0.293   4.340
 8383SOL    HW226049   2.804   0.372   4.346
 8384SOL     OW26050   6.779   2.050   1.328
 8384SOL    HW126051   6.690   2.060   1.284
 8384SOL    HW226052   6.784   1.961   1.374
 8385SOL     OW26053   4.672   3.150   0.715
 8385SOL    HW126054   4.621   3.117   0.795
 8385SOL    HW226055   4.761   3.106   0.712
 8386SOL     OW26056   2.062   6.674   1.527
 8386SOL    HW126057   2.110   6.755   1.559
 8386SOL    HW226058   1.981   6.659   1.584
 8387SOL     OW26059   2.369   1.458   1.173
 8387SOL    HW126060   2.290   1.398   1.162
 8387SOL    HW226061   2.402   1.452   1.267
 8388SOL     OW26062   1.865   6.670   0.351
 8388SOL    HW126063   1.875   6.740   0.422
 8388SOL    HW226064   1.946   6.668   0.293
 8389SOL     OW26065   1.561   3.352   4.361
 8389SOL    HW126066   1.464   3.374   4.356
 8389SOL    HW226067   1.593   3.323   4.271
 8390SOL     OW26068   2.497   0.725   5.973
 8390SOL    HW126069   2.530   0.807   5.927
 8390SOL    HW226070   2.397   0.729   5.981
 8391SOL     OW26071   5.134   5.655   2.017
 8391SOL    HW126072   5.054   5.639   2.074
 8391SOL    HW226073   5.214   5.670   2.075
 8392SOL     OW26074   6.279   5.865   4.461
 8392SOL    HW126075   6.376   5.857   4.437
 8392SOL    HW226076   6.263   5.823   4.550
 8393SOL     OW26077   6.637   6.786   3.856
 8393SOL    HW126078   6.710   6.723   3.883
 8393SOL    HW226079   6.664   6.880   3.877
 8394SOL     OW26080   0.819   1.463   2.929
 8394SOL    HW126081   0.855   1.466   3.022
 8394SOL    HW226082   0.757   1.384   2.920
 8395SOL     OW26083   0.589   6.233   4.405
 8395SOL    HW126084   0.609   6.169   4.479
 8395SOL    HW226085   0.562   6.181   4.323
 8396SOL     OW26086   4.336   4.682   2.555
 8396SOL    HW126087   4.310   4.766   2.506
 8396SOL    HW226088   4.278   4.671   2.635
 8397SOL     OW26089   1.965   6.813   2.879
 8397SOL    HW126090   2.054   6.814   2.925
 8397SOL    HW226091   1.898   6.862   2.936
 8398SOL     OW26092   4.028   1.924   0.169
 8398SOL    HW126093   4.088   1.957   0.097
 8398SOL    HW226094   4.082   1.892   0.246
 8399SOL     OW26095   5.732   5.844   1.138
 8399SOL    HW126096   5.648   5.854   1.086
 8399SOL    HW226097   5.798   5.914   1.109
 8400SOL     OW26098   0.003   0.257   2.576
 8400SOL    HW126099   0.056   0.179   2.542
 8400SOL    HW226100   6.942   0.258   2.529
 8401SOL     OW26101   4.500   2.943   6.004
 8401SOL    HW126102   4.400   2.953   6.001
 8401SOL    HW226103   4.533   2.919   5.912
 8402SOL     OW26104   3.566   1.933   6.118
 8402SOL    HW126105   3.481   1.974   6.085
 8402SOL    HW226106   3.639   1.950   6.052
 8403SOL     OW26107   0.508   1.379   3.525
 8403SOL    HW126108   0.415   1.402   3.497
 8403SOL    HW226109   0.542   1.447   3.590
 8404SOL     OW26110   5.419   6.498   6.430
 8404SOL    HW126111   5.353   6.507   6.505
 8404SOL    HW226112   5.505   6.544   6.456
 8405SOL     OW26113   1.698   2.352   6.643
 8405SOL    HW126114   1.604   2.329   6.620
 8405SOL    HW226115   1.713   2.338   6.741
 8406SOL     OW26116   4.479   1.717   0.583
 8406SOL    HW126117   4.531   1.676   0.509
 8406SOL    HW226118   4.458   1.812   0.561
 8407SOL     OW26119   5.724   4.765   4.862
 8407SOL    HW126120   5.761   4.673   4.848
 8407SOL    HW226121   5.799   4.829   4.876
 8408SOL     OW26122   5.334   0.300   4.171
 8408SOL    HW126123   5.418   0.274   4.123
 8408SOL    HW226124   5.260   0.238   4.145
 8409SOL     OW26125   0.721   1.888   3.837
 8409SOL    HW126126   0.713   1.958   3.767
 8409SOL    HW226127   0.668   1.915   3.918
 8410SOL     OW26128   5.261   0.542   2.059
 8410SOL    HW126129   5.329   0.615   2.048
 8410SOL    HW226130   5.207   0.558   2.142
 8411SOL     OW26131   1.215   5.038   3.952
 8411SOL    HW126132   1.233   5.126   3.909
 8411SOL    HW226133   1.120   5.035   3.984
 8412SOL     OW26134   4.646   2.349   0.908
 8412SOL    HW126135   4.618   2.439   0.875
 8412SOL    HW226136   4.744   2.350   0.929
 8413SOL     OW26137   3.969   4.989   0.661
 8413SOL    HW126138   3.895   4.923   0.662
 8413SOL    HW226139   3.961   5.050   0.739
 8414SOL     OW26140   3.827   6.963   2.404
 8414SOL    HW126141   3.761   7.016   2.351
 8414SOL    HW226142   3.830   6.997   2.498
 8415SOL     OW26143   6.890   4.830   3.631
 8415SOL    HW126144   6.823   4.904   3.643
 8415SOL    HW226145   6.957   4.834   3.705
 8416SOL     OW26146   5.058   4.086   2.726
 8416SOL    HW126147   5.037   4.015   2.658
 8416SOL    HW226148   5.047   4.176   2.685
 8417SOL     OW26149   3.180   6.384   5.162
 8417SOL    HW126150   3.092   6.376   5.115
 8417SOL    HW226151   3.247   6.325   5.117
 8418SOL     OW26152   5.495   5.449   2.095
 8418SOL    HW126153   5.593   5.465   2.086
 8418SOL    HW226154   5.468   5.455   2.191
 8419SOL     OW26155   5.079   0.782   1.848
 8419SOL    HW126156   5.085   0.686   1.874
 8419SOL    HW226157   5.142   0.836   1.905
 8420SOL     OW26158   3.998   0.011   0.495
 8420SOL    HW126159   4.028   6.965   0.555
 8420SOL    HW226160   4.045   0.096   0.520
 8421SOL     OW26161   2.433   6.864   1.519
 8421SOL    HW126162   2.342   6.847   1.557
 8421SOL    HW226163   2.427   6.868   1.419
 8422SOL     OW26164   5.531   5.838   0.954
 8422SOL    HW126165   5.441   5.816   0.990
 8422SOL    HW226166   5.522   5.896   0.873
 8423SOL     OW26167   4.194   5.181   6.983
 8423SOL    HW126168   4.194   5.146   6.889
 8423SOL    HW226169   4.152   5.113   0.015
 8424SOL     OW26170   3.335   2.073   2.371
 8424SOL    HW126171   3.337   1.982   2.411
 8424SOL    HW226172   3.240   2.102   2.359
 8425SOL     OW26173   6.937   5.226   1.227
 8425SOL    HW126174   6.912   5.295   1.295
 8425SOL    HW226175   6.982   5.270   1.149
 8426SOL     OW26176   3.876   3.009   3.545
 8426SOL    HW126177   3.893   2.944   3.472
 8426SOL    HW226178   3.853   3.098   3.506
 8427SOL     OW26179   1.650   4.281   5.606
 8427SOL    HW126180   1.701   4.224   5.669
 8427SOL    HW226181   1.616   4.362   5.654
 8428SOL     OW26182   6.745   4.347   1.869
 8428SOL    HW126183   6.798   4.297   1.937
 8428SOL    HW226184   6.650   4.355   1.899
 8429SOL     OW26185   2.925   4.855   4.616
 8429SOL    HW126186   2.943   4.851   4.517
 8429SOL    HW226187   2.867   4.778   4.642
 8430SOL     OW26188   4.489   5.307   2.597
 8430SOL    HW126189   4.585   5.288   2.577
 8430SOL    HW226190   4.483   5.386   2.659
 8431SOL     OW26191   2.656   5.162   1.525
 8431SOL    HW126192   2.605   5.135   1.443
 8431SOL    HW226193   2.645   5.092   1.596
 8432SOL     OW26194   4.297   5.346   5.826
 8432SOL    HW126195   4.353   5.427   5.812
 8432SOL    HW226196   4.351   5.276   5.874
 8433SOL     OW26197   0.707   2.847   0.011
 8433SOL    HW126198   0.661   2.833   6.951
 8433SOL    HW226199   0.767   2.769   0.030
 8434SOL     OW26200   4.148   6.822   5.020
 8434SOL    HW126201   4.165   6.882   4.942
 8434SOL    HW226202   4.128   6.878   5.101
 8435SOL     OW26203   4.865   1.495   1.584
 8435SOL    HW126204   4.804   1.505   1.663
 8435SOL    HW226205   4.916   1.580   1.570
 8436SOL     OW26206   3.788   5.897   3.454
 8436SOL    HW126207   3.806   5.995   3.459
 8436SOL    HW226208   3.829   5.852   3.533
 8437SOL     OW26209   0.523   0.435   1.733
 8437SOL    HW126210   0.494   0.340   1.722
 8437SOL    HW226211   0.623   0.438   1.743
 8438SOL     OW26212   2.962   4.838   2.749
 8438SOL    HW126213   2.924   4.822   2.658
 8438SOL    HW226214   2.901   4.800   2.818
 8439SOL     OW26215   6.705   5.869   1.860
 8439SOL    HW126216   6.744   5.778   1.851
 8439SOL    HW226217   6.729   5.924   1.780
 8440SOL     OW26218   6.636   1.144   2.430
 8440SOL    HW126219   6.672   1.162   2.521
 8440SOL    HW226220   6.695   1.079   2.383
 8441SOL     OW26221   5.775   6.156   0.396
 8441SOL    HW126222   5.867   6.139   0.432
 8441SOL    HW226223   5.708   6.143   0.469
 8442SOL     OW26224   3.548   3.394   6.825
 8442SOL    HW126225   3.503   3.427   6.908
 8442SOL    HW226226   3.481   3.346   6.768
 8443SOL     OW26227   0.886   0.462   3.013
 8443SOL    HW126228   0.962   0.404   3.044
 8443SOL    HW226229   0.843   0.420   2.934
 8444SOL     OW26230   3.289   6.248   3.538
 8444SOL    HW126231   3.194   6.277   3.546
 8444SOL    HW226232   3.295   6.166   3.482
 8445SOL     OW26233   3.140   4.902   2.516
 8445SOL    HW126234   3.237   4.923   2.503
 8445SOL    HW226235   3.124   4.877   2.611
 8446SOL     OW26236   5.261   5.926   2.670
 8446SOL    HW126237   5.165   5.945   2.650
 8446SOL    HW226238   5.281   5.951   2.764
 8447SOL     OW26239   5.725   2.259   2.549
 8447SOL    HW126240   5.718   2.300   2.458
 8447SOL    HW226241   5.673   2.313   2.614
 8448SOL     OW26242   0.217   4.063   6.122
 8448SOL    HW126243   0.253   4.074   6.029
 8448SOL    HW226244   0.276   4.001   6.174
 8449SOL     OW26245   0.539   3.222   4.741
 8449SOL    HW126246   0.522   3.224   4.840
 8449SOL    HW226247   0.512   3.133   4.704
 8450SOL     OW26248   1.779   6.168   2.765
 8450SOL    HW126249   1.863   6.156   2.713
 8450SOL    HW226250   1.756   6.082   2.811
 8451SOL     OW26251   3.532   2.275   1.031
 8451SOL    HW126252   3.585   2.264   0.948
 8451SOL    HW226253   3.594   2.285   1.109
 8452SOL     OW26254   6.633   0.071   1.296
 8452SOL    HW126255   6.548   0.068   1.348
 8452SOL    HW226256   6.627   0.144   1.227
 8453SOL     OW26257   0.260   4.787   6.379
 8453SOL    HW126258   0.236   4.824   6.469
 8453SOL    HW226259   0.298   4.860   6.322
 8454SOL     OW26260   1.821   6.215   1.997
 8454SOL    HW126261   1.898   6.153   2.010
 8454SOL    HW226262   1.842   6.304   2.035
 8455SOL     OW26263   4.956   1.362   1.339
 8455SOL    HW126264   4.974   1.434   1.272
 8455SOL    HW226265   4.922   1.404   1.424
 8456SOL     OW26266   6.051   5.648   3.749
 8456SOL    HW126267   6.114   5.574   3.729
 8456SOL    HW226268   6.024   5.693   3.663
 8457SOL     OW26269   6.715   6.966   5.903
 8457SOL    HW126270   6.784   6.905   5.865
 8457SOL    HW226271   6.644   6.913   5.949
 8458SOL     OW26272   1.827   1.099   6.436
 8458SOL    HW126273   1.836   1.198   6.441
 8458SOL    HW226274   1.764   1.067   6.507
 8459SOL     OW26275   3.932   6.775   1.642
 8459SOL    HW126276   3.895   6.822   1.722
 8459SOL    HW226277   4.016   6.727   1.668
 8460SOL     OW26278   3.922   3.024   6.821
 8460SOL    HW126279   4.008   2.992   6.859
 8460SOL    HW226280   3.930   3.121   6.796
 8461SOL     OW26281   0.500   3.289   1.697
 8461SOL    HW126282   0.450   3.227   1.636
 8461SOL    HW226283   0.515   3.245   1.785
 8462SOL     OW26284   3.975   3.323   0.239
 8462SOL    HW126285   3.960   3.306   0.336
 8462SOL    HW226286   3.964   3.237   0.189
 8463SOL     OW26287   0.497   2.115   0.139
 8463SOL    HW126288   0.490   2.016   0.135
 8463SOL    HW226289   0.454   2.149   0.223
 8464SOL     OW26290   0.044   4.040   5.538
 8464SOL    HW126291   0.141   4.014   5.533
 8464SOL    HW226292   7.021   3.968   5.584
 8465SOL     OW26293   2.669   2.090   0.986
 8465SOL    HW126294   2.629   2.175   0.950
 8465SOL    HW226295   2.684   2.026   0.911
 8466SOL     OW26296   6.321   0.692   5.595
 8466SOL    HW126297   6.288   0.769   5.649
 8466SOL    HW226298   6.332   0.720   5.500
 8467SOL     OW26299   3.781   0.658   0.759
 8467SOL    HW126300   3.754   0.627   0.668
 8467SOL    HW226301   3.804   0.755   0.755
 8468SOL     OW26302   5.947   3.885   6.298
 8468SOL    HW126303   5.866   3.829   6.317
 8468SOL    HW226304   5.930   3.979   6.324
 8469SOL     OW26305   3.081   2.768   5.810
 8469SOL    HW126306   3.030   2.716   5.742
 8469SOL    HW226307   3.169   2.797   5.771
 8470SOL     OW26308   1.176   4.976   0.783
 8470SOL    HW126309   1.112   5.053   0.790
 8470SOL    HW226310   1.129   4.897   0.742
 8471SOL     OW26311   4.096   0.008   5.178
 8471SOL    HW126312   4.060   7.018   5.270
 8471SOL    HW226313   4.060   0.095   5.145
 8472SOL     OW26314   5.964   1.971   5.508
 8472SOL    HW126315   5.930   1.949   5.417
 8472SOL    HW226316   5.887   1.974   5.572
 8473SOL     OW26317   4.467   4.590   0.408
 8473SOL    HW126318   4.414   4.520   0.455
 8473SOL    HW226319   4.420   4.614   0.323
 8474SOL     OW26320   3.143   3.993   2.519
 8474SOL    HW126321   3.186   4.043   2.594
 8474SOL    HW226322   3.084   3.921   2.557
 8475SOL     OW26323   0.380   3.001   1.737
 8475SOL    HW126324   0.393   2.907   1.706
 8475SOL    HW226325   0.437   3.017   1.818
 8476SOL     OW26326   0.018   0.917   1.536
 8476SOL    HW126327   6.957   0.887   1.502
 8476SOL    HW226328   0.076   0.946   1.460
 8477SOL     OW26329   5.428   5.941   2.080
 8477SOL    HW126330   5.506   5.881   2.063
 8477SOL    HW226331   5.454   6.011   2.146
 8478SOL     OW26332   1.125   1.196   5.963
 8478SOL    HW126333   1.061   1.199   6.040
 8478SOL    HW226334   1.087   1.136   5.892
 8479SOL     OW26335   1.471   2.334   1.521
 8479SOL    HW126336   1.437   2.327   1.427
 8479SOL    HW226337   1.511   2.247   1.548
 8480SOL     OW26338   4.995   2.716   6.653
 8480SOL    HW126339   4.995   2.636   6.593
 8480SOL    HW226340   5.017   2.798   6.600
 8481SOL     OW26341   4.130   2.219   4.818
 8481SOL    HW126342   4.125   2.135   4.872
 8481SOL    HW226343   4.143   2.297   4.879
 8482SOL     OW26344   4.471   0.317   0.959
 8482SOL    HW126345   4.438   0.377   1.032
 8482SOL    HW226346   4.453   0.361   0.871
 8483SOL     OW26347   2.714   5.472   3.448
 8483SOL    HW126348   2.645   5.451   3.517
 8483SOL    HW226349   2.705   5.567   3.418
 8484SOL     OW26350   6.856   5.876   4.644
 8484SOL    HW126351   6.831   5.886   4.740
 8484SOL    HW226352   6.956   5.876   4.636
 8485SOL     OW26353   4.068   2.455   0.305
 8485SOL    HW126354   4.061   2.357   0.325
 8485SOL    HW226355   4.155   2.473   0.259
 8486SOL     OW26356   1.616   1.333   2.496
 8486SOL    HW126357   1.524   1.298   2.513
 8486SOL    HW226358   1.634   1.333   2.398
 8487SOL     OW26359   5.679   1.445   6.334
 8487SOL    HW126360   5.728   1.507   6.272
 8487SOL    HW226361   5.583   1.440   6.307
 8488SOL     OW26362   5.190   5.239   3.386
 8488SOL    HW126363   5.195   5.143   3.359
 8488SOL    HW226364   5.187   5.297   3.304
 8489SOL     OW26365   6.599   0.436   1.490
 8489SOL    HW126366   6.569   0.448   1.395
 8489SOL    HW226367   6.538   0.372   1.536
 8490SOL     OW26368   3.654   6.610   5.370
 8490SOL    HW126369   3.740   6.561   5.377
 8490SOL    HW226370   3.649   6.655   5.281
 8491SOL     OW26371   2.117   5.609   2.857
 8491SOL    HW126372   2.199   5.664   2.840
 8491SOL    HW226373   2.097   5.553   2.776
 8492SOL     OW26374   6.055   4.989   3.898
 8492SOL    HW126375   6.088   5.055   3.831
 8492SOL    HW226376   5.957   4.977   3.888
 8493SOL     OW26377   2.629   1.323   0.103
 8493SOL    HW126378   2.573   1.257   0.152
 8493SOL    HW226379   2.685   1.374   0.169
 8494SOL     OW26380   4.859   5.348   1.878
 8494SOL    HW126381   4.951   5.369   1.845
 8494SOL    HW226382   4.821   5.271   1.826
 8495SOL     OW26383   0.253   5.696   0.699
 8495SOL    HW126384   0.270   5.631   0.773
 8495SOL    HW226385   0.293   5.785   0.722
 8496SOL     OW26386   5.040   1.210   1.951
 8496SOL    HW126387   4.994   1.263   2.022
 8496SOL    HW226388   5.066   1.270   1.876
 8497SOL     OW26389   0.660   7.027   4.118
 8497SOL    HW126390   0.615   0.083   4.085
 8497SOL    HW226391   0.678   6.967   4.040
 8498SOL     OW26392   5.784   6.637   3.431
 8498SOL    HW126393   5.827   6.680   3.510
 8498SOL    HW226394   5.685   6.652   3.433
 8499SOL     OW26395   0.706   5.109   0.586
 8499SOL    HW126396   0.637   5.125   0.515
 8499SOL    HW226397   0.787   5.165   0.567
 8500SOL     OW26398   1.896   6.682   6.260
 8500SOL    HW126399   1.840   6.635   6.328
 8500SOL    HW226400   1.923   6.617   6.189
 8501SOL     OW26401   0.704   2.298   0.297
 8501SOL    HW126402   0.775   2.257   0.240
 8501SOL    HW226403   0.671   2.230   0.363
 8502SOL     OW26404   0.546   2.772   0.742
 8502SOL    HW126405   0.606   2.719   0.684
 8502SOL    HW226406   0.473   2.812   0.687
 8503SOL     OW26407   6.381   5.855   4.866
 8503SOL    HW126408   6.478   5.831   4.867
 8503SOL    HW226409   6.338   5.827   4.953
 8504SOL     OW26410   1.802   5.583   2.181
 8504SOL    HW126411   1.798   5.487   2.152
 8504SOL    HW226412   1.888   5.624   2.152
 8505SOL     OW26413   5.401   3.892   2.670
 8505SOL    HW126414   5.447   3.907   2.759
 8505SOL    HW226415   5.308   3.859   2.686
 8506SOL     OW26416   1.454   0.809   6.967
 8506SOL    HW126417   1.554   0.797   6.973
 8506SOL    HW226418   1.432   0.906   6.966
 8507SOL     OW26419   4.679   0.204   4.661
 8507SOL    HW126420   4.738   0.257   4.599
 8507SOL    HW226421   4.589   0.247   4.667
 8508SOL     OW26422   3.766   1.778   5.991
 8508SOL    HW126423   3.715   1.853   5.948
 8508SOL    HW226424   3.708   1.698   5.998
 8509SOL     OW26425   5.843   6.636   4.121
 8509SOL    HW126426   5.840   6.546   4.078
 8509SOL    HW226427   5.801   6.703   4.060
 8510SOL     OW26428   5.217   2.948   3.757
 8510SOL    HW126429   5.264   3.033   3.734
 8510SOL    HW226430   5.203   2.894   3.674
 8511SOL     OW26431   6.076   3.109   2.193
 8511SOL    HW126432   6.158   3.067   2.152
 8511SOL    HW226433   6.054   3.061   2.278
 8512SOL     OW26434   2.377   6.992   2.781
 8512SOL    HW126435   2.366   0.054   2.738
 8512SOL    HW226436   2.288   6.959   2.813
 8513SOL     OW26437   7.025   6.086   0.721
 8513SOL    HW126438   0.016   5.988   0.715
 8513SOL    HW226439   7.026   6.126   0.630
 8514SOL     OW26440   3.507   7.023   3.253
 8514SOL    HW126441   3.578   7.023   3.182
 8514SOL    HW226442   3.550   7.011   3.342
 8515SOL     OW26443   4.915   2.407   0.909
 8515SOL    HW126444   4.961   2.393   0.997
 8515SOL    HW226445   4.984   2.418   0.838
 8516SOL     OW26446   6.468   1.490   2.805
 8516SOL    HW126447   6.426   1.400   2.821
 8516SOL    HW226448   6.477   1.539   2.892
 8517SOL     OW26449   0.947   2.843   6.548
 8517SOL    HW126450   0.928   2.899   6.628
 8517SOL    HW226451   0.928   2.747   6.568
 8518SOL     OW26452   4.485   5.144   0.463
 8518SOL    HW126453   4.490   5.068   0.528
 8518SOL    HW226454   4.431   5.218   0.504
 8519SOL     OW26455   2.004   5.981   2.110
 8519SOL    HW126456   1.986   6.044   2.185
 8519SOL    HW226457   2.015   5.888   2.146
 8520SOL     OW26458   3.617   1.253   0.539
 8520SOL    HW126459   3.536   1.225   0.591
 8520SOL    HW226460   3.631   1.189   0.463
 8521SOL     OW26461   1.118   6.239   5.997
 8521SOL    HW126462   1.195   6.287   5.954
 8521SOL    HW226463   1.114   6.145   5.963
 8522SOL     OW26464   1.433   6.090   2.391
 8522SOL    HW126465   1.485   6.125   2.313
 8522SOL    HW226466   1.349   6.047   2.359
 8523SOL     OW26467   2.112   0.196   5.689
 8523SOL    HW126468   2.103   0.253   5.607
 8523SOL    HW226469   2.143   0.252   5.765
 8524SOL     OW26470   1.152   3.449   4.770
 8524SOL    HW126471   1.114   3.509   4.840
 8524SOL    HW226472   1.250   3.467   4.759
 8525SOL     OW26473   6.112   3.611   2.899
 8525SOL    HW126474   6.102   3.515   2.872
 8525SOL    HW226475   6.133   3.616   2.997
 8526SOL     OW26476   2.603   3.265   1.699
 8526SOL    HW126477   2.622   3.166   1.706
 8526SOL    HW226478   2.634   3.298   1.610
 8527SOL     OW26479   3.837   0.892   4.051
 8527SOL    HW126480   3.804   0.960   4.117
 8527SOL    HW226481   3.759   0.853   4.002
 8528SOL     OW26482   5.150   4.167   6.357
 8528SOL    HW126483   5.101   4.146   6.442
 8528SOL    HW226484   5.247   4.145   6.368
 8529SOL     OW26485   1.347   5.670   0.021
 8529SOL    HW126486   1.414   5.618   0.074
 8529SOL    HW226487   1.391   5.750   7.009
 8530SOL     OW26488   1.673   5.174   4.939
 8530SOL    HW126489   1.645   5.078   4.940
 8530SOL    HW226490   1.687   5.205   5.033
 8531SOL     OW26491   5.712   3.760   2.872
 8531SOL    HW126492   5.779   3.829   2.898
 8531SOL    HW226493   5.626   3.776   2.920
 8532SOL     OW26494   4.120   4.900   4.775
 8532SOL    HW126495   4.074   4.899   4.864
 8532SOL    HW226496   4.217   4.918   4.789
 8533SOL     OW26497   2.221   1.075   5.202
 8533SOL    HW126498   2.232   1.113   5.294
 8533SOL    HW226499   2.239   1.146   5.134
 8534SOL     OW26500   0.732   4.296   2.947
 8534SOL    HW126501   0.744   4.204   2.985
 8534SOL    HW226502   0.807   4.316   2.884
 8535SOL     OW26503   1.207   2.193   4.312
 8535SOL    HW126504   1.304   2.215   4.326
 8535SOL    HW226505   1.195   2.158   4.219
 8536SOL     OW26506   6.763   2.655   5.074
 8536SOL    HW126507   6.777   2.616   4.983
 8536SOL    HW226508   6.826   2.612   5.139
 8537SOL     OW26509   5.816   1.197   0.578
 8537SOL    HW126510   5.864   1.179   0.492
 8537SOL    HW226511   5.884   1.210   0.651
 8538SOL     OW26512   0.194   0.501   5.016
 8538SOL    HW126513   0.274   0.526   4.962
 8538SOL    HW226514   0.218   0.500   5.113
 8539SOL     OW26515   6.764   2.422   2.593
 8539SOL    HW126516   6.695   2.356   2.622
 8539SOL    HW226517   6.773   2.494   2.662
 8540SOL     OW26518   3.142   0.793   0.677
 8540SOL    HW126519   3.049   0.829   0.666
 8540SOL    HW226520   3.140   0.712   0.735
 8541SOL     OW26521   2.947   1.356   5.211
 8541SOL    HW126522   2.888   1.288   5.253
 8541SOL    HW226523   2.946   1.344   5.111
 8542SOL     OW26524   2.650   4.334   6.647
 8542SOL    HW126525   2.746   4.352   6.669
 8542SOL    HW226526   2.612   4.272   6.716
 8543SOL     OW26527   2.476   1.848   5.808
 8543SOL    HW126528   2.407   1.870   5.876
 8543SOL    HW226529   2.493   1.927   5.750
 8544SOL     OW26530   4.910   3.635   5.310
 8544SOL    HW126531   4.907   3.582   5.395
 8544SOL    HW226532   4.831   3.611   5.253
 8545SOL     OW26533   3.724   6.547   4.510
 8545SOL    HW126534   3.812   6.502   4.525
 8545SOL    HW226535   3.704   6.548   4.412
 8546SOL     OW26536   5.748   0.456   1.274
 8546SOL    HW126537   5.735   0.543   1.227
 8546SOL    HW226538   5.818   0.466   1.344
 8547SOL     OW26539   6.966   0.465   5.840
 8547SOL    HW126540   6.866   0.467   5.835
 8547SOL    HW226541   7.004   0.438   5.752
 8548SOL     OW26542   0.733   2.703   5.701
 8548SOL    HW126543   0.801   2.737   5.637
 8548SOL    HW226544   0.747   2.605   5.716
 8549SOL     OW26545   1.354   1.766   3.741
 8549SOL    HW126546   1.446   1.798   3.718
 8549SOL    HW226547   1.292   1.784   3.665
 8550SOL     OW26548   0.705   4.350   6.808
 8550SOL    HW126549   0.728   4.437   6.853
 8550SOL    HW226550   0.694   4.279   6.877
 8551SOL     OW26551   1.845   2.568   6.559
 8551SOL    HW126552   1.922   2.545   6.499
 8551SOL    HW226553   1.790   2.486   6.574
 8552SOL     OW26554   3.222   0.698   2.055
 8552SOL    HW126555   3.287   0.774   2.050
 8552SOL    HW226556   3.209   0.670   2.150
 8553SOL     OW26557   3.986   3.245   0.946
 8553SOL    HW126558   3.935   3.301   1.012
 8553SOL    HW226559   4.049   3.185   0.995
 8554SOL     OW26560   0.835   6.812   1.356
 8554SOL    HW126561   0.807   6.728   1.402
 8554SOL    HW226562   0.895   6.791   1.280
 8555SOL     OW26563   3.988   1.667   3.772
 8555SOL    HW126564   3.935   1.623   3.700
 8555SOL    HW226565   4.074   1.617   3.784
 8556SOL     OW26566   1.915   6.391   6.159
 8556SOL    HW126567   1.831   6.412   6.109
 8556SOL    HW226568   1.994   6.414   6.103
 8557SOL     OW26569   6.413   0.976   0.475
 8557SOL    HW126570   6.353   1.056   0.476
 8557SOL    HW226571   6.400   0.926   0.390
 8558SOL     OW26572   2.065   4.658   2.973
 8558SOL    HW126573   2.091   4.754   2.986
 8558SOL    HW226574   2.056   4.613   3.062
 8559SOL     OW26575   0.469   6.197   2.417
 8559SOL    HW126576   0.488   6.291   2.444
 8559SOL    HW226577   0.421   6.196   2.329
 8560SOL     OW26578   2.035   5.185   1.364
 8560SOL    HW126579   1.984   5.270   1.355
 8560SOL    HW226580   2.124   5.203   1.405
 8561SOL     OW26581   3.575   0.448   3.000
 8561SOL    HW126582   3.550   0.376   2.935
 8561SOL    HW226583   3.507   0.451   3.074
 8562SOL     OW26584   3.873   1.567   0.047
 8562SOL    HW126585   3.896   1.647   7.020
 8562SOL    HW226586   3.794   1.520   0.007
 8563SOL     OW26587   1.571   5.642   2.580
 8563SOL    HW126588   1.541   5.737   2.596
 8563SOL    HW226589   1.494   5.588   2.547
 8564SOL     OW26590   3.898   6.375   0.027
 8564SOL    HW126591   3.948   6.300   7.012
 8564SOL    HW226592   3.877   6.352   0.122
 8565SOL     OW26593   3.606   5.491   1.475
 8565SOL    HW126594   3.704   5.470   1.480
 8565SOL    HW226595   3.591   5.587   1.498
 8566SOL     OW26596   2.502   1.108   2.577
 8566SOL    HW126597   2.509   1.131   2.480
 8566SOL    HW226598   2.417   1.057   2.593
 8567SOL     OW26599   1.039   1.994   1.281
 8567SOL    HW126600   1.103   1.919   1.299
 8567SOL    HW226601   1.085   2.067   1.231
 8568SOL     OW26602   0.007   1.395   0.411
 8568SOL    HW126603   7.010   1.373   0.505
 8568SOL    HW226604   6.956   1.383   0.351
 8569SOL     OW26605   5.651   2.434   5.885
 8569SOL    HW126606   5.577   2.391   5.937
 8569SOL    HW226607   5.662   2.529   5.914
 8570SOL     OW26608   1.436   1.770   4.549
 8570SOL    HW126609   1.382   1.701   4.598
 8570SOL    HW226610   1.446   1.743   4.453
 8571SOL     OW26611   1.579   1.311   4.158
 8571SOL    HW126612   1.544   1.390   4.109
 8571SOL    HW226613   1.505   1.267   4.209
 8572SOL     OW26614   3.060   4.139   5.192
 8572SOL    HW126615   3.031   4.065   5.253
 8572SOL    HW226616   3.062   4.225   5.243
 8573SOL     OW26617   2.760   6.135   6.981
 8573SOL    HW126618   2.668   6.124   6.944
 8573SOL    HW226619   2.816   6.057   6.954
 8574SOL     OW26620   0.021   0.094   6.355
 8574SOL    HW126621   0.091   0.125   6.419
 8574SOL    HW226622   6.960   0.094   6.402
 8575SOL     OW26623   3.636   0.395   2.254
 8575SOL    HW126624   3.607   0.424   2.163
 8575SOL    HW226625   3.723   0.346   2.247
 8576SOL     OW26626   0.545   3.798   4.392
 8576SOL    HW126627   0.448   3.797   4.368
 8576SOL    HW226628   0.594   3.859   4.330
 8577SOL     OW26629   2.009   0.664   5.970
 8577SOL    HW126630   1.988   0.639   6.064
 8577SOL    HW226631   2.043   0.583   5.921
 8578SOL     OW26632   6.664   6.386   5.611
 8578SOL    HW126633   6.627   6.294   5.618
 8578SOL    HW226634   6.601   6.444   5.559
 8579SOL     OW26635   2.334   6.394   2.178
 8579SOL    HW126636   2.402   6.466   2.194
 8579SOL    HW226637   2.312   6.349   2.265
 8580SOL     OW26638   1.061   6.141   1.444
 8580SOL    HW126639   0.973   6.171   1.406
 8580SOL    HW226640   1.084   6.050   1.408
 8581SOL     OW26641   3.574   5.355   1.760
 8581SOL    HW126642   3.495   5.395   1.713
 8581SOL    HW226643   3.648   5.340   1.695
 8582SOL     OW26644   4.177   4.591   5.606
 8582SOL    HW126645   4.078   4.605   5.600
 8582SOL    HW226646   4.212   4.635   5.689
 8583SOL     OW26647   4.226   0.554   3.201
 8583SOL    HW126648   4.202   0.500   3.120
 8583SOL    HW226649   4.270   0.640   3.171
 8584SOL     OW26650   6.555   1.081   4.838
 8584SOL    HW126651   6.575   1.127   4.924
 8584SOL    HW226652   6.463   1.105   4.807
 8585SOL     OW26653   5.709   1.945   1.019
 8585SOL    HW126654   5.679   2.040   1.025
 8585SOL    HW226655   5.737   1.913   1.110
 8586SOL     OW26656   5.675   6.484   1.486
 8586SOL    HW126657   5.736   6.541   1.432
 8586SOL    HW226658   5.609   6.541   1.535
 8587SOL     OW26659   0.900   1.957   4.678
 8587SOL    HW126660   0.906   1.881   4.743
 8587SOL    HW226661   0.983   1.960   4.622
 8588SOL     OW26662   3.957   1.744   6.873
 8588SOL    HW126663   4.040   1.756   6.927
 8588SOL    HW226664   3.975   1.679   6.799
 8589SOL     OW26665   6.989   3.023   5.339
 8589SOL    HW126666   0.050   3.017   5.294
 8589SOL    HW226667   6.922   2.968   5.288
 8590SOL     OW26668   0.010   0.392   3.163
 8590SOL    HW126669   6.981   0.316   3.133
 8590SOL    HW226670   0.084   0.358   3.221
 8591SOL     OW26671   6.259   4.522   0.816
 8591SOL    HW126672   6.263   4.427   0.848
 8591SOL    HW226673   6.335   4.574   0.855
 8592SOL     OW26674   0.393   2.402   7.000
 8592SOL    HW126675   0.316   2.362   6.951
 8592SOL    HW226676   0.413   2.493   6.964
 8593SOL     OW26677   3.231   0.484   6.691
 8593SOL    HW126678   3.272   0.521   6.607
 8593SOL    HW226679   3.164   0.414   6.668
 8594SOL     OW26680   6.174   2.953   6.100
 8594SOL    HW126681   6.230   2.879   6.137
 8594SOL    HW226682   6.127   3.000   6.175
 8595SOL     OW26683   5.295   0.013   2.932
 8595SOL    HW126684   5.274   0.107   2.958
 8595SOL    HW226685   5.216   6.983   2.951
 8596SOL     OW26686   1.427   3.501   3.267
 8596SOL    HW126687   1.409   3.505   3.365
 8596SOL    HW226688   1.343   3.524   3.217
 8597SOL     OW26689   6.378   2.577   0.640
 8597SOL    HW126690   6.408   2.527   0.559
 8597SOL    HW226691   6.280   2.598   0.632
 8598SOL     OW26692   5.682   1.116   4.818
 8598SOL    HW126693   5.633   1.129   4.904
 8598SOL    HW226694   5.741   1.035   4.825
 8599SOL     OW26695   1.666   3.035   3.752
 8599SOL    HW126696   1.723   2.993   3.682
 8599SOL    HW226697   1.569   3.022   3.729
 8600SOL     OW26698   4.620   3.891   0.923
 8600SOL    HW126699   4.649   3.950   0.848
 8600SOL    HW226700   4.670   3.804   0.919
 8601SOL     OW26701   0.451   0.885   3.524
 8601SOL    HW126702   0.501   0.798   3.533
 8601SOL    HW226703   0.393   0.882   3.444
 8602SOL     OW26704   2.535   6.558   3.322
 8602SOL    HW126705   2.545   6.599   3.232
 8602SOL    HW226706   2.618   6.574   3.376
 8603SOL     OW26707   5.819   1.194   6.979
 8603SOL    HW126708   5.806   1.241   6.892
 8603SOL    HW226709   5.799   1.097   6.968
 8604SOL     OW26710   0.731   3.075   6.170
 8604SOL    HW126711   0.705   3.075   6.266
 8604SOL    HW226712   0.779   2.990   6.148
 8605SOL     OW26713   0.504   4.493   4.373
 8605SOL    HW126714   0.544   4.431   4.305
 8605SOL    HW226715   0.442   4.557   4.327
 8606SOL     OW26716   2.612   2.252   6.810
 8606SOL    HW126717   2.604   2.166   6.758
 8606SOL    HW226718   2.596   2.329   6.749
 8607SOL     OW26719   2.071   4.826   0.347
 8607SOL    HW126720   1.991   4.767   0.339
 8607SOL    HW226721   2.060   4.904   0.285
 8608SOL     OW26722   2.141   4.958   2.629
 8608SOL    HW126723   2.162   5.005   2.544
 8608SOL    HW226724   2.134   4.859   2.612
 8609SOL     OW26725   4.991   0.976   3.627
 8609SOL    HW126726   5.059   0.922   3.678
 8609SOL    HW226727   4.921   1.008   3.690
 8610SOL     OW26728   6.908   6.417   3.099
 8610SOL    HW126729   6.867   6.392   3.011
 8610SOL    HW226730   6.837   6.445   3.163
 8611SOL     OW26731   2.905   0.956   4.145
 8611SOL    HW126732   2.914   1.055   4.156
 8611SOL    HW226733   2.813   0.934   4.114
 8612SOL     OW26734   3.061   3.345   2.563
 8612SOL    HW126735   2.998   3.422   2.573
 8612SOL    HW226736   3.154   3.374   2.587
 8613SOL     OW26737   2.563   2.682   1.270
 8613SOL    HW126738   2.618   2.765   1.281
 8613SOL    HW226739   2.471   2.698   1.307
 8614SOL     OW26740   0.761   2.621   2.774
 8614SOL    HW126741   0.847   2.577   2.749
 8614SOL    HW226742   0.754   2.711   2.730
 8615SOL     OW26743   4.972   2.141   4.637
 8615SOL    HW126744   4.984   2.065   4.701
 8615SOL    HW226745   4.942   2.222   4.687
 8616SOL     OW26746   2.830   4.764   2.521
 8616SOL    HW126747   2.820   4.667   2.541
 8616SOL    HW226748   2.829   4.778   2.422
 8617SOL     OW26749   5.559   0.190   4.052
 8617SOL    HW126750   5.499   0.210   3.974
 8617SOL    HW226751   5.653   0.180   4.020
 8618SOL     OW26752   6.407   3.719   0.808
 8618SOL    HW126753   6.417   3.742   0.905
 8618SOL    HW226754   6.461   3.782   0.753
 8619SOL     OW26755   4.388   5.065   2.500
 8619SOL    HW126756   4.437   5.148   2.527
 8619SOL    HW226757   4.323   5.087   2.428
 8620SOL     OW26758   1.752   0.262   4.390
 8620SOL    HW126759   1.826   0.276   4.456
 8620SOL    HW226760   1.787   0.272   4.297
 8621SOL     OW26761   4.780   2.782   2.103
 8621SOL    HW126762   4.790   2.822   2.194
 8621SOL    HW226763   4.761   2.855   2.037
 8622SOL     OW26764   6.272   5.005   2.155
 8622SOL    HW126765   6.350   4.957   2.195
 8622SOL    HW226766   6.259   5.092   2.202
 8623SOL     OW26767   0.003   3.286   4.885
 8623SOL    HW126768   0.052   3.368   4.915
 8623SOL    HW226769   6.995   3.301   4.793
 8624SOL     OW26770   3.571   3.474   6.172
 8624SOL    HW126771   3.547   3.383   6.203
 8624SOL    HW226772   3.556   3.481   6.073
 8625SOL     OW26773   3.988   1.063   5.763
 8625SOL    HW126774   4.041   0.984   5.794
 8625SOL    HW226775   3.979   1.059   5.663
 8626SOL     OW26776   3.598   2.719   0.908
 8626SOL    HW126777   3.672   2.771   0.866
 8626SOL    HW226778   3.636   2.636   0.950
 8627SOL     OW26779   1.917   1.740   2.255
 8627SOL    HW126780   1.934   1.750   2.353
 8627SOL    HW226781   2.000   1.764   2.205
 8628SOL     OW26782   6.908   0.120   0.148
 8628SOL    HW126783   6.836   0.152   0.086
 8628SOL    HW226784   6.977   0.071   0.095
 8629SOL     OW26785   0.949   6.997   4.750
 8629SOL    HW126786   1.045   7.003   4.723
 8629SOL    HW226787   0.923   6.900   4.759
 8630SOL     OW26788   4.955   3.276   3.485
 8630SOL    HW126789   4.969   3.289   3.583
 8630SOL    HW226790   5.035   3.232   3.445
 8631SOL     OW26791   2.179   5.818   6.612
 8631SOL    HW126792   2.229   5.760   6.547
 8631SOL    HW226793   2.221   5.810   6.703
 8632SOL     OW26794   4.102   4.408   5.343
 8632SOL    HW126795   4.153   4.457   5.414
 8632SOL    HW226796   4.163   4.385   5.268
 8633SOL     OW26797   5.436   3.716   6.099
 8633SOL    HW126798   5.359   3.778   6.114
 8633SOL    HW226799   5.424   3.668   6.012
 8634SOL     OW26800   5.258   5.185   0.218
 8634SOL    HW126801   5.190   5.207   0.289
 8634SOL    HW226802   5.336   5.246   0.226
 8635SOL     OW26803   6.290   2.653   6.764
 8635SOL    HW126804   6.210   2.705   6.734
 8635SOL    HW226805   6.285   2.560   6.729
 8636SOL     OW26806   4.114   5.757   0.561
 8636SOL    HW126807   4.188   5.709   0.515
 8636SOL    HW226808   4.036   5.695   0.571
 8637SOL     OW26809   2.143   1.239   6.124
 8637SOL    HW126810   2.168   1.332   6.149
 8637SOL    HW226811   2.048   1.238   6.094
 8638SOL     OW26812   4.016   2.716   5.323
 8638SOL    HW126813   4.081   2.658   5.275
 8638SOL    HW226814   4.065   2.779   5.384
 8639SOL     OW26815   4.982   3.445   6.979
 8639SOL    HW126816   4.962   3.515   6.910
 8639SOL    HW226817   4.930   3.465   0.034
 8640SOL     OW26818   3.967   3.307   1.707
 8640SOL    HW126819   4.035   3.368   1.665
 8640SOL    HW226820   3.925   3.251   1.636
 8641SOL     OW26821   4.363   5.265   3.789
 8641SOL    HW126822   4.433   5.209   3.833
 8641SOL    HW226823   4.379   5.361   3.813
 8642SOL     OW26824   0.375   6.565   3.672
 8642SOL    HW126825   0.335   6.624   3.742
 8642SOL    HW226826   0.408   6.621   3.596
 8643SOL     OW26827   1.986   6.759   0.637
 8643SOL    HW126828   2.063   6.797   0.585
 8643SOL    HW226829   1.962   6.821   0.711
 8644SOL     OW26830   6.090   2.391   6.407
 8644SOL    HW126831   6.030   2.368   6.484
 8644SOL    HW226832   6.069   2.331   6.329
 8645SOL     OW26833   5.055   4.793   1.433
 8645SOL    HW126834   5.014   4.795   1.342
 8645SOL    HW226835   5.095   4.703   1.450
 8646SOL     OW26836   0.056   2.127   6.369
 8646SOL    HW126837   7.014   2.159   6.433
 8646SOL    HW226838   0.040   2.170   6.280
 8647SOL     OW26839   2.942   5.588   1.108
 8647SOL    HW126840   2.962   5.684   1.091
 8647SOL    HW226841   2.897   5.579   1.197
 8648SOL     OW26842   5.718   6.612   1.004
 8648SOL    HW126843   5.797   6.555   1.022
 8648SOL    HW226844   5.729   6.700   1.050
 8649SOL     OW26845   4.674   6.403   0.044
 8649SOL    HW126846   4.627   6.377   0.128
 8649SOL    HW226847   4.620   6.471   7.023
 8650SOL     OW26848   1.501   6.788   4.273
 8650SOL    HW126849   1.497   6.874   4.222
 8650SOL    HW226850   1.572   6.795   4.343
 8651SOL     OW26851   2.971   1.462   0.840
 8651SOL    HW126852   2.961   1.430   0.746
 8651SOL    HW226853   3.059   1.510   0.849
 8652SOL     OW26854   0.773   4.863   4.240
 8652SOL    HW126855   0.759   4.962   4.250
 8652SOL    HW226856   0.833   4.830   4.312
 8653SOL     OW26857   6.429   1.616   5.656
 8653SOL    HW126858   6.462   1.657   5.570
 8653SOL    HW226859   6.491   1.640   5.730
 8654SOL     OW26860   0.871   4.853   1.547
 8654SOL    HW126861   0.781   4.896   1.540
 8654SOL    HW226862   0.937   4.904   1.494
 8655SOL     OW26863   6.576   1.205   5.091
 8655SOL    HW126864   6.670   1.181   5.112
 8655SOL    HW226865   6.542   1.272   5.157
 8656SOL     OW26866   5.515   0.041   2.124
 8656SOL    HW126867   5.428   0.034   2.173
 8656SOL    HW226868   5.586   7.020   2.174
 8657SOL     OW26869   6.080   5.914   0.288
 8657SOL    HW126870   6.006   5.856   0.254
 8657SOL    HW226871   6.071   6.006   0.248
 8658SOL     OW26872   5.940   5.693   1.068
 8658SOL    HW126873   5.863   5.749   1.098
 8658SOL    HW226874   5.982   5.649   1.148
 8659SOL     OW26875   4.583   2.620   3.204
 8659SOL    HW126876   4.610   2.682   3.278
 8659SOL    HW226877   4.497   2.575   3.228
 8660SOL     OW26878   0.501   2.366   1.997
 8660SOL    HW126879   0.573   2.434   1.983
 8660SOL    HW226880   0.416   2.412   2.024
 8661SOL     OW26881   5.877   3.151   2.478
 8661SOL    HW126882   5.951   3.218   2.475
 8661SOL    HW226883   5.914   3.061   2.454
 8662SOL     OW26884   3.417   6.029   2.054
 8662SOL    HW126885   3.357   5.990   2.123
 8662SOL    HW226886   3.429   6.127   2.072
 8663SOL     OW26887   2.456   5.595   3.010
 8663SOL    HW126888   2.509   5.524   3.056
 8663SOL    HW226889   2.446   5.571   2.913
 8664SOL     OW26890   2.275   5.642   3.225
 8664SOL    HW126891   2.343   5.691   3.279
 8664SOL    HW226892   2.317   5.610   3.140
 8665SOL     OW26893   6.740   5.168   5.803
 8665SOL    HW126894   6.646   5.188   5.775
 8665SOL    HW226895   6.762   5.073   5.782
 8666SOL     OW26896   5.527   6.918   4.334
 8666SOL    HW126897   5.594   6.925   4.260
 8666SOL    HW226898   5.542   6.992   4.399
 8667SOL     OW26899   4.960   1.066   4.899
 8667SOL    HW126900   4.982   1.164   4.900
 8667SOL    HW226901   4.917   1.042   4.812
 8668SOL     OW26902   5.180   3.140   4.776
 8668SOL    HW126903   5.135   3.102   4.857
 8668SOL    HW226904   5.166   3.078   4.698
 8669SOL     OW26905   6.954   6.650   6.606
 8669SOL    HW126906   0.026   6.659   6.602
 8669SOL    HW226907   6.919   6.634   6.513
 8670SOL     OW26908   5.639   5.285   6.028
 8670SOL    HW126909   5.618   5.378   6.060
 8670SOL    HW226910   5.666   5.228   6.106
 8671SOL     OW26911   0.659   1.773   2.259
 8671SOL    HW126912   0.657   1.736   2.352
 8671SOL    HW226913   0.725   1.847   2.254
 8672SOL     OW26914   0.370   0.188   3.432
 8672SOL    HW126915   0.454   0.239   3.416
 8672SOL    HW226916   0.308   0.201   3.355
 8673SOL     OW26917   6.591   1.703   0.137
 8673SOL    HW126918   6.578   1.667   0.229
 8673SOL    HW226919   6.587   1.628   0.071
 8674SOL     OW26920   6.652   4.108   3.097
 8674SOL    HW126921   6.560   4.069   3.102
 8674SOL    HW226922   6.707   4.056   3.032
 8675SOL     OW26923   3.727   1.132   5.846
 8675SOL    HW126924   3.699   1.183   5.765
 8675SOL    HW226925   3.815   1.088   5.828
 8676SOL     OW26926   5.717   0.982   1.248
 8676SOL    HW126927   5.711   1.018   1.341
 8676SOL    HW226928   5.669   1.043   1.185
 8677SOL     OW26929   2.127   6.120   5.493
 8677SOL    HW126930   2.089   6.029   5.504
 8677SOL    HW226931   2.192   6.121   5.418
 8678SOL     OW26932   1.064   6.768   0.451
 8678SOL    HW126933   1.026   6.722   0.370
 8678SOL    HW226934   1.014   6.738   0.532
 8679SOL     OW26935   1.894   1.134   3.980
 8679SOL    HW126936   1.903   1.165   4.074
 8679SOL    HW226937   1.832   1.195   3.931
 8680SOL     OW26938   6.575   2.939   6.407
 8680SOL    HW126939   6.484   2.956   6.444
 8680SOL    HW226940   6.641   3.001   6.448
 8681SOL     OW26941   4.222   5.670   1.660
 8681SOL    HW126942   4.151   5.698   1.724
 8681SOL    HW226943   4.310   5.710   1.688
 8682SOL     OW26944   6.863   0.521   1.200
 8682SOL    HW126945   6.948   0.499   1.150
 8682SOL    HW226946   6.856   0.463   1.281
 8683SOL     OW26947   1.433   3.425   4.781
 8683SOL    HW126948   1.440   3.373   4.865
 8683SOL    HW226949   1.492   3.385   4.711
 8684SOL     OW26950   0.326   3.430   4.611
 8684SOL    HW126951   0.300   3.380   4.694
 8684SOL    HW226952   0.244   3.456   4.560
 8685SOL     OW26953   5.393   2.459   6.893
 8685SOL    HW126954   5.357   2.474   6.984
 8685SOL    HW226955   5.483   2.501   6.885
 8686SOL     OW26956   6.181   6.582   3.136
 8686SOL    HW126957   6.111   6.558   3.069
 8686SOL    HW226958   6.253   6.513   3.136
 8687SOL     OW26959   6.249   4.185   2.897
 8687SOL    HW126960   6.313   4.124   2.944
 8687SOL    HW226961   6.185   4.130   2.843
 8688SOL     OW26962   1.781   4.216   6.448
 8688SOL    HW126963   1.752   4.225   6.353
 8688SOL    HW226964   1.860   4.276   6.465
 8689SOL     OW26965   4.831   3.048   0.428
 8689SOL    HW126966   4.810   2.957   0.464
 8689SOL    HW226967   4.749   3.104   0.429
 8690SOL     OW26968   0.912   2.489   2.999
 8690SOL    HW126969   0.940   2.476   2.904
 8690SOL    HW226970   0.985   2.456   3.060
 8691SOL     OW26971   3.720   1.722   5.133
 8691SOL    HW126972   3.621   1.729   5.122
 8691SOL    HW226973   3.759   1.813   5.145
 8692SOL     OW26974   3.700   2.031   5.904
 8692SOL    HW126975   3.716   2.130   5.905
 8692SOL    HW226976   3.664   2.004   5.814
 8693SOL     OW26977   6.722   1.443   6.464
 8693SOL    HW126978   6.801   1.494   6.428
 8693SOL    HW226979   6.722   1.351   6.425
 8694SOL     OW26980   6.107   1.998   4.967
 8694SOL    HW126981   6.060   2.015   4.880
 8694SOL    HW226982   6.039   1.989   5.040
 8695SOL     OW26983   3.969   3.306   6.330
 8695SOL    HW126984   3.906   3.374   6.365
 8695SOL    HW226985   4.055   3.310   6.381
 8696SOL     OW26986   2.408   5.839   4.935
 8696SOL    HW126987   2.347   5.883   4.870
 8696SOL    HW226988   2.355   5.783   4.998
 8697SOL     OW26989   1.572   4.514   5.764
 8697SOL    HW126990   1.612   4.599   5.799
 8697SOL    HW226991   1.533   4.462   5.840
 8698SOL     OW26992   5.090   5.905   6.086
 8698SOL    HW126993   5.019   5.915   6.155
 8698SOL    HW226994   5.101   5.808   6.064
 8699SOL     OW26995   2.182   3.112   6.379
 8699SOL    HW126996   2.177   3.052   6.300
 8699SOL    HW226997   2.278   3.125   6.405
 8700SOL     OW26998   0.888   0.714   5.287
 8700SOL    HW126999   0.868   0.795   5.232
 8700SOL    HW227000   0.831   0.714   5.369
 8701SOL     OW27001   1.746   1.501   6.972
 8701SOL    HW127002   1.766   1.580   0.003
 8701SOL    HW227003   1.760   1.527   6.877
 8702SOL     OW27004   5.109   5.462   1.812
 8702SOL    HW127005   5.198   5.419   1.829
 8702SOL    HW227006   5.095   5.536   1.877
 8703SOL     OW27007   2.923   4.404   6.749
 8703SOL    HW127008   2.936   4.387   6.846
 8703SOL    HW227009   2.995   4.463   6.715
 8704SOL     OW27010   7.005   3.000   4.204
 8704SOL    HW127011   0.025   3.067   4.147
 8704SOL    HW227012   0.044   2.941   4.249
 8705SOL     OW27013   4.813   2.111   6.689
 8705SOL    HW127014   4.882   2.154   6.748
 8705SOL    HW227015   4.723   2.122   6.730
 8706SOL     OW27016   5.735   2.900   0.300
 8706SOL    HW127017   5.639   2.890   0.325
 8706SOL    HW227018   5.775   2.976   0.351
 8707SOL     OW27019   0.974   2.384   3.846
 8707SOL    HW127020   0.925   2.415   3.928
 8707SOL    HW227021   1.069   2.413   3.851
 8708SOL     OW27022   5.096   2.132   4.044
 8708SOL    HW127023   5.015   2.096   3.997
 8708SOL    HW227024   5.076   2.140   4.142
 8709SOL     OW27025   6.971   0.403   0.059
 8709SOL    HW127026   6.885   0.363   0.091
 8709SOL    HW227027   6.952   0.479   7.025
 8710SOL     OW27028   2.304   2.017   3.403
 8710SOL    HW127029   2.336   2.001   3.310
 8710SOL    HW227030   2.357   1.961   3.466
 8711SOL     OW27031   0.897   0.897   1.835
 8711SOL    HW127032   0.991   0.863   1.830
 8711SOL    HW227033   0.835   0.830   1.794
 8712SOL     OW27034   2.698   1.747   5.177
 8712SOL    HW127035   2.711   1.689   5.257
 8712SOL    HW227036   2.687   1.842   5.206
 8713SOL     OW27037   0.867   3.911   1.530
 8713SOL    HW127038   0.834   3.914   1.624
 8713SOL    HW227039   0.823   3.836   1.481
 8714SOL     OW27040   0.557   6.690   0.556
 8714SOL    HW127041   0.475   6.683   0.499
 8714SOL    HW227042   0.638   6.676   0.500
 8715SOL     OW27043   2.862   1.984   0.090
 8715SOL    HW127044   2.822   2.027   0.170
 8715SOL    HW227045   2.899   2.054   0.029
 8716SOL     OW27046   0.195   6.191   1.390
 8716SOL    HW127047   0.122   6.234   1.335
 8716SOL    HW227048   0.184   6.092   1.388
 8717SOL     OW27049   2.450   3.476   6.301
 8717SOL    HW127050   2.522   3.518   6.358
 8717SOL    HW227051   2.491   3.406   6.243
 8718SOL     OW27052   1.282   2.863   6.259
 8718SOL    HW127053   1.306   2.795   6.327
 8718SOL    HW227054   1.311   2.832   6.168
 8719SOL     OW27055   4.126   1.133   0.059
 8719SOL    HW127056   4.119   1.185   7.002
 8719SOL    HW227057   4.034   1.114   0.094
 8720SOL     OW27058   6.974   5.115   5.520
 8720SOL    HW127059   6.947   5.201   5.478
 8720SOL    HW227060   0.046   5.106   5.517
 8721SOL     OW27061   6.735   6.789   6.659
 8721SOL    HW127062   6.726   6.860   6.589
 8721SOL    HW227063   6.812   6.729   6.637
 8722SOL     OW27064   3.070   0.391   0.812
 8722SOL    HW127065   3.074   0.376   0.911
 8722SOL    HW227066   3.095   0.486   0.792
 8723SOL     OW27067   5.715   6.897   2.333
 8723SOL    HW127068   5.647   6.924   2.402
 8723SOL    HW227069   5.790   6.963   2.332
 8724SOL     OW27070   5.085   0.013   4.447
 8724SOL    HW127071   5.123   0.101   4.476
 8724SOL    HW227072   4.992   0.004   4.481
 8725SOL     OW27073   0.151   6.280   4.743
 8725SOL    HW127074   0.200   6.213   4.799
 8725SOL    HW227075   0.217   6.339   4.697
 8726SOL     OW27076   6.830   1.385   0.229
 8726SOL    HW127077   6.826   1.483   0.248
 8726SOL    HW227078   6.849   1.370   0.132
 8727SOL     OW27079   6.497   0.115   0.124
 8727SOL    HW127080   6.458   0.098   0.033
 8727SOL    HW227081   6.491   0.032   0.179
 8728SOL     OW27082   5.414   1.206   2.838
 8728SOL    HW127083   5.476   1.173   2.766
 8728SOL    HW227084   5.468   1.229   2.920
 8729SOL     OW27085   3.130   4.974   5.329
 8729SOL    HW127086   3.222   4.995   5.361
 8729SOL    HW227087   3.078   4.930   5.403
 8730SOL     OW27088   5.578   4.248   3.141
 8730SOL    HW127089   5.481   4.231   3.158
 8730SOL    HW227090   5.621   4.285   3.223
 8731SOL     OW27091   0.032   2.524   2.831
 8731SOL    HW127092   0.132   2.533   2.822
 8731SOL    HW227093   7.027   2.455   2.766
 8732SOL     OW27094   5.214   4.720   1.146
 8732SOL    HW127095   5.144   4.789   1.165
 8732SOL    HW227096   5.267   4.703   1.229
 8733SOL     OW27097   0.677   5.482   1.232
 8733SOL    HW127098   0.759   5.427   1.247
 8733SOL    HW227099   0.596   5.425   1.247
 8734SOL     OW27100   6.605   3.713   1.688
 8734SOL    HW127101   6.576   3.752   1.601
 8734SOL    HW227102   6.679   3.648   1.673
 8735SOL     OW27103   1.362   3.617   5.060
 8735SOL    HW127104   1.332   3.523   5.069
 8735SOL    HW227105   1.293   3.670   5.012
 8736SOL     OW27106   0.701   5.484   1.929
 8736SOL    HW127107   0.675   5.560   1.868
 8736SOL    HW227108   0.681   5.397   1.884
 8737SOL     OW27109   2.792   5.611   6.224
 8737SOL    HW127110   2.783   5.605   6.323
 8737SOL    HW227111   2.859   5.682   6.201
 8738SOL     OW27112   1.400   3.766   3.592
 8738SOL    HW127113   1.411   3.837   3.661
 8738SOL    HW227114   1.488   3.746   3.549
 8739SOL     OW27115   5.479   3.735   5.235
 8739SOL    HW127116   5.527   3.823   5.232
 8739SOL    HW227117   5.542   3.661   5.212
 8740SOL     OW27118   3.834   2.139   3.032
 8740SOL    HW127119   3.903   2.159   2.963
 8740SOL    HW227120   3.746   2.122   2.988
 8741SOL     OW27121   2.065   6.937   2.653
 8741SOL    HW127122   2.003   6.910   2.726
 8741SOL    HW227123   2.109   7.024   2.677
 8742SOL     OW27124   3.636   0.736   2.612
 8742SOL    HW127125   3.593   0.744   2.701
 8742SOL    HW227126   3.711   0.802   2.604
 8743SOL     OW27127   1.682   1.041   1.741
 8743SOL    HW127128   1.742   0.961   1.728
 8743SOL    HW227129   1.717   1.118   1.688
 8744SOL     OW27130   4.536   2.956   6.581
 8744SOL    HW127131   4.532   2.917   6.489
 8744SOL    HW227132   4.544   2.883   6.648
 8745SOL     OW27133   6.543   2.389   6.403
 8745SOL    HW127134   6.624   2.330   6.400
 8745SOL    HW227135   6.569   2.482   6.427
 8746SOL     OW27136   4.778   4.675   3.974
 8746SOL    HW127137   4.812   4.717   3.890
 8746SOL    HW227138   4.846   4.685   4.047
 8747SOL     OW27139   6.421   0.988   2.585
 8747SOL    HW127140   6.506   1.025   2.548
 8747SOL    HW227141   6.383   0.920   2.522
 8748SOL     OW27142   1.159   1.266   3.814
 8748SOL    HW127143   1.201   1.175   3.816
 8748SOL    HW227144   1.230   1.336   3.810
 8749SOL     OW27145   2.270   1.158   5.440
 8749SOL    HW127146   2.239   1.114   5.524
 8749SOL    HW227147   2.340   1.226   5.462
 8750SOL     OW27148   4.021   2.825   5.776
 8750SOL    HW127149   4.108   2.871   5.761
 8750SOL    HW227150   3.992   2.780   5.692
 8751SOL     OW27151   6.695   6.992   0.399
 8751SOL    HW127152   6.733   0.054   0.376
 8751SOL    HW227153   6.619   6.971   0.338
 8752SOL     OW27154   5.186   2.847   0.010
 8752SOL    HW127155   5.190   2.772   6.973
 8752SOL    HW227156   5.097   2.848   0.055
 8753SOL     OW27157   1.857   3.143   6.888
 8753SOL    HW127158   1.942   3.149   6.837
 8753SOL    HW227159   1.869   3.083   6.968
 8754SOL     OW27160   2.821   4.963   6.127
 8754SOL    HW127161   2.839   4.954   6.029
 8754SOL    HW227162   2.908   4.972   6.175
 8755SOL     OW27163   1.118   1.127   0.836
 8755SOL    HW127164   1.096   1.040   0.879
 8755SOL    HW227165   1.105   1.119   0.737
 8756SOL     OW27166   2.267   2.942   3.878
 8756SOL    HW127167   2.357   2.903   3.901
 8756SOL    HW227168   2.198   2.870   3.883
 8757SOL     OW27169   5.216   6.318   5.690
 8757SOL    HW127170   5.210   6.348   5.595
 8757SOL    HW227171   5.143   6.361   5.743
 8758SOL     OW27172   4.409   6.981   3.316
 8758SOL    HW127173   4.313   6.967   3.294
 8758SOL    HW227174   4.440   6.909   3.378
 8759SOL     OW27175   6.353   1.589   6.889
 8759SOL    HW127176   6.387   1.669   6.841
 8759SOL    HW227177   6.430   1.534   6.922
 8760SOL     OW27178   2.350   1.852   3.678
 8760SOL    HW127179   2.364   1.880   3.772
 8760SOL    HW227180   2.434   1.813   3.641
 8761SOL     OW27181   5.253   1.527   2.205
 8761SOL    HW127182   5.241   1.428   2.213
 8761SOL    HW227183   5.278   1.550   2.111
 8762SOL     OW27184   1.757   6.060   3.796
 8762SOL    HW127185   1.809   5.983   3.759
 8762SOL    HW227186   1.668   6.028   3.828
 8763SOL     OW27187   6.844   0.888   5.276
 8763SOL    HW127188   6.786   0.948   5.331
 8763SOL    HW227189   6.940   0.910   5.291
 8764SOL     OW27190   4.383   5.780   6.066
 8764SOL    HW127191   4.283   5.772   6.065
 8764SOL    HW227192   4.415   5.796   5.972
 8765SOL     OW27193   5.746   1.113   5.328
 8765SOL    HW127194   5.754   1.179   5.253
 8765SOL    HW227195   5.834   1.106   5.375
 8766SOL     OW27196   4.282   4.301   5.722
 8766SOL    HW127197   4.282   4.363   5.800
 8766SOL    HW227198   4.336   4.340   5.648
 8767SOL     OW27199   3.156   0.004   3.582
 8767SOL    HW127200   3.242   6.985   3.605
 8767SOL    HW227201   3.169   0.058   3.499
 8768SOL     OW27202   0.509   2.095   6.665
 8768SOL    HW127203   0.418   2.133   6.650
 8768SOL    HW227204   0.513   2.055   6.757
 8769SOL     OW27205   6.108   1.342   1.741
 8769SOL    HW127206   6.019   1.333   1.786
 8769SOL    HW227207   6.142   1.252   1.715
 8770SOL     OW27208   5.397   4.179   2.014
 8770SOL    HW127209   5.357   4.099   2.059
 8770SOL    HW227210   5.375   4.261   2.066
 8771SOL     OW27211   0.328   3.466   6.477
 8771SOL    HW127212   0.380   3.551   6.487
 8771SOL    HW227213   0.385   3.396   6.435
 8772SOL     OW27214   5.283   0.989   4.691
 8772SOL    HW127215   5.366   1.003   4.636
 8772SOL    HW227216   5.241   0.902   4.667
 8773SOL     OW27217   5.873   2.716   3.822
 8773SOL    HW127218   5.909   2.764   3.902
 8773SOL    HW227219   5.775   2.736   3.813
 8774SOL     OW27220   0.490   6.829   0.185
 8774SOL    HW127221   0.393   6.850   0.178
 8774SOL    HW227222   0.531   6.886   0.256
 8775SOL     OW27223   5.673   1.830   4.868
 8775SOL    HW127224   5.771   1.809   4.871
 8775SOL    HW227225   5.631   1.783   4.791
 8776SOL     OW27226   4.414   3.517   1.157
 8776SOL    HW127227   4.500   3.567   1.142
 8776SOL    HW227228   4.427   3.451   1.231
 8777SOL     OW27229   0.809   3.599   2.979
 8777SOL    HW127230   0.764   3.549   2.905
 8777SOL    HW227231   0.878   3.540   3.021
 8778SOL     OW27232   4.144   3.999   6.102
 8778SOL    HW127233   4.198   4.052   6.036
 8778SOL    HW227234   4.122   4.057   6.181
 8779SOL     OW27235   2.975   5.130   2.514
 8779SOL    HW127236   3.028   5.051   2.545
 8779SOL    HW227237   2.877   5.108   2.517
 8780SOL     OW27238   0.057   5.491   2.396
 8780SOL    HW127239   7.010   5.556   2.405
 8780SOL    HW227240   0.100   5.501   2.306
 8781SOL     OW27241   4.446   0.055   2.719
 8781SOL    HW127242   4.354   0.051   2.760
 8781SOL    HW227243   4.455   7.012   2.650
 8782SOL     OW27244   5.845   1.300   1.854
 8782SOL    HW127245   5.838   1.233   1.781
 8782SOL    HW227246   5.762   1.356   1.857
 8783SOL     OW27247   5.416   3.326   4.728
 8783SOL    HW127248   5.342   3.259   4.733
 8783SOL    HW227249   5.452   3.344   4.819
 8784SOL     OW27250   6.223   6.284   0.925
 8784SOL    HW127251   6.323   6.289   0.916
 8784SOL    HW227252   6.183   6.373   0.904
 8785SOL     OW27253   0.688   5.511   6.282
 8785SOL    HW127254   0.594   5.512   6.316
 8785SOL    HW227255   0.693   5.455   6.199
 8786SOL     OW27256   4.063   1.798   2.392
 8786SOL    HW127257   4.133   1.811   2.322
 8786SOL    HW227258   3.993   1.868   2.385
 8787SOL     OW27259   3.806   0.622   1.376
 8787SOL    HW127260   3.836   0.652   1.286
 8787SOL    HW227261   3.726   0.563   1.366
 8788SOL     OW27262   0.124   0.906   5.248
 8788SOL    HW127263   0.168   0.843   5.312
 8788SOL    HW227264   0.094   0.856   5.167
 8789SOL     OW27265   0.062   3.902   5.205
 8789SOL    HW127266   7.023   3.949   5.262
 8789SOL    HW227267   0.082   3.958   5.124
 8790SOL     OW27268   6.306   2.308   0.330
 8790SOL    HW127269   6.227   2.358   0.364
 8790SOL    HW227270   6.364   2.279   0.407
 8791SOL     OW27271   4.881   6.369   5.347
 8791SOL    HW127272   4.872   6.277   5.385
 8791SOL    HW227273   4.888   6.364   5.248
 8792SOL     OW27274   4.101   5.510   1.938
 8792SOL    HW127275   4.024   5.469   1.986
 8792SOL    HW227276   4.082   5.607   1.919
 8793SOL     OW27277   1.280   5.093   4.460
 8793SOL    HW127278   1.333   5.015   4.426
 8793SOL    HW227279   1.324   5.130   4.542
 8794SOL     OW27280   5.870   1.453   3.447
 8794SOL    HW127281   5.891   1.550   3.457
 8794SOL    HW227282   5.814   1.422   3.523
 8795SOL     OW27283   1.222   5.271   5.278
 8795SOL    HW127284   1.223   5.371   5.273
 8795SOL    HW227285   1.128   5.238   5.272
 8796SOL     OW27286   6.267   3.937   3.321
 8796SOL    HW127287   6.286   3.843   3.349
 8796SOL    HW227288   6.303   4.000   3.389
 8797SOL     OW27289   0.108   6.859   4.006
 8797SOL    HW127290   0.060   6.809   4.078
 8797SOL    HW227291   0.187   6.906   4.045
 8798SOL     OW27292   4.900   6.772   5.305
 8798SOL    HW127293   4.949   6.720   5.235
 8798SOL    HW227294   4.803   6.750   5.301
 8799SOL     OW27295   2.143   4.644   1.968
 8799SOL    HW127296   2.175   4.586   2.043
 8799SOL    HW227297   2.205   4.722   1.959
 8800SOL     OW27298   6.779   6.133   5.552
 8800SOL    HW127299   6.771   6.196   5.474
 8800SOL    HW227300   6.798   6.041   5.518
 8801SOL     OW27301   5.964   1.947   5.190
 8801SOL    HW127302   5.906   1.866   5.196
 8801SOL    HW227303   6.048   1.931   5.242
 8802SOL     OW27304   1.230   5.900   5.736
 8802SOL    HW127305   1.305   5.890   5.801
 8802SOL    HW227306   1.225   5.819   5.678
 8803SOL     OW27307   6.707   1.081   6.926
 8803SOL    HW127308   6.711   1.067   6.827
 8803SOL    HW227309   6.613   1.066   6.958
 8804SOL     OW27310   1.697   5.929   1.340
 8804SOL    HW127311   1.740   5.938   1.251
 8804SOL    HW227312   1.624   5.996   1.349
 8805SOL     OW27313   4.290   5.712   3.872
 8805SOL    HW127314   4.359   5.643   3.896
 8805SOL    HW227315   4.313   5.752   3.784
 8806SOL     OW27316   2.160   6.315   0.475
 8806SOL    HW127317   2.100   6.235   0.476
 8806SOL    HW227318   2.172   6.345   0.380
 8807SOL     OW27319   4.520   2.281   0.369
 8807SOL    HW127320   4.500   2.187   0.340
 8807SOL    HW227321   4.519   2.341   0.289
 8808SOL     OW27322   1.692   2.608   0.418
 8808SOL    HW127323   1.710   2.524   0.470
 8808SOL    HW227324   1.693   2.686   0.481
 8809SOL     OW27325   2.112   4.139   3.628
 8809SOL    HW127326   2.019   4.112   3.654
 8809SOL    HW227327   2.156   4.187   3.704
 8810SOL     OW27328   5.847   1.700   5.216
 8810SOL    HW127329   5.761   1.650   5.204
 8810SOL    HW227330   5.924   1.639   5.200
 8811SOL     OW27331   4.125   6.803   2.496
 8811SOL    HW127332   4.120   6.902   2.496
 8811SOL    HW227333   4.144   6.770   2.588
 8812SOL     OW27334   3.490   0.380   6.747
 8812SOL    HW127335   3.416   0.447   6.749
 8812SOL    HW227336   3.532   0.375   6.838
 8813SOL     OW27337   1.927   4.185   2.779
 8813SOL    HW127338   1.855   4.242   2.819
 8813SOL    HW227339   2.014   4.234   2.783
 8814SOL     OW27340   5.697   7.005   0.369
 8814SOL    HW127341   5.599   6.993   0.354
 8814SOL    HW227342   5.746   6.934   0.319
 8815SOL     OW27343   5.709   0.936   0.556
 8815SOL    HW127344   5.734   1.022   0.599
 8815SOL    HW227345   5.790   0.878   0.548
 8816SOL     OW27346   0.062   6.202   6.361
 8816SOL    HW127347   0.141   6.217   6.302
 8816SOL    HW227348   0.085   6.136   6.432
 8817SOL     OW27349   0.623   3.481   4.691
 8817SOL    HW127350   0.600   3.384   4.704
 8817SOL    HW227351   0.576   3.516   4.610
 8818SOL     OW27352   1.602   6.856   3.750
 8818SOL    HW127353   1.620   6.827   3.656
 8818SOL    HW227354   1.511   6.825   3.777
 8819SOL     OW27355   5.615   4.461   5.449
 8819SOL    HW127356   5.574   4.548   5.474
 8819SOL    HW227357   5.657   4.420   5.531
 8820SOL     OW27358   3.729   1.042   4.551
 8820SOL    HW127359   3.639   1.084   4.564
 8820SOL    HW227360   3.789   1.106   4.503
 8821SOL     OW27361   0.596   5.065   0.831
 8821SOL    HW127362   0.562   5.153   0.865
 8821SOL    HW227363   0.638   5.079   0.741
 8822SOL     OW27364   6.746   6.735   3.509
 8822SOL    HW127365   6.720   6.827   3.540
 8822SOL    HW227366   6.807   6.694   3.577
 8823SOL     OW27367   2.902   1.153   2.305
 8823SOL    HW127368   2.927   1.161   2.401
 8823SOL    HW227369   2.805   1.171   2.293
 8824SOL     OW27370   1.435   0.468   1.253
 8824SOL    HW127371   1.353   0.419   1.222
 8824SOL    HW227372   1.508   0.456   1.186
 8825SOL     OW27373   0.310   0.632   1.337
 8825SOL    HW127374   0.212   0.640   1.355
 8825SOL    HW227375   0.328   0.647   1.240
 8826SOL     OW27376   0.967   3.295   0.996
 8826SOL    HW127377   0.983   3.243   0.911
 8826SOL    HW227378   0.872   3.325   0.999
 8827SOL     OW27379   3.894   0.317   2.204
 8827SOL    HW127380   3.975   0.345   2.254
 8827SOL    HW227381   3.913   0.232   2.154
 8828SOL     OW27382   3.956   4.305   6.201
 8828SOL    HW127383   3.871   4.354   6.223
 8828SOL    HW227384   3.963   4.295   6.102
 8829SOL     OW27385   6.597   1.692   2.080
 8829SOL    HW127386   6.546   1.619   2.124
 8829SOL    HW227387   6.563   1.706   1.987
 8830SOL     OW27388   2.443   1.543   1.659
 8830SOL    HW127389   2.371   1.500   1.604
 8830SOL    HW227390   2.493   1.473   1.709
 8831SOL     OW27391   0.339   2.948   2.233
 8831SOL    HW127392   0.305   2.988   2.319
 8831SOL    HW227393   0.268   2.951   2.164
 8832SOL     OW27394   6.482   6.647   4.244
 8832SOL    HW127395   6.427   6.649   4.161
 8832SOL    HW227396   6.552   6.718   4.240
 8833SOL     OW27397   3.779   3.026   1.264
 8833SOL    HW127398   3.866   3.000   1.223
 8833SOL    HW227399   3.705   3.005   1.200
 8834SOL     OW27400   6.003   3.629   5.173
 8834SOL    HW127401   5.983   3.668   5.263
 8834SOL    HW227402   5.955   3.682   5.103
 8835SOL     OW27403   6.152   0.825   6.151
 8835SOL    HW127404   6.206   0.883   6.090
 8835SOL    HW227405   6.140   0.735   6.109
 8836SOL     OW27406   5.854   2.701   0.162
 8836SOL    HW127407   5.837   2.791   0.201
 8836SOL    HW227408   5.929   2.657   0.212
 8837SOL     OW27409   7.028   6.621   2.009
 8837SOL    HW127410   6.936   6.582   2.019
 8837SOL    HW227411   0.040   6.633   2.100
 8838SOL     OW27412   0.746   4.014   3.045
 8838SOL    HW127413   0.678   4.006   3.118
 8838SOL    HW227414   0.705   3.993   2.957
 8839SOL     OW27415   5.167   5.397   2.231
 8839SOL    HW127416   5.124   5.436   2.150
 8839SOL    HW227417   5.253   5.446   2.249
 8840SOL     OW27418   6.311   0.621   2.077
 8840SOL    HW127419   6.266   0.705   2.107
 8840SOL    HW227420   6.357   0.578   2.155
 8841SOL     OW27421   4.041   0.825   2.303
 8841SOL    HW127422   3.966   0.776   2.347
 8841SOL    HW227423   4.055   0.913   2.349
 8842SOL     OW27424   3.271   3.944   4.082
 8842SOL    HW127425   3.323   4.027   4.101
 8842SOL    HW227426   3.334   3.867   4.068
 8843SOL     OW27427   2.153   2.994   4.855
 8843SOL    HW127428   2.066   2.981   4.902
 8843SOL    HW227429   2.229   2.976   4.918
 8844SOL     OW27430   6.550   2.168   5.211
 8844SOL    HW127431   6.549   2.264   5.238
 8844SOL    HW227432   6.467   2.147   5.160
 8845SOL     OW27433   2.157   5.407   1.142
 8845SOL    HW127434   2.202   5.319   1.159
 8845SOL    HW227435   2.182   5.439   1.050
 8846SOL     OW27436   5.509   4.613   4.247
 8846SOL    HW127437   5.591   4.560   4.226
 8846SOL    HW227438   5.430   4.551   4.254
 8847SOL     OW27439   1.582   1.684   2.467
 8847SOL    HW127440   1.582   1.674   2.368
 8847SOL    HW227441   1.674   1.665   2.502
 8848SOL     OW27442   3.520   1.833   1.711
 8848SOL    HW127443   3.429   1.792   1.699
 8848SOL    HW227444   3.525   1.877   1.801
 8849SOL     OW27445   2.629   5.302   3.882
 8849SOL    HW127446   2.577   5.220   3.858
 8849SOL    HW227447   2.727   5.282   3.881
 8850SOL     OW27448   2.833   1.510   0.280
 8850SOL    HW127449   2.914   1.509   0.221
 8850SOL    HW227450   2.859   1.480   0.372
 8851SOL     OW27451   0.633   4.621   3.093
 8851SOL    HW127452   0.571   4.611   3.015
 8851SOL    HW227453   0.630   4.537   3.148
 8852SOL     OW27454   5.227   2.711   6.398
 8852SOL    HW127455   5.235   2.694   6.496
 8852SOL    HW227456   5.133   2.738   6.377
 8853SOL     OW27457   3.281   1.140   5.232
 8853SOL    HW127458   3.294   1.116   5.328
 8853SOL    HW227459   3.294   1.238   5.220
 8854SOL     OW27460   1.877   0.066   5.938
 8854SOL    HW127461   1.966   0.070   5.984
 8854SOL    HW227462   1.854   0.157   5.902
 8855SOL     OW27463   5.884   5.739   6.811
 8855SOL    HW127464   5.873   5.787   6.898
 8855SOL    HW227465   5.843   5.794   6.738
 8856SOL     OW27466   6.509   0.471   4.925
 8856SOL    HW127467   6.505   0.501   4.830
 8856SOL    HW227468   6.601   0.485   4.961
 8857SOL     OW27469   6.154   1.896   3.171
 8857SOL    HW127470   6.188   1.838   3.245
 8857SOL    HW227471   6.199   1.872   3.086
 8858SOL     OW27472   1.201   3.613   5.636
 8858SOL    HW127473   1.267   3.680   5.669
 8858SOL    HW227474   1.151   3.575   5.713
 8859SOL     OW27475   1.052   6.960   5.071
 8859SOL    HW127476   1.121   6.950   5.143
 8859SOL    HW227477   0.972   6.905   5.093
 8860SOL     OW27478   1.511   3.631   2.481
 8860SOL    HW127479   1.422   3.661   2.448
 8860SOL    HW227480   1.582   3.659   2.416
 8861SOL     OW27481   3.096   2.734   6.136
 8861SOL    HW127482   3.167   2.803   6.153
 8861SOL    HW227483   3.041   2.762   6.058
 8862SOL     OW27484   6.016   1.628   4.613
 8862SOL    HW127485   5.985   1.533   4.616
 8862SOL    HW227486   5.945   1.684   4.571
 8863SOL     OW27487   2.213   5.691   4.643
 8863SOL    HW127488   2.235   5.778   4.599
 8863SOL    HW227489   2.125   5.657   4.608
 8864SOL     OW27490   2.203   2.951   6.138
 8864SOL    HW127491   2.138   2.913   6.204
 8864SOL    HW227492   2.172   2.931   6.045
 8865SOL     OW27493   3.440   1.081   4.538
 8865SOL    HW127494   3.470   1.148   4.469
 8865SOL    HW227495   3.349   1.106   4.571
 8866SOL     OW27496   4.306   6.692   3.082
 8866SOL    HW127497   4.223   6.649   3.120
 8866SOL    HW227498   4.382   6.626   3.087
 8867SOL     OW27499   5.296   2.365   2.717
 8867SOL    HW127500   5.317   2.319   2.631
 8867SOL    HW227501   5.381   2.395   2.760
 8868SOL     OW27502   5.116   3.272   0.223
 8868SOL    HW127503   5.111   3.235   0.315
 8868SOL    HW227504   5.181   3.218   0.169
 8869SOL     OW27505   4.674   4.278   3.072
 8869SOL    HW127506   4.680   4.256   2.975
 8869SOL    HW227507   4.584   4.316   3.092
 8870SOL     OW27508   3.471   0.497   1.096
 8870SOL    HW127509   3.471   0.398   1.078
 8870SOL    HW227510   3.467   0.547   1.010
 8871SOL     OW27511   2.652   1.431   3.812
 8871SOL    HW127512   2.694   1.413   3.722
 8871SOL    HW227513   2.560   1.467   3.799
 8872SOL     OW27514   1.838   4.173   4.460
 8872SOL    HW127515   1.917   4.233   4.456
 8872SOL    HW227516   1.855   4.098   4.524
 8873SOL     OW27517   6.811   5.787   2.683
 8873SOL    HW127518   6.823   5.863   2.619
 8873SOL    HW227519   6.796   5.823   2.775
 8874SOL     OW27520   1.962   0.003   1.137
 8874SOL    HW127521   2.007   0.091   1.152
 8874SOL    HW227522   1.863   0.018   1.129
 8875SOL     OW27523   1.422   2.781   4.461
 8875SOL    HW127524   1.355   2.783   4.536
 8875SOL    HW227525   1.412   2.863   4.405
 8876SOL     OW27526   6.930   0.405   4.386
 8876SOL    HW127527   6.900   0.497   4.363
 8876SOL    HW227528   6.864   0.339   4.351
 8877SOL     OW27529   2.600   0.634   4.335
 8877SOL    HW127530   2.576   0.628   4.238
 8877SOL    HW227531   2.648   0.551   4.362
 8878SOL     OW27532   0.324   5.185   1.032
 8878SOL    HW127533   0.225   5.197   1.030
 8878SOL    HW227534   0.346   5.097   1.074
 8879SOL     OW27535   5.326   5.425   1.135
 8879SOL    HW127536   5.239   5.427   1.086
 8879SOL    HW227537   5.329   5.502   1.199
 8880SOL     OW27538   0.568   5.641   4.760
 8880SOL    HW127539   0.478   5.623   4.801
 8880SOL    HW227540   0.638   5.633   4.830
 8881SOL     OW27541   6.281   0.604   3.403
 8881SOL    HW127542   6.188   0.608   3.439
 8881SOL    HW227543   6.339   0.667   3.456
 8882SOL     OW27544   5.284   0.687   0.124
 8882SOL    HW127545   5.380   0.714   0.112
 8882SOL    HW227546   5.278   0.588   0.133
 8883SOL     OW27547   0.518   1.236   6.086
 8883SOL    HW127548   0.566   1.231   5.999
 8883SOL    HW227549   0.580   1.209   6.160
 8884SOL     OW27550   5.761   6.763   6.616
 8884SOL    HW127551   5.839   6.774   6.677
 8884SOL    HW227552   5.793   6.761   6.521
 8885SOL     OW27553   6.297   3.770   1.422
 8885SOL    HW127554   6.260   3.678   1.438
 8885SOL    HW227555   6.243   3.815   1.351
 8886SOL     OW27556   3.115   5.879   5.246
 8886SOL    HW127557   3.151   5.928   5.167
 8886SOL    HW227558   3.151   5.920   5.330
 8887SOL     OW27559   3.152   1.077   0.922
 8887SOL    HW127560   3.067   1.108   0.880
 8887SOL    HW227561   3.131   1.030   1.008
 8888SOL     OW27562   1.039   1.968   0.770
 8888SOL    HW127563   1.128   1.935   0.802
 8888SOL    HW227564   1.008   1.911   0.694
 8889SOL     OW27565   5.731   6.538   5.170
 8889SOL    HW127566   5.800   6.562   5.103
 8889SOL    HW227567   5.768   6.550   5.262
 8890SOL     OW27568   6.548   6.063   4.819
 8890SOL    HW127569   6.467   6.006   4.808
 8890SOL    HW227570   6.547   6.136   4.751
 8891SOL     OW27571   6.048   3.063   6.361
 8891SOL    HW127572   6.018   3.130   6.428
 8891SOL    HW227573   5.976   2.993   6.350
 8892SOL     OW27574   3.174   6.478   3.313
 8892SOL    HW127575   3.090   6.429   3.290
 8892SOL    HW227576   3.169   6.571   3.276
 8893SOL     OW27577   0.276   0.940   1.979
 8893SOL    HW127578   0.283   1.032   1.941
 8893SOL    HW227579   0.366   0.896   1.975
 8894SOL     OW27580   4.192   3.177   6.146
 8894SOL    HW127581   4.122   3.240   6.179
 8894SOL    HW227582   4.257   3.158   6.220
 8895SOL     OW27583   7.027   0.619   1.891
 8895SOL    HW127584   0.089   0.620   1.847
 8895SOL    HW227585   7.020   0.698   1.953
 8896SOL     OW27586   0.707   3.406   4.948
 8896SOL    HW127587   0.694   3.427   4.851
 8896SOL    HW227588   0.630   3.351   4.981
 8897SOL     OW27589   1.912   1.694   1.668
 8897SOL    HW127590   1.865   1.614   1.632
 8897SOL    HW227591   2.009   1.674   1.679
 8898SOL     OW27592   6.489   3.178   4.761
 8898SOL    HW127593   6.419   3.227   4.813
 8898SOL    HW227594   6.482   3.203   4.664
 8899SOL     OW27595   1.895   4.164   6.719
 8899SOL    HW127596   1.920   4.071   6.693
 8899SOL    HW227597   1.942   4.188   6.804
 8900SOL     OW27598   5.622   3.296   3.054
 8900SOL    HW127599   5.675   3.381   3.049
 8900SOL    HW227600   5.576   3.280   2.967
 8901SOL     OW27601   2.291   0.880   3.261
 8901SOL    HW127602   2.238   0.889   3.345
 8901SOL    HW227603   2.289   0.967   3.211
 8902SOL     OW27604   2.971   5.803   6.187
 8902SOL    HW127605   3.048   5.823   6.248
 8902SOL    HW227606   2.996   5.827   6.093
 8903SOL     OW27607   2.389   1.514   3.727
 8903SOL    HW127608   2.322   1.440   3.722
 8903SOL    HW227609   2.355   1.585   3.789
 8904SOL     OW27610   0.111   4.917   3.460
 8904SOL    HW127611   0.145   4.952   3.548
 8904SOL    HW227612   0.015   4.890   3.470
 8905SOL     OW27613   2.146   3.470   5.224
 8905SOL    HW127614   2.126   3.565   5.200
 8905SOL    HW227615   2.131   3.411   5.144
 8906SOL     OW27616   0.062   0.348   6.712
 8906SOL    HW127617   0.152   0.304   6.706
 8906SOL    HW227618   7.021   0.278   6.732
 8907SOL     OW27619   3.355   2.180   5.314
 8907SOL    HW127620   3.326   2.145   5.403
 8907SOL    HW227621   3.282   2.237   5.276
 8908SOL     OW27622   1.567   2.988   0.574
 8908SOL    HW127623   1.474   3.019   0.596
 8908SOL    HW227624   1.564   2.931   0.492
 8909SOL     OW27625   2.491   0.557   5.043
 8909SOL    HW127626   2.419   0.621   5.014
 8909SOL    HW227627   2.449   0.472   5.074
 8910SOL     OW27628   2.148   2.957   5.845
 8910SOL    HW127629   2.238   2.994   5.824
 8910SOL    HW227630   2.133   2.874   5.792
 8911SOL     OW27631   3.789   2.075   4.812
 8911SOL    HW127632   3.771   2.171   4.789
 8911SOL    HW227633   3.719   2.042   4.875
 8912SOL     OW27634   4.013   1.549   6.668
 8912SOL    HW127635   4.104   1.534   6.628
 8912SOL    HW227636   3.946   1.491   6.622
 8913SOL     OW27637   5.226   4.194   1.563
 8913SOL    HW127638   5.214   4.147   1.475
 8913SOL    HW227639   5.229   4.292   1.548
 8914SOL     OW27640   4.259   1.493   5.579
 8914SOL    HW127641   4.194   1.437   5.630
 8914SOL    HW227642   4.328   1.530   5.642
 8915SOL     OW27643   1.533   2.457   3.872
 8915SOL    HW127644   1.527   2.478   3.970
 8915SOL    HW227645   1.553   2.540   3.820
 8916SOL     OW27646   0.163   3.562   1.588
 8916SOL    HW127647   0.218   3.607   1.659
 8916SOL    HW227648   0.129   3.475   1.624
 8917SOL     OW27649   6.202   4.876   6.284
 8917SOL    HW127650   6.269   4.931   6.235
 8917SOL    HW227651   6.242   4.843   6.369
 8918SOL     OW27652   6.572   5.929   0.021
 8918SOL    HW127653   6.512   6.001   7.014
 8918SOL    HW227654   6.573   5.853   6.985
 8919SOL     OW27655   3.968   3.603   0.690
 8919SOL    HW127656   3.961   3.645   0.780
 8919SOL    HW227657   4.018   3.517   0.696
 8920SOL     OW27658   6.592   6.156   6.247
 8920SOL    HW127659   6.640   6.068   6.245
 8920SOL    HW227660   6.497   6.142   6.275
 8921SOL     OW27661   1.267   1.374   2.884
 8921SOL    HW127662   1.250   1.276   2.874
 8921SOL    HW227663   1.357   1.396   2.847
 8922SOL     OW27664   2.232   5.233   0.730
 8922SOL    HW127665   2.332   5.227   0.734
 8922SOL    HW227666   2.204   5.328   0.723
 8923SOL     OW27667   2.346   3.795   6.474
 8923SOL    HW127668   2.314   3.886   6.449
 8923SOL    HW227669   2.344   3.735   6.394
 8924SOL     OW27670   3.197   5.336   5.317
 8924SOL    HW127671   3.178   5.411   5.254
 8924SOL    HW227672   3.127   5.333   5.388
 8925SOL     OW27673   0.654   0.647   2.515
 8925SOL    HW127674   0.713   0.604   2.446
 8925SOL    HW227675   0.711   0.685   2.588
 8926SOL     OW27676   5.715   2.391   1.559
 8926SOL    HW127677   5.798   2.446   1.552
 8926SOL    HW227678   5.706   2.333   1.478
 8927SOL     OW27679   2.780   2.362   4.736
 8927SOL    HW127680   2.694   2.392   4.778
 8927SOL    HW227681   2.846   2.341   4.808
 8928SOL     OW27682   0.043   1.203   5.294
 8928SOL    HW127683   6.977   1.234   5.287
 8928SOL    HW227684   0.083   1.196   5.203
 8929SOL     OW27685   0.187   3.168   3.737
 8929SOL    HW127686   0.191   3.252   3.791
 8929SOL    HW227687   0.234   3.181   3.650
 8930SOL     OW27688   1.795   5.150   5.187
 8930SOL    HW127689   1.887   5.172   5.219
 8930SOL    HW227690   1.793   5.055   5.155
 8931SOL     OW27691   4.064   2.841   0.889
 8931SOL    HW127692   4.088   2.745   0.900
 8931SOL    HW227693   3.976   2.850   0.844
 8932SOL     OW27694   5.386   0.052   6.789
 8932SOL    HW127695   5.310   0.116   6.799
 8932SOL    HW227696   5.473   0.102   6.796
 8933SOL     OW27697   0.928   1.620   5.615
 8933SOL    HW127698   0.877   1.705   5.600
 8933SOL    HW227699   0.912   1.588   5.708
 8934SOL     OW27700   3.319   5.202   2.935
 8934SOL    HW127701   3.241   5.212   2.873
 8934SOL    HW227702   3.290   5.225   3.028
 8935SOL     OW27703   5.052   3.355   2.126
 8935SOL    HW127704   5.015   3.262   2.121
 8935SOL    HW227705   5.021   3.407   2.047
 8936SOL     OW27706   0.701   3.261   0.920
 8936SOL    HW127707   0.680   3.251   0.823
 8936SOL    HW227708   0.720   3.171   0.960
 8937SOL     OW27709   0.402   0.790   3.874
 8937SOL    HW127710   0.435   0.883   3.889
 8937SOL    HW227711   0.472   0.725   3.903
 8938SOL     OW27712   6.221   0.728   0.451
 8938SOL    HW127713   6.224   0.790   0.529
 8938SOL    HW227714   6.221   0.633   0.483
 8939SOL     OW27715   6.521   2.936   4.966
 8939SOL    HW127716   6.447   2.997   4.994
 8939SOL    HW227717   6.543   2.952   4.869
 8940SOL     OW27718   6.090   2.712   0.280
 8940SOL    HW127719   6.173   2.661   0.304
 8940SOL    HW227720   6.116   2.804   0.248
 8941SOL     OW27721   5.029   2.063   2.034
 8941SOL    HW127722   4.977   2.090   1.953
 8941SOL    HW227723   5.119   2.029   2.005
 8942SOL     OW27724   6.841   4.638   4.081
 8942SOL    HW127725   6.917   4.703   4.075
 8942SOL    HW227726   6.849   4.585   4.165
 8943SOL     OW27727   4.448   4.429   7.025
 8943SOL    HW127728   4.402   4.364   6.965
 8943SOL    HW227729   4.546   4.409   7.028
 8944SOL     OW27730   4.789   4.562   4.380
 8944SOL    HW127731   4.780   4.648   4.432
 8944SOL    HW227732   4.699   4.522   4.365
 8945SOL     OW27733   6.478   3.265   5.215
 8945SOL    HW127734   6.514   3.180   5.254
 8945SOL    HW227735   6.383   3.276   5.245
 8946SOL     OW27736   4.544   0.485   4.626
 8946SOL    HW127737   4.506   0.393   4.636
 8946SOL    HW227738   4.640   0.479   4.599
 8947SOL     OW27739   1.263   4.528   6.863
 8947SOL    HW127740   1.234   4.452   6.804
 8947SOL    HW227741   1.192   4.598   6.866
 8948SOL     OW27742   6.731   6.032   3.971
 8948SOL    HW127743   6.750   6.109   4.032
 8948SOL    HW227744   6.784   5.952   3.999
 8949SOL     OW27745   3.835   6.272   0.279
 8949SOL    HW127746   3.931   6.268   0.308
 8949SOL    HW227747   3.777   6.281   0.360
 8950SOL     OW27748   4.794   4.188   0.993
 8950SOL    HW127749   4.697   4.213   0.986
 8950SOL    HW227750   4.802   4.088   0.993
 8951SOL     OW27751   2.281   1.026   3.849
 8951SOL    HW127752   2.258   0.945   3.902
 8951SOL    HW227753   2.365   1.067   3.885
 8952SOL     OW27754   2.246   4.586   3.597
 8952SOL    HW127755   2.212   4.642   3.521
 8952SOL    HW227756   2.168   4.550   3.649
 8953SOL     OW27757   2.868   5.183   1.906
 8953SOL    HW127758   2.893   5.131   1.824
 8953SOL    HW227759   2.923   5.266   1.912
 8954SOL     OW27760   0.891   5.774   4.127
 8954SOL    HW127761   0.859   5.715   4.053
 8954SOL    HW227762   0.944   5.719   4.192
 8955SOL     OW27763   6.264   2.862   2.530
 8955SOL    HW127764   6.265   2.891   2.626
 8955SOL    HW227765   6.356   2.839   2.501
 8956SOL     OW27766   0.158   6.797   6.883
 8956SOL    HW127767   0.152   6.893   6.858
 8956SOL    HW227768   0.133   6.740   6.805
 8957SOL     OW27769   1.563   5.674   2.107
 8957SOL    HW127770   1.579   5.772   2.109
 8957SOL    HW227771   1.645   5.625   2.138
 8958SOL     OW27772   1.454   3.248   5.035
 8958SOL    HW127773   1.366   3.272   5.076
 8958SOL    HW227774   1.467   3.149   5.036
 8959SOL     OW27775   1.049   3.776   2.157
 8959SOL    HW127776   0.954   3.767   2.185
 8959SOL    HW227777   1.062   3.734   2.067
 8960SOL     OW27778   6.493   4.081   3.987
 8960SOL    HW127779   6.519   3.987   4.008
 8960SOL    HW227780   6.428   4.114   4.055
 8961SOL     OW27781   3.009   6.929   4.177
 8961SOL    HW127782   2.992   6.836   4.145
 8961SOL    HW227783   3.106   6.950   4.168
 8962SOL     OW27784   1.260   6.288   1.634
 8962SOL    HW127785   1.349   6.246   1.613
 8962SOL    HW227786   1.196   6.269   1.560
 8963SOL     OW27787   3.514   5.608   4.235
 8963SOL    HW127788   3.527   5.625   4.137
 8963SOL    HW227789   3.438   5.544   4.247
 8964SOL     OW27790   5.673   3.905   3.133
 8964SOL    HW127791   5.643   3.853   3.213
 8964SOL    HW227792   5.739   3.975   3.161
 8965SOL     OW27793   3.818   4.518   0.557
 8965SOL    HW127794   3.725   4.485   0.542
 8965SOL    HW227795   3.815   4.615   0.580
 8966SOL     OW27796   6.424   5.325   6.093
 8966SOL    HW127797   6.393   5.393   6.026
 8966SOL    HW227798   6.506   5.359   6.140
 8967SOL     OW27799   3.692   0.993   3.320
 8967SOL    HW127800   3.619   1.049   3.359
 8967SOL    HW227801   3.744   1.049   3.255
 8968SOL     OW27802   2.336   4.691   1.500
 8968SOL    HW127803   2.436   4.696   1.497
 8968SOL    HW227804   2.308   4.606   1.542
 8969SOL     OW27805   0.224   6.980   3.442
 8969SOL    HW127806   0.225   6.929   3.528
 8969SOL    HW227807   0.292   0.025   3.446
 8970SOL     OW27808   1.111   2.044   5.774
 8970SOL    HW127809   1.130   1.945   5.768
 8970SOL    HW227810   1.100   2.081   5.682
 8971SOL     OW27811   4.285   6.745   1.098
 8971SOL    HW127812   4.302   6.803   1.018
 8971SOL    HW227813   4.215   6.677   1.076
 8972SOL     OW27814   5.683   5.204   0.402
 8972SOL    HW127815   5.745   5.265   0.352
 8972SOL    HW227816   5.737   5.136   0.451
 8973SOL     OW27817   0.710   2.556   2.278
 8973SOL    HW127818   0.741   2.489   2.210
 8973SOL    HW227819   0.787   2.611   2.309
 8974SOL     OW27820   2.192   3.902   4.389
 8974SOL    HW127821   2.195   3.804   4.375
 8974SOL    HW227822   2.174   3.921   4.486
 8975SOL     OW27823   0.299   6.911   6.604
 8975SOL    HW127824   0.397   6.895   6.617
 8975SOL    HW227825   0.259   6.834   6.554
 8976SOL     OW27826   5.887   6.073   1.106
 8976SOL    HW127827   5.937   6.081   1.192
 8976SOL    HW227828   5.912   6.148   1.045
 8977SOL     OW27829   0.029   5.248   6.194
 8977SOL    HW127830   6.995   5.313   6.238
 8977SOL    HW227831   7.024   5.155   6.209
 8978SOL     OW27832   5.972   6.177   5.139
 8978SOL    HW127833   6.045   6.243   5.121
 8978SOL    HW227834   5.883   6.224   5.135
 8979SOL     OW27835   1.087   5.539   6.107
 8979SOL    HW127836   1.171   5.565   6.059
 8979SOL    HW227837   1.082   5.440   6.117
 8980SOL     OW27838   4.244   1.897   6.028
 8980SOL    HW127839   4.195   1.895   6.116
 8980SOL    HW227840   4.230   1.810   5.980
 8981SOL     OW27841   4.467   2.144   6.052
 8981SOL    HW127842   4.431   2.236   6.070
 8981SOL    HW227843   4.391   2.079   6.048
 8982SOL     OW27844   6.304   1.323   2.059
 8982SOL    HW127845   6.378   1.332   2.125
 8982SOL    HW227846   6.342   1.293   1.971
 8983SOL     OW27847   1.243   5.172   2.418
 8983SOL    HW127848   1.302   5.092   2.422
 8983SOL    HW227849   1.200   5.186   2.508
 8984SOL     OW27850   5.743   0.408   4.428
 8984SOL    HW127851   5.691   0.487   4.396
 8984SOL    HW227852   5.724   0.330   4.369
 8985SOL     OW27853   4.736   1.891   0.674
 8985SOL    HW127854   4.824   1.849   0.696
 8985SOL    HW227855   4.692   1.840   0.601
 8986SOL     OW27856   5.732   4.197   1.763
 8986SOL    HW127857   5.636   4.176   1.747
 8986SOL    HW227858   5.756   4.283   1.718
 8987SOL     OW27859   2.660   0.265   1.308
 8987SOL    HW127860   2.693   0.333   1.373
 8987SOL    HW227861   2.673   0.173   1.345
 8988SOL     OW27862   2.016   5.675   1.093
 8988SOL    HW127863   2.112   5.680   1.120
 8988SOL    HW227864   2.004   5.603   1.024
 8989SOL     OW27865   4.986   2.774   2.867
 8989SOL    HW127866   5.033   2.695   2.827
 8989SOL    HW227867   5.009   2.780   2.964
 8990SOL     OW27868   3.104   6.132   0.535
 8990SOL    HW127869   3.075   6.095   0.446
 8990SOL    HW227870   3.064   6.223   0.548
 8991SOL     OW27871   2.254   2.735   0.906
 8991SOL    HW127872   2.300   2.823   0.898
 8991SOL    HW227873   2.222   2.705   0.816
 8992SOL     OW27874   0.245   3.273   0.419
 8992SOL    HW127875   0.270   3.368   0.400
 8992SOL    HW227876   0.169   3.271   0.483
 8993SOL     OW27877   5.346   2.083   3.932
 8993SOL    HW127878   5.265   2.133   3.963
 8993SOL    HW227879   5.336   2.061   3.835
 8994SOL     OW27880   1.632   5.358   4.525
 8994SOL    HW127881   1.697   5.313   4.465
 8994SOL    HW227882   1.664   5.352   4.620
 8995SOL     OW27883   1.237   2.837   4.650
 8995SOL    HW127884   1.166   2.809   4.715
 8995SOL    HW227885   1.288   2.914   4.688
 8996SOL     OW27886   0.365   3.709   1.217
 8996SOL    HW127887   0.348   3.697   1.119
 8996SOL    HW227888   0.277   3.709   1.266
 8997SOL     OW27889   5.114   1.124   6.027
 8997SOL    HW127890   5.138   1.044   6.082
 8997SOL    HW227891   5.022   1.155   6.051
 8998SOL     OW27892   0.989   2.671   5.039
 8998SOL    HW127893   0.978   2.589   4.984
 8998SOL    HW227894   0.905   2.687   5.092
 8999SOL     OW27895   4.655   1.398   6.476
 8999SOL    HW127896   4.573   1.435   6.432
 8999SOL    HW227897   4.642   1.396   6.575
 9000SOL     OW27898   3.101   3.792   6.685
 9000SOL    HW127899   3.168   3.777   6.758
 9000SOL    HW227900   3.025   3.727   6.697
 9001SOL     OW27901   1.651   4.764   3.294
 9001SOL    HW127902   1.667   4.859   3.266
 9001SOL    HW227903   1.637   4.708   3.212
 9002SOL     OW27904   6.754   4.942   5.614
 9002SOL    HW127905   6.756   4.878   5.537
 9002SOL    HW227906   6.824   5.012   5.601
 9003SOL     OW27907   6.355   2.603   0.281
 9003SOL    HW127908   6.397   2.519   0.249
 9003SOL    HW227909   6.424   2.660   0.326
 9004SOL     OW27910   5.342   6.640   1.182
 9004SOL    HW127911   5.357   6.562   1.120
 9004SOL    HW227912   5.309   6.718   1.129
 9005SOL     OW27913   4.794   2.060   4.006
 9005SOL    HW127914   4.743   2.000   4.068
 9005SOL    HW227915   4.820   2.008   3.924
 9006SOL     OW27916   1.550   5.435   1.427
 9006SOL    HW127917   1.554   5.519   1.373
 9006SOL    HW227918   1.557   5.356   1.366
 9007SOL     OW27919   2.510   5.095   3.528
 9007SOL    HW127920   2.565   5.050   3.599
 9007SOL    HW227921   2.557   5.090   3.440
 9008SOL     OW27922   6.957   4.339   2.141
 9008SOL    HW127923   6.955   4.285   2.056
 9008SOL    HW227924   6.863   4.355   2.171
 9009SOL     OW27925   2.463   0.129   1.145
 9009SOL    HW127926   2.544   0.185   1.166
 9009SOL    HW227927   2.471   0.094   1.052
 9010SOL     OW27928   1.019   6.602   4.791
 9010SOL    HW127929   1.012   6.610   4.692
 9010SOL    HW227930   1.054   6.512   4.815
 9011SOL     OW27931   3.990   1.976   1.238
 9011SOL    HW127932   4.008   1.971   1.337
 9011SOL    HW227933   4.009   1.887   1.197
 9012SOL     OW27934   1.094   4.769   1.356
 9012SOL    HW127935   1.013   4.760   1.299
 9012SOL    HW227936   1.111   4.683   1.404
 9013SOL     OW27937   6.582   5.876   4.318
 9013SOL    HW127938   6.591   5.829   4.406
 9013SOL    HW227939   6.673   5.906   4.287
 9014SOL     OW27940   1.304   1.369   6.945
 9014SOL    HW127941   1.276   1.432   6.873
 9014SOL    HW227942   1.391   1.400   6.984
 9015SOL     OW27943   0.336   1.350   6.758
 9015SOL    HW127944   0.385   1.307   6.834
 9015SOL    HW227945   0.297   1.437   6.788
 9016SOL     OW27946   6.813   6.418   5.836
 9016SOL    HW127947   6.777   6.401   5.744
 9016SOL    HW227948   6.877   6.345   5.861
 9017SOL     OW27949   5.983   2.181   3.792
 9017SOL    HW127950   5.931   2.137   3.865
 9017SOL    HW227951   5.964   2.279   3.793
 9018SOL     OW27952   3.775   0.705   4.904
 9018SOL    HW127953   3.767   0.720   4.805
 9018SOL    HW227954   3.859   0.749   4.937
 9019SOL     OW27955   2.386   6.467   6.462
 9019SOL    HW127956   2.404   6.555   6.507
 9019SOL    HW227957   2.348   6.484   6.371
 9020SOL     OW27958   1.714   4.284   2.605
 9020SOL    HW127959   1.714   4.275   2.505
 9020SOL    HW227960   1.649   4.356   2.631
 9021SOL     OW27961   6.939   6.307   3.929
 9021SOL    HW127962   6.975   6.227   3.975
 9021SOL    HW227963   6.943   6.293   3.830
 9022SOL     OW27964   2.581   0.205   0.207
 9022SOL    HW127965   2.485   0.177   0.211
 9022SOL    HW227966   2.589   0.301   0.233
 9023SOL     OW27967   3.371   3.369   3.817
 9023SOL    HW127968   3.329   3.314   3.889
 9023SOL    HW227969   3.402   3.456   3.856
 9024SOL     OW27970   1.587   6.191   5.914
 9024SOL    HW127971   1.679   6.211   5.945
 9024SOL    HW227972   1.523   6.201   5.990
 9025SOL     OW27973   6.253   5.225   1.424
 9025SOL    HW127974   6.314   5.145   1.431
 9025SOL    HW227975   6.291   5.299   1.479
 9026SOL     OW27976   3.778   3.020   4.451
 9026SOL    HW127977   3.724   3.043   4.532
 9026SOL    HW227978   3.859   2.968   4.479
 9027SOL     OW27979   2.855   2.304   3.158
 9027SOL    HW127980   2.799   2.379   3.194
 9027SOL    HW227981   2.933   2.289   3.219
 9028SOL     OW27982   2.040   4.188   6.110
 9028SOL    HW127983   2.047   4.095   6.074
 9028SOL    HW227984   2.117   4.206   6.172
 9029SOL     OW27985   4.336   4.978   4.487
 9029SOL    HW127986   4.281   4.898   4.462
 9029SOL    HW227987   4.337   4.988   4.586
 9030SOL     OW27988   2.242   0.935   2.570
 9030SOL    HW127989   2.206   1.005   2.508
 9030SOL    HW227990   2.303   0.874   2.519
 9031SOL     OW27991   2.805   6.181   5.647
 9031SOL    HW127992   2.773   6.147   5.735
 9031SOL    HW227993   2.726   6.205   5.590
 9032SOL     OW27994   2.623   2.461   1.462
 9032SOL    HW127995   2.675   2.495   1.541
 9032SOL    HW227996   2.612   2.534   1.395
 9033SOL     OW27997   2.030   3.636   4.529
 9033SOL    HW127998   2.093   3.605   4.459
 9033SOL    HW227999   1.942   3.589   4.519
 9034SOL     OW28000   3.127   6.846   5.168
 9034SOL    HW128001   3.077   6.908   5.107
 9034SOL    HW228002   3.185   6.785   5.114
 9035SOL     OW28003   6.997   0.087   5.065
 9035SOL    HW128004   6.986   0.104   4.967
 9035SOL    HW228005   6.920   0.128   5.114
 9036SOL     OW28006   1.912   2.447   5.161
 9036SOL    HW128007   1.951   2.496   5.239
 9036SOL    HW228008   1.907   2.508   5.082
 9037SOL     OW28009   2.355   3.730   6.198
 9037SOL    HW128010   2.454   3.714   6.195
 9037SOL    HW228011   2.313   3.687   6.118
 9038SOL     OW28012   4.967   0.775   6.118
 9038SOL    HW128013   4.912   0.693   6.131
 9038SOL    HW228014   4.993   0.782   6.021
 9039SOL     OW28015   1.573   4.593   5.466
 9039SOL    HW128016   1.486   4.618   5.424
 9039SOL    HW228017   1.571   4.619   5.563
 9040SOL     OW28018   3.199   1.039   2.323
 9040SOL    HW128019   3.126   0.979   2.356
 9040SOL    HW228020   3.187   1.131   2.361
 9041SOL     OW28021   0.431   1.942   1.965
 9041SOL    HW128022   0.524   1.975   1.951
 9041SOL    HW228023   0.376   2.015   2.007
 9042SOL     OW28024   2.137   5.862   3.059
 9042SOL    HW128025   2.121   5.785   3.122
 9042SOL    HW228026   2.228   5.855   3.020
 9043SOL     OW28027   1.473   2.341   5.836
 9043SOL    HW128028   1.528   2.276   5.783
 9043SOL    HW228029   1.509   2.434   5.822
 9044SOL     OW28030   5.986   0.670   0.790
 9044SOL    HW128031   6.065   0.719   0.755
 9044SOL    HW228032   5.965   0.592   0.730
 9045SOL     OW28033   3.675   0.297   3.282
 9045SOL    HW128034   3.664   0.374   3.345
 9045SOL    HW228035   3.616   0.310   3.203
 9046SOL     OW28036   3.578   4.451   5.287
 9046SOL    HW128037   3.517   4.527   5.265
 9046SOL    HW228038   3.533   4.365   5.261
 9047SOL     OW28039   1.751   4.316   5.326
 9047SOL    HW128040   1.790   4.407   5.339
 9047SOL    HW228041   1.702   4.289   5.409
 9048SOL     OW28042   1.263   3.846   5.748
 9048SOL    HW128043   1.223   3.928   5.706
 9048SOL    HW228044   1.361   3.861   5.764
 9049SOL     OW28045   5.231   6.259   6.249
 9049SOL    HW128046   5.254   6.212   6.165
 9049SOL    HW228047   5.284   6.221   6.325
 9050SOL     OW28048   0.481   5.200   7.000
 9050SOL    HW128049   0.525   5.123   0.016
 9050SOL    HW228050   0.481   5.279   0.033
 9051SOL     OW28051   4.546   6.265   0.799
 9051SOL    HW128052   4.481   6.340   0.813
 9051SOL    HW228053   4.500   6.178   0.819
 9052SOL     OW28054   2.718   4.709   4.750
 9052SOL    HW128055   2.767   4.668   4.827
 9052SOL    HW228056   2.724   4.809   4.757
 9053SOL     OW28057   2.200   2.710   3.684
 9053SOL    HW128058   2.241   2.768   3.613
 9053SOL    HW228059   2.267   2.643   3.716
 9054SOL     OW28060   1.867   0.524   1.695
 9054SOL    HW128061   1.936   0.513   1.624
 9054SOL    HW228062   1.901   0.486   1.781
 9055SOL     OW28063   0.650   2.941   3.551
 9055SOL    HW128064   0.724   2.933   3.618
 9055SOL    HW228065   0.570   2.890   3.582
 9056SOL     OW28066   5.719   0.455   1.876
 9056SOL    HW128067   5.743   0.385   1.944
 9056SOL    HW228068   5.622   0.447   1.853
 9057SOL     OW28069   5.824   5.107   0.009
 9057SOL    HW128070   5.921   5.130   0.021
 9057SOL    HW228071   5.794   5.137   6.946
 9058SOL     OW28072   1.983   2.269   4.357
 9058SOL    HW128073   1.955   2.174   4.375
 9058SOL    HW228074   1.910   2.331   4.382
 9059SOL     OW28075   6.074   1.302   3.337
 9059SOL    HW128076   6.000   1.368   3.347
 9059SOL    HW228077   6.057   1.245   3.256
 9060SOL     OW28078   6.552   3.445   2.188
 9060SOL    HW128079   6.651   3.434   2.173
 9060SOL    HW228080   6.504   3.433   2.102
 9061SOL     OW28081   4.613   5.417   3.281
 9061SOL    HW128082   4.640   5.449   3.372
 9061SOL    HW228083   4.605   5.317   3.283
 9062SOL     OW28084   1.394   4.885   2.271
 9062SOL    HW128085   1.377   4.794   2.231
 9062SOL    HW228086   1.492   4.900   2.279
 9063SOL     OW28087   2.817   1.751   2.456
 9063SOL    HW128088   2.791   1.763   2.552
 9063SOL    HW228089   2.844   1.656   2.441
 9064SOL     OW28090   6.694   4.254   4.100
 9064SOL    HW128091   6.632   4.189   4.057
 9064SOL    HW228092   6.683   4.344   4.057
 9065SOL     OW28093   2.727   6.159   5.139
 9065SOL    HW128094   2.726   6.238   5.200
 9065SOL    HW228095   2.662   6.173   5.064
 9066SOL     OW28096   6.703   6.899   6.363
 9066SOL    HW128097   6.767   6.825   6.344
 9066SOL    HW228098   6.610   6.865   6.362
 9067SOL     OW28099   6.616   6.270   4.648
 9067SOL    HW128100   6.630   6.337   4.575
 9067SOL    HW228101   6.679   6.289   4.723
 9068SOL     OW28102   4.504   0.209   4.921
 9068SOL    HW128103   4.451   0.189   5.003
 9068SOL    HW228104   4.443   0.213   4.842
 9069SOL     OW28105   5.002   2.594   2.014
 9069SOL    HW128106   5.082   2.637   1.972
 9069SOL    HW228107   4.955   2.661   2.072
 9070SOL     OW28108   1.586   2.283   6.130
 9070SOL    HW128109   1.677   2.316   6.107
 9070SOL    HW228110   1.538   2.353   6.184
 9071SOL     OW28111   4.575   1.052   5.903
 9071SOL    HW128112   4.652   1.040   5.840
 9071SOL    HW228113   4.546   1.147   5.903
 9072SOL     OW28114   5.211   6.828   1.863
 9072SOL    HW128115   5.174   6.735   1.865
 9072SOL    HW228116   5.279   6.838   1.935
 9073SOL     OW28117   4.217   6.824   0.673
 9073SOL    HW128118   4.146   6.771   0.626
 9073SOL    HW228119   4.303   6.773   0.671
 9074SOL     OW28120   1.724   0.691   1.271
 9074SOL    HW128121   1.654   0.755   1.240
 9074SOL    HW228122   1.691   0.643   1.352
 9075SOL     OW28123   6.905   0.715   2.595
 9075SOL    HW128124   6.896   0.655   2.675
 9075SOL    HW228125   6.888   0.662   2.512
 9076SOL     OW28126   4.864   1.599   3.908
 9076SOL    HW128127   4.843   1.599   4.006
 9076SOL    HW228128   4.794   1.651   3.859
 9077SOL     OW28129   4.846   1.484   6.282
 9077SOL    HW128130   4.794   1.452   6.362
 9077SOL    HW228131   4.825   1.425   6.204
 9078SOL     OW28132   5.710   5.008   6.013
 9078SOL    HW128133   5.794   5.027   6.064
 9078SOL    HW228134   5.657   5.093   6.004
 9079SOL     OW28135   1.314   0.301   5.096
 9079SOL    HW128136   1.228   0.267   5.059
 9079SOL    HW228137   1.313   0.401   5.096
 9080SOL     OW28138   6.102   2.967   6.864
 9080SOL    HW128139   6.143   2.923   6.784
 9080SOL    HW228140   6.139   3.059   6.875
 9081SOL     OW28141   3.923   1.741   1.644
 9081SOL    HW128142   3.914   1.717   1.741
 9081SOL    HW228143   3.836   1.723   1.598
 9082SOL     OW28144   2.726   6.880   5.044
 9082SOL    HW128145   2.751   6.866   4.948
 9082SOL    HW228146   2.792   6.942   5.087
 9083SOL     OW28147   4.828   4.610   6.357
 9083SOL    HW128148   4.850   4.645   6.448
 9083SOL    HW228149   4.906   4.558   6.321
 9084SOL     OW28150   0.390   2.411   5.877
 9084SOL    HW128151   0.438   2.498   5.881
 9084SOL    HW228152   0.409   2.358   5.960
 9085SOL     OW28153   2.840   5.500   0.822
 9085SOL    HW128154   2.875   5.530   0.911
 9085SOL    HW228155   2.845   5.400   0.816
 9086SOL     OW28156   5.939   4.270   0.999
 9086SOL    HW128157   5.891   4.335   0.940
 9086SOL    HW228158   6.003   4.216   0.944
 9087SOL     OW28159   5.726   3.088   2.799
 9087SOL    HW128160   5.815   3.094   2.843
 9087SOL    HW228161   5.691   3.181   2.783
 9088SOL     OW28162   5.770   6.800   1.868
 9088SOL    HW128163   5.802   6.732   1.802
 9088SOL    HW228164   5.844   6.823   1.931
 9089SOL     OW28165   4.440   5.647   4.539
 9089SOL    HW128166   4.451   5.560   4.490
 9089SOL    HW228167   4.510   5.711   4.509
 9090SOL     OW28168   5.133   6.028   4.914
 9090SOL    HW128169   5.160   5.956   4.850
 9090SOL    HW228170   5.154   6.000   5.008
 9091SOL     OW28171   2.988   2.703   0.412
 9091SOL    HW128172   3.066   2.658   0.368
 9091SOL    HW228173   2.937   2.635   0.466
 9092SOL     OW28174   1.462   0.558   6.216
 9092SOL    HW128175   1.489   0.579   6.122
 9092SOL    HW228176   1.443   0.644   6.264
 9093SOL     OW28177   1.678   6.279   6.892
 9093SOL    HW128178   1.736   6.254   6.814
 9093SOL    HW228179   1.654   6.376   6.886
 9094SOL     OW28180   0.532   5.876   2.790
 9094SOL    HW128181   0.608   5.853   2.730
 9094SOL    HW228182   0.453   5.818   2.768
 9095SOL     OW28183   5.470   4.139   6.605
 9095SOL    HW128184   5.386   4.110   6.652
 9095SOL    HW228185   5.479   4.238   6.612
 9096SOL     OW28186   5.157   3.151   2.553
 9096SOL    HW128187   5.097   3.112   2.483
 9096SOL    HW228188   5.251   3.121   2.538
 9097SOL     OW28189   0.013   3.298   0.126
 9097SOL    HW128190   6.991   3.212   0.129
 9097SOL    HW228191   0.067   3.302   0.042
 9098SOL     OW28192   3.477   3.147   0.978
 9098SOL    HW128193   3.524   3.235   0.986
 9098SOL    HW228194   3.535   3.074   1.013
 9099SOL     OW28195   3.279   3.399   0.610
 9099SOL    HW128196   3.336   3.338   0.665
 9099SOL    HW228197   3.232   3.345   0.540
 9100SOL     OW28198   0.940   2.231   2.444
 9100SOL    HW128199   0.910   2.141   2.474
 9100SOL    HW228200   1.038   2.240   2.459
 9101SOL     OW28201   1.903   2.981   2.699
 9101SOL    HW128202   1.890   3.009   2.794
 9101SOL    HW228203   1.822   3.005   2.645
 9102SOL     OW28204   3.685   6.365   1.840
 9102SOL    HW128205   3.707   6.277   1.796
 9102SOL    HW228206   3.694   6.356   1.939
 9103SOL     OW28207   0.043   3.546   0.233
 9103SOL    HW128208   0.023   3.448   0.225
 9103SOL    HW228209   0.033   3.590   0.144
 9104SOL     OW28210   3.801   6.146   2.184
 9104SOL    HW128211   3.732   6.073   2.189
 9104SOL    HW228212   3.863   6.129   2.107
 9105SOL     OW28213   1.737   0.562   0.205
 9105SOL    HW128214   1.780   0.597   0.122
 9105SOL    HW228215   1.665   0.625   0.234
 9106SOL     OW28216   5.682   3.792   6.845
 9106SOL    HW128217   5.593   3.768   6.882
 9106SOL    HW228218   5.683   3.888   6.819
 9107SOL     OW28219   4.144   0.411   6.237
 9107SOL    HW128220   4.066   0.417   6.175
 9107SOL    HW228221   4.123   0.460   6.322
 9108SOL     OW28222   4.891   4.567   5.955
 9108SOL    HW128223   4.940   4.562   6.042
 9108SOL    HW228224   4.809   4.624   5.966
 9109SOL     OW28225   1.693   2.821   2.944
 9109SOL    HW128226   1.677   2.897   2.881
 9109SOL    HW228227   1.657   2.845   3.034
 9110SOL     OW28228   2.072   4.614   4.112
 9110SOL    HW128229   2.112   4.637   4.201
 9110SOL    HW228230   2.145   4.592   4.047
 9111SOL     OW28231   4.608   3.354   0.207
 9111SOL    HW128232   4.661   3.394   0.132
 9111SOL    HW228233   4.510   3.365   0.187
 9112SOL     OW28234   0.298   4.610   4.722
 9112SOL    HW128235   0.283   4.641   4.628
 9112SOL    HW228236   0.320   4.689   4.780
 9113SOL     OW28237   4.306   6.441   0.849
 9113SOL    HW128238   4.234   6.487   0.901
 9113SOL    HW228239   4.286   6.447   0.752
 9114SOL     OW28240   1.600   5.174   2.030
 9114SOL    HW128241   1.631   5.200   1.939
 9114SOL    HW228242   1.500   5.176   2.034
 9115SOL     OW28243   1.024   5.828   5.412
 9115SOL    HW128244   0.946   5.788   5.461
 9115SOL    HW228245   1.109   5.790   5.448
 9116SOL     OW28246   6.423   2.259   0.586
 9116SOL    HW128247   6.412   2.302   0.676
 9116SOL    HW228248   6.518   2.267   0.557
 9117SOL     OW28249   5.626   2.863   0.049
 9117SOL    HW128250   5.668   2.897   0.134
 9117SOL    HW228251   5.650   2.925   7.002
 9118SOL     OW28252   6.417   5.940   0.602
 9118SOL    HW128253   6.391   5.985   0.688
 9118SOL    HW228254   6.513   5.962   0.581
 9119SOL     OW28255   5.216   1.363   2.602
 9119SOL    HW128256   5.130   1.321   2.634
 9119SOL    HW228257   5.227   1.453   2.644
 9120SOL     OW28258   5.576   3.214   5.825
 9120SOL    HW128259   5.488   3.250   5.795
 9120SOL    HW228260   5.619   3.164   5.750
 9121SOL     OW28261   1.321   2.860   6.819
 9121SOL    HW128262   1.339   2.901   6.729
 9121SOL    HW228263   1.331   2.761   6.812
 9122SOL     OW28264   1.964   2.975   1.803
 9122SOL    HW128265   1.987   2.910   1.875
 9122SOL    HW228266   2.033   3.048   1.801
 9123SOL     OW28267   3.932   0.330   4.450
 9123SOL    HW128268   4.017   0.383   4.443
 9123SOL    HW228269   3.855   0.390   4.430
 9124SOL     OW28270   5.720   6.762   5.673
 9124SOL    HW128271   5.685   6.668   5.676
 9124SOL    HW228272   5.746   6.791   5.765
 9125SOL     OW28273   4.973   3.440   2.381
 9125SOL    HW128274   4.921   3.522   2.359
 9125SOL    HW228275   5.000   3.395   2.296
 9126SOL     OW28276   5.830   2.419   2.361
 9126SOL    HW128277   5.820   2.364   2.278
 9126SOL    HW228278   5.842   2.515   2.336
 9127SOL     OW28279   6.208   0.891   5.801
 9127SOL    HW128280   6.135   0.958   5.811
 9127SOL    HW228281   6.264   0.890   5.884
 9128SOL     OW28282   4.025   1.772   5.084
 9128SOL    HW128283   4.018   1.676   5.059
 9128SOL    HW228284   4.112   1.789   5.130
 9129SOL     OW28285   0.746   2.784   1.480
 9129SOL    HW128286   0.830   2.838   1.474
 9129SOL    HW228287   0.765   2.690   1.453
 9130SOL     OW28288   6.917   3.418   0.577
 9130SOL    HW128289   6.823   3.395   0.604
 9130SOL    HW228290   6.932   3.516   0.592
 9131SOL     OW28291   0.338   3.493   6.084
 9131SOL    HW128292   0.377   3.445   6.005
 9131SOL    HW228293   0.407   3.502   6.155
 9132SOL     OW28294   0.407   4.839   4.830
 9132SOL    HW128295   0.413   4.828   4.930
 9132SOL    HW228296   0.499   4.842   4.792
 9133SOL     OW28297   3.167   6.107   1.615
 9133SOL    HW128298   3.177   6.185   1.677
 9133SOL    HW228299   3.232   6.036   1.641
 9134SOL     OW28300   3.672   6.108   0.119
 9134SOL    HW128301   3.745   6.089   0.052
 9134SOL    HW228302   3.713   6.147   0.201
 9135SOL     OW28303   6.531   6.188   1.988
 9135SOL    HW128304   6.611   6.232   1.947
 9135SOL    HW228305   6.551   6.167   2.084
 9136SOL     OW28306   5.584   5.445   5.591
 9136SOL    HW128307   5.680   5.431   5.613
 9136SOL    HW228308   5.576   5.491   5.503
 9137SOL     OW28309   5.124   2.071   1.392
 9137SOL    HW128310   5.126   1.971   1.380
 9137SOL    HW228311   5.186   2.097   1.466
 9138SOL     OW28312   6.406   5.242   5.670
 9138SOL    HW128313   6.377   5.180   5.744
 9138SOL    HW228314   6.328   5.262   5.611
 9139SOL     OW28315   2.451   1.746   4.578
 9139SOL    HW128316   2.485   1.795   4.658
 9139SOL    HW228317   2.498   1.658   4.571
 9140SOL     OW28318   5.996   2.915   2.408
 9140SOL    HW128319   6.085   2.891   2.448
 9140SOL    HW228320   5.960   2.838   2.357
 9141SOL     OW28321   5.807   0.395   6.538
 9141SOL    HW128322   5.822   0.375   6.634
 9141SOL    HW228323   5.757   0.320   6.495
 9142SOL     OW28324   0.593   2.408   0.576
 9142SOL    HW128325   0.533   2.402   0.495
 9142SOL    HW228326   0.579   2.328   0.633
 9143SOL     OW28327   5.153   3.005   1.320
 9143SOL    HW128328   5.244   2.973   1.294
 9143SOL    HW228329   5.136   2.983   1.417
 9144SOL     OW28330   2.672   5.493   5.434
 9144SOL    HW128331   2.578   5.479   5.401
 9144SOL    HW228332   2.728   5.529   5.359
 9145SOL     OW28333   6.329   5.195   0.130
 9145SOL    HW128334   6.410   5.227   0.080
 9145SOL    HW228335   6.352   5.183   0.226
 9146SOL     OW28336   5.068   2.538   2.809
 9146SOL    HW128337   5.157   2.503   2.780
 9146SOL    HW228338   5.001   2.523   2.737
 9147SOL     OW28339   5.814   0.224   3.951
 9147SOL    HW128340   5.872   0.301   3.977
 9147SOL    HW228341   5.858   0.139   3.978
 9148SOL     OW28342   4.907   6.653   0.618
 9148SOL    HW128343   4.811   6.628   0.607
 9148SOL    HW228344   4.958   6.625   0.536
 9149SOL     OW28345   5.216   3.226   3.399
 9149SOL    HW128346   5.236   3.130   3.382
 9149SOL    HW228347   5.270   3.283   3.338
 9150SOL     OW28348   3.104   5.286   2.760
 9150SOL    HW128349   3.054   5.199   2.760
 9150SOL    HW228350   3.049   5.356   2.715
 9151SOL     OW28351   1.379   4.506   3.826
 9151SOL    HW128352   1.286   4.526   3.797
 9151SOL    HW228353   1.433   4.590   3.826
 9152SOL     OW28354   2.265   4.688   4.953
 9152SOL    HW128355   2.222   4.613   5.003
 9152SOL    HW228356   2.359   4.700   4.984
 9153SOL     OW28357   1.092   2.882   1.119
 9153SOL    HW128358   1.170   2.830   1.152
 9153SOL    HW228359   1.092   2.973   1.161
 9154SOL     OW28360   4.602   5.177   6.227
 9154SOL    HW128361   4.629   5.133   6.313
 9154SOL    HW228362   4.649   5.132   6.151
 9155SOL     OW28363   1.191   3.125   1.531
 9155SOL    HW128364   1.107   3.174   1.506
 9155SOL    HW228365   1.243   3.104   1.448
 9156SOL     OW28366   1.677   2.573   0.770
 9156SOL    HW128367   1.592   2.620   0.746
 9156SOL    HW228368   1.714   2.612   0.854
 9157SOL     OW28369   6.489   4.379   6.445
 9157SOL    HW128370   6.524   4.431   6.524
 9157SOL    HW228371   6.560   4.317   6.412
 9158SOL     OW28372   5.634   3.809   4.306
 9158SOL    HW128373   5.603   3.715   4.325
 9158SOL    HW228374   5.633   3.826   4.208
 9159SOL     OW28375   1.640   0.073   2.504
 9159SOL    HW128376   1.684   7.012   2.491
 9159SOL    HW228377   1.707   0.140   2.535
 9160SOL     OW28378   6.255   0.434   4.987
 9160SOL    HW128379   6.241   0.355   4.928
 9160SOL    HW228380   6.351   0.460   4.987
 9161SOL     OW28381   4.576   4.436   4.934
 9161SOL    HW128382   4.639   4.502   4.893
 9161SOL    HW228383   4.487   4.480   4.949
 9162SOL     OW28384   4.832   0.820   4.714
 9162SOL    HW128385   4.773   0.750   4.753
 9162SOL    HW228386   4.831   0.811   4.614
 9163SOL     OW28387   1.982   3.215   4.398
 9163SOL    HW128388   1.951   3.120   4.399
 9163SOL    HW228389   2.050   3.229   4.470
 9164SOL     OW28390   2.523   1.055   6.776
 9164SOL    HW128391   2.501   1.084   6.683
 9164SOL    HW228392   2.585   1.122   6.819
 9165SOL     OW28393   5.921   2.230   5.211
 9165SOL    HW128394   5.953   2.135   5.201
 9165SOL    HW228395   5.822   2.233   5.202
 9166SOL     OW28396   3.885   6.185   0.921
 9166SOL    HW128397   3.821   6.204   0.996
 9166SOL    HW228398   3.836   6.185   0.834
 9167SOL     OW28399   2.190   2.790   6.824
 9167SOL    HW128400   2.199   2.888   6.806
 9167SOL    HW228401   2.093   2.767   6.834
 9168SOL     OW28402   0.386   0.331   6.638
 9168SOL    HW128403   0.472   0.344   6.589
 9168SOL    HW228404   0.395   0.253   6.700
 9169SOL     OW28405   6.078   1.576   5.170
 9169SOL    HW128406   6.124   1.488   5.184
 9169SOL    HW228407   6.134   1.633   5.110
 9170SOL     OW28408   1.277   5.265   0.083
 9170SOL    HW128409   1.182   5.289   0.062
 9170SOL    HW228410   1.337   5.307   0.015
 9171SOL     OW28411   3.838   5.338   0.718
 9171SOL    HW128412   3.839   5.284   0.634
 9171SOL    HW228413   3.930   5.340   0.757
 9172SOL     OW28414   3.297   0.848   4.214
 9172SOL    HW128415   3.285   0.891   4.125
 9172SOL    HW228416   3.394   0.849   4.239
 9173SOL     OW28417   6.576   3.708   4.904
 9173SOL    HW128418   6.624   3.624   4.928
 9173SOL    HW228419   6.589   3.775   4.977
 9174SOL     OW28420   5.567   3.531   1.569
 9174SOL    HW128421   5.522   3.527   1.658
 9174SOL    HW228422   5.500   3.560   1.500
 9175SOL     OW28423   0.391   0.008   4.574
 9175SOL    HW128424   0.365   6.982   4.494
 9175SOL    HW228425   0.490   0.002   4.588
 9176SOL     OW28426   2.801   1.161   5.328
 9176SOL    HW128427   2.886   1.138   5.374
 9176SOL    HW228428   2.786   1.096   5.253
 9177SOL     OW28429   0.726   5.192   5.206
 9177SOL    HW128430   0.669   5.115   5.179
 9177SOL    HW228431   0.690   5.233   5.290
 9178SOL     OW28432   1.745   5.575   0.459
 9178SOL    HW128433   1.751   5.593   0.361
 9178SOL    HW228434   1.743   5.662   0.509
 9179SOL     OW28435   3.083   5.362   4.607
 9179SOL    HW128436   3.018   5.289   4.586
 9179SOL    HW228437   3.035   5.436   4.654
 9180SOL     OW28438   6.402   2.386   2.836
 9180SOL    HW128439   6.451   2.465   2.799
 9180SOL    HW228440   6.328   2.361   2.774
 9181SOL     OW28441   4.402   1.965   5.003
 9181SOL    HW128442   4.388   2.062   5.024
 9181SOL    HW228443   4.367   1.910   5.079
 9182SOL     OW28444   2.296   6.970   2.245
 9182SOL    HW128445   2.291   6.940   2.150
 9182SOL    HW228446   2.338   6.899   2.301
 9183SOL     OW28447   4.844   5.677   0.984
 9183SOL    HW128448   4.862   5.749   0.917
 9183SOL    HW228449   4.804   5.718   1.066
 9184SOL     OW28450   4.887   1.479   0.773
 9184SOL    HW128451   4.977   1.443   0.746
 9184SOL    HW228452   4.832   1.496   0.691
 9185SOL     OW28453   4.352   6.740   4.654
 9185SOL    HW128454   4.404   6.695   4.581
 9185SOL    HW228455   4.375   6.699   4.742
 9186SOL     OW28456   5.825   6.143   4.367
 9186SOL    HW128457   5.817   6.234   4.408
 9186SOL    HW228458   5.901   6.094   4.409
 9187SOL     OW28459   2.825   1.717   0.612
 9187SOL    HW128460   2.845   1.623   0.585
 9187SOL    HW228461   2.797   1.718   0.708
 9188SOL     OW28462   1.418   6.955   1.528
 9188SOL    HW128463   1.479   7.018   1.576
 9188SOL    HW228464   1.426   6.864   1.569
 9189SOL     OW28465   4.594   5.960   1.569
 9189SOL    HW128466   4.645   6.039   1.602
 9189SOL    HW228467   4.507   5.990   1.530
 9190SOL     OW28468   2.729   4.534   6.230
 9190SOL    HW128469   2.665   4.500   6.299
 9190SOL    HW228470   2.724   4.633   6.225
 9191SOL     OW28471   6.818   2.482   5.402
 9191SOL    HW128472   6.881   2.486   5.323
 9191SOL    HW228473   6.726   2.463   5.370
 9192SOL     OW28474   0.684   3.322   6.047
 9192SOL    HW128475   0.728   3.249   6.100
 9192SOL    HW228476   0.743   3.347   5.970
 9193SOL     OW28477   4.735   4.362   0.104
 9193SOL    HW128478   4.756   4.359   0.006
 9193SOL    HW228479   4.781   4.286   0.150
 9194SOL     OW28480   2.974   0.516   3.689
 9194SOL    HW128481   3.003   0.421   3.677
 9194SOL    HW228482   2.942   0.551   3.601
 9195SOL     OW28483   1.718   1.564   3.768
 9195SOL    HW128484   1.673   1.635   3.822
 9195SOL    HW228485   1.798   1.601   3.723
 9196SOL     OW28486   4.669   6.778   2.630
 9196SOL    HW128487   4.695   6.840   2.703
 9196SOL    HW228488   4.739   6.707   2.620
 9197SOL     OW28489   1.751   5.249   1.797
 9197SOL    HW128490   1.812   5.189   1.746
 9197SOL    HW228491   1.735   5.333   1.745
 9198SOL     OW28492   6.718   4.908   7.015
 9198SOL    HW128493   6.628   4.918   0.031
 9198SOL    HW228494   6.721   4.963   6.932
 9199SOL     OW28495   0.962   4.357   6.292
 9199SOL    HW128496   0.947   4.372   6.389
 9199SOL    HW228497   1.039   4.413   6.261
 9200SOL     OW28498   2.620   6.618   6.787
 9200SOL    HW128499   2.694   6.556   6.763
 9200SOL    HW228500   2.571   6.646   6.704
 9201SOL     OW28501   0.381   2.501   0.840
 9201SOL    HW128502   0.424   2.418   0.875
 9201SOL    HW228503   0.423   2.581   0.883
 9202SOL     OW28504   1.326   6.718   2.216
 9202SOL    HW128505   1.376   6.644   2.170
 9202SOL    HW228506   1.229   6.710   2.196
 9203SOL     OW28507   0.887   3.875   6.741
 9203SOL    HW128508   0.978   3.833   6.739
 9203SOL    HW228509   0.818   3.808   6.714
 9204SOL     OW28510   4.924   2.772   6.142
 9204SOL    HW128511   4.871   2.692   6.115
 9204SOL    HW228512   4.921   2.840   6.069
 9205SOL     OW28513   6.202   4.630   3.088
 9205SOL    HW128514   6.234   4.665   3.176
 9205SOL    HW228515   6.104   4.610   3.093
 9206SOL     OW28516   3.969   5.619   3.020
 9206SOL    HW128517   4.001   5.713   3.008
 9206SOL    HW228518   3.996   5.585   3.110
 9207SOL     OW28519   5.315   4.160   5.969
 9207SOL    HW128520   5.305   4.067   5.934
 9207SOL    HW228521   5.234   4.214   5.945
 9208SOL     OW28522   5.749   4.266   3.746
 9208SOL    HW128523   5.789   4.291   3.834
 9208SOL    HW228524   5.687   4.338   3.715
 9209SOL     OW28525   4.056   0.696   6.842
 9209SOL    HW128526   4.037   0.600   6.861
 9209SOL    HW228527   3.986   0.754   6.884
 9210SOL     OW28528   0.074   0.873   2.693
 9210SOL    HW128529   0.162   0.869   2.644
 9210SOL    HW228530   0.011   0.807   2.653
 9211SOL     OW28531   0.475   2.246   6.121
 9211SOL    HW128532   0.572   2.270   6.118
 9211SOL    HW228533   0.461   2.173   6.188
 9212SOL     OW28534   5.492   5.332   4.056
 9212SOL    HW128535   5.566   5.265   4.043
 9212SOL    HW228536   5.524   5.406   4.114
 9213SOL     OW28537   5.121   3.609   5.631
 9213SOL    HW128538   5.050   3.542   5.655
 9213SOL    HW228539   5.176   3.629   5.711
 9214SOL     OW28540   6.551   3.331   6.800
 9214SOL    HW128541   6.517   3.262   6.863
 9214SOL    HW228542   6.644   3.357   6.826
 9215SOL     OW28543   0.989   2.447   1.296
 9215SOL    HW128544   0.923   2.462   1.370
 9215SOL    HW228545   0.948   2.387   1.227
 9216SOL     OW28546   2.948   0.523   2.168
 9216SOL    HW128547   2.874   0.487   2.112
 9216SOL    HW228548   3.020   0.454   2.176
 9217SOL     OW28549   0.529   2.475   0.225
 9217SOL    HW128550   0.493   2.439   0.139
 9217SOL    HW228551   0.597   2.413   0.262
 9218SOL     OW28552   2.038   6.919   0.284
 9218SOL    HW128553   2.055   6.992   0.350
 9218SOL    HW228554   1.962   6.946   0.224
 9219SOL     OW28555   6.352   2.877   1.250
 9219SOL    HW128556   6.416   2.916   1.183
 9219SOL    HW228557   6.404   2.824   1.318
 9220SOL     OW28558   1.634   6.597   1.484
 9220SOL    HW128559   1.612   6.502   1.462
 9220SOL    HW228560   1.672   6.642   1.404
 9221SOL     OW28561   3.227   0.709   3.171
 9221SOL    HW128562   3.191   0.710   3.077
 9221SOL    HW228563   3.187   0.632   3.221
 9222SOL     OW28564   1.746   6.931   6.135
 9222SOL    HW128565   1.792   6.842   6.131
 9222SOL    HW228566   1.802   6.999   6.087
 9223SOL     OW28567   0.742   1.079   3.856
 9223SOL    HW128568   0.790   1.161   3.825
 9223SOL    HW228569   0.652   1.105   3.892
 9224SOL     OW28570   1.541   4.742   5.135
 9224SOL    HW128571   1.503   4.672   5.195
 9224SOL    HW228572   1.485   4.748   5.052
 9225SOL     OW28573   3.087   6.763   5.650
 9225SOL    HW128574   3.047   6.792   5.563
 9225SOL    HW228575   3.147   6.685   5.634
 9226SOL     OW28576   5.909   6.411   1.019
 9226SOL    HW128577   5.970   6.466   0.962
 9226SOL    HW228578   5.948   6.403   1.111
 9227SOL     OW28579   0.922   5.256   0.537
 9227SOL    HW128580   0.884   5.345   0.559
 9227SOL    HW228581   0.985   5.265   0.459
 9228SOL     OW28582   1.435   1.629   5.502
 9228SOL    HW128583   1.343   1.594   5.523
 9228SOL    HW228584   1.431   1.687   5.421
 9229SOL     OW28585   0.512   5.859   4.977
 9229SOL    HW128586   0.586   5.924   4.996
 9229SOL    HW228587   0.551   5.770   4.956
 9230SOL     OW28588   4.436   1.431   3.491
 9230SOL    HW128589   4.478   1.519   3.510
 9230SOL    HW228590   4.440   1.412   3.393
 9231SOL     OW28591   0.401   4.282   4.553
 9231SOL    HW128592   0.470   4.262   4.623
 9231SOL    HW228593   0.430   4.362   4.500
 9232SOL     OW28594   3.771   4.967   0.368
 9232SOL    HW128595   3.832   4.898   0.328
 9232SOL    HW228596   3.731   5.022   0.294
 9233SOL     OW28597   5.697   5.310   1.825
 9233SOL    HW128598   5.748   5.247   1.766
 9233SOL    HW228599   5.653   5.380   1.768
 9234SOL     OW28600   3.659   6.077   5.859
 9234SOL    HW128601   3.752   6.047   5.884
 9234SOL    HW228602   3.632   6.154   5.917
 9235SOL     OW28603   1.662   3.395   3.011
 9235SOL    HW128604   1.718   3.324   3.053
 9235SOL    HW228605   1.706   3.427   2.927
 9236SOL     OW28606   2.756   4.206   5.516
 9236SOL    HW128607   2.692   4.247   5.580
 9236SOL    HW228608   2.761   4.261   5.433
 9237SOL     OW28609   1.950   5.629   4.591
 9237SOL    HW128610   1.884   5.675   4.651
 9237SOL    HW228611   1.957   5.533   4.617
 9238SOL     OW28612   3.490   1.569   7.026
 9238SOL    HW128613   3.513   1.618   0.081
 9238SOL    HW228614   3.391   1.556   7.021
 9239SOL     OW28615   6.529   4.483   0.649
 9239SOL    HW128616   6.622   4.480   0.613
 9239SOL    HW228617   6.465   4.498   0.574
 9240SOL     OW28618   4.909   1.653   1.181
 9240SOL    HW128619   4.845   1.627   1.109
 9240SOL    HW228620   4.974   1.721   1.145
 9241SOL     OW28621   0.713   4.826   5.690
 9241SOL    HW128622   0.661   4.747   5.657
 9241SOL    HW228623   0.751   4.876   5.612
 9242SOL     OW28624   0.454   5.409   0.386
 9242SOL    HW128625   0.470   5.500   0.425
 9242SOL    HW228626   0.469   5.411   0.287
 9243SOL     OW28627   5.906   6.636   1.653
 9243SOL    HW128628   5.872   6.655   1.561
 9243SOL    HW228629   6.005   6.652   1.656
 9244SOL     OW28630   4.137   5.502   6.703
 9244SOL    HW128631   4.186   5.581   6.666
 9244SOL    HW228632   4.127   5.432   6.633
 9245SOL     OW28633   1.447   5.079   3.264
 9245SOL    HW128634   1.528   5.080   3.205
 9245SOL    HW228635   1.431   4.986   3.297
 9246SOL     OW28636   0.119   5.033   2.750
 9246SOL    HW128637   0.118   5.068   2.843
 9246SOL    HW228638   0.026   5.035   2.713
 9247SOL     OW28639   1.201   6.719   3.060
 9247SOL    HW128640   1.181   6.781   2.985
 9247SOL    HW228641   1.233   6.631   3.023
 9248SOL     OW28642   1.636   2.340   4.780
 9248SOL    HW128643   1.576   2.420   4.773
 9248SOL    HW228644   1.593   2.271   4.838
 9249SOL     OW28645   4.859   4.211   6.915
 9249SOL    HW128646   4.925   4.203   6.990
 9249SOL    HW228647   4.805   4.127   6.908
 9250SOL     OW28648   5.789   3.140   4.654
 9250SOL    HW128649   5.699   3.098   4.650
 9250SOL    HW228650   5.785   3.232   4.616
 9251SOL     OW28651   4.156   2.071   3.157
 9251SOL    HW128652   4.216   2.151   3.156
 9251SOL    HW228653   4.211   1.988   3.169
 9252SOL     OW28654   5.680   0.178   4.301
 9252SOL    HW128655   5.691   0.108   4.371
 9252SOL    HW228656   5.620   0.145   4.229
 9253SOL     OW28657   6.139   6.333   5.885
 9253SOL    HW128658   6.119   6.389   5.805
 9253SOL    HW228659   6.101   6.241   5.873
 9254SOL     OW28660   6.342   4.432   2.876
 9254SOL    HW128661   6.317   4.336   2.865
 9254SOL    HW228662   6.311   4.464   2.966
 9255SOL     OW28663   4.404   3.800   0.558
 9255SOL    HW128664   4.454   3.740   0.621
 9255SOL    HW228665   4.467   3.866   0.519
 9256SOL     OW28666   4.121   6.476   2.612
 9256SOL    HW128667   4.095   6.532   2.690
 9256SOL    HW228668   4.039   6.446   2.564
 9257SOL     OW28669   1.047   4.061   3.063
 9257SOL    HW128670   0.964   4.007   3.075
 9257SOL    HW228671   1.036   4.125   2.987
 9258SOL     OW28672   3.091   3.384   3.729
 9258SOL    HW128673   3.042   3.323   3.667
 9258SOL    HW228674   3.186   3.355   3.738
 9259SOL     OW28675   1.190   2.558   0.145
 9259SOL    HW128676   1.102   2.570   0.192
 9259SOL    HW228677   1.264   2.556   0.211
 9260SOL     OW28678   5.007   1.722   5.430
 9260SOL    HW128679   5.038   1.670   5.351
 9260SOL    HW228680   5.078   1.786   5.459
 9261SOL     OW28681   4.533   0.721   6.269
 9261SOL    HW128682   4.584   0.797   6.229
 9261SOL    HW228683   4.444   0.754   6.302
 9262SOL     OW28684   0.185   3.285   5.719
 9262SOL    HW128685   0.251   3.284   5.643
 9262SOL    HW228686   0.123   3.208   5.710
 9263SOL     OW28687   5.897   5.163   1.677
 9263SOL    HW128688   5.922   5.254   1.644
 9263SOL    HW228689   5.855   5.111   1.603
 9264SOL     OW28690   5.688   4.089   0.239
 9264SOL    HW128691   5.737   4.005   0.216
 9264SOL    HW228692   5.743   4.144   0.302
 9265SOL     OW28693   3.216   1.882   6.701
 9265SOL    HW128694   3.315   1.892   6.698
 9265SOL    HW228695   3.175   1.938   6.629
 9266SOL     OW28696   2.088   6.541   2.121
 9266SOL    HW128697   2.137   6.627   2.133
 9266SOL    HW228698   2.143   6.466   2.157
 9267SOL     OW28699   0.544   3.756   5.618
 9267SOL    HW128700   0.509   3.803   5.699
 9267SOL    HW228701   0.634   3.793   5.594
 9268SOL     OW28702   1.447   4.714   1.447
 9268SOL    HW128703   1.361   4.720   1.498
 9268SOL    HW228704   1.445   4.632   1.389
 9269SOL     OW28705   3.180   1.720   5.838
 9269SOL    HW128706   3.095   1.694   5.790
 9269SOL    HW228707   3.208   1.645   5.899
 9270SOL     OW28708   4.575   6.723   6.052
 9270SOL    HW128709   4.569   6.673   6.138
 9270SOL    HW228710   4.619   6.811   6.067
 9271SOL     OW28711   1.372   6.135   6.644
 9271SOL    HW128712   1.417   6.111   6.730
 9271SOL    HW228713   1.296   6.072   6.628
 9272SOL     OW28714   1.637   5.303   5.376
 9272SOL    HW128715   1.662   5.244   5.299
 9272SOL    HW228716   1.720   5.330   5.426
 9273SOL     OW28717   5.371   5.988   3.656
 9273SOL    HW128718   5.412   5.924   3.721
 9273SOL    HW228719   5.272   5.973   3.654
 9274SOL     OW28720   6.584   2.700   0.397
 9274SOL    HW128721   6.651   2.660   0.335
 9274SOL    HW228722   6.631   2.748   0.471
 9275SOL     OW28723   6.959   2.168   0.150
 9275SOL    HW128724   0.022   2.193   0.182
 9275SOL    HW228725   6.936   2.077   0.185
 9276SOL     OW28726   1.904   4.531   2.561
 9276SOL    HW128727   1.864   4.443   2.583
 9276SOL    HW228728   1.937   4.530   2.467
 9277SOL     OW28729   5.546   3.014   0.641
 9277SOL    HW128730   5.569   2.966   0.726
 9277SOL    HW228731   5.497   2.951   0.580
 9278SOL     OW28732   1.346   0.388   5.367
 9278SOL    HW128733   1.316   0.311   5.311
 9278SOL    HW228734   1.269   0.450   5.382
 9279SOL     OW28735   4.720   0.553   2.047
 9279SOL    HW128736   4.685   0.559   1.954
 9279SOL    HW228737   4.799   0.491   2.049
 9280SOL     OW28738   1.370   1.286   2.534
 9280SOL    HW128739   1.312   1.358   2.497
 9280SOL    HW228740   1.345   1.199   2.492
 9281SOL     OW28741   2.896   4.625   1.076
 9281SOL    HW128742   2.915   4.723   1.077
 9281SOL    HW228743   2.906   4.588   1.169
 9282SOL     OW28744   5.080   1.328   4.983
 9282SOL    HW128745   5.113   1.342   5.076
 9282SOL    HW228746   5.154   1.291   4.927
 9283SOL     OW28747   5.793   0.300   3.693
 9283SOL    HW128748   5.880   0.263   3.661
 9283SOL    HW228749   5.783   0.283   3.791
 9284SOL     OW28750   3.222   4.661   5.843
 9284SOL    HW128751   3.202   4.574   5.799
 9284SOL    HW228752   3.286   4.713   5.787
 9285SOL     OW28753   5.133   2.720   1.157
 9285SOL    HW128754   5.052   2.776   1.144
 9285SOL    HW228755   5.133   2.682   1.250
 9286SOL     OW28756   5.319   6.842   6.686
 9286SOL    HW128757   5.370   6.816   6.604
 9286SOL    HW228758   5.344   6.935   6.713
 9287SOL     OW28759   3.268   5.399   0.056
 9287SOL    HW128760   3.232   5.314   0.018
 9287SOL    HW228761   3.367   5.391   0.068
 9288SOL     OW28762   3.754   1.417   4.007
 9288SOL    HW128763   3.779   1.325   3.978
 9288SOL    HW228764   3.821   1.451   4.073
 9289SOL     OW28765   3.344   1.856   2.550
 9289SOL    HW128766   3.256   1.811   2.562
 9289SOL    HW228767   3.418   1.793   2.572
 9290SOL     OW28768   4.654   1.730   3.749
 9290SOL    HW128769   4.615   1.704   3.660
 9290SOL    HW228770   4.592   1.794   3.795
 9291SOL     OW28771   2.128   6.998   4.043
 9291SOL    HW128772   2.056   0.007   3.983
 9291SOL    HW228773   2.116   0.007   4.135
 9292SOL     OW28774   0.861   3.323   6.683
 9292SOL    HW128775   0.849   3.406   6.737
 9292SOL    HW228776   0.775   3.273   6.677
 9293SOL     OW28777   5.583   4.290   7.027
 9293SOL    HW128778   5.605   4.197   0.026
 9293SOL    HW228779   5.667   4.344   7.022
 9294SOL     OW28780   3.401   6.833   4.881
 9294SOL    HW128781   3.360   6.913   4.837
 9294SOL    HW228782   3.374   6.750   4.831
 9295SOL     OW28783   5.270   2.544   4.444
 9295SOL    HW128784   5.239   2.486   4.519
 9295SOL    HW228785   5.221   2.631   4.447
 9296SOL     OW28786   0.587   6.921   6.584
 9296SOL    HW128787   0.614   6.860   6.510
 9296SOL    HW228788   0.668   6.957   6.629
 9297SOL     OW28789   6.180   1.439   0.527
 9297SOL    HW128790   6.214   1.531   0.548
 9297SOL    HW228791   6.089   1.427   0.567
 9298SOL     OW28792   1.684   0.535   4.634
 9298SOL    HW128793   1.711   0.530   4.730
 9298SOL    HW228794   1.743   0.600   4.586
 9299SOL     OW28795   0.739   2.201   4.405
 9299SOL    HW128796   0.695   2.260   4.337
 9299SOL    HW228797   0.836   2.221   4.409
 9300SOL     OW28798   0.942   4.435   5.867
 9300SOL    HW128799   0.885   4.515   5.849
 9300SOL    HW228800   1.031   4.447   5.823
 9301SOL     OW28801   5.248   4.180   3.513
 9301SOL    HW128802   5.222   4.274   3.533
 9301SOL    HW228803   5.281   4.173   3.418
 9302SOL     OW28804   2.185   2.881   4.620
 9302SOL    HW128805   2.156   2.928   4.704
 9302SOL    HW228806   2.232   2.796   4.644
 9303SOL     OW28807   3.852   5.637   0.284
 9303SOL    HW128808   3.770   5.650   0.340
 9303SOL    HW228809   3.922   5.590   0.338
 9304SOL     OW28810   4.714   4.374   2.212
 9304SOL    HW128811   4.807   4.383   2.177
 9304SOL    HW228812   4.655   4.334   2.141
 9305SOL     OW28813   3.681   1.207   1.923
 9305SOL    HW128814   3.753   1.206   1.853
 9305SOL    HW228815   3.713   1.158   2.004
 9306SOL     OW28816   0.442   4.762   5.083
 9306SOL    HW128817   0.540   4.745   5.074
 9306SOL    HW228818   0.397   4.682   5.123
 9307SOL     OW28819   1.035   3.541   1.111
 9307SOL    HW128820   0.941   3.577   1.104
 9307SOL    HW228821   1.040   3.454   1.063
 9308SOL     OW28822   1.769   4.113   0.854
 9308SOL    HW128823   1.758   4.073   0.763
 9308SOL    HW228824   1.850   4.076   0.898
 9309SOL     OW28825   3.741   4.871   5.683
 9309SOL    HW128826   3.754   4.835   5.775
 9309SOL    HW228827   3.645   4.862   5.656
 9310SOL     OW28828   4.552   5.233   5.915
 9310SOL    HW128829   4.542   5.315   5.971
 9310SOL    HW228830   4.627   5.177   5.950
 9311SOL     OW28831   4.301   5.004   1.974
 9311SOL    HW128832   4.326   4.908   1.958
 9311SOL    HW228833   4.382   5.061   1.963
 9312SOL     OW28834   1.390   3.051   1.290
 9312SOL    HW128835   1.443   2.979   1.336
 9312SOL    HW228836   1.452   3.121   1.254
 9313SOL     OW28837   0.039   0.439   1.014
 9313SOL    HW128838   7.020   0.509   0.960
 9313SOL    HW228839   0.128   0.420   0.973
 9314SOL     OW28840   4.700   6.271   6.313
 9314SOL    HW128841   4.648   6.335   6.257
 9314SOL    HW228842   4.797   6.291   6.305
 9315SOL     OW28843   6.311   1.044   5.236
 9315SOL    HW128844   6.351   1.032   5.327
 9315SOL    HW228845   6.378   1.018   5.166
 9316SOL     OW28846   4.680   5.986   5.247
 9316SOL    HW128847   4.691   5.983   5.346
 9316SOL    HW228848   4.623   6.064   5.222
 9317SOL     OW28849   6.544   4.897   3.378
 9317SOL    HW128850   6.481   4.889   3.454
 9317SOL    HW228851   6.504   4.954   3.306
 9318SOL     OW28852   6.286   0.550   5.875
 9318SOL    HW128853   6.193   0.571   5.903
 9318SOL    HW228854   6.310   0.603   5.794
 9319SOL     OW28855   1.147   2.924   0.505
 9319SOL    HW128856   1.092   2.862   0.560
 9319SOL    HW228857   1.088   2.996   0.468
 9320SOL     OW28858   3.488   1.028   5.948
 9320SOL    HW128859   3.480   1.021   6.047
 9320SOL    HW228860   3.573   1.076   5.925
 9321SOL     OW28861   6.014   6.902   3.294
 9321SOL    HW128862   5.973   6.812   3.313
 9321SOL    HW228863   6.113   6.892   3.285
 9322SOL     OW28864   1.094   4.729   6.828
 9322SOL    HW128865   1.088   4.742   6.729
 9322SOL    HW228866   1.108   4.818   6.872
 9323SOL     OW28867   1.298   0.608   5.052
 9323SOL    HW128868   1.205   0.640   5.034
 9323SOL    HW228869   1.362   0.658   4.994
 9324SOL     OW28870   1.525   4.636   0.606
 9324SOL    HW128871   1.444   4.628   0.663
 9324SOL    HW228872   1.606   4.640   0.665
 9325SOL     OW28873   4.838   0.875   6.632
 9325SOL    HW128874   4.816   0.887   6.535
 9325SOL    HW228875   4.765   0.824   6.677
 9326SOL     OW28876   1.832   6.368   0.813
 9326SOL    HW128877   1.926   6.354   0.783
 9326SOL    HW228878   1.823   6.459   0.853
 9327SOL     OW28879   5.043   6.682   2.812
 9327SOL    HW128880   5.043   6.622   2.892
 9327SOL    HW228881   4.977   6.648   2.745
 9328SOL     OW28882   3.321   0.687   5.689
 9328SOL    HW128883   3.327   0.697   5.589
 9328SOL    HW228884   3.392   0.742   5.733
 9329SOL     OW28885   6.030   4.066   1.688
 9329SOL    HW128886   6.122   4.032   1.710
 9329SOL    HW228887   5.966   3.989   1.685
 9330SOL     OW28888   6.544   6.785   6.853
 9330SOL    HW128889   6.603   6.790   6.773
 9330SOL    HW228890   6.595   6.745   6.930
 9331SOL     OW28891   1.453   1.054   6.526
 9331SOL    HW128892   1.474   1.127   6.591
 9331SOL    HW228893   1.364   1.070   6.485
 9332SOL     OW28894   4.197   4.141   1.733
 9332SOL    HW128895   4.272   4.184   1.784
 9332SOL    HW228896   4.160   4.066   1.787
 9333SOL     OW28897   4.365   4.033   1.509
 9333SOL    HW128898   4.347   4.078   1.422
 9333SOL    HW228899   4.309   4.076   1.581
 9334SOL     OW28900   5.481   5.800   3.869
 9334SOL    HW128901   5.401   5.854   3.897
 9334SOL    HW228902   5.564   5.854   3.879
 9335SOL     OW28903   0.912   1.203   6.135
 9335SOL    HW128904   0.892   1.300   6.150
 9335SOL    HW228905   0.848   1.147   6.188
 9336SOL     OW28906   2.668   5.028   5.433
 9336SOL    HW128907   2.650   4.948   5.491
 9336SOL    HW228908   2.607   5.102   5.460
 9337SOL     OW28909   5.307   1.638   4.024
 9337SOL    HW128910   5.224   1.677   3.985
 9337SOL    HW228911   5.366   1.605   3.950
 9338SOL     OW28912   4.160   0.437   1.829
 9338SOL    HW128913   4.148   0.366   1.760
 9338SOL    HW228914   4.073   0.453   1.876
 9339SOL     OW28915   5.546   0.316   1.540
 9339SOL    HW128916   5.643   0.302   1.561
 9339SOL    HW228917   5.525   0.414   1.549
 9340SOL     OW28918   5.443   3.476   4.208
 9340SOL    HW128919   5.358   3.424   4.212
 9340SOL    HW228920   5.489   3.457   4.121
 9341SOL     OW28921   0.016   5.841   0.592
 9341SOL    HW128922   0.013   5.835   0.492
 9341SOL    HW228923   0.112   5.837   0.622
 9342SOL     OW28924   1.585   0.032   3.441
 9342SOL    HW128925   1.618   0.094   3.512
 9342SOL    HW228926   1.629   6.971   3.450
 9343SOL     OW28927   6.076   4.059   2.444
 9343SOL    HW128928   6.062   3.983   2.380
 9343SOL    HW228929   6.021   4.137   2.415
 9344SOL     OW28930   4.561   6.156   2.054
 9344SOL    HW128931   4.523   6.246   2.034
 9344SOL    HW228932   4.660   6.164   2.065
 9345SOL     OW28933   6.444   4.260   2.220
 9345SOL    HW128934   6.432   4.230   2.315
 9345SOL    HW228935   6.357   4.253   2.171
 9346SOL     OW28936   6.372   1.038   1.167
 9346SOL    HW128937   6.314   0.957   1.164
 9346SOL    HW228938   6.348   1.093   1.247
 9347SOL     OW28939   0.984   3.678   0.590
 9347SOL    HW128940   1.027   3.687   0.501
 9347SOL    HW228941   1.000   3.586   0.626
 9348SOL     OW28942   3.613   5.944   2.257
 9348SOL    HW128943   3.572   5.932   2.167
 9348SOL    HW228944   3.601   5.861   2.311
 9349SOL     OW28945   0.737   6.293   3.054
 9349SOL    HW128946   0.728   6.197   3.080
 9349SOL    HW228947   0.793   6.341   3.122
 9350SOL     OW28948   0.211   3.626   5.522
 9350SOL    HW128949   0.174   3.654   5.433
 9350SOL    HW228950   0.137   3.587   5.578
 9351SOL     OW28951   2.536   0.511   6.659
 9351SOL    HW128952   2.600   0.584   6.634
 9351SOL    HW228953   2.482   0.485   6.579
 9352SOL     OW28954   3.157   2.263   6.725
 9352SOL    HW128955   3.238   2.306   6.684
 9352SOL    HW228956   3.140   2.175   6.680
 9353SOL     OW28957   0.464   4.703   0.645
 9353SOL    HW128958   0.470   4.799   0.616
 9353SOL    HW228959   0.554   4.660   0.638
 9354SOL     OW28960   6.240   1.800   6.326
 9354SOL    HW128961   6.262   1.706   6.301
 9354SOL    HW228962   6.283   1.863   6.262
 9355SOL     OW28963   0.402   2.209   4.672
 9355SOL    HW128964   0.400   2.293   4.618
 9355SOL    HW228965   0.494   2.193   4.707
 9356SOL     OW28966   4.598   0.476   2.288
 9356SOL    HW128967   4.579   0.386   2.250
 9356SOL    HW228968   4.631   0.537   2.216
 9357SOL     OW28969   1.315   3.221   6.135
 9357SOL    HW128970   1.239   3.164   6.102
 9357SOL    HW228971   1.346   3.187   6.224
 9358SOL     OW28972   6.929   3.956   2.164
 9358SOL    HW128973   6.871   4.015   2.220
 9358SOL    HW228974   7.024   3.965   2.193
 9359SOL     OW28975   1.206   4.636   0.078
 9359SOL    HW128976   1.249   4.627   7.016
 9359SOL    HW228977   1.267   4.688   0.138
 9360SOL     OW28978   1.882   5.174   6.229
 9360SOL    HW128979   1.819   5.116   6.177
 9360SOL    HW228980   1.850   5.269   6.227
 9361SOL     OW28981   1.606   4.790   3.576
 9361SOL    HW128982   1.632   4.761   3.484
 9361SOL    HW228983   1.538   4.863   3.570
 9362SOL     OW28984   0.514   1.108   2.599
 9362SOL    HW128985   0.562   1.029   2.637
 9362SOL    HW228986   0.569   1.147   2.525
 9363SOL     OW28987   3.278   5.129   2.031
 9363SOL    HW128988   3.236   5.214   2.000
 9363SOL    HW228989   3.235   5.052   1.985
 9364SOL     OW28990   2.360   2.491   0.170
 9364SOL    HW128991   2.385   2.504   0.266
 9364SOL    HW228992   2.440   2.459   0.119
 9365SOL     OW28993   3.112   1.601   3.479
 9365SOL    HW128994   3.084   1.671   3.545
 9365SOL    HW228995   3.132   1.516   3.528
 9366SOL     OW28996   3.034   5.320   0.214
 9366SOL    HW128997   3.112   5.326   0.152
 9366SOL    HW228998   3.030   5.402   0.271
 9367SOL     OW28999   6.342   0.069   1.419
 9367SOL    HW129000   6.284   0.059   1.338
 9367SOL    HW229001   6.368   7.006   1.453
 9368SOL     OW29002   3.452   6.764   2.017
 9368SOL    HW129003   3.546   6.730   2.023
 9368SOL    HW229004   3.445   6.828   1.940
 9369SOL     OW29005   6.609   6.372   4.356
 9369SOL    HW129006   6.576   6.435   4.286
 9369SOL    HW229007   6.545   6.295   4.365
 9370SOL     OW29008   5.368   6.635   4.224
 9370SOL    HW129009   5.382   6.688   4.307
 9370SOL    HW229010   5.440   6.566   4.216
 9371SOL     OW29011   2.534   6.172   0.536
 9371SOL    HW129012   2.581   6.133   0.615
 9371SOL    HW229013   2.583   6.147   0.452
 9372SOL     OW29014   5.305   0.184   1.593
 9372SOL    HW129015   5.380   0.249   1.590
 9372SOL    HW229016   5.290   0.153   1.687
 9373SOL     OW29017   5.462   2.230   0.721
 9373SOL    HW129018   5.425   2.138   0.735
 9373SOL    HW229019   5.440   2.287   0.800
 9374SOL     OW29020   0.234   3.116   5.998
 9374SOL    HW129021   0.280   3.205   5.996
 9374SOL    HW229022   0.135   3.130   6.006
 9375SOL     OW29023   0.004   1.632   0.707
 9375SOL    HW129024   7.025   1.532   0.705
 9375SOL    HW229025   6.986   1.671   0.627
 9376SOL     OW29026   2.560   3.919   1.691
 9376SOL    HW129027   2.580   3.972   1.609
 9376SOL    HW229028   2.513   3.977   1.758
 9377SOL     OW29029   1.728   5.069   3.204
 9377SOL    HW129030   1.800   5.031   3.146
 9377SOL    HW229031   1.771   5.116   3.282
 9378SOL     OW29032   3.752   1.046   3.813
 9378SOL    HW129033   3.816   1.041   3.736
 9378SOL    HW229034   3.685   0.972   3.804
 9379SOL     OW29035   5.362   6.938   4.759
 9379SOL    HW129036   5.314   7.024   4.775
 9379SOL    HW229037   5.299   6.873   4.715
 9380SOL     OW29038   3.457   5.872   5.788
 9380SOL    HW129039   3.544   5.912   5.817
 9380SOL    HW229040   3.452   5.873   5.688
 9381SOL     OW29041   5.292   2.789   5.303
 9381SOL    HW129042   5.303   2.748   5.393
 9381SOL    HW229043   5.248   2.878   5.312
 9382SOL     OW29044   3.913   1.180   3.999
 9382SOL    HW129045   3.851   1.121   3.947
 9382SOL    HW229046   3.995   1.198   3.944
 9383SOL     OW29047   5.157   4.245   4.363
 9383SOL    HW129048   5.184   4.250   4.267
 9383SOL    HW229049   5.234   4.274   4.420
 9384SOL     OW29050   3.462   6.939   1.796
 9384SOL    HW129051   3.552   6.965   1.761
 9384SOL    HW229052   3.402   7.019   1.794
 9385SOL     OW29053   4.450   1.429   4.403
 9385SOL    HW129054   4.534   1.432   4.458
 9385SOL    HW229055   4.406   1.518   4.405
 9386SOL     OW29056   3.110   5.605   5.162
 9386SOL    HW129057   3.109   5.630   5.065
 9386SOL    HW229058   3.083   5.684   5.217
 9387SOL     OW29059   3.237   2.093   0.691
 9387SOL    HW129060   3.198   2.100   0.782
 9387SOL    HW229061   3.206   2.170   0.635
 9388SOL     OW29062   1.854   6.624   3.172
 9388SOL    HW129063   1.757   6.648   3.169
 9388SOL    HW229064   1.864   6.524   3.171
 9389SOL     OW29065   3.216   6.275   3.047
 9389SOL    HW129066   3.156   6.349   3.017
 9389SOL    HW229067   3.311   6.298   3.024
 9390SOL     OW29068   6.140   5.141   5.892
 9390SOL    HW129069   6.082   5.180   5.820
 9390SOL    HW229070   6.220   5.098   5.850
 9391SOL     OW29071   0.343   0.877   4.911
 9391SOL    HW129072   0.437   0.903   4.886
 9391SOL    HW229073   0.292   0.851   4.829
 9392SOL     OW29074   4.701   4.300   3.714
 9392SOL    HW129075   4.718   4.211   3.673
 9392SOL    HW229076   4.763   4.313   3.791
 9393SOL     OW29077   2.948   0.202   5.759
 9393SOL    HW129078   3.043   0.171   5.760
 9393SOL    HW229079   2.897   0.156   5.831
 9394SOL     OW29080   6.071   0.498   1.246
 9394SOL    HW129081   6.128   0.430   1.201
 9394SOL    HW229082   6.005   0.535   1.181
 9395SOL     OW29083   2.706   1.147   0.707
 9395SOL    HW129084   2.621   1.170   0.660
 9395SOL    HW229085   2.738   1.058   0.675
 9396SOL     OW29086   2.113   4.554   5.147
 9396SOL    HW129087   2.146   4.549   5.241
 9396SOL    HW229088   2.014   4.546   5.145
 9397SOL     OW29089   2.988   6.735   5.367
 9397SOL    HW129090   3.038   6.753   5.282
 9397SOL    HW229091   3.026   6.654   5.411
 9398SOL     OW29092   5.971   1.596   5.536
 9398SOL    HW129093   5.933   1.678   5.492
 9398SOL    HW229094   6.070   1.597   5.528
 9399SOL     OW29095   1.100   2.554   4.061
 9399SOL    HW129096   1.147   2.612   4.128
 9399SOL    HW229097   1.001   2.561   4.075
 9400SOL     OW29098   4.683   0.222   0.367
 9400SOL    HW129099   4.621   0.168   0.310
 9400SOL    HW229100   4.664   0.320   0.353
 9401SOL     OW29101   0.306   2.407   1.753
 9401SOL    HW129102   0.344   2.404   1.845
 9401SOL    HW229103   0.227   2.345   1.747
 9402SOL     OW29104   1.111   4.632   3.176
 9402SOL    HW129105   1.087   4.543   3.214
 9402SOL    HW229106   1.034   4.667   3.123
 9403SOL     OW29107   6.891   1.735   2.398
 9403SOL    HW129108   6.825   1.672   2.439
 9403SOL    HW229109   6.971   1.684   2.369
 9404SOL     OW29110   0.342   1.922   1.328
 9404SOL    HW129111   0.394   1.853   1.378
 9404SOL    HW229112   0.272   1.877   1.272
 9405SOL     OW29113   0.841   4.292   4.613
 9405SOL    HW129114   0.838   4.296   4.513
 9405SOL    HW229115   0.879   4.378   4.648
 9406SOL     OW29116   1.305   3.059   7.015
 9406SOL    HW129117   1.220   3.097   6.980
 9406SOL    HW229118   1.328   2.976   6.965
 9407SOL     OW29119   2.688   5.173   4.392
 9407SOL    HW129120   2.672   5.087   4.439
 9407SOL    HW229121   2.648   5.170   4.300
 9408SOL     OW29122   0.060   2.234   6.106
 9408SOL    HW129123   0.089   2.147   6.067
 9408SOL    HW229124   0.075   2.308   6.040
 9409SOL     OW29125   6.609   5.385   2.304
 9409SOL    HW129126   6.675   5.369   2.231
 9409SOL    HW229127   6.651   5.363   2.392
 9410SOL     OW29128   4.850   1.171   1.743
 9410SOL    HW129129   4.768   1.117   1.761
 9410SOL    HW229130   4.915   1.160   1.818
 9411SOL     OW29131   3.178   3.722   2.786
 9411SOL    HW129132   3.256   3.660   2.776
 9411SOL    HW229133   3.131   3.731   2.699
 9412SOL     OW29134   1.156   0.362   1.864
 9412SOL    HW129135   1.143   0.372   1.766
 9412SOL    HW229136   1.100   0.429   1.913
 9413SOL     OW29137   4.673   4.664   4.796
 9413SOL    HW129138   4.581   4.679   4.832
 9413SOL    HW229139   4.679   4.702   4.703
 9414SOL     OW29140   3.016   2.190   4.255
 9414SOL    HW129141   2.955   2.216   4.330
 9414SOL    HW229142   2.963   2.151   4.180
 9415SOL     OW29143   2.901   0.197   2.036
 9415SOL    HW129144   2.902   0.280   1.979
 9415SOL    HW229145   2.849   0.126   1.990
 9416SOL     OW29146   0.304   1.046   5.130
 9416SOL    HW129147   0.243   0.989   5.185
 9416SOL    HW229148   0.337   0.993   5.051
 9417SOL     OW29149   3.400   6.290   1.805
 9417SOL    HW129150   3.499   6.298   1.818
 9417SOL    HW229151   3.368   6.365   1.748
 9418SOL     OW29152   2.698   1.697   2.706
 9418SOL    HW129153   2.665   1.660   2.793
 9418SOL    HW229154   2.621   1.715   2.645
 9419SOL     OW29155   2.629   3.123   6.520
 9419SOL    HW129156   2.583   3.048   6.566
 9419SOL    HW229157   2.562   3.187   6.484
 9420SOL     OW29158   5.962   4.603   0.514
 9420SOL    HW129159   5.892   4.647   0.571
 9420SOL    HW229160   6.052   4.616   0.555
 9421SOL     OW29161   2.731   5.443   4.360
 9421SOL    HW129162   2.722   5.473   4.265
 9421SOL    HW229163   2.697   5.349   4.369
 9422SOL     OW29164   2.572   6.389   4.131
 9422SOL    HW129165   2.476   6.396   4.157
 9422SOL    HW229166   2.602   6.294   4.137
 9423SOL     OW29167   3.785   6.512   2.970
 9423SOL    HW129168   3.722   6.435   2.972
 9423SOL    HW229169   3.836   6.511   2.884
 9424SOL     OW29170   5.059   1.617   4.938
 9424SOL    HW129171   5.079   1.657   4.849
 9424SOL    HW229172   5.058   1.517   4.931
 9425SOL     OW29173   5.865   4.991   1.438
 9425SOL    HW129174   5.916   5.032   1.363
 9425SOL    HW229175   5.828   4.903   1.410
 9426SOL     OW29176   1.790   1.380   6.140
 9426SOL    HW129177   1.771   1.443   6.065
 9426SOL    HW229178   1.853   1.309   6.109
 9427SOL     OW29179   2.075   6.269   3.155
 9427SOL    HW129180   2.145   6.340   3.156
 9427SOL    HW229181   2.115   6.181   3.179
 9428SOL     OW29182   6.468   6.893   0.246
 9428SOL    HW129183   6.429   6.825   0.184
 9428SOL    HW229184   6.435   6.877   0.338
 9429SOL     OW29185   1.358   2.182   3.627
 9429SOL    HW129186   1.376   2.091   3.591
 9429SOL    HW229187   1.445   2.226   3.653
 9430SOL     OW29188   0.534   2.604   3.875
 9430SOL    HW129189   0.597   2.532   3.847
 9430SOL    HW229190   0.458   2.563   3.925
 9431SOL     OW29191   6.741   4.434   1.020
 9431SOL    HW129192   6.737   4.508   1.088
 9431SOL    HW229193   6.742   4.473   0.928
 9432SOL     OW29194   6.429   1.806   4.079
 9432SOL    HW129195   6.499   1.809   4.008
 9432SOL    HW229196   6.421   1.897   4.121
 9433SOL     OW29197   4.036   5.858   3.624
 9433SOL    HW129198   4.005   5.796   3.696
 9433SOL    HW229199   4.051   5.806   3.539
 9434SOL     OW29200   5.636   5.426   3.700
 9434SOL    HW129201   5.645   5.519   3.662
 9434SOL    HW229202   5.577   5.372   3.641
 9435SOL     OW29203   0.284   2.080   2.343
 9435SOL    HW129204   0.370   2.045   2.381
 9435SOL    HW229205   0.207   2.029   2.382
 9436SOL     OW29206   1.233   1.072   2.450
 9436SOL    HW129207   1.140   1.109   2.447
 9436SOL    HW229208   1.230   0.977   2.480
 9437SOL     OW29209   0.962   5.043   3.535
 9437SOL    HW129210   0.944   5.130   3.580
 9437SOL    HW229211   0.934   5.049   3.439
 9438SOL     OW29212   1.062   6.958   2.046
 9438SOL    HW129213   1.102   6.867   2.036
 9438SOL    HW229214   1.117   7.025   1.996
 9439SOL     OW29215   0.150   3.105   1.090
 9439SOL    HW129216   0.152   3.009   1.065
 9439SOL    HW229217   0.242   3.144   1.079
 9440SOL     OW29218   2.459   4.553   3.140
 9440SOL    HW129219   2.559   4.560   3.142
 9440SOL    HW229220   2.428   4.514   3.226
 9441SOL     OW29221   6.529   5.761   5.559
 9441SOL    HW129222   6.517   5.663   5.576
 9441SOL    HW229223   6.439   5.804   5.549
 9442SOL     OW29224   4.265   3.627   1.372
 9442SOL    HW129225   4.362   3.611   1.354
 9442SOL    HW229226   4.240   3.718   1.339
 9443SOL     OW29227   2.700   5.857   1.422
 9443SOL    HW129228   2.764   5.863   1.499
 9443SOL    HW229229   2.612   5.824   1.455
 9444SOL     OW29230   1.969   3.843   0.710
 9444SOL    HW129231   1.876   3.815   0.733
 9444SOL    HW229232   2.029   3.828   0.788
 9445SOL     OW29233   6.742   2.079   3.528
 9445SOL    HW129234   6.726   2.176   3.509
 9445SOL    HW229235   6.816   2.046   3.470
 9446SOL     OW29236   6.919   4.909   4.066
 9446SOL    HW129237   6.823   4.886   4.083
 9446SOL    HW229238   6.948   4.978   4.133
 9447SOL     OW29239   4.795   5.045   2.951
 9447SOL    HW129240   4.858   4.967   2.952
 9447SOL    HW229241   4.756   5.055   2.859
 9448SOL     OW29242   6.287   6.810   5.714
 9448SOL    HW129243   6.349   6.882   5.743
 9448SOL    HW229244   6.286   6.737   5.783
 9449SOL     OW29245   5.405   6.390   0.547
 9449SOL    HW129246   5.358   6.439   0.620
 9449SOL    HW229247   5.444   6.456   0.483
 9450SOL     OW29248   1.464   5.052   4.214
 9450SOL    HW129249   1.439   4.958   4.237
 9450SOL    HW229250   1.482   5.057   4.116
 9451SOL     OW29251   4.061   5.786   6.019
 9451SOL    HW129252   4.032   5.727   5.943
 9451SOL    HW229253   4.018   5.876   6.009
 9452SOL     OW29254   0.539   3.911   0.629
 9452SOL    HW129255   0.607   3.983   0.618
 9452SOL    HW229256   0.569   3.830   0.578
 9453SOL     OW29257   2.604   4.927   2.778
 9453SOL    HW129258   2.622   4.839   2.735
 9453SOL    HW229259   2.539   4.979   2.723
 9454SOL     OW29260   4.471   3.783   0.257
 9454SOL    HW129261   4.547   3.796   0.320
 9454SOL    HW229262   4.385   3.783   0.308
 9455SOL     OW29263   2.398   1.803   2.144
 9455SOL    HW129264   2.477   1.818   2.204
 9455SOL    HW229265   2.430   1.778   2.052
 9456SOL     OW29266   6.115   4.001   1.998
 9456SOL    HW129267   6.038   3.976   2.056
 9456SOL    HW229268   6.095   4.086   1.949
 9457SOL     OW29269   1.004   5.092   4.550
 9457SOL    HW129270   0.927   5.151   4.526
 9457SOL    HW229271   1.090   5.142   4.536
 9458SOL     OW29272   0.104   4.035   0.452
 9458SOL    HW129273   0.137   4.117   0.406
 9458SOL    HW229274   0.159   4.017   0.534
 9459SOL     OW29275   5.471   4.161   3.660
 9459SOL    HW129276   5.477   4.168   3.760
 9459SOL    HW229277   5.379   4.134   3.634
 9460SOL     OW29278   1.860   3.193   4.703
 9460SOL    HW129279   1.833   3.203   4.799
 9460SOL    HW229280   1.946   3.242   4.688
 9461SOL     OW29281   1.067   1.243   1.090
 9461SOL    HW129282   1.069   1.222   0.993
 9461SOL    HW229283   1.080   1.342   1.103
 9462SOL     OW29284   1.827   2.919   3.561
 9462SOL    HW129285   1.796   2.843   3.503
 9462SOL    HW229286   1.914   2.954   3.526
 9463SOL     OW29287   5.549   6.713   1.352
 9463SOL    HW129288   5.513   6.692   1.443
 9463SOL    HW229289   5.486   6.679   1.282
 9464SOL     OW29290   5.921   0.539   1.508
 9464SOL    HW129291   5.968   0.578   1.587
 9464SOL    HW229292   5.984   0.538   1.430
 9465SOL     OW29293   0.256   3.944   1.594
 9465SOL    HW129294   0.242   4.018   1.660
 9465SOL    HW229295   0.169   3.922   1.551
 9466SOL     OW29296   4.295   5.476   6.215
 9466SOL    HW129297   4.289   5.378   6.234
 9466SOL    HW229298   4.208   5.509   6.179
 9467SOL     OW29299   1.755   2.787   0.622
 9467SOL    HW129300   1.746   2.725   0.700
 9467SOL    HW229301   1.702   2.870   0.639
 9468SOL     OW29302   6.676   3.254   6.344
 9468SOL    HW129303   6.628   3.213   6.267
 9468SOL    HW229304   6.612   3.268   6.420
 9469SOL     OW29305   0.205   6.216   0.542
 9469SOL    HW129306   0.118   6.266   0.540
 9469SOL    HW229307   0.234   6.195   0.449
 9470SOL     OW29308   4.702   3.999   6.886
 9470SOL    HW129309   4.666   3.933   6.952
 9470SOL    HW229310   4.640   4.008   6.809
 9471SOL     OW29311   5.664   2.238   5.446
 9471SOL    HW129312   5.585   2.214   5.389
 9471SOL    HW229313   5.650   2.329   5.485
 9472SOL     OW29314   1.191   4.490   6.249
 9472SOL    HW129315   1.238   4.464   6.333
 9472SOL    HW229316   1.248   4.467   6.170
 9473SOL     OW29317   2.968   3.529   6.569
 9473SOL    HW129318   2.884   3.476   6.554
 9473SOL    HW229319   3.018   3.537   6.482
 9474SOL     OW29320   6.088   3.134   1.583
 9474SOL    HW129321   6.098   3.206   1.651
 9474SOL    HW229322   5.994   3.132   1.549
 9475SOL     OW29323   4.427   3.346   6.732
 9475SOL    HW129324   4.480   3.267   6.764
 9475SOL    HW229325   4.473   3.388   6.654
 9476SOL     OW29326   3.570   3.932   5.823
 9476SOL    HW129327   3.629   3.854   5.802
 9476SOL    HW229328   3.536   3.972   5.739
 9477SOL     OW29329   1.417   3.436   0.875
 9477SOL    HW129330   1.401   3.358   0.935
 9477SOL    HW229331   1.445   3.403   0.785
 9478SOL     OW29332   4.378   2.942   1.176
 9478SOL    HW129333   4.369   2.843   1.167
 9478SOL    HW229334   4.422   2.964   1.263
 9479SOL     OW29335   3.995   0.335   1.284
 9479SOL    HW129336   3.986   0.399   1.361
 9479SOL    HW229337   3.969   0.381   1.200
 9480SOL     OW29338   5.911   5.333   0.301
 9480SOL    HW129339   5.929   5.401   0.230
 9480SOL    HW229340   5.889   5.380   0.387
 9481SOL     OW29341   4.894   2.438   3.004
 9481SOL    HW129342   4.809   2.487   2.985
 9481SOL    HW229343   4.963   2.464   2.936
 9482SOL     OW29344   6.189   6.764   1.373
 9482SOL    HW129345   6.130   6.794   1.298
 9482SOL    HW229346   6.204   6.840   1.436
 9483SOL     OW29347   1.706   0.674   6.446
 9483SOL    HW129348   1.723   0.713   6.537
 9483SOL    HW229349   1.685   0.747   6.381
 9484SOL     OW29350   2.315   0.250   4.352
 9484SOL    HW129351   2.268   0.211   4.273
 9484SOL    HW229352   2.411   0.223   4.350
 9485SOL     OW29353   5.751   1.848   1.314
 9485SOL    HW129354   5.682   1.900   1.364
 9485SOL    HW229355   5.825   1.822   1.376
 9486SOL     OW29356   4.958   5.564   1.387
 9486SOL    HW129357   4.915   5.654   1.395
 9486SOL    HW229358   5.041   5.562   1.443
 9487SOL     OW29359   3.212   3.271   4.695
 9487SOL    HW129360   3.200   3.180   4.736
 9487SOL    HW229361   3.155   3.278   4.613
 9488SOL     OW29362   2.383   1.155   0.918
 9488SOL    HW129363   2.413   1.070   0.875
 9488SOL    HW229364   2.349   1.218   0.847
 9489SOL     OW29365   5.124   4.249   1.106
 9489SOL    HW129366   5.223   4.253   1.093
 9489SOL    HW229367   5.086   4.341   1.108
 9490SOL     OW29368   6.936   5.900   3.633
 9490SOL    HW129369   6.956   5.806   3.662
 9490SOL    HW229370   6.841   5.905   3.602
 9491SOL     OW29371   6.201   5.752   4.232
 9491SOL    HW129372   6.128   5.807   4.192
 9491SOL    HW229373   6.233   5.795   4.316
 9492SOL     OW29374   4.510   3.406   5.560
 9492SOL    HW129375   4.443   3.333   5.575
 9492SOL    HW229376   4.464   3.484   5.517
 9493SOL     OW29377   2.821   5.535   3.738
 9493SOL    HW129378   2.837   5.632   3.751
 9493SOL    HW229379   2.733   5.509   3.779
 9494SOL     OW29380   5.601   2.916   2.419
 9494SOL    HW129381   5.649   2.890   2.503
 9494SOL    HW229382   5.614   2.845   2.350
 9495SOL     OW29383   6.731   1.566   2.533
 9495SOL    HW129384   6.766   1.497   2.597
 9495SOL    HW229385   6.632   1.556   2.525
 9496SOL     OW29386   4.613   2.040   2.012
 9496SOL    HW129387   4.707   2.005   2.016
 9496SOL    HW229388   4.586   2.053   1.917
 9497SOL     OW29389   5.995   5.921   5.578
 9497SOL    HW129390   5.997   5.828   5.542
 9497SOL    HW229391   5.951   5.981   5.511
 9498SOL     OW29392   6.863   4.679   5.382
 9498SOL    HW129393   6.952   4.670   5.425
 9498SOL    HW229394   6.849   4.773   5.350
 9499SOL     OW29395   0.154   6.032   5.220
 9499SOL    HW129396   0.242   5.984   5.218
 9499SOL    HW229397   0.080   5.967   5.200
 9500SOL     OW29398   3.717   6.245   1.144
 9500SOL    HW129399   3.699   6.337   1.110
 9500SOL    HW229400   3.771   6.250   1.228
 9501SOL     OW29401   1.597   1.313   4.526
 9501SOL    HW129402   1.514   1.368   4.517
 9501SOL    HW229403   1.677   1.372   4.516
 9502SOL     OW29404   6.154   3.922   4.025
 9502SOL    HW129405   6.221   3.889   3.958
 9502SOL    HW229406   6.073   3.863   4.023
 9503SOL     OW29407   0.288   2.101   0.578
 9503SOL    HW129408   0.196   2.063   0.584
 9503SOL    HW229409   0.325   2.113   0.670
 9504SOL     OW29410   6.847   4.055   1.729
 9504SOL    HW129411   6.877   4.141   1.687
 9504SOL    HW229412   6.850   3.982   1.662
 9505SOL     OW29413   5.144   4.609   5.588
 9505SOL    HW129414   5.192   4.688   5.626
 9505SOL    HW229415   5.065   4.641   5.535
 9506SOL     OW29416   2.418   2.512   0.445
 9506SOL    HW129417   2.383   2.551   0.530
 9506SOL    HW229418   2.465   2.426   0.465
 9507SOL     OW29419   6.412   0.440   0.870
 9507SOL    HW129420   6.418   0.539   0.885
 9507SOL    HW229421   6.500   0.405   0.839
 9508SOL     OW29422   5.748   1.878   2.481
 9508SOL    HW129423   5.789   1.862   2.391
 9508SOL    HW229424   5.650   1.895   2.471
 9509SOL     OW29425   6.497   0.032   3.705
 9509SOL    HW129426   6.458   0.109   3.756
 9509SOL    HW229427   6.596   0.046   3.695
 9510SOL     OW29428   0.966   3.668   3.420
 9510SOL    HW129429   1.048   3.714   3.454
 9510SOL    HW229430   0.887   3.728   3.435
 9511SOL     OW29431   0.896   1.121   2.041
 9511SOL    HW129432   0.951   1.060   1.984
 9511SOL    HW229433   0.943   1.137   2.128
 9512SOL     OW29434   6.696   2.314   1.396
 9512SOL    HW129435   6.719   2.221   1.366
 9512SOL    HW229436   6.662   2.310   1.490
 9513SOL     OW29437   3.079   4.760   6.075
 9513SOL    HW129438   3.095   4.766   5.976
 9513SOL    HW229439   3.091   4.850   6.116
 9514SOL     OW29440   2.678   3.863   0.136
 9514SOL    HW129441   2.747   3.936   0.136
 9514SOL    HW229442   2.723   3.775   0.153
 9515SOL     OW29443   2.006   5.311   3.533
 9515SOL    HW129444   2.105   5.311   3.524
 9515SOL    HW229445   1.971   5.220   3.509
 9516SOL     OW29446   5.320   4.414   0.796
 9516SOL    HW129447   5.312   4.322   0.760
 9516SOL    HW229448   5.331   4.410   0.896
 9517SOL     OW29449   1.494   4.024   0.950
 9517SOL    HW129450   1.446   4.106   0.918
 9517SOL    HW229451   1.593   4.040   0.948
 9518SOL     OW29452   2.737   1.746   0.114
 9518SOL    HW129453   2.788   1.829   0.092
 9518SOL    HW229454   2.791   1.690   0.177
 9519SOL     OW29455   2.054   2.309   5.621
 9519SOL    HW129456   2.103   2.312   5.708
 9519SOL    HW229457   1.991   2.386   5.615
 9520SOL     OW29458   2.823   0.458   2.779
 9520SOL    HW129459   2.811   0.528   2.710
 9520SOL    HW229460   2.899   0.483   2.840
 9521SOL     OW29461   5.515   6.101   3.119
 9521SOL    HW129462   5.611   6.073   3.122
 9521SOL    HW229463   5.479   6.102   3.212
 9522SOL     OW29464   3.757   5.970   1.085
 9522SOL    HW129465   3.718   6.061   1.097
 9522SOL    HW229466   3.710   5.905   1.144
 9523SOL     OW29467   3.407   4.955   4.244
 9523SOL    HW129468   3.494   4.911   4.220
 9523SOL    HW229469   3.422   5.054   4.253
 9524SOL     OW29470   4.099   3.009   1.438
 9524SOL    HW129471   4.045   3.012   1.354
 9524SOL    HW229472   4.189   2.970   1.419
 9525SOL     OW29473   1.947   1.693   6.015
 9525SOL    HW129474   2.011   1.620   5.988
 9525SOL    HW229475   1.853   1.660   6.008
 9526SOL     OW29476   5.865   5.603   2.555
 9526SOL    HW129477   5.879   5.698   2.527
 9526SOL    HW229478   5.939   5.574   2.615
 9527SOL     OW29479   1.209   1.180   1.743
 9527SOL    HW129480   1.115   1.145   1.742
 9527SOL    HW229481   1.263   1.131   1.674
 9528SOL     OW29482   6.498   0.551   0.504
 9528SOL    HW129483   6.527   0.550   0.408
 9528SOL    HW229484   6.426   0.483   0.518
 9529SOL     OW29485   1.255   2.624   5.745
 9529SOL    HW129486   1.342   2.646   5.789
 9529SOL    HW229487   1.195   2.703   5.749
 9530SOL     OW29488   1.387   3.454   2.942
 9530SOL    HW129489   1.483   3.446   2.970
 9530SOL    HW229490   1.380   3.508   2.859
 9531SOL     OW29491   4.037   5.999   3.203
 9531SOL    HW129492   4.084   5.951   3.277
 9531SOL    HW229493   4.044   5.946   3.119
 9532SOL     OW29494   1.457   5.694   1.792
 9532SOL    HW129495   1.551   5.700   1.757
 9532SOL    HW229496   1.448   5.613   1.850
 9533SOL     OW29497   0.274   1.729   5.141
 9533SOL    HW129498   0.327   1.786   5.079
 9533SOL    HW229499   0.317   1.639   5.150
 9534SOL     OW29500   5.135   3.267   5.241
 9534SOL    HW129501   5.129   3.172   5.272
 9534SOL    HW229502   5.053   3.289   5.187
 9535SOL     OW29503   2.483   0.951   5.598
 9535SOL    HW129504   2.447   0.937   5.505
 9535SOL    HW229505   2.511   0.863   5.636
 9536SOL     OW29506   2.279   5.776   5.667
 9536SOL    HW129507   2.276   5.760   5.568
 9536SOL    HW229508   2.367   5.745   5.703
 9537SOL     OW29509   3.219   1.022   2.709
 9537SOL    HW129510   3.165   0.938   2.701
 9537SOL    HW229511   3.162   1.100   2.684
 9538SOL     OW29512   6.652   1.122   4.384
 9538SOL    HW129513   6.666   1.098   4.288
 9538SOL    HW229514   6.712   1.066   4.441
 9539SOL     OW29515   2.145   4.551   6.082
 9539SOL    HW129516   2.163   4.620   6.152
 9539SOL    HW229517   2.197   4.468   6.104
 9540SOL     OW29518   4.619   4.278   5.425
 9540SOL    HW129519   4.713   4.249   5.409
 9540SOL    HW229520   4.618   4.356   5.487
 9541SOL     OW29521   1.870   1.991   4.924
 9541SOL    HW129522   1.907   1.967   4.834
 9541SOL    HW229523   1.858   1.908   4.978
 9542SOL     OW29524   4.939   3.352   5.077
 9542SOL    HW129525   4.885   3.435   5.066
 9542SOL    HW229526   4.896   3.277   5.028
 9543SOL     OW29527   4.655   0.595   4.877
 9543SOL    HW129528   4.603   0.560   4.799
 9543SOL    HW229529   4.604   0.576   4.962
 9544SOL     OW29530   5.850   0.340   2.137
 9544SOL    HW129531   5.777   0.288   2.092
 9544SOL    HW229532   5.827   0.437   2.136
 9545SOL     OW29533   6.394   6.414   3.111
 9545SOL    HW129534   6.469   6.349   3.127
 9545SOL    HW229535   6.422   6.480   3.041
 9546SOL     OW29536   3.153   3.760   6.411
 9546SOL    HW129537   3.081   3.813   6.367
 9546SOL    HW229538   3.139   3.761   6.510
 9547SOL     OW29539   2.107   6.557   4.259
 9547SOL    HW129540   2.057   6.626   4.311
 9547SOL    HW229541   2.191   6.596   4.223
 9548SOL     OW29542   6.145   5.243   5.010
 9548SOL    HW129543   6.121   5.151   4.976
 9548SOL    HW229544   6.199   5.235   5.093
 9549SOL     OW29545   3.587   5.368   1.223
 9549SOL    HW129546   3.681   5.371   1.190
 9549SOL    HW229547   3.579   5.423   1.306
 9550SOL     OW29548   0.149   1.581   6.827
 9550SOL    HW129549   0.075   1.643   6.802
 9550SOL    HW229550   0.111   1.503   6.876
 9551SOL     OW29551   0.246   0.195   5.035
 9551SOL    HW129552   0.273   0.282   4.994
 9551SOL    HW229553   0.146   0.189   5.037
 9552SOL     OW29554   1.310   6.676   3.340
 9552SOL    HW129555   1.303   6.729   3.425
 9552SOL    HW229556   1.277   6.732   3.264
 9553SOL     OW29557   6.400   4.937   0.115
 9553SOL    HW129558   6.364   5.030   0.110
 9553SOL    HW229559   6.332   4.873   0.081
 9554SOL     OW29560   2.945   0.684   1.767
 9554SOL    HW129561   2.889   0.659   1.845
 9554SOL    HW229562   2.973   0.780   1.774
 9555SOL     OW29563   6.499   2.377   1.181
 9555SOL    HW129564   6.579   2.419   1.224
 9555SOL    HW229565   6.467   2.434   1.105
 9556SOL     OW29566   2.818   1.558   1.264
 9556SOL    HW129567   2.763   1.641   1.265
 9556SOL    HW229568   2.814   1.514   1.354
 9557SOL     OW29569   6.171   0.138   2.717
 9557SOL    HW129570   6.092   0.077   2.713
 9557SOL    HW229571   6.141   0.232   2.703
 9558SOL     OW29572   0.135   5.111   3.017
 9558SOL    HW129573   0.141   5.055   3.100
 9558SOL    HW229574   0.225   5.148   2.995
 9559SOL     OW29575   0.534   4.009   1.917
 9559SOL    HW129576   0.545   3.916   1.881
 9559SOL    HW229577   0.620   4.039   1.958
 9560SOL     OW29578   2.505   1.496   2.472
 9560SOL    HW129579   2.526   1.590   2.446
 9560SOL    HW229580   2.583   1.458   2.521
 9561SOL     OW29581   2.980   6.420   0.539
 9561SOL    HW129582   2.903   6.472   0.577
 9561SOL    HW229583   3.066   6.456   0.576
 9562SOL     OW29584   4.032   5.238   4.130
 9562SOL    HW129585   4.097   5.307   4.161
 9562SOL    HW229586   3.939   5.268   4.151
 9563SOL     OW29587   6.884   6.630   6.887
 9563SOL    HW129588   6.881   6.589   6.796
 9563SOL    HW229589   6.870   6.729   6.879
 9564SOL     OW29590   2.998   6.839   6.132
 9564SOL    HW129591   3.031   6.817   6.040
 9564SOL    HW229592   3.060   6.799   6.200
 9565SOL     OW29593   4.252   6.001   4.522
 9565SOL    HW129594   4.189   6.000   4.600
 9565SOL    HW229595   4.200   5.987   4.437
 9566SOL     OW29596   3.516   4.639   6.628
 9566SOL    HW129597   3.564   4.701   6.691
 9566SOL    HW229598   3.534   4.545   6.655
 9567SOL     OW29599   6.161   5.790   6.525
 9567SOL    HW129600   6.178   5.860   6.456
 9567SOL    HW229601   6.161   5.700   6.482
 9568SOL     OW29602   5.168   3.802   6.526
 9568SOL    HW129603   5.232   3.825   6.453
 9568SOL    HW229604   5.083   3.853   6.514
 9569SOL     OW29605   6.573   1.471   7.022
 9569SOL    HW129606   6.552   1.389   0.046
 9569SOL    HW229607   6.647   1.451   6.957
 9570SOL     OW29608   0.225   1.392   1.017
 9570SOL    HW129609   0.162   1.362   0.946
 9570SOL    HW229610   0.260   1.313   1.067
 9571SOL     OW29611   2.408   3.938   0.263
 9571SOL    HW129612   2.487   3.984   0.222
 9571SOL    HW229613   2.440   3.871   0.331
 9572SOL     OW29614   1.155   4.167   1.223
 9572SOL    HW129615   1.184   4.074   1.198
 9572SOL    HW229616   1.069   4.162   1.274
 9573SOL     OW29617   0.881   1.015   6.766
 9573SOL    HW129618   0.950   1.077   6.729
 9573SOL    HW229619   0.840   1.056   6.847
 9574SOL     OW29620   3.797   3.653   5.834
 9574SOL    HW129621   3.808   3.608   5.922
 9574SOL    HW229622   3.856   3.734   5.830
 9575SOL     OW29623   5.823   0.696   1.816
 9575SOL    HW129624   5.893   0.733   1.878
 9575SOL    HW229625   5.813   0.598   1.832
 9576SOL     OW29626   3.461   1.412   3.596
 9576SOL    HW129627   3.509   1.466   3.666
 9576SOL    HW229628   3.422   1.474   3.528
 9577SOL     OW29629   0.253   6.970   2.275
 9577SOL    HW129630   0.230   6.896   2.212
 9577SOL    HW229631   0.350   6.993   2.267
 9578SOL     OW29632   6.125   2.561   2.133
 9578SOL    HW129633   6.198   2.589   2.196
 9578SOL    HW229634   6.149   2.474   2.090
 9579SOL     OW29635   1.402   0.096   1.993
 9579SOL    HW129636   1.453   0.180   2.012
 9579SOL    HW229637   1.408   0.075   1.896
 9580SOL     OW29638   4.838   3.684   0.007
 9580SOL    HW129639   4.778   3.764   0.008
 9580SOL    HW229640   4.876   3.669   0.098
 9581SOL     OW29641   1.532   5.656   6.143
 9581SOL    HW129642   1.465   5.696   6.206
 9581SOL    HW229643   1.624   5.665   6.182
 9582SOL     OW29644   4.286   4.703   3.938
 9582SOL    HW129645   4.370   4.727   3.987
 9582SOL    HW229646   4.211   4.761   3.971
 9583SOL     OW29647   2.226   3.825   2.009
 9583SOL    HW129648   2.281   3.774   2.075
 9583SOL    HW229649   2.138   3.779   1.996
 9584SOL     OW29650   6.463   4.869   6.800
 9584SOL    HW129651   6.540   4.929   6.780
 9584SOL    HW229652   6.426   4.832   6.715
 9585SOL     OW29653   5.680   6.822   2.674
 9585SOL    HW129654   5.653   6.755   2.743
 9585SOL    HW229655   5.599   6.856   2.626
 9586SOL     OW29656   5.299   3.247   3.722
 9586SOL    HW129657   5.212   3.287   3.751
 9586SOL    HW229658   5.321   3.279   3.630
 9587SOL     OW29659   5.814   0.335   1.652
 9587SOL    HW129660   5.874   0.399   1.605
 9587SOL    HW229661   5.768   0.382   1.728
 9588SOL     OW29662   0.035   0.658   1.378
 9588SOL    HW129663   6.995   0.584   1.377
 9588SOL    HW229664   7.027   0.735   1.431
 9589SOL     OW29665   2.187   6.481   5.413
 9589SOL    HW129666   2.111   6.522   5.462
 9589SOL    HW229667   2.267   6.476   5.474
 9590SOL     OW29668   0.289   4.001   3.076
 9590SOL    HW129669   0.284   3.904   3.055
 9590SOL    HW229670   0.385   4.029   3.084
 9591SOL     OW29671   2.661   6.517   1.041
 9591SOL    HW129672   2.667   6.430   1.090
 9591SOL    HW229673   2.734   6.523   0.974
 9592SOL     OW29674   4.262   5.501   2.810
 9592SOL    HW129675   4.253   5.596   2.780
 9592SOL    HW229676   4.342   5.492   2.869
 9593SOL     OW29677   6.197   2.923   4.615
 9593SOL    HW129678   6.238   2.948   4.703
 9593SOL    HW229679   6.142   2.999   4.581
 9594SOL     OW29680   6.545   6.724   2.589
 9594SOL    HW129681   6.469   6.672   2.551
 9594SOL    HW229682   6.511   6.788   2.658
 9595SOL     OW29683   1.175   5.511   4.226
 9595SOL    HW129684   1.144   5.513   4.321
 9595SOL    HW229685   1.226   5.427   4.209
 9596SOL     OW29686   6.534   6.472   5.156
 9596SOL    HW129687   6.581   6.530   5.090
 9596SOL    HW229688   6.515   6.383   5.115
 9597SOL     OW29689   0.714   4.137   1.665
 9597SOL    HW129690   0.627   4.173   1.699
 9597SOL    HW229691   0.749   4.069   1.729
 9598SOL     OW29692   0.596   4.506   6.289
 9598SOL    HW129693   0.642   4.515   6.377
 9598SOL    HW229694   0.645   4.562   6.221
 9599SOL     OW29695   3.921   0.056   5.372
 9599SOL    HW129696   3.863   0.001   5.311
 9599SOL    HW229697   3.882   0.147   5.381
 9600SOL     OW29698   0.839   0.351   5.643
 9600SOL    HW129699   0.850   0.279   5.711
 9600SOL    HW229700   0.845   0.312   5.551
 9601SOL     OW29701   0.941   5.189   6.273
 9601SOL    HW129702   1.031   5.162   6.239
 9601SOL    HW229703   0.871   5.161   6.208
 9602SOL     OW29704   0.196   5.097   6.805
 9602SOL    HW129705   0.275   5.132   6.856
 9602SOL    HW229706   0.225   5.024   6.744
 9603SOL     OW29707   2.217   6.192   4.212
 9603SOL    HW129708   2.134   6.237   4.180
 9603SOL    HW229709   2.246   6.231   4.298
 9604SOL     OW29710   4.682   1.150   6.870
 9604SOL    HW129711   4.641   1.089   6.937
 9604SOL    HW229712   4.728   1.096   6.800
 9605SOL     OW29713   2.131   5.812   5.940
 9605SOL    HW129714   2.191   5.797   5.862
 9605SOL    HW229715   2.146   5.904   5.977
 9606SOL     OW29716   0.160   6.012   3.585
 9606SOL    HW129717   0.062   6.011   3.606
 9606SOL    HW229718   0.173   5.997   3.487
 9607SOL     OW29719   0.853   1.358   2.402
 9607SOL    HW129720   0.821   1.422   2.332
 9607SOL    HW229721   0.868   1.408   2.487
 9608SOL     OW29722   6.768   6.973   2.797
 9608SOL    HW129723   6.784   7.012   2.707
 9608SOL    HW229724   6.680   7.004   2.832
 9609SOL     OW29725   2.317   4.343   4.990
 9609SOL    HW129726   2.232   4.380   4.954
 9609SOL    HW229727   2.313   4.243   4.989
 9610SOL     OW29728   1.936   1.897   6.233
 9610SOL    HW129729   1.905   1.989   6.206
 9610SOL    HW229730   1.916   1.833   6.159
 9611SOL     OW29731   6.960   0.605   0.829
 9611SOL    HW129732   7.004   0.693   0.809
 9611SOL    HW229733   6.863   0.619   0.848
 9612SOL     OW29734   5.842   3.170   1.068
 9612SOL    HW129735   5.814   3.106   1.139
 9612SOL    HW229736   5.762   3.221   1.036
 9613SOL     OW29737   6.175   6.810   5.476
 9613SOL    HW129738   6.247   6.800   5.407
 9613SOL    HW229739   6.217   6.830   5.565
 9614SOL     OW29740   3.574   3.889   2.339
 9614SOL    HW129741   3.619   3.896   2.428
 9614SOL    HW229742   3.493   3.947   2.338
 9615SOL     OW29743   0.990   6.268   2.860
 9615SOL    HW129744   0.909   6.211   2.853
 9615SOL    HW229745   1.023   6.269   2.954
 9616SOL     OW29746   3.278   2.416   0.877
 9616SOL    HW129747   3.255   2.323   0.906
 9616SOL    HW229748   3.286   2.475   0.957
 9617SOL     OW29749   1.228   2.967   3.521
 9617SOL    HW129750   1.173   2.902   3.574
 9617SOL    HW229751   1.218   2.948   3.424
 9618SOL     OW29752   3.985   6.577   6.378
 9618SOL    HW129753   3.988   6.521   6.460
 9618SOL    HW229754   3.919   6.538   6.313
 9619SOL     OW29755   2.160   5.777   0.490
 9619SOL    HW129756   2.246   5.818   0.459
 9619SOL    HW229757   2.167   5.756   0.587
 9620SOL     OW29758   3.195   0.578   6.946
 9620SOL    HW129759   3.215   0.553   6.852
 9620SOL    HW229760   3.274   0.624   6.986
 9621SOL     OW29761   0.049   1.107   2.829
 9621SOL    HW129762   0.130   1.126   2.884
 9621SOL    HW229763   0.062   1.022   2.778
 9622SOL     OW29764   5.932   0.284   6.796
 9622SOL    HW129765   5.959   0.374   6.830
 9622SOL    HW229766   5.991   0.214   6.838
 9623SOL     OW29767   5.199   5.791   6.388
 9623SOL    HW129768   5.166   5.885   6.384
 9623SOL    HW229769   5.194   5.758   6.483
 9624SOL     OW29770   4.877   5.817   4.849
 9624SOL    HW129771   4.835   5.903   4.822
 9624SOL    HW229772   4.809   5.744   4.849
 9625SOL     OW29773   5.378   4.753   6.679
 9625SOL    HW129774   5.317   4.754   6.758
 9625SOL    HW229775   5.356   4.674   6.621
 9626SOL     OW29776   1.802   4.597   5.340
 9626SOL    HW129777   1.779   4.586   5.243
 9626SOL    HW229778   1.721   4.580   5.396
 9627SOL     OW29779   2.050   5.561   5.964
 9627SOL    HW129780   2.067   5.654   5.933
 9627SOL    HW229781   2.021   5.562   6.059
 9628SOL     OW29782   5.816   4.249   6.741
 9628SOL    HW129783   5.832   4.205   6.829
 9628SOL    HW229784   5.787   4.344   6.756
 9629SOL     OW29785   0.081   5.590   2.744
 9629SOL    HW129786   0.161   5.545   2.703
 9629SOL    HW229787   0.062   5.675   2.695
 9630SOL     OW29788   6.534   6.536   5.430
 9630SOL    HW129789   6.547   6.634   5.445
 9630SOL    HW229790   6.531   6.517   5.332
 9631SOL     OW29791   4.232   1.192   0.757
 9631SOL    HW129792   4.165   1.201   0.831
 9631SOL    HW229793   4.301   1.264   0.766
 9632SOL     OW29794   2.994   5.431   1.378
 9632SOL    HW129795   3.048   5.349   1.364
 9632SOL    HW229796   2.909   5.407   1.426
 9633SOL     OW29797   3.872   3.049   2.201
 9633SOL    HW129798   3.933   3.128   2.206
 9633SOL    HW229799   3.843   3.034   2.107
 9634SOL     OW29800   5.190   4.613   2.777
 9634SOL    HW129801   5.226   4.646   2.690
 9634SOL    HW229802   5.097   4.581   2.764
 9635SOL     OW29803   1.232   3.623   4.427
 9635SOL    HW129804   1.283   3.694   4.380
 9635SOL    HW229805   1.142   3.657   4.453
 9636SOL     OW29806   4.371   2.107   5.676
 9636SOL    HW129807   4.310   2.156   5.737
 9636SOL    HW229808   4.451   2.163   5.656
 9637SOL     OW29809   2.243   3.444   1.206
 9637SOL    HW129810   2.318   3.510   1.207
 9637SOL    HW229811   2.265   3.368   1.268
 9638SOL     OW29812   0.393   4.247   6.379
 9638SOL    HW129813   0.375   4.334   6.334
 9638SOL    HW229814   0.462   4.259   6.450
 9639SOL     OW29815   4.673   2.109   1.563
 9639SOL    HW129816   4.635   2.181   1.505
 9639SOL    HW229817   4.769   2.130   1.583
 9640SOL     OW29818   4.044   1.089   2.398
 9640SOL    HW129819   3.999   1.121   2.481
 9640SOL    HW229820   4.133   1.134   2.390
 9641SOL     OW29821   5.590   4.943   2.518
 9641SOL    HW129822   5.584   4.885   2.437
 9641SOL    HW229823   5.578   4.887   2.600
 9642SOL     OW29824   1.557   7.012   3.987
 9642SOL    HW129825   1.585   6.957   3.908
 9642SOL    HW229826   1.462   0.013   3.976
 9643SOL     OW29827   4.884   3.770   4.049
 9643SOL    HW129828   4.836   3.811   3.972
 9643SOL    HW229829   4.924   3.842   4.105
 9644SOL     OW29830   1.778   6.219   5.408
 9644SOL    HW129831   1.756   6.240   5.312
 9644SOL    HW229832   1.875   6.196   5.416
 9645SOL     OW29833   1.508   5.752   5.630
 9645SOL    HW129834   1.508   5.850   5.611
 9645SOL    HW229835   1.497   5.737   5.728
 9646SOL     OW29836   3.164   6.878   4.638
 9646SOL    HW129837   3.127   6.971   4.640
 9646SOL    HW229838   3.257   6.881   4.601
 9647SOL     OW29839   6.165   6.356   3.366
 9647SOL    HW129840   6.251   6.313   3.337
 9647SOL    HW229841   6.184   6.419   3.441
 9648SOL     OW29842   5.340   2.174   1.615
 9648SOL    HW129843   5.437   2.165   1.636
 9648SOL    HW229844   5.323   2.261   1.569
 9649SOL     OW29845   2.253   3.638   6.984
 9649SOL    HW129846   2.272   3.650   6.886
 9649SOL    HW229847   2.226   3.726   7.023
 9650SOL     OW29848   6.363   4.341   3.893
 9650SOL    HW129849   6.425   4.263   3.890
 9650SOL    HW229850   6.400   4.411   3.955
 9651SOL     OW29851   2.611   1.551   6.981
 9651SOL    HW129852   2.640   1.620   0.019
 9651SOL    HW229853   2.610   1.461   7.026
 9652SOL     OW29854   0.394   4.189   0.876
 9652SOL    HW129855   0.376   4.212   0.780
 9652SOL    HW229856   0.399   4.090   0.886
 9653SOL     OW29857   4.748   4.286   5.880
 9653SOL    HW129858   4.820   4.308   5.814
 9653SOL    HW229859   4.693   4.367   5.897
 9654SOL     OW29860   4.078   3.266   3.293
 9654SOL    HW129861   4.089   3.347   3.350
 9654SOL    HW229862   4.064   3.186   3.352
 9655SOL     OW29863   6.139   0.718   1.397
 9655SOL    HW129864   6.183   0.679   1.478
 9655SOL    HW229865   6.105   0.645   1.338
 9656SOL     OW29866   5.131   3.343   0.630
 9656SOL    HW129867   5.231   3.350   0.630
 9656SOL    HW229868   5.103   3.272   0.565
 9657SOL     OW29869   5.062   3.871   3.818
 9657SOL    HW129870   5.060   3.795   3.883
 9657SOL    HW229871   5.121   3.847   3.741
 9658SOL     OW29872   4.458   1.447   2.926
 9658SOL    HW129873   4.374   1.394   2.912
 9658SOL    HW229874   4.531   1.409   2.868
 9659SOL     OW29875   3.459   2.271   0.681
 9659SOL    HW129876   3.404   2.190   0.659
 9659SOL    HW229877   3.412   2.326   0.750
 9660SOL     OW29878   0.862   5.777   0.566
 9660SOL    HW129879   0.792   5.756   0.634
 9660SOL    HW229880   0.876   5.876   0.562
 9661SOL     OW29881   4.619   5.317   1.250
 9661SOL    HW129882   4.716   5.317   1.274
 9661SOL    HW229883   4.579   5.406   1.270
 9662SOL     OW29884   5.709   4.888   0.135
 9662SOL    HW129885   5.762   4.954   0.080
 9662SOL    HW229886   5.752   4.878   0.225
 9663SOL     OW29887   1.112   4.401   3.717
 9663SOL    HW129888   1.052   4.406   3.637
 9663SOL    HW229889   1.089   4.475   3.780
 9664SOL     OW29890   5.280   3.717   3.596
 9664SOL    HW129891   5.303   3.723   3.499
 9664SOL    HW229892   5.246   3.625   3.616
 9665SOL     OW29893   6.601   6.778   6.057
 9665SOL    HW129894   6.552   6.808   6.139
 9665SOL    HW229895   6.671   6.711   6.082
 9666SOL     OW29896   6.136   4.544   1.603
 9666SOL    HW129897   6.090   4.456   1.616
 9666SOL    HW229898   6.233   4.529   1.585
 9667SOL     OW29899   4.049   5.308   0.892
 9667SOL    HW129900   4.143   5.341   0.900
 9667SOL    HW229901   4.016   5.279   0.982
 9668SOL     OW29902   1.135   6.774   5.634
 9668SOL    HW129903   1.160   6.744   5.542
 9668SOL    HW229904   1.217   6.806   5.682
 9669SOL     OW29905   2.543   0.115   0.864
 9669SOL    HW129906   2.639   0.090   0.852
 9669SOL    HW229907   2.485   0.053   0.810
 9670SOL     OW29908   0.564   0.149   5.784
 9670SOL    HW129909   0.663   0.160   5.779
 9670SOL    HW229910   0.539   0.054   5.766
 9671SOL     OW29911   0.941   5.062   0.125
 9671SOL    HW129912   0.965   4.972   0.089
 9671SOL    HW229913   1.020   5.102   0.170
 9672SOL     OW29914   0.804   4.278   3.350
 9672SOL    HW129915   0.833   4.185   3.372
 9672SOL    HW229916   0.745   4.277   3.269
 9673SOL     OW29917   3.364   4.269   1.718
 9673SOL    HW129918   3.342   4.185   1.768
 9673SOL    HW229919   3.461   4.290   1.729
 9674SOL     OW29920   3.556   6.786   2.653
 9674SOL    HW129921   3.596   6.795   2.744
 9674SOL    HW229922   3.584   6.698   2.613
 9675SOL     OW29923   4.675   3.842   0.418
 9675SOL    HW129924   4.730   3.833   0.335
 9675SOL    HW229925   4.722   3.797   0.494
 9676SOL     OW29926   1.476   2.502   6.231
 9676SOL    HW129927   1.418   2.550   6.166
 9676SOL    HW229928   1.520   2.569   6.292
 9677SOL     OW29929   6.054   5.083   0.260
 9677SOL    HW129930   6.009   5.172   0.259
 9677SOL    HW229931   6.098   5.067   0.171
 9678SOL     OW29932   3.311   3.863   4.662
 9678SOL    HW129933   3.331   3.959   4.646
 9678SOL    HW229934   3.397   3.812   4.671
 9679SOL     OW29935   3.134   1.934   4.331
 9679SOL    HW129936   3.129   2.027   4.297
 9679SOL    HW229937   3.053   1.913   4.385
 9680SOL     OW29938   4.969   6.325   4.603
 9680SOL    HW129939   4.963   6.270   4.686
 9680SOL    HW229940   4.900   6.295   4.538
 9681SOL     OW29941   3.090   1.216   1.287
 9681SOL    HW129942   3.049   1.291   1.236
 9681SOL    HW229943   3.089   1.133   1.231
 9682SOL     OW29944   5.890   5.152   4.285
 9682SOL    HW129945   5.877   5.249   4.305
 9682SOL    HW229946   5.831   5.098   4.346
 9683SOL     OW29947   1.655   6.203   0.948
 9683SOL    HW129948   1.726   6.263   0.911
 9683SOL    HW229949   1.570   6.216   0.896
 9684SOL     OW29950   1.065   3.789   5.450
 9684SOL    HW129951   1.057   3.760   5.354
 9684SOL    HW229952   1.108   3.717   5.503
 9685SOL     OW29953   4.525   3.397   0.665
 9685SOL    HW129954   4.477   3.415   0.579
 9685SOL    HW229955   4.580   3.315   0.655
 9686SOL     OW29956   6.828   2.284   6.463
 9686SOL    HW129957   6.784   2.261   6.549
 9686SOL    HW229958   6.916   2.330   6.481
 9687SOL     OW29959   6.630   6.642   1.015
 9687SOL    HW129960   6.576   6.717   1.054
 9687SOL    HW229961   6.634   6.567   1.081
 9688SOL     OW29962   1.414   4.542   0.993
 9688SOL    HW129963   1.366   4.526   1.079
 9688SOL    HW229964   1.349   4.542   0.917
 9689SOL     OW29965   1.389   5.430   6.350
 9689SOL    HW129966   1.381   5.527   6.330
 9689SOL    HW229967   1.329   5.406   6.426
 9690SOL     OW29968   4.818   5.272   5.284
 9690SOL    HW129969   4.719   5.272   5.298
 9690SOL    HW229970   4.858   5.351   5.330
 9691SOL     OW29971   3.349   4.141   2.280
 9691SOL    HW129972   3.325   4.238   2.293
 9691SOL    HW229973   3.333   4.091   2.365
 9692SOL     OW29974   4.897   5.231   0.228
 9692SOL    HW129975   4.822   5.289   0.258
 9692SOL    HW229976   4.982   5.261   0.271
 9693SOL     OW29977   5.705   4.071   4.379
 9693SOL    HW129978   5.698   3.986   4.327
 9693SOL    HW229979   5.729   4.050   4.474
 9694SOL     OW29980   2.755   0.418   1.684
 9694SOL    HW129981   2.750   0.467   1.772
 9694SOL    HW229982   2.689   0.342   1.685
 9695SOL     OW29983   0.007   4.111   3.124
 9695SOL    HW129984   0.070   4.077   3.055
 9695SOL    HW229985   0.055   4.122   3.211
 9696SOL     OW29986   5.872   1.810   2.771
 9696SOL    HW129987   5.873   1.902   2.732
 9696SOL    HW229988   5.836   1.813   2.864
 9697SOL     OW29989   6.699   6.202   6.901
 9697SOL    HW129990   6.772   6.167   6.842
 9697SOL    HW229991   6.620   6.142   6.897
 9698SOL     OW29992   5.651   3.540   6.384
 9698SOL    HW129993   5.655   3.640   6.381
 9698SOL    HW229994   5.743   3.502   6.374
 9699SOL     OW29995   0.656   5.889   0.095
 9699SOL    HW129996   0.745   5.930   0.080
 9699SOL    HW229997   0.616   5.862   0.007
 9700SOL     OW29998   6.736   6.155   3.709
 9700SOL    HW129999   6.648   6.201   3.719
 9700SOL    HW230000   6.750   6.092   3.785
 9701SOL     OW30001   4.894   3.535   6.669
 9701SOL    HW130002   4.987   3.502   6.652
 9701SOL    HW230003   4.830   3.458   6.666
 9702SOL     OW30004   3.419   2.942   0.624
 9702SOL    HW130005   3.377   2.915   0.537
 9702SOL    HW230006   3.408   2.868   0.690
 9703SOL     OW30007   6.154   4.115   4.214
 9703SOL    HW130008   6.247   4.152   4.224
 9703SOL    HW230009   6.143   4.076   4.122
 9704SOL     OW30010   2.984   4.784   3.160
 9704SOL    HW130011   2.942   4.731   3.086
 9704SOL    HW230012   2.949   4.752   3.248
 9705SOL     OW30013   6.262   4.256   5.085
 9705SOL    HW130014   6.270   4.166   5.129
 9705SOL    HW230015   6.175   4.261   5.036
 9706SOL     OW30016   1.875   1.966   1.573
 9706SOL    HW130017   1.909   1.873   1.558
 9706SOL    HW230018   1.866   1.983   1.671
 9707SOL     OW30019   5.812   4.713   1.774
 9707SOL    HW130020   5.721   4.720   1.815
 9707SOL    HW230021   5.872   4.781   1.815
 9708SOL     OW30022   1.568   1.499   2.039
 9708SOL    HW130023   1.489   1.515   1.980
 9708SOL    HW230024   1.596   1.585   2.081
 9709SOL     OW30025   5.295   3.919   1.971
 9709SOL    HW130026   5.337   3.891   1.885
 9709SOL    HW230027   5.195   3.911   1.963
 9710SOL     OW30028   6.239   0.505   6.942
 9710SOL    HW130029   6.140   0.506   6.937
 9710SOL    HW230030   6.268   0.482   0.007
 9711SOL     OW30031   4.266   6.038   5.727
 9711SOL    HW130032   4.326   6.059   5.650
 9711SOL    HW230033   4.314   6.057   5.813
 9712SOL     OW30034   6.247   3.309   0.412
 9712SOL    HW130035   6.276   3.404   0.424
 9712SOL    HW230036   6.186   3.282   0.486
 9713SOL     OW30037   2.321   6.537   2.938
 9713SOL    HW130038   2.239   6.566   2.888
 9713SOL    HW230039   2.296   6.506   3.029
 9714SOL     OW30040   4.167   5.701   4.573
 9714SOL    HW130041   4.111   5.652   4.505
 9714SOL    HW230042   4.263   5.695   4.548
 9715SOL     OW30043   6.435   4.738   1.203
 9715SOL    HW130044   6.481   4.803   1.142
 9715SOL    HW230045   6.499   4.667   1.231
 9716SOL     OW30046   3.877   4.349   6.678
 9716SOL    HW130047   3.919   4.258   6.671
 9716SOL    HW230048   3.850   4.366   6.773
 9717SOL     OW30049   4.912   6.380   6.713
 9717SOL    HW130050   4.961   6.317   6.774
 9717SOL    HW230051   4.847   6.328   6.657
 9718SOL     OW30052   4.048   2.082   0.660
 9718SOL    HW130053   4.010   2.101   0.751
 9718SOL    HW230054   4.037   1.985   0.639
 9719SOL     OW30055   4.987   0.122   5.712
 9719SOL    HW130056   5.084   0.140   5.728
 9719SOL    HW230057   4.976   0.030   5.675
 9720SOL     OW30058   1.589   3.717   2.726
 9720SOL    HW130059   1.607   3.680   2.635
 9720SOL    HW230060   1.490   3.714   2.744
 9721SOL     OW30061   0.651   1.586   0.164
 9721SOL    HW130062   0.692   1.524   0.230
 9721SOL    HW230063   0.552   1.592   0.180
 9722SOL     OW30064   3.615   2.201   5.216
 9722SOL    HW130065   3.525   2.201   5.258
 9722SOL    HW230066   3.668   2.279   5.252
 9723SOL     OW30067   5.927   4.985   4.931
 9723SOL    HW130068   5.995   4.942   4.990
 9723SOL    HW230069   5.857   5.029   4.987
 9724SOL     OW30070   2.145   5.526   6.461
 9724SOL    HW130071   2.215   5.470   6.506
 9724SOL    HW230072   2.085   5.567   6.530
 9725SOL     OW30073   3.779   5.582   4.800
 9725SOL    HW130074   3.806   5.501   4.853
 9725SOL    HW230075   3.724   5.554   4.722
 9726SOL     OW30076   4.909   0.991   4.287
 9726SOL    HW130077   4.952   0.977   4.198
 9726SOL    HW230078   4.813   1.015   4.274
 9727SOL     OW30079   0.628   2.722   0.234
 9727SOL    HW130080   0.618   2.765   0.144
 9727SOL    HW230081   0.586   2.631   0.232
 9728SOL     OW30082   6.334   1.524   6.331
 9728SOL    HW130083   6.411   1.512   6.269
 9728SOL    HW230084   6.368   1.535   6.425
 9729SOL     OW30085   1.653   3.664   4.188
 9729SOL    HW130086   1.720   3.602   4.148
 9729SOL    HW230087   1.698   3.727   4.250
 9730SOL     OW30088   0.999   4.076   4.164
 9730SOL    HW130089   0.992   4.151   4.098
 9730SOL    HW230090   1.053   4.002   4.124
 9731SOL     OW30091   4.957   4.723   1.946
 9731SOL    HW130092   4.980   4.626   1.935
 9731SOL    HW230093   4.926   4.761   1.859
 9732SOL     OW30094   0.696   3.162   2.139
 9732SOL    HW130095   0.663   3.108   2.216
 9732SOL    HW230096   0.691   3.259   2.160
 9733SOL     OW30097   6.095   5.597   1.988
 9733SOL    HW130098   6.054   5.678   2.029
 9733SOL    HW230099   6.037   5.518   2.006
 9734SOL     OW30100   6.771   6.458   0.281
 9734SOL    HW130101   6.794   6.553   0.301
 9734SOL    HW230102   6.736   6.451   0.187
 9735SOL     OW30103   1.270   2.618   3.472
 9735SOL    HW130104   1.227   2.668   3.398
 9735SOL    HW230105   1.370   2.622   3.462
 9736SOL     OW30106   5.049   1.890   6.319
 9736SOL    HW130107   4.985   1.957   6.355
 9736SOL    HW230108   5.121   1.937   6.268
 9737SOL     OW30109   5.573   2.321   2.799
 9737SOL    HW130110   5.596   2.378   2.878
 9737SOL    HW230111   5.572   2.225   2.826
 9738SOL     OW30112   2.058   6.467   0.677
 9738SOL    HW130113   2.043   6.563   0.651
 9738SOL    HW230114   2.087   6.415   0.596
 9739SOL     OW30115   4.546   6.026   6.979
 9739SOL    HW130116   4.568   5.948   6.921
 9739SOL    HW230117   4.583   6.110   6.938
 9740SOL     OW30118   5.421   0.122   2.663
 9740SOL    HW130119   5.329   0.162   2.665
 9740SOL    HW230120   5.420   0.035   2.712
 9741SOL     OW30121   2.517   1.105   3.931
 9741SOL    HW130122   2.539   1.019   3.977
 9741SOL    HW230123   2.601   1.150   3.903
 9742SOL     OW30124   4.571   0.770   0.041
 9742SOL    HW130125   4.519   0.853   0.061
 9742SOL    HW230126   4.660   0.795   0.003
 9743SOL     OW30127   0.433   3.419   3.237
 9743SOL    HW130128   0.381   3.336   3.215
 9743SOL    HW230129   0.520   3.393   3.279
 9744SOL     OW30130   2.168   6.882   3.046
 9744SOL    HW130131   2.112   6.842   3.118
 9744SOL    HW230132   2.144   6.979   3.035
 9745SOL     OW30133   5.431   2.536   6.266
 9745SOL    HW130134   5.469   2.494   6.349
 9745SOL    HW230135   5.377   2.617   6.291
 9746SOL     OW30136   5.210   6.585   6.996
 9746SOL    HW130137   5.296   6.564   6.950
 9746SOL    HW230138   5.173   6.671   6.960
 9747SOL     OW30139   2.305   2.301   1.804
 9747SOL    HW130140   2.391   2.349   1.783
 9747SOL    HW230141   2.326   2.212   1.846
 9748SOL     OW30142   0.241   0.228   3.198
 9748SOL    HW130143   0.314   0.277   3.150
 9748SOL    HW230144   0.238   0.133   3.168
 9749SOL     OW30145   0.919   1.793   2.566
 9749SOL    HW130146   0.985   1.775   2.493
 9749SOL    HW230147   0.882   1.885   2.556
 9750SOL     OW30148   5.901   4.606   4.358
 9750SOL    HW130149   5.922   4.573   4.267
 9750SOL    HW230150   5.965   4.566   4.424
 9751SOL     OW30151   2.458   0.275   0.568
 9751SOL    HW130152   2.400   0.318   0.498
 9751SOL    HW230153   2.423   0.299   0.659
 9752SOL     OW30154   3.946   2.524   6.967
 9752SOL    HW130155   3.932   2.511   6.868
 9752SOL    HW230156   3.879   2.589   7.001
 9753SOL     OW30157   1.195   5.984   6.179
 9753SOL    HW130158   1.125   6.054   6.191
 9753SOL    HW230159   1.191   5.948   6.086
 9754SOL     OW30160   3.787   0.092   0.298
 9754SOL    HW130161   3.840   0.026   0.351
 9754SOL    HW230162   3.694   0.058   0.286
 9755SOL     OW30163   3.065   4.052   4.942
 9755SOL    HW130164   3.011   3.968   4.946
 9755SOL    HW230165   3.082   4.086   5.035
 9756SOL     OW30166   5.638   2.051   6.227
 9756SOL    HW130167   5.691   2.132   6.249
 9756SOL    HW230168   5.693   1.969   6.242
 9757SOL     OW30169   5.375   4.490   4.568
 9757SOL    HW130170   5.412   4.429   4.498
 9757SOL    HW230171   5.437   4.567   4.581
 9758SOL     OW30172   1.179   1.572   6.803
 9758SOL    HW130173   1.134   1.661   6.819
 9758SOL    HW230174   1.266   1.587   6.757
 9759SOL     OW30175   0.845   1.744   6.701
 9759SOL    HW130176   0.847   1.748   6.801
 9759SOL    HW230177   0.926   1.790   6.664
 9760SOL     OW30178   5.102   2.630   6.883
 9760SOL    HW130179   5.063   2.649   6.793
 9760SOL    HW230180   5.030   2.604   6.947
 9761SOL     OW30181   1.275   1.556   2.029
 9761SOL    HW130182   1.251   1.535   1.934
 9761SOL    HW230183   1.193   1.589   2.077
 9762SOL     OW30184   3.344   1.806   4.448
 9762SOL    HW130185   3.322   1.716   4.486
 9762SOL    HW230186   3.259   1.856   4.432
 9763SOL     OW30187   6.304   1.020   3.193
 9763SOL    HW130188   6.206   1.038   3.185
 9763SOL    HW230189   6.338   0.979   3.108
 9764SOL     OW30190   6.300   1.733   3.378
 9764SOL    HW130191   6.362   1.660   3.352
 9764SOL    HW230192   6.348   1.799   3.435
 9765SOL     OW30193   6.458   0.914   2.991
 9765SOL    HW130194   6.394   0.929   2.915
 9765SOL    HW230195   6.487   0.818   2.991
 9766SOL     OW30196   2.130   0.208   3.339
 9766SOL    HW130197   2.112   0.172   3.247
 9766SOL    HW230198   2.223   0.243   3.343
 9767SOL     OW30199   1.955   2.642   4.876
 9767SOL    HW130200   1.904   2.724   4.902
 9767SOL    HW230201   2.050   2.652   4.905
 9768SOL     OW30202   5.396   2.054   1.132
 9768SOL    HW130203   5.382   1.958   1.108
 9768SOL    HW230204   5.315   2.108   1.108
 9769SOL     OW30205   3.571   0.536   5.013
 9769SOL    HW130206   3.657   0.556   4.967
 9769SOL    HW230207   3.512   0.617   5.011
 9770SOL     OW30208   3.637   1.883   5.448
 9770SOL    HW130209   3.670   1.923   5.362
 9770SOL    HW230210   3.713   1.837   5.494
 9771SOL     OW30211   2.578   6.890   1.788
 9771SOL    HW130212   2.569   6.805   1.839
 9771SOL    HW230213   2.506   6.895   1.718
 9772SOL     OW30214   2.062   6.491   1.838
 9772SOL    HW130215   2.026   6.571   1.789
 9772SOL    HW230216   2.049   6.503   1.936
 9773SOL     OW30217   5.827   4.666   3.609
 9773SOL    HW130218   5.866   4.621   3.529
 9773SOL    HW230219   5.831   4.765   3.598
 9774SOL     OW30220   0.590   4.278   3.709
 9774SOL    HW130221   0.608   4.354   3.646
 9774SOL    HW230222   0.551   4.202   3.658
 9775SOL     OW30223   2.836   0.337   3.304
 9775SOL    HW130224   2.838   0.241   3.330
 9775SOL    HW230225   2.921   0.381   3.334
 9776SOL     OW30226   1.311   4.822   6.284
 9776SOL    HW130227   1.374   4.775   6.223
 9776SOL    HW230228   1.275   4.758   6.352
 9777SOL     OW30229   5.149   6.229   0.487
 9777SOL    HW130230   5.197   6.285   0.555
 9777SOL    HW230231   5.055   6.261   0.479
 9778SOL     OW30232   0.205   2.093   4.541
 9778SOL    HW130233   0.273   2.141   4.597
 9778SOL    HW230234   0.157   2.026   4.598
 9779SOL     OW30235   0.653   2.618   3.567
 9779SOL    HW130236   0.705   2.535   3.590
 9779SOL    HW230237   0.604   2.650   3.648
 9780SOL     OW30238   2.178   1.660   1.112
 9780SOL    HW130239   2.203   1.734   1.050
 9780SOL    HW230240   2.242   1.655   1.188
 9781SOL     OW30241   2.049   3.402   4.727
 9781SOL    HW130242   2.006   3.397   4.816
 9781SOL    HW230243   2.080   3.495   4.709
 9782SOL     OW30244   0.605   1.975   0.883
 9782SOL    HW130245   0.573   1.958   0.976
 9782SOL    HW230246   0.698   2.012   0.886
 9783SOL     OW30247   4.497   1.704   3.527
 9783SOL    HW130248   4.525   1.704   3.431
 9783SOL    HW230249   4.413   1.755   3.538
 9784SOL     OW30250   3.281   1.094   5.764
 9784SOL    HW130251   3.358   1.052   5.811
 9784SOL    HW230252   3.200   1.036   5.774
 9785SOL     OW30253   6.025   2.373   5.420
 9785SOL    HW130254   5.982   2.317   5.350
 9785SOL    HW230255   6.007   2.333   5.510
 9786SOL     OW30256   2.690   4.271   0.581
 9786SOL    HW130257   2.601   4.317   0.586
 9786SOL    HW230258   2.760   4.330   0.621
 9787SOL     OW30259   3.951   3.437   4.139
 9787SOL    HW130260   3.862   3.472   4.167
 9787SOL    HW230261   4.023   3.497   4.176
 9788SOL     OW30262   1.052   6.180   1.834
 9788SOL    HW130263   1.127   6.182   1.768
 9788SOL    HW230264   1.001   6.095   1.823
 9789SOL     OW30265   2.562   6.915   6.832
 9789SOL    HW130266   2.552   6.816   6.816
 9789SOL    HW230267   2.651   6.945   6.797
 9790SOL     OW30268   6.332   4.596   6.345
 9790SOL    HW130269   6.390   4.518   6.367
 9790SOL    HW230270   6.303   4.590   6.250
 9791SOL     OW30271   1.018   0.328   0.481
 9791SOL    HW130272   1.116   0.343   0.474
 9791SOL    HW230273   0.986   0.357   0.572
 9792SOL     OW30274   3.757   4.775   1.037
 9792SOL    HW130275   3.763   4.875   1.044
 9792SOL    HW230276   3.755   4.735   1.128
 9793SOL     OW30277   3.853   0.212   1.662
 9793SOL    HW130278   3.839   0.308   1.685
 9793SOL    HW230279   3.886   0.205   1.567
 9794SOL     OW30280   5.183   4.151   4.963
 9794SOL    HW130281   5.269   4.099   4.968
 9794SOL    HW230282   5.195   4.230   4.903
 9795SOL     OW30283   1.081   3.056   4.532
 9795SOL    HW130284   1.147   3.130   4.521
 9795SOL    HW230285   1.129   2.971   4.554
 9796SOL     OW30286   3.495   4.010   3.600
 9796SOL    HW130287   3.501   4.059   3.686
 9796SOL    HW230288   3.494   3.912   3.617
 9797SOL     OW30289   2.245   6.113   0.151
 9797SOL    HW130290   2.182   6.190   0.157
 9797SOL    HW230291   2.336   6.146   0.125
 9798SOL     OW30292   2.152   1.629   0.750
 9798SOL    HW130293   2.165   1.709   0.691
 9798SOL    HW230294   2.064   1.586   0.729
 9799SOL     OW30295   3.233   4.215   6.324
 9799SOL    HW130296   3.173   4.173   6.256
 9799SOL    HW230297   3.264   4.146   6.389
 9800SOL     OW30298   5.622   4.030   4.104
 9800SOL    HW130299   5.553   4.079   4.051
 9800SOL    HW230300   5.639   4.078   4.190
 9801SOL     OW30301   5.082   4.992   0.344
 9801SOL    HW130302   5.180   4.976   0.360
 9801SOL    HW230303   5.040   4.910   0.306
 9802SOL     OW30304   4.380   4.877   0.525
 9802SOL    HW130305   4.308   4.848   0.588
 9802SOL    HW230306   4.401   4.803   0.461
 9803SOL     OW30307   1.789   3.395   6.319
 9803SOL    HW130308   1.725   3.401   6.243
 9803SOL    HW230309   1.871   3.347   6.291
 9804SOL     OW30310   0.165   6.106   3.317
 9804SOL    HW130311   0.099   6.144   3.382
 9804SOL    HW230312   0.247   6.164   3.315
 9805SOL     OW30313   0.903   6.542   2.814
 9805SOL    HW130314   0.904   6.445   2.793
 9805SOL    HW230315   0.875   6.556   2.909
 9806SOL     OW30316   2.153   2.129   6.860
 9806SOL    HW130317   2.209   2.141   6.941
 9806SOL    HW230318   2.207   2.087   6.787
 9807SOL     OW30319   3.429   3.302   2.150
 9807SOL    HW130320   3.477   3.379   2.107
 9807SOL    HW230321   3.368   3.337   2.221
 9808SOL     OW30322   3.524   5.658   3.975
 9808SOL    HW130323   3.429   5.646   3.947
 9808SOL    HW230324   3.581   5.589   3.930
 9809SOL     OW30325   1.298   3.485   0.426
 9809SOL    HW130326   1.374   3.438   0.380
 9809SOL    HW230327   1.335   3.555   0.488
 9810SOL     OW30328   2.946   2.115   4.923
 9810SOL    HW130329   2.969   2.073   4.835
 9810SOL    HW230330   3.025   2.166   4.957
 9811SOL     OW30331   5.947   4.250   3.534
 9811SOL    HW130332   5.930   4.167   3.480
 9811SOL    HW230333   5.872   4.264   3.599
 9812SOL     OW30334   2.840   0.947   4.472
 9812SOL    HW130335   2.743   0.924   4.469
 9812SOL    HW230336   2.852   1.046   4.462
 9813SOL     OW30337   5.602   2.196   1.090
 9813SOL    HW130338   5.529   2.130   1.106
 9813SOL    HW230339   5.565   2.277   1.043
 9814SOL     OW30340   5.206   1.148   0.037
 9814SOL    HW130341   5.159   1.236   0.025
 9814SOL    HW230342   5.302   1.157   0.007
 9815SOL     OW30343   4.482   2.504   4.446
 9815SOL    HW130344   4.510   2.600   4.450
 9815SOL    HW230345   4.519   2.462   4.364
 9816SOL     OW30346   0.963   0.766   6.513
 9816SOL    HW130347   0.989   0.836   6.446
 9816SOL    HW230348   0.974   0.675   6.472
 9817SOL     OW30349   0.509   6.894   3.178
 9817SOL    HW130350   0.526   6.956   3.101
 9817SOL    HW230351   0.535   6.801   3.152
 9818SOL     OW30352   6.436   1.938   4.590
 9818SOL    HW130353   6.383   1.874   4.535
 9818SOL    HW230354   6.380   2.018   4.611
 9819SOL     OW30355   4.703   2.791   3.424
 9819SOL    HW130356   4.799   2.786   3.453
 9819SOL    HW230357   4.647   2.735   3.484
 9820SOL     OW30358   3.563   3.137   6.202
 9820SOL    HW130359   3.561   3.084   6.116
 9820SOL    HW230360   3.571   3.074   6.279
 9821SOL     OW30361   5.409   0.671   6.411
 9821SOL    HW130362   5.351   0.665   6.330
 9821SOL    HW230363   5.488   0.610   6.400
 9822SOL     OW30364   0.835   6.693   3.056
 9822SOL    HW130365   0.913   6.699   3.118
 9822SOL    HW230366   0.850   6.752   2.977
 9823SOL     OW30367   3.699   0.095   1.031
 9823SOL    HW130368   3.767   0.084   1.104
 9823SOL    HW230369   3.744   0.084   0.943
 9824SOL     OW30370   2.124   3.859   5.970
 9824SOL    HW130371   2.089   3.781   6.022
 9824SOL    HW230372   2.198   3.828   5.910
 9825SOL     OW30373   3.340   5.303   5.090
 9825SOL    HW130374   3.302   5.304   5.182
 9825SOL    HW230375   3.280   5.251   5.029
 9826SOL     OW30376   5.133   5.566   6.069
 9826SOL    HW130377   5.209   5.581   6.005
 9826SOL    HW230378   5.121   5.468   6.084
 9827SOL     OW30379   2.273   4.079   4.205
 9827SOL    HW130380   2.194   4.087   4.145
 9827SOL    HW230381   2.267   3.995   4.259
 9828SOL     OW30382   2.879   2.959   6.436
 9828SOL    HW130383   2.807   2.910   6.386
 9828SOL    HW230384   2.837   3.027   6.496
 9829SOL     OW30385   2.765   6.572   0.602
 9829SOL    HW130386   2.774   6.599   0.698
 9829SOL    HW230387   2.768   6.653   0.543
 9830SOL     OW30388   5.318   2.645   1.605
 9830SOL    HW130389   5.267   2.641   1.691
 9830SOL    HW230390   5.318   2.555   1.562
 9831SOL     OW30391   1.735   5.948   0.902
 9831SOL    HW130392   1.671   5.917   0.832
 9831SOL    HW230393   1.716   6.044   0.924
 9832SOL     OW30394   5.105   5.163   2.362
 9832SOL    HW130395   5.039   5.112   2.307
 9832SOL    HW230396   5.137   5.243   2.311
 9833SOL     OW30397   3.277   2.898   4.996
 9833SOL    HW130398   3.252   2.801   5.003
 9833SOL    HW230399   3.315   2.929   5.084
 9834SOL     OW30400   3.080   4.257   5.517
 9834SOL    HW130401   3.103   4.342   5.564
 9834SOL    HW230402   2.980   4.250   5.508
 9835SOL     OW30403   3.676   2.464   5.835
 9835SOL    HW130404   3.591   2.447   5.886
 9835SOL    HW230405   3.653   2.497   5.744
 9836SOL     OW30406   6.058   4.748   3.771
 9836SOL    HW130407   6.034   4.837   3.810
 9836SOL    HW230408   5.980   4.711   3.721
 9837SOL     OW30409   2.404   0.200   2.626
 9837SOL    HW130410   2.494   0.244   2.627
 9837SOL    HW230411   2.354   0.228   2.544
 9838SOL     OW30412   0.778   0.122   6.395
 9838SOL    HW130413   0.812   0.105   6.488
 9838SOL    HW230414   0.687   0.082   6.385
 9839SOL     OW30415   5.688   1.196   3.074
 9839SOL    HW130416   5.768   1.253   3.087
 9839SOL    HW230417   5.615   1.225   3.137
 9840SOL     OW30418   0.616   0.908   1.624
 9840SOL    HW130419   0.692   0.848   1.649
 9840SOL    HW230420   0.530   0.866   1.654
 9841SOL     OW30421   1.166   4.317   4.776
 9841SOL    HW130422   1.235   4.386   4.755
 9841SOL    HW230423   1.173   4.243   4.709
 9842SOL     OW30424   3.981   3.884   3.055
 9842SOL    HW130425   3.952   3.962   2.999
 9842SOL    HW230426   4.035   3.821   3.000
 9843SOL     OW30427   6.425   1.919   1.849
 9843SOL    HW130428   6.402   1.929   1.946
 9843SOL    HW230429   6.482   1.838   1.837
 9844SOL     OW30430   5.189   0.345   2.374
 9844SOL    HW130431   5.127   0.360   2.452
 9844SOL    HW230432   5.250   0.424   2.365
 9845SOL     OW30433   2.958   1.586   4.493
 9845SOL    HW130434   3.021   1.571   4.416
 9845SOL    HW230435   2.965   1.509   4.557
 9846SOL     OW30436   4.032   3.317   2.494
 9846SOL    HW130437   3.936   3.288   2.492
 9846SOL    HW230438   4.074   3.300   2.405
 9847SOL     OW30439   3.660   2.634   5.304
 9847SOL    HW130440   3.715   2.563   5.259
 9847SOL    HW230441   3.715   2.717   5.315
 9848SOL     OW30442   3.643   2.351   6.437
 9848SOL    HW130443   3.704   2.371   6.360
 9848SOL    HW230444   3.578   2.280   6.411
 9849SOL     OW30445   6.087   0.554   0.185
 9849SOL    HW130446   6.164   0.493   0.198
 9849SOL    HW230447   6.119   0.644   0.156
 9850SOL     OW30448   5.793   5.888   2.752
 9850SOL    HW130449   5.807   5.961   2.685
 9850SOL    HW230450   5.833   5.916   2.839
 9851SOL     OW30451   4.656   2.231   5.730
 9851SOL    HW130452   4.740   2.264   5.686
 9851SOL    HW230453   4.679   2.160   5.797
 9852SOL     OW30454   4.433   1.965   3.068
 9852SOL    HW130455   4.524   1.962   3.109
 9852SOL    HW230456   4.379   1.887   3.101
 9853SOL     OW30457   5.142   3.831   3.284
 9853SOL    HW130458   5.065   3.773   3.309
 9853SOL    HW230459   5.219   3.774   3.255
 9854SOL     OW30460   6.909   5.463   4.935
 9854SOL    HW130461   6.925   5.477   4.837
 9854SOL    HW230462   6.950   5.376   4.963
 9855SOL     OW30463   2.452   4.429   1.827
 9855SOL    HW130464   2.375   4.439   1.765
 9855SOL    HW230465   2.424   4.377   1.908
 9856SOL     OW30466   4.983   3.943   0.105
 9856SOL    HW130467   5.044   3.996   0.163
 9856SOL    HW230468   4.981   3.848   0.136
 9857SOL     OW30469   4.035   1.536   4.497
 9857SOL    HW130470   3.956   1.565   4.442
 9857SOL    HW230471   4.038   1.590   4.581
 9858SOL     OW30472   0.133   0.985   1.297
 9858SOL    HW130473   0.119   0.933   1.212
 9858SOL    HW230474   0.151   1.081   1.274
 9859SOL     OW30475   6.089   0.065   1.203
 9859SOL    HW130476   6.104   0.022   1.114
 9859SOL    HW230477   5.991   0.065   1.223
 9860SOL     OW30478   6.895   1.340   2.965
 9860SOL    HW130479   6.992   1.359   2.950
 9860SOL    HW230480   6.874   1.247   2.936
 9861SOL     OW30481   3.147   6.749   3.233
 9861SOL    HW130482   3.055   6.709   3.231
 9861SOL    HW230483   3.142   6.846   3.208
 9862SOL     OW30484   2.315   5.201   0.368
 9862SOL    HW130485   2.350   5.295   0.369
 9862SOL    HW230486   2.387   5.139   0.401
 9863SOL     OW30487   3.085   0.261   3.580
 9863SOL    HW130488   3.003   0.231   3.531
 9863SOL    HW230489   3.139   0.181   3.607
 9864SOL     OW30490   3.840   5.992   3.887
 9864SOL    HW130491   3.769   5.967   3.952
 9864SOL    HW230492   3.805   6.061   3.823
 9865SOL     OW30493   1.606   0.837   3.781
 9865SOL    HW130494   1.637   0.916   3.833
 9865SOL    HW230495   1.669   0.821   3.704
 9866SOL     OW30496   5.712   4.216   5.293
 9866SOL    HW130497   5.689   4.305   5.333
 9866SOL    HW230498   5.805   4.190   5.321
 9867SOL     OW30499   6.067   0.376   0.891
 9867SOL    HW130500   6.015   0.407   0.812
 9867SOL    HW230501   6.006   0.330   0.955
 9868SOL     OW30502   1.141   4.127   5.250
 9868SOL    HW130503   1.095   4.131   5.339
 9868SOL    HW230504   1.074   4.114   5.178
 9869SOL     OW30505   1.552   3.312   2.055
 9869SOL    HW130506   1.650   3.317   2.071
 9869SOL    HW230507   1.504   3.307   2.143
 9870SOL     OW30508   4.589   6.029   2.957
 9870SOL    HW130509   4.631   5.945   2.991
 9870SOL    HW230510   4.615   6.044   2.862
 9871SOL     OW30511   0.912   6.918   5.662
 9871SOL    HW130512   0.978   6.871   5.603
 9871SOL    HW230513   0.878   6.855   5.731
 9872SOL     OW30514   2.942   4.901   4.329
 9872SOL    HW130515   2.863   4.844   4.305
 9872SOL    HW230516   3.008   4.899   4.253
 9873SOL     OW30517   2.925   2.277   1.054
 9873SOL    HW130518   2.862   2.208   1.089
 9873SOL    HW230519   2.936   2.350   1.121
 9874SOL     OW30520   0.751   3.649   4.047
 9874SOL    HW130521   0.656   3.680   4.042
 9874SOL    HW230522   0.794   3.687   4.128
 9875SOL     OW30523   6.746   6.581   2.082
 9875SOL    HW130524   6.716   6.623   1.997
 9875SOL    HW230525   6.693   6.619   2.158
 9876SOL     OW30526   6.191   0.530   2.460
 9876SOL    HW130527   6.106   0.577   2.435
 9876SOL    HW230528   6.198   0.445   2.409
 9877SOL     OW30529   0.360   5.735   3.324
 9877SOL    HW130530   0.310   5.760   3.241
 9877SOL    HW230531   0.295   5.709   3.395
 9878SOL     OW30532   2.762   5.342   4.775
 9878SOL    HW130533   2.835   5.354   4.843
 9878SOL    HW230534   2.798   5.291   4.696
 9879SOL     OW30535   5.789   5.222   3.841
 9879SOL    HW130536   5.873   5.268   3.869
 9879SOL    HW230537   5.743   5.276   3.770
 9880SOL     OW30538   2.895   1.646   5.686
 9880SOL    HW130539   2.836   1.726   5.674
 9880SOL    HW230540   2.895   1.591   5.603
 9881SOL     OW30541   1.569   1.333   5.122
 9881SOL    HW130542   1.540   1.328   5.218
 9881SOL    HW230543   1.651   1.277   5.109
 9882SOL     OW30544   0.900   2.421   3.567
 9882SOL    HW130545   0.885   2.434   3.665
 9882SOL    HW230546   0.989   2.377   3.552
 9883SOL     OW30547   1.650   5.616   0.144
 9883SOL    HW130548   1.683   5.707   0.120
 9883SOL    HW230549   1.682   5.550   0.076
 9884SOL     OW30550   4.431   1.714   2.891
 9884SOL    HW130551   4.446   1.617   2.910
 9884SOL    HW230552   4.511   1.766   2.919
 9885SOL     OW30553   6.712   3.127   5.327
 9885SOL    HW130554   6.706   3.119   5.427
 9885SOL    HW230555   6.716   3.036   5.287
 9886SOL     OW30556   0.653   3.752   1.360
 9886SOL    HW130557   0.573   3.712   1.405
 9886SOL    HW230558   0.699   3.681   1.307
 9887SOL     OW30559   3.880   0.802   6.099
 9887SOL    HW130560   3.851   0.707   6.115
 9887SOL    HW230561   3.899   0.846   6.186
 9888SOL     OW30562   5.781   3.945   1.878
 9888SOL    HW130563   5.729   3.918   1.959
 9888SOL    HW230564   5.802   4.042   1.882
 9889SOL     OW30565   0.349   5.547   1.687
 9889SOL    HW130566   0.290   5.519   1.762
 9889SOL    HW230567   0.406   5.470   1.658
 9890SOL     OW30568   1.714   1.820   0.274
 9890SOL    HW130569   1.616   1.813   0.252
 9890SOL    HW230570   1.726   1.876   0.356
 9891SOL     OW30571   5.491   3.068   2.061
 9891SOL    HW130572   5.582   3.037   2.088
 9891SOL    HW230573   5.422   3.018   2.111
 9892SOL     OW30574   7.017   4.811   0.947
 9892SOL    HW130575   7.028   4.856   0.858
 9892SOL    HW230576   0.037   4.863   1.017
 9893SOL     OW30577   1.155   0.061   1.462
 9893SOL    HW130578   1.237   0.006   1.479
 9893SOL    HW230579   1.095   0.013   1.398
 9894SOL     OW30580   2.625   2.924   1.581
 9894SOL    HW130581   2.564   2.916   1.659
 9894SOL    HW230582   2.719   2.903   1.609
 9895SOL     OW30583   6.561   4.210   5.184
 9895SOL    HW130584   6.659   4.208   5.161
 9895SOL    HW230585   6.548   4.265   5.266
 9896SOL     OW30586   6.411   0.711   6.900
 9896SOL    HW130587   6.490   0.686   6.845
 9896SOL    HW230588   6.347   0.634   6.903
 9897SOL     OW30589   6.128   5.882   2.762
 9897SOL    HW130590   6.180   5.965   2.740
 9897SOL    HW230591   6.032   5.906   2.773
 9898SOL     OW30592   1.529   6.177   4.150
 9898SOL    HW130593   1.559   6.093   4.105
 9898SOL    HW230594   1.429   6.181   4.149
 9899SOL     OW30595   0.958   5.887   0.049
 9899SOL    HW130596   0.992   5.800   0.013
 9899SOL    HW230597   0.945   5.951   7.002
 9900SOL     OW30598   2.140   3.359   3.592
 9900SOL    HW130599   2.177   3.428   3.655
 9900SOL    HW230600   2.145   3.393   3.498
 9901SOL     OW30601   2.839   0.472   6.266
 9901SOL    HW130602   2.879   0.443   6.179
 9901SOL    HW230603   2.910   0.473   6.336
 9902SOL     OW30604   3.111   4.986   0.957
 9902SOL    HW130605   3.137   4.915   1.022
 9902SOL    HW230606   3.193   5.031   0.922
 9903SOL     OW30607   5.125   1.672   2.393
 9903SOL    HW130608   5.132   1.624   2.306
 9903SOL    HW230609   5.033   1.660   2.430
 9904SOL     OW30610   1.443   4.005   6.904
 9904SOL    HW130611   1.511   4.069   6.869
 9904SOL    HW230612   1.380   4.053   6.965
 9905SOL     OW30613   2.424   6.922   6.378
 9905SOL    HW130614   2.408   6.908   6.476
 9905SOL    HW230615   2.370   6.856   6.326
 9906SOL     OW30616   2.423   3.621   1.661
 9906SOL    HW130617   2.367   3.591   1.738
 9906SOL    HW230618   2.457   3.714   1.677
 9907SOL     OW30619   6.469   0.405   1.251
 9907SOL    HW130620   6.395   0.349   1.213
 9907SOL    HW230621   6.499   0.470   1.181
 9908SOL     OW30622   5.728   1.516   4.989
 9908SOL    HW130623   5.789   1.595   4.995
 9908SOL    HW230624   5.662   1.530   4.915
 9909SOL     OW30625   4.499   0.228   3.330
 9909SOL    HW130626   4.409   0.265   3.352
 9909SOL    HW230627   4.489   0.149   3.270
 9910SOL     OW30628   1.457   4.707   2.730
 9910SOL    HW130629   1.397   4.694   2.809
 9910SOL    HW230630   1.419   4.780   2.672
 9911SOL     OW30631   2.857   5.832   2.336
 9911SOL    HW130632   2.851   5.780   2.421
 9911SOL    HW230633   2.818   5.779   2.261
 9912SOL     OW30634   4.140   0.631   1.281
 9912SOL    HW130635   4.104   0.672   1.197
 9912SOL    HW230636   4.220   0.575   1.260
 9913SOL     OW30637   5.901   3.833   0.989
 9913SOL    HW130638   5.990   3.796   0.964
 9913SOL    HW230639   5.911   3.898   1.064
 9914SOL     OW30640   5.570   1.645   4.699
 9914SOL    HW130641   5.608   1.562   4.658
 9914SOL    HW230642   5.478   1.626   4.733
 9915SOL     OW30643   5.028   0.277   3.175
 9915SOL    HW130644   5.011   0.180   3.193
 9915SOL    HW230645   4.982   0.332   3.245
 9916SOL     OW30646   2.054   2.379   2.815
 9916SOL    HW130647   1.991   2.457   2.817
 9916SOL    HW230648   2.146   2.411   2.790
 9917SOL     OW30649   5.480   4.387   6.696
 9917SOL    HW130650   5.412   4.393   6.769
 9917SOL    HW230651   5.555   4.450   6.715
 9918SOL     OW30652   3.416   1.445   3.220
 9918SOL    HW130653   3.471   1.484   3.294
 9918SOL    HW230654   3.460   1.360   3.188
 9919SOL     OW30655   6.990   5.010   1.656
 9919SOL    HW130656   6.918   4.997   1.588
 9919SOL    HW230657   0.049   4.976   1.619
 9920SOL     OW30658   4.866   1.340   2.151
 9920SOL    HW130659   4.911   1.354   2.240
 9920SOL    HW230660   4.810   1.258   2.155
 9921SOL     OW30661   4.599   0.111   5.329
 9921SOL    HW130662   4.544   0.189   5.359
 9921SOL    HW230663   4.564   0.028   5.371
 9922SOL     OW30664   3.015   4.243   0.412
 9922SOL    HW130665   3.112   4.265   0.401
 9922SOL    HW230666   2.994   4.231   0.509
 9923SOL     OW30667   5.139   5.108   6.630
 9923SOL    HW130668   5.123   5.197   6.586
 9923SOL    HW230669   5.222   5.113   6.686
 9924SOL     OW30670   6.242   1.759   4.518
 9924SOL    HW130671   6.213   1.800   4.431
 9924SOL    HW230672   6.175   1.691   4.547
 9925SOL     OW30673   6.886   3.594   4.234
 9925SOL    HW130674   6.903   3.685   4.197
 9925SOL    HW230675   6.901   3.526   4.163
 9926SOL     OW30676   4.095   2.577   0.959
 9926SOL    HW130677   4.180   2.528   0.980
 9926SOL    HW230678   4.048   2.531   0.884
 9927SOL     OW30679   6.850   6.712   0.348
 9927SOL    HW130680   6.782   6.777   0.383
 9927SOL    HW230681   6.921   6.762   0.298
 9928SOL     OW30682   4.734   4.251   2.721
 9928SOL    HW130683   4.744   4.157   2.755
 9928SOL    HW230684   4.661   4.254   2.652
 9929SOL     OW30685   3.357   4.682   5.598
 9929SOL    HW130686   3.405   4.756   5.550
 9929SOL    HW230687   3.422   4.610   5.621
 9930SOL     OW30688   6.420   6.542   4.834
 9930SOL    HW130689   6.373   6.578   4.915
 9930SOL    HW230690   6.383   6.452   4.812
 9931SOL     OW30691   0.579   5.737   4.237
 9931SOL    HW130692   0.648   5.809   4.223
 9931SOL    HW230693   0.590   5.698   4.328
 9932SOL     OW30694   3.278   3.992   6.698
 9932SOL    HW130695   3.192   3.945   6.718
 9932SOL    HW230696   3.304   3.974   6.603
 9933SOL     OW30697   6.886   5.863   2.949
 9933SOL    HW130698   6.875   5.962   2.937
 9933SOL    HW230699   6.972   5.834   2.907
 9934SOL     OW30700   6.276   2.168   5.650
 9934SOL    HW130701   6.356   2.157   5.710
 9934SOL    HW230702   6.232   2.080   5.637
 9935SOL     OW30703   2.675   6.728   6.451
 9935SOL    HW130704   2.682   6.630   6.434
 9935SOL    HW230705   2.762   6.772   6.430
 9936SOL     OW30706   6.612   5.250   0.016
 9936SOL    HW130707   6.688   5.218   0.073
 9936SOL    HW230708   6.648   5.297   6.963
 9937SOL     OW30709   6.616   1.558   1.272
 9937SOL    HW130710   6.530   1.608   1.273
 9937SOL    HW230711   6.600   1.463   1.299
 9938SOL     OW30712   6.659   4.635   2.750
 9938SOL    HW130713   6.744   4.582   2.761
 9938SOL    HW230714   6.606   4.631   2.834
 9939SOL     OW30715   4.476   2.181   1.026
 9939SOL    HW130716   4.478   2.082   1.012
 9939SOL    HW230717   4.547   2.224   0.971
 9940SOL     OW30718   1.296   0.723   1.262
 9940SOL    HW130719   1.347   0.643   1.294
 9940SOL    HW230720   1.238   0.696   1.185
 9941SOL     OW30721   3.000   3.561   5.353
 9941SOL    HW130722   3.003   3.631   5.425
 9941SOL    HW230723   3.079   3.574   5.292
 9942SOL     OW30724   2.623   5.338   2.629
 9942SOL    HW130725   2.719   5.366   2.632
 9942SOL    HW230726   2.617   5.241   2.606
 9943SOL     OW30727   0.931   4.700   5.791
 9943SOL    HW130728   0.951   4.645   5.710
 9943SOL    HW230729   0.855   4.762   5.771
 9944SOL     OW30730   1.358   4.471   6.519
 9944SOL    HW130731   1.421   4.393   6.525
 9944SOL    HW230732   1.409   4.554   6.500
 9945SOL     OW30733   5.810   5.457   6.788
 9945SOL    HW130734   5.833   5.554   6.775
 9945SOL    HW230735   5.716   5.441   6.756
 9946SOL     OW30736   5.318   0.796   3.833
 9946SOL    HW130737   5.322   0.875   3.894
 9946SOL    HW230738   5.318   0.827   3.738
 9947SOL     OW30739   1.942   2.033   4.535
 9947SOL    HW130740   2.033   2.038   4.576
 9947SOL    HW230741   1.893   2.118   4.552
 9948SOL     OW30742   5.664   4.291   4.891
 9948SOL    HW130743   5.737   4.349   4.928
 9948SOL    HW230744   5.661   4.300   4.791
 9949SOL     OW30745   6.806   4.687   4.796
 9949SOL    HW130746   6.799   4.593   4.827
 9949SOL    HW230747   6.715   4.725   4.782
 9950SOL     OW30748   5.948   5.943   5.261
 9950SOL    HW130749   5.914   5.941   5.354
 9950SOL    HW230750   5.949   6.037   5.227
 9951SOL     OW30751   6.995   0.936   4.074
 9951SOL    HW130752   7.007   0.851   4.023
 9951SOL    HW230753   6.950   0.916   4.161
 9952SOL     OW30754   0.957   3.881   0.791
 9952SOL    HW130755   0.867   3.878   0.836
 9952SOL    HW230756   0.956   3.823   0.710
 9953SOL     OW30757   5.647   2.682   4.654
 9953SOL    HW130758   5.669   2.680   4.556
 9953SOL    HW230759   5.665   2.593   4.694
 9954SOL     OW30760   6.771   1.109   6.643
 9954SOL    HW130761   6.729   1.132   6.556
 9954SOL    HW230762   6.869   1.131   6.640
 9955SOL     OW30763   6.432   3.537   5.209
 9955SOL    HW130764   6.445   3.486   5.294
 9955SOL    HW230765   6.515   3.532   5.154
 9956SOL     OW30766   1.374   6.906   2.419
 9956SOL    HW130767   1.461   6.879   2.460
 9956SOL    HW230768   1.357   6.851   2.337
 9957SOL     OW30769   5.020   5.516   2.670
 9957SOL    HW130770   5.066   5.427   2.668
 9957SOL    HW230771   4.960   5.520   2.749
 9958SOL     OW30772   3.523   5.453   0.155
 9958SOL    HW130773   3.461   5.532   0.149
 9958SOL    HW230774   3.599   5.467   0.092
 9959SOL     OW30775   4.095   3.660   5.132
 9959SOL    HW130776   4.093   3.662   5.033
 9959SOL    HW230777   4.130   3.748   5.166
 9960SOL     OW30778   6.783   0.399   2.027
 9960SOL    HW130779   6.812   0.475   2.085
 9960SOL    HW230780   6.723   0.338   2.078
 9961SOL     OW30781   1.651   5.020   4.546
 9961SOL    HW130782   1.734   5.055   4.589
 9961SOL    HW230783   1.577   5.086   4.559
 9962SOL     OW30784   6.543   5.929   2.512
 9962SOL    HW130785   6.555   5.917   2.414
 9962SOL    HW230786   6.631   5.923   2.558
 9963SOL     OW30787   2.987   3.114   6.680
 9963SOL    HW130788   3.074   3.090   6.637
 9963SOL    HW230789   2.940   3.031   6.709
 9964SOL     OW30790   5.217   4.370   5.446
 9964SOL    HW130791   5.289   4.321   5.496
 9964SOL    HW230792   5.208   4.463   5.484
 9965SOL     OW30793   3.889   6.839   6.227
 9965SOL    HW130794   3.904   6.760   6.286
 9965SOL    HW230795   3.792   6.842   6.200
 9966SOL     OW30796   2.208   5.925   1.846
 9966SOL    HW130797   2.202   5.855   1.918
 9966SOL    HW230798   2.241   6.011   1.885
 9967SOL     OW30799   0.227   0.162   2.069
 9967SOL    HW130800   0.193   0.254   2.050
 9967SOL    HW230801   0.302   0.167   2.134
 9968SOL     OW30802   3.425   4.010   0.866
 9968SOL    HW130803   3.406   4.026   0.963
 9968SOL    HW230804   3.364   3.939   0.831
 9969SOL     OW30805   1.676   3.127   2.332
 9969SOL    HW130806   1.706   3.078   2.250
 9969SOL    HW230807   1.755   3.169   2.377
 9970SOL     OW30808   4.959   3.855   2.579
 9970SOL    HW130809   5.029   3.787   2.602
 9970SOL    HW230810   4.870   3.821   2.609
 9971SOL     OW30811   2.250   5.564   1.369
 9971SOL    HW130812   2.187   5.637   1.397
 9971SOL    HW230813   2.214   5.520   1.286
 9972SOL     OW30814   4.242   5.194   1.424
 9972SOL    HW130815   4.203   5.283   1.450
 9972SOL    HW230816   4.294   5.157   1.501
 9973SOL     OW30817   4.727   1.823   4.364
 9973SOL    HW130818   4.682   1.818   4.453
 9973SOL    HW230819   4.812   1.876   4.373
 9974SOL     OW30820   0.498   3.331   2.892
 9974SOL    HW130821   0.450   3.247   2.918
 9974SOL    HW230822   0.431   3.406   2.884
 9975SOL     OW30823   6.207   4.520   7.018
 9975SOL    HW130824   6.170   4.572   0.068
 9975SOL    HW230825   6.238   4.583   6.947
 9976SOL     OW30826   0.404   6.389   5.599
 9976SOL    HW130827   0.480   6.385   5.534
 9976SOL    HW230828   0.329   6.332   5.565
 9977SOL     OW30829   6.694   5.477   5.504
 9977SOL    HW130830   6.615   5.487   5.565
 9977SOL    HW230831   6.757   5.553   5.519
 9978SOL     OW30832   0.433   2.210   3.815
 9978SOL    HW130833   0.367   2.278   3.781
 9978SOL    HW230834   0.383   2.136   3.861
 9979SOL     OW30835   6.186   5.306   5.495
 9979SOL    HW130836   6.195   5.397   5.454
 9979SOL    HW230837   6.181   5.237   5.423
 9980SOL     OW30838   1.626   1.004   5.565
 9980SOL    HW130839   1.543   1.029   5.614
 9980SOL    HW230840   1.676   1.087   5.539
 9981SOL     OW30841   2.129   1.740   2.043
 9981SOL    HW130842   2.224   1.744   2.075
 9981SOL    HW230843   2.112   1.652   2.000
 9982SOL     OW30844   6.668   6.828   4.276
 9982SOL    HW130845   6.739   6.895   4.256
 9982SOL    HW230846   6.705   6.756   4.335
 9983SOL     OW30847   6.802   2.622   2.788
 9983SOL    HW130848   6.897   2.593   2.796
 9983SOL    HW230849   6.791   2.680   2.708
 9984SOL     OW30850   2.165   0.856   6.835
 9984SOL    HW130851   2.070   0.857   6.865
 9984SOL    HW230852   2.220   0.913   6.896
 9985SOL     OW30853   1.472   1.446   0.830
 9985SOL    HW130854   1.451   1.544   0.834
 9985SOL    HW230855   1.550   1.431   0.769
 9986SOL     OW30856   5.702   4.374   5.695
 9986SOL    HW130857   5.761   4.297   5.720
 9986SOL    HW230858   5.627   4.383   5.760
 9987SOL     OW30859   0.144   3.206   4.106
 9987SOL    HW130860   0.230   3.224   4.058
 9987SOL    HW230861   0.159   3.216   4.205
 9988SOL     OW30862   6.842   5.631   4.477
 9988SOL    HW130863   6.824   5.715   4.527
 9988SOL    HW230864   6.834   5.648   4.379
 9989SOL     OW30865   6.280   3.633   3.392
 9989SOL    HW130866   6.311   3.626   3.297
 9989SOL    HW230867   6.186   3.602   3.399
 9990SOL     OW30868   2.587   5.569   1.693
 9990SOL    HW130869   2.555   5.590   1.601
 9990SOL    HW230870   2.560   5.642   1.755
 9991SOL     OW30871   2.155   2.621   3.321
 9991SOL    HW130872   2.207   2.616   3.236
 9991SOL    HW230873   2.202   2.682   3.385
 9992SOL     OW30874   5.644   5.337   0.048
 9992SOL    HW130875   5.665   5.250   0.003
 9992SOL    HW230876   5.729   5.388   0.064
 9993SOL     OW30877   2.897   0.440   0.200
 9993SOL    HW130878   2.832   0.402   0.266
 9993SOL    HW230879   2.975   0.378   0.190
 9994SOL     OW30880   6.098   4.292   3.154
 9994SOL    HW130881   6.087   4.320   3.249
 9994SOL    HW230882   6.188   4.321   3.121
 9995SOL     OW30883   4.827   0.876   3.014
 9995SOL    HW130884   4.913   0.878   2.963
 9995SOL    HW230885   4.842   0.833   3.103
 9996SOL     OW30886   2.930   3.170   1.024
 9996SOL    HW130887   3.008   3.206   0.972
 9996SOL    HW230888   2.846   3.189   0.975
 9997SOL     OW30889   3.312   1.446   0.337
 9997SOL    HW130890   3.271   1.470   0.425
 9997SOL    HW230891   3.361   1.360   0.345
 9998SOL     OW30892   5.610   4.760   6.030
 9998SOL    HW130893   5.665   4.714   6.099
 9998SOL    HW230894   5.650   4.848   6.007
 9999SOL     OW30895   6.239   3.358   5.381
 9999SOL    HW130896   6.245   3.440   5.324
 9999SOL    HW230897   6.143   3.338   5.399
10000SOL     OW30898   0.425   4.432   6.800
10000SOL    HW130899   0.401   4.373   6.877
10000SOL    HW230900   0.499   4.389   6.747
10001SOL     OW30901   4.842   6.754   1.751
10001SOL    HW130902   4.929   6.766   1.798
10001SOL    HW230903   4.770   6.803   1.800
10002SOL     OW30904   1.737   0.740   2.997
10002SOL    HW130905   1.694   0.831   2.998
10002SOL    HW230906   1.765   0.718   2.904
10003SOL     OW30907   4.062   1.298   3.434
10003SOL    HW130908   4.126   1.252   3.373
10003SOL    HW230909   4.054   1.394   3.408
10004SOL     OW30910   6.236   2.539   4.459
10004SOL    HW130911   6.187   2.560   4.544
10004SOL    HW230912   6.279   2.623   4.424
10005SOL     OW30913   5.162   0.423   4.716
10005SOL    HW130914   5.167   0.413   4.617
10005SOL    HW230915   5.067   0.426   4.745
10006SOL     OW30916   5.224   5.920   3.906
10006SOL    HW130917   5.187   6.003   3.947
10006SOL    HW230918   5.153   5.874   3.853
10007SOL     OW30919   0.138   4.647   5.909
10007SOL    HW130920   0.063   4.597   5.866
10007SOL    HW230921   0.120   4.658   6.007
10008SOL     OW30922   4.213   1.360   4.590
10008SOL    HW130923   4.302   1.384   4.552
10008SOL    HW230924   4.141   1.402   4.534
10009SOL     OW30925   2.046   4.314   1.799
10009SOL    HW130926   2.005   4.254   1.730
10009SOL    HW230927   1.999   4.402   1.799
10010SOL     OW30928   2.146   0.586   5.589
10010SOL    HW130929   2.073   0.633   5.638
10010SOL    HW230930   2.197   0.529   5.653
10011SOL     OW30931   5.803   1.175   6.039
10011SOL    HW130932   5.804   1.076   6.021
10011SOL    HW230933   5.717   1.200   6.082
10012SOL     OW30934   5.518   1.554   3.371
10012SOL    HW130935   5.513   1.478   3.436
10012SOL    HW230936   5.462   1.533   3.291
10013SOL     OW30937   0.136   1.218   3.400
10013SOL    HW130938   0.064   1.246   3.337
10013SOL    HW230939   0.137   1.118   3.408
10014SOL     OW30940   6.526   3.938   0.688
10014SOL    HW130941   6.618   3.899   0.689
10014SOL    HW230942   6.531   4.035   0.710
10015SOL     OW30943   1.810   4.971   0.289
10015SOL    HW130944   1.819   5.068   0.267
10015SOL    HW230945   1.845   4.954   0.381
10016SOL     OW30946   1.226   0.635   6.612
10016SOL    HW130947   1.213   0.706   6.542
10016SOL    HW230948   1.189   0.667   6.699
10017SOL     OW30949   2.877   1.889   2.824
10017SOL    HW130950   2.839   1.976   2.857
10017SOL    HW230951   2.803   1.830   2.792
10018SOL     OW30952   4.822   6.916   6.466
10018SOL    HW130953   4.739   6.869   6.435
10018SOL    HW230954   4.800   7.010   6.491
10019SOL     OW30955   0.515   1.282   3.285
10019SOL    HW130956   0.418   1.303   3.282
10019SOL    HW230957   0.550   1.298   3.377
10020SOL     OW30958   2.066   2.495   0.844
10020SOL    HW130959   2.099   2.530   0.756
10020SOL    HW230960   2.144   2.466   0.900
10021SOL     OW30961   0.582   2.277   1.379
10021SOL    HW130962   0.610   2.290   1.284
10021SOL    HW230963   0.645   2.214   1.424
10022SOL     OW30964   2.286   1.048   5.997
10022SOL    HW130965   2.377   1.042   6.040
10022SOL    HW230966   2.234   1.122   6.040
10023SOL     OW30967   0.359   4.917   1.136
10023SOL    HW130968   0.370   4.846   1.066
10023SOL    HW230969   0.421   4.899   1.212
10024SOL     OW30970   1.982   6.130   2.348
10024SOL    HW130971   1.991   6.115   2.447
10024SOL    HW230972   1.895   6.177   2.330
10025SOL     OW30973   1.331   1.317   0.340
10025SOL    HW130974   1.369   1.378   0.410
10025SOL    HW230975   1.377   1.228   0.345
10026SOL     OW30976   5.045   6.356   3.825
10026SOL    HW130977   5.046   6.448   3.787
10026SOL    HW230978   5.131   6.339   3.873
10027SOL     OW30979   6.693   4.012   4.321
10027SOL    HW130980   6.687   4.094   4.264
10027SOL    HW230981   6.600   3.981   4.345
10028SOL     OW30982   1.037   0.311   2.427
10028SOL    HW130983   1.110   0.243   2.426
10028SOL    HW230984   0.956   0.273   2.472
10029SOL     OW30985   4.551   1.753   4.571
10029SOL    HW130986   4.536   1.841   4.616
10029SOL    HW230987   4.614   1.698   4.626
10030SOL     OW30988   1.634   0.520   3.167
10030SOL    HW130989   1.591   0.561   3.247
10030SOL    HW230990   1.655   0.592   3.100
10031SOL     OW30991   5.497   4.474   5.004
10031SOL    HW130992   5.403   4.475   4.970
10031SOL    HW230993   5.548   4.401   4.959
10032SOL     OW30994   3.122   0.893   5.180
10032SOL    HW130995   3.208   0.845   5.199
10032SOL    HW230996   3.132   0.990   5.201
10033SOL     OW30997   6.821   2.895   4.751
10033SOL    HW130998   6.811   2.982   4.800
10033SOL    HW230999   6.811   2.912   4.653
10034SOL     OW31000   3.359   0.498   4.751
10034SOL    HW131001   3.447   0.541   4.729
10034SOL    HW231002   3.316   0.547   4.827
10035SOL     OW31003   6.779   5.606   1.776
10035SOL    HW131004   6.758   5.522   1.827
10035SOL    HW231005   6.704   5.625   1.712
10036SOL     OW31006   6.367   2.308   0.885
10036SOL    HW131007   6.388   2.232   0.946
10036SOL    HW231008   6.280   2.291   0.838
10037SOL     OW31009   6.840   1.729   0.088
10037SOL    HW131010   6.743   1.734   0.113
10037SOL    HW231011   6.850   1.676   0.004
10038SOL     OW31012   5.906   0.255   0.238
10038SOL    HW131013   5.841   0.233   0.311
10038SOL    HW231014   5.946   0.345   0.255
10039SOL     OW31015   3.668   0.588   3.785
10039SOL    HW131016   3.718   0.604   3.700
10039SOL    HW231017   3.571   0.577   3.765
10040SOL     OW31018   6.044   5.122   6.385
10040SOL    HW131019   6.112   5.052   6.361
10040SOL    HW231020   5.960   5.078   6.418
10041SOL     OW31021   3.600   6.220   6.781
10041SOL    HW131022   3.549   6.262   6.856
10041SOL    HW231023   3.576   6.123   6.774
10042SOL     OW31024   0.314   1.295   3.838
10042SOL    HW131025   0.382   1.362   3.868
10042SOL    HW231026   0.339   1.259   3.748
10043SOL     OW31027   6.419   1.765   5.222
10043SOL    HW131028   6.341   1.738   5.165
10043SOL    HW231029   6.504   1.748   5.172
10044SOL     OW31030   2.282   2.782   5.472
10044SOL    HW131031   2.292   2.722   5.392
10044SOL    HW231032   2.308   2.875   5.447
10045SOL     OW31033   4.217   0.856   1.501
10045SOL    HW131034   4.179   0.854   1.593
10045SOL    HW231035   4.172   0.787   1.444
10046SOL     OW31036   2.030   3.777   1.150
10046SOL    HW131037   2.057   3.764   1.054
10046SOL    HW231038   2.090   3.723   1.208
10047SOL     OW31039   0.621   3.041   5.923
10047SOL    HW131040   0.641   3.121   5.866
10047SOL    HW231041   0.656   3.058   6.016
10048SOL     OW31042   6.809   6.704   3.055
10048SOL    HW131043   6.823   6.750   2.968
10048SOL    HW231044   6.860   6.618   3.055
10049SOL     OW31045   1.061   1.685   6.056
10049SOL    HW131046   1.102   1.738   5.982
10049SOL    HW231047   1.111   1.700   6.141
10050SOL     OW31048   5.629   3.514   5.197
10050SOL    HW131049   5.537   3.474   5.207
10050SOL    HW231050   5.683   3.494   5.279
10051SOL     OW31051   0.564   4.482   4.759
10051SOL    HW131052   0.593   4.524   4.673
10051SOL    HW231053   0.466   4.497   4.772
10052SOL     OW31054   1.620   1.110   3.022
10052SOL    HW131055   1.621   1.127   2.924
10052SOL    HW231056   1.707   1.072   3.051
10053SOL     OW31057   5.231   4.886   4.201
10053SOL    HW131058   5.194   4.846   4.117
10053SOL    HW231059   5.172   4.962   4.229
10054SOL     OW31060   5.469   3.915   4.929
10054SOL    HW131061   5.390   3.938   4.872
10054SOL    HW231062   5.486   3.817   4.923
10055SOL     OW31063   6.763   2.627   6.709
10055SOL    HW131064   6.695   2.657   6.643
10055SOL    HW231065   6.725   2.554   6.766
10056SOL     OW31066   5.174   3.462   3.093
10056SOL    HW131067   5.081   3.459   3.131
10056SOL    HW231068   5.224   3.538   3.135
10057SOL     OW31069   5.508   3.777   5.567
10057SOL    HW131070   5.446   3.827   5.506
10057SOL    HW231071   5.589   3.747   5.517
10058SOL     OW31072   6.680   3.244   4.212
10058SOL    HW131073   6.743   3.258   4.289
10058SOL    HW231074   6.732   3.219   4.131
10059SOL     OW31075   6.113   1.714   0.783
10059SOL    HW131076   6.051   1.783   0.820
10059SOL    HW231077   6.199   1.757   0.755
10060SOL     OW31078   2.498   1.796   2.552
10060SOL    HW131079   2.530   1.890   2.546
10060SOL    HW231080   2.399   1.793   2.535
10061SOL     OW31081   4.138   1.225   3.855
10061SOL    HW131082   4.206   1.198   3.923
10061SOL    HW231083   4.185   1.253   3.771
10062SOL     OW31084   0.271   6.913   4.344
10062SOL    HW131085   0.329   6.838   4.310
10062SOL    HW231086   0.265   6.984   4.275
10063SOL     OW31087   2.385   1.876   4.327
10063SOL    HW131088   2.442   1.831   4.396
10063SOL    HW231089   2.430   1.960   4.296
10064SOL     OW31090   3.875   6.072   6.974
10064SOL    HW131091   3.973   6.091   6.974
10064SOL    HW231092   3.846   6.044   6.883
10065SOL     OW31093   1.351   1.044   1.549
10065SOL    HW131094   1.405   1.101   1.487
10065SOL    HW231095   1.393   0.953   1.553
10066SOL     OW31096   0.176   3.661   5.240
10066SOL    HW131097   0.274   3.650   5.256
10066SOL    HW231098   0.158   3.756   5.213
10067SOL     OW31099   0.632   3.163   6.703
10067SOL    HW131100   0.565   3.234   6.720
10067SOL    HW231101   0.609   3.115   6.618
10068SOL     OW31102   1.834   3.355   2.740
10068SOL    HW131103   1.839   3.448   2.776
10068SOL    HW231104   1.762   3.349   2.671
10069SOL     OW31105   3.533   5.109   1.870
10069SOL    HW131106   3.547   5.180   1.801
10069SOL    HW231107   3.452   5.131   1.924
10070SOL     OW31108   2.234   5.834   4.405
10070SOL    HW131109   2.199   5.868   4.318
10070SOL    HW231110   2.277   5.745   4.390
10071SOL     OW31111   0.326   6.281   3.730
10071SOL    HW131112   0.369   6.362   3.691
10071SOL    HW231113   0.227   6.284   3.716
10072SOL     OW31114   0.417   1.500   2.702
10072SOL    HW131115   0.428   1.599   2.689
10072SOL    HW231116   0.329   1.471   2.664
10073SOL     OW31117   6.134   2.880   3.799
10073SOL    HW131118   6.165   2.785   3.805
10073SOL    HW231119   6.176   2.925   3.721
10074SOL     OW31120   1.395   4.852   0.520
10074SOL    HW131121   1.450   4.773   0.548
10074SOL    HW231122   1.372   4.843   0.423
10075SOL     OW31123   2.211   1.463   2.225
10075SOL    HW131124   2.248   1.433   2.137
10075SOL    HW231125   2.284   1.501   2.281
10076SOL     OW31126   4.899   5.173   3.163
10076SOL    HW131127   4.993   5.140   3.168
10076SOL    HW231128   4.851   5.128   3.087
10077SOL     OW31129   6.276   3.242   0.158
10077SOL    HW131130   6.255   3.264   0.253
10077SOL    HW231131   6.362   3.284   0.132
10078SOL     OW31132   6.863   6.739   4.817
10078SOL    HW131133   6.828   6.831   4.798
10078SOL    HW231134   6.934   6.744   4.887
10079SOL     OW31135   5.652   2.964   3.595
10079SOL    HW131136   5.607   3.012   3.520
10079SOL    HW231137   5.651   3.021   3.677
10080SOL     OW31138   5.798   0.898   5.999
10080SOL    HW131139   5.861   0.862   6.066
10080SOL    HW231140   5.835   0.883   5.907
10081SOL     OW31141   1.446   1.517   6.600
10081SOL    HW131142   1.449   1.549   6.505
10081SOL    HW231143   1.445   1.417   6.601
10082SOL     OW31144   1.113   4.835   2.740
10082SOL    HW131145   1.137   4.898   2.814
10082SOL    HW231146   1.189   4.826   2.677
10083SOL     OW31147   3.452   5.298   3.614
10083SOL    HW131148   3.448   5.367   3.541
10083SOL    HW231149   3.366   5.299   3.665
10084SOL     OW31150   0.435   0.274   5.584
10084SOL    HW131151   0.421   0.363   5.628
10084SOL    HW231152   0.493   0.217   5.642
10085SOL     OW31153   3.924   6.795   0.160
10085SOL    HW131154   3.864   6.794   0.240
10085SOL    HW231155   3.989   6.870   0.167
10086SOL     OW31156   6.422   6.683   1.870
10086SOL    HW131157   6.396   6.586   1.869
10086SOL    HW231158   6.426   6.716   1.964
10087SOL     OW31159   0.745   6.593   4.237
10087SOL    HW131160   0.742   6.679   4.287
10087SOL    HW231161   0.767   6.518   4.300
10088SOL     OW31162   0.190   2.438   0.352
10088SOL    HW131163   0.103   2.481   0.374
10088SOL    HW231164   0.265   2.500   0.375
10089SOL     OW31165   4.224   1.481   2.207
10089SOL    HW131166   4.150   1.457   2.269
10089SOL    HW231167   4.240   1.580   2.210
10090SOL     OW31168   1.072   5.024   1.421
10090SOL    HW131169   1.138   5.090   1.384
10090SOL    HW231170   1.098   4.932   1.393
10091SOL     OW31171   6.707   5.472   6.124
10091SOL    HW131172   6.774   5.408   6.087
10091SOL    HW231173   6.753   5.554   6.156
10092SOL     OW31174   0.872   3.339   5.594
10092SOL    HW131175   0.796   3.317   5.532
10092SOL    HW231176   0.952   3.364   5.540
10093SOL     OW31177   5.133   3.744   6.126
10093SOL    HW131178   5.141   3.676   6.053
10093SOL    HW231179   5.050   3.798   6.112
10094SOL     OW31180   2.936   0.082   1.204
10094SOL    HW131181   2.935   7.011   1.221
10094SOL    HW231182   2.916   0.099   1.108
10095SOL     OW31183   5.190   2.612   5.140
10095SOL    HW131184   5.240   2.668   5.207
10095SOL    HW231185   5.241   2.611   5.054
10096SOL     OW31186   4.801   0.812   2.534
10096SOL    HW131187   4.843   0.885   2.481
10096SOL    HW231188   4.865   0.778   2.602
10097SOL     OW31189   2.052   1.468   5.876
10097SOL    HW131190   2.111   1.425   5.808
10097SOL    HW231191   1.958   1.436   5.864
10098SOL     OW31192   3.079   5.407   4.328
10098SOL    HW131193   3.060   5.370   4.419
10098SOL    HW231194   3.002   5.464   4.299
10099SOL     OW31195   6.299   3.910   1.667
10099SOL    HW131196   6.386   3.946   1.699
10099SOL    HW231197   6.309   3.874   1.574
10100SOL     OW31198   5.306   5.556   5.251
10100SOL    HW131199   5.327   5.458   5.247
10100SOL    HW231200   5.212   5.571   5.220
10101SOL     OW31201   0.838   2.510   1.515
10101SOL    HW131202   0.903   2.557   1.575
10101SOL    HW231203   0.758   2.484   1.568
10102SOL     OW31204   5.817   6.841   0.618
10102SOL    HW131205   5.813   6.831   0.519
10102SOL    HW231206   5.888   6.907   0.642
10103SOL     OW31207   0.621   0.538   5.733
10103SOL    HW131208   0.684   0.471   5.693
10103SOL    HW231209   0.650   0.559   5.826
10104SOL     OW31210   2.126   0.417   5.912
10104SOL    HW131211   2.039   0.384   5.949
10104SOL    HW231212   2.192   0.428   5.987
10105SOL     OW31213   3.021   1.438   5.820
10105SOL    HW131214   3.017   1.430   5.920
10105SOL    HW231215   2.954   1.505   5.788
10106SOL     OW31216   4.881   6.360   1.237
10106SOL    HW131217   4.895   6.267   1.205
10106SOL    HW231218   4.963   6.391   1.285
10107SOL     OW31219   5.484   4.895   6.341
10107SOL    HW131220   5.497   4.949   6.425
10107SOL    HW231221   5.391   4.907   6.308
10108SOL     OW31222   1.494   3.284   0.588
10108SOL    HW131223   1.493   3.277   0.488
10108SOL    HW231224   1.426   3.222   0.626
10109SOL     OW31225   0.738   1.108   7.005
10109SOL    HW131226   0.679   1.028   7.000
10109SOL    HW231227   0.748   1.137   0.072
10110SOL     OW31228   4.707   5.504   2.607
10110SOL    HW131229   4.728   5.545   2.695
10110SOL    HW231230   4.749   5.413   2.602
10111SOL     OW31231   1.373   2.074   1.985
10111SOL    HW131232   1.288   2.042   2.026
10111SOL    HW231233   1.451   2.040   2.038
10112SOL     OW31234   6.562   2.716   3.655
10112SOL    HW131235   6.519   2.804   3.675
10112SOL    HW231236   6.660   2.721   3.675
10113SOL     OW31237   5.010   1.118   6.837
10113SOL    HW131238   4.988   1.056   6.761
10113SOL    HW231239   5.074   1.072   6.900
10114SOL     OW31240   4.233   1.815   3.189
10114SOL    HW131241   4.192   1.813   3.280
10114SOL    HW231242   4.162   1.798   3.120
10115SOL     OW31243   3.233   1.140   4.863
10115SOL    HW131244   3.212   1.141   4.765
10115SOL    HW231245   3.326   1.171   4.878
10116SOL     OW31246   6.482   0.913   5.069
10116SOL    HW131247   6.518   0.998   5.031
10116SOL    HW231248   6.555   0.845   5.076
10117SOL     OW31249   6.206   5.459   4.803
10117SOL    HW131250   6.217   5.435   4.899
10117SOL    HW231251   6.208   5.376   4.747
10118SOL     OW31252   3.302   4.952   4.972
10118SOL    HW131253   3.268   4.921   4.883
10118SOL    HW231254   3.288   4.880   5.040
10119SOL     OW31255   0.188   5.019   4.265
10119SOL    HW131256   0.146   5.051   4.350
10119SOL    HW231257   0.170   4.921   4.254
10120SOL     OW31258   1.537   3.012   2.038
10120SOL    HW131259   1.583   3.100   2.047
10120SOL    HW231260   1.474   2.999   2.115
10121SOL     OW31261   6.269   4.240   0.883
10121SOL    HW131262   6.223   4.151   0.874
10121SOL    HW231263   6.315   4.245   0.971
10122SOL     OW31264   0.337   2.053   3.584
10122SOL    HW131265   0.400   2.021   3.656
10122SOL    HW231266   0.253   1.998   3.587
10123SOL     OW31267   5.654   6.128   1.448
10123SOL    HW131268   5.743   6.170   1.428
10123SOL    HW231269   5.583   6.176   1.396
10124SOL     OW31270   1.296   4.652   2.950
10124SOL    HW131271   1.254   4.598   3.022
10124SOL    HW231272   1.295   4.749   2.976
10125SOL     OW31273   1.640   2.194   0.276
10125SOL    HW131274   1.624   2.134   0.198
10125SOL    HW231275   1.672   2.283   0.245
10126SOL     OW31276   5.997   0.558   6.803
10126SOL    HW131277   6.063   0.634   6.803
10126SOL    HW231278   5.906   0.593   6.822
10127SOL     OW31279   2.049   4.930   6.043
10127SOL    HW131280   2.005   5.015   6.073
10127SOL    HW231281   2.064   4.932   5.944
10128SOL     OW31282   3.182   0.533   0.506
10128SOL    HW131283   3.089   0.557   0.479
10128SOL    HW231284   3.205   0.443   0.470
10129SOL     OW31285   6.249   1.717   3.724
10129SOL    HW131286   6.248   1.667   3.811
10129SOL    HW231287   6.342   1.724   3.690
10130SOL     OW31288   1.461   2.337   2.363
10130SOL    HW131289   1.450   2.238   2.367
10130SOL    HW231290   1.548   2.363   2.405
10131SOL     OW31291   1.940   0.696   4.582
10131SOL    HW131292   1.960   0.760   4.509
10131SOL    HW231293   2.026   0.669   4.627
10132SOL     OW31294   6.698   0.889   2.699
10132SOL    HW131295   6.603   0.862   2.681
10132SOL    HW231296   6.760   0.835   2.642
10133SOL     OW31297   4.494   5.793   1.109
10133SOL    HW131298   4.416   5.775   1.049
10133SOL    HW231299   4.499   5.892   1.128
10134SOL     OW31300   5.788   0.411   2.427
10134SOL    HW131301   5.823   0.475   2.496
10134SOL    HW231302   5.754   0.462   2.349
10135SOL     OW31303   5.751   6.991   3.582
10135SOL    HW131304   5.665   6.996   3.633
10135SOL    HW231305   5.739   0.001   3.491
10136SOL     OW31306   4.644   1.854   2.596
10136SOL    HW131307   4.577   1.794   2.551
10136SOL    HW231308   4.657   1.937   2.542
10137SOL     OW31309   0.242   5.993   5.852
10137SOL    HW131310   0.170   6.027   5.791
10137SOL    HW231311   0.324   5.976   5.798
10138SOL     OW31312   5.437   1.193   6.901
10138SOL    HW131313   5.466   1.288   6.919
10138SOL    HW231314   5.441   1.176   6.803
10139SOL     OW31315   3.343   3.556   5.430
10139SOL    HW131316   3.302   3.612   5.358
10139SOL    HW231317   3.432   3.523   5.400
10140SOL     OW31318   6.892   5.375   5.942
10140SOL    HW131319   6.967   5.315   5.970
10140SOL    HW231320   6.834   5.327   5.876
10141SOL     OW31321   2.944   1.472   3.962
10141SOL    HW131322   2.865   1.482   3.901
10141SOL    HW231323   2.973   1.563   3.992
10142SOL     OW31324   6.096   6.312   4.156
10142SOL    HW131325   6.011   6.259   4.154
10142SOL    HW231326   6.172   6.254   4.129
10143SOL     OW31327   5.774   3.104   0.525
10143SOL    HW131328   5.684   3.095   0.567
10143SOL    HW231329   5.842   3.124   0.595
10144SOL     OW31330   3.729   6.063   5.149
10144SOL    HW131331   3.718   6.159   5.123
10144SOL    HW231332   3.815   6.051   5.198
10145SOL     OW31333   5.168   5.900   0.778
10145SOL    HW131334   5.177   5.817   0.724
10145SOL    HW231335   5.253   5.952   0.775
10146SOL     OW31336   0.649   3.418   4.015
10146SOL    HW131337   0.595   3.435   3.933
10146SOL    HW231338   0.686   3.504   4.049
10147SOL     OW31339   4.514   5.836   6.313
10147SOL    HW131340   4.450   5.823   6.237
10147SOL    HW231341   4.492   5.772   6.386
10148SOL     OW31342   1.124   4.987   6.873
10148SOL    HW131343   1.182   5.017   6.797
10148SOL    HW231344   1.034   5.031   6.866
10149SOL     OW31345   4.505   4.423   0.812
10149SOL    HW131346   4.503   4.409   0.911
10149SOL    HW231347   4.500   4.520   0.792
10150SOL     OW31348   4.659   4.180   0.468
10150SOL    HW131349   4.575   4.127   0.478
10150SOL    HW231350   4.673   4.236   0.550
10151SOL     OW31351   6.451   0.445   5.627
10151SOL    HW131352   6.388   0.374   5.595
10151SOL    HW231353   6.419   0.534   5.594
10152SOL     OW31354   5.635   6.416   2.777
10152SOL    HW131355   5.705   6.348   2.800
10152SOL    HW231356   5.607   6.403   2.682
10153SOL     OW31357   5.693   4.774   4.033
10153SOL    HW131358   5.689   4.683   3.992
10153SOL    HW231359   5.611   4.789   4.089
10154SOL     OW31360   4.258   5.369   5.349
10154SOL    HW131361   4.284   5.293   5.408
10154SOL    HW231362   4.208   5.438   5.402
10155SOL     OW31363   4.099   2.086   5.812
10155SOL    HW131364   4.127   2.036   5.894
10155SOL    HW231365   4.017   2.044   5.774
10156SOL     OW31366   4.754   0.749   0.967
10156SOL    HW131367   4.840   0.709   0.936
10156SOL    HW231368   4.771   0.807   1.047
10157SOL     OW31369   0.091   3.207   1.352
10157SOL    HW131370   0.139   3.209   1.265
10157SOL    HW231371   0.156   3.193   1.426
10158SOL     OW31372   5.577   6.427   1.966
10158SOL    HW131373   5.505   6.368   1.928
10158SOL    HW231374   5.560   6.522   1.939
10159SOL     OW31375   3.436   3.291   3.170
10159SOL    HW131376   3.398   3.367   3.223
10159SOL    HW231377   3.535   3.288   3.183
10160SOL     OW31378   2.223   4.242   3.205
10160SOL    HW131379   2.170   4.184   3.267
10160SOL    HW231380   2.282   4.185   3.148
10161SOL     OW31381   4.293   4.919   6.405
10161SOL    HW131382   4.356   4.856   6.361
10161SOL    HW231383   4.263   4.880   6.493
10162SOL     OW31384   1.648   4.034   2.503
10162SOL    HW131385   1.652   4.064   2.598
10162SOL    HW231386   1.571   3.970   2.491
10163SOL     OW31387   1.192   6.334   5.361
10163SOL    HW131388   1.165   6.251   5.312
10163SOL    HW231389   1.110   6.384   5.389
10164SOL     OW31390   6.874   2.928   3.158
10164SOL    HW131391   6.848   2.871   3.236
10164SOL    HW231392   6.962   2.898   3.123
10165SOL     OW31393   6.250   3.345   4.198
10165SOL    HW131394   6.244   3.246   4.188
10165SOL    HW231395   6.284   3.384   4.112
10166SOL     OW31396   1.455   2.095   0.975
10166SOL    HW131397   1.460   2.051   1.065
10166SOL    HW231398   1.515   2.175   0.973
10167SOL     OW31399   0.875   6.565   6.792
10167SOL    HW131400   0.782   6.591   6.764
10167SOL    HW231401   0.875   6.543   6.890
10168SOL     OW31402   5.616   0.984   0.320
10168SOL    HW131403   5.636   0.954   0.413
10168SOL    HW231404   5.671   1.065   0.298
10169SOL     OW31405   6.670   3.195   3.065
10169SOL    HW131406   6.678   3.133   2.987
10169SOL    HW231407   6.760   3.235   3.084
10170SOL     OW31408   6.297   5.836   6.755
10170SOL    HW131409   6.246   5.864   6.837
10170SOL    HW231410   6.233   5.809   6.683
10171SOL     OW31411   1.597   3.184   5.434
10171SOL    HW131412   1.620   3.169   5.530
10171SOL    HW231413   1.508   3.143   5.414
10172SOL     OW31414   6.149   0.146   3.565
10172SOL    HW131415   6.214   0.071   3.552
10172SOL    HW231416   6.083   0.121   3.636
10173SOL     OW31417   3.598   5.114   0.185
10173SOL    HW131418   3.504   5.087   0.205
10173SOL    HW231419   3.598   5.205   0.143
10174SOL     OW31420   4.263   6.439   2.360
10174SOL    HW131421   4.225   6.463   2.449
10174SOL    HW231422   4.215   6.490   2.289
10175SOL     OW31423   0.014   2.114   3.984
10175SOL    HW131424   0.027   2.080   4.077
10175SOL    HW231425   6.973   2.187   3.984
10176SOL     OW31426   6.133   3.090   5.605
10176SOL    HW131427   6.095   3.177   5.573
10176SOL    HW231428   6.174   3.103   5.695
10177SOL     OW31429   2.013   0.771   1.992
10177SOL    HW131430   1.916   0.795   1.999
10177SOL    HW231431   2.060   0.797   2.076
10178SOL     OW31432   1.528   1.388   0.050
10178SOL    HW131433   1.612   1.420   0.006
10178SOL    HW231434   1.541   1.386   0.149
10179SOL     OW31435   6.928   4.233   1.093
10179SOL    HW131436   6.863   4.304   1.064
10179SOL    HW231437   7.021   4.264   1.075
10180SOL     OW31438   3.864   6.981   5.927
10180SOL    HW131439   3.811   6.948   6.005
10180SOL    HW231440   3.908   0.039   5.951
10181SOL     OW31441   6.784   3.922   1.288
10181SOL    HW131442   6.801   3.824   1.282
10181SOL    HW231443   6.799   3.964   1.199
10182SOL     OW31444   5.102   0.913   0.117
10182SOL    HW131445   5.148   0.826   0.100
10182SOL    HW231446   5.159   0.988   0.085
10183SOL     OW31447   6.284   1.988   6.105
10183SOL    HW131448   6.288   1.941   6.017
10183SOL    HW231449   6.199   2.040   6.111
10184SOL     OW31450   5.962   3.831   6.025
10184SOL    HW131451   5.941   3.734   6.007
10184SOL    HW231452   5.933   3.854   6.118
10185SOL     OW31453   3.775   5.776   2.670
10185SOL    HW131454   3.803   5.839   2.597
10185SOL    HW231455   3.683   5.798   2.700
10186SOL     OW31456   4.660   4.007   5.849
10186SOL    HW131457   4.698   4.096   5.823
10186SOL    HW231458   4.732   3.937   5.844
10187SOL     OW31459   2.678   4.808   6.290
10187SOL    HW131460   2.598   4.865   6.270
10187SOL    HW231461   2.759   4.848   6.246
10188SOL     OW31462   2.341   6.824   0.032
10188SOL    HW131463   2.407   6.855   6.992
10188SOL    HW231464   2.288   6.902   0.066
10189SOL     OW31465   1.183   1.103   6.395
10189SOL    HW131466   1.157   1.197   6.370
10189SOL    HW231467   1.164   1.042   6.319
10190SOL     OW31468   3.211   4.710   1.471
10190SOL    HW131469   3.276   4.784   1.484
10190SOL    HW231470   3.252   4.623   1.499
10191SOL     OW31471   5.667   5.894   6.642
10191SOL    HW131472   5.645   5.989   6.659
10191SOL    HW231473   5.597   5.835   6.683
10192SOL     OW31474   2.325   1.694   4.935
10192SOL    HW131475   2.233   1.693   4.897
10192SOL    HW231476   2.381   1.759   4.885
10193SOL     OW31477   4.100   3.604   3.073
10193SOL    HW131478   4.028   3.633   3.137
10193SOL    HW231479   4.167   3.549   3.122
10194SOL     OW31480   3.887   0.076   4.558
10194SOL    HW131481   3.908   0.161   4.510
10194SOL    HW231482   3.950   0.064   4.635
10195SOL     OW31483   5.250   0.041   2.258
10195SOL    HW131484   5.164   0.009   2.220
10195SOL    HW231485   5.238   0.133   2.296
10196SOL     OW31486   5.683   1.769   2.971
10196SOL    HW131487   5.724   1.768   3.062
10196SOL    HW231488   5.585   1.751   2.978
10197SOL     OW31489   6.405   0.203   2.532
10197SOL    HW131490   6.350   0.165   2.606
10197SOL    HW231491   6.346   0.227   2.454
10198SOL     OW31492   3.223   6.507   1.607
10198SOL    HW131493   3.129   6.522   1.637
10198SOL    HW231494   3.281   6.583   1.638
10199SOL     OW31495   0.992   1.957   6.569
10199SOL    HW131496   1.049   2.014   6.510
10199SOL    HW231497   0.897   1.965   6.542
10200SOL     OW31498   4.886   4.294   5.329
10200SOL    HW131499   4.882   4.241   5.244
10200SOL    HW231500   4.982   4.309   5.354
10201SOL     OW31501   0.903   5.536   2.129
10201SOL    HW131502   0.985   5.480   2.120
10201SOL    HW231503   0.841   5.517   2.053
10202SOL     OW31504   0.821   3.925   1.804
10202SOL    HW131505   0.772   3.841   1.829
10202SOL    HW231506   0.898   3.938   1.866
10203SOL     OW31507   2.036   3.151   2.203
10203SOL    HW131508   2.025   3.181   2.298
10203SOL    HW231509   2.051   3.052   2.201
10204SOL     OW31510   3.171   4.765   5.163
10204SOL    HW131511   3.139   4.832   5.230
10204SOL    HW231512   3.096   4.704   5.137
10205SOL     OW31513   5.799   2.010   3.615
10205SOL    HW131514   5.831   1.960   3.535
10205SOL    HW231515   5.870   2.009   3.686
10206SOL     OW31516   5.913   6.666   6.121
10206SOL    HW131517   5.824   6.642   6.081
10206SOL    HW231518   5.975   6.588   6.112
10207SOL     OW31519   2.834   0.860   2.890
10207SOL    HW131520   2.801   0.819   2.975
10207SOL    HW231521   2.784   0.823   2.813
10208SOL     OW31522   5.794   5.251   5.515
10208SOL    HW131523   5.728   5.176   5.511
10208SOL    HW231524   5.814   5.283   5.423
10209SOL     OW31525   0.050   0.867   6.446
10209SOL    HW131526   0.136   0.901   6.407
10209SOL    HW231527   7.001   0.903   6.393
10210SOL     OW31528   5.930   6.758   2.448
10210SOL    HW131529   5.845   6.788   2.404
10210SOL    HW231530   5.915   6.669   2.491
10211SOL     OW31531   3.894   6.475   5.386
10211SOL    HW131532   3.875   6.462   5.483
10211SOL    HW231533   3.973   6.419   5.360
10212SOL     OW31534   0.483   1.094   3.954
10212SOL    HW131535   0.439   1.105   4.042
10212SOL    HW231536   0.439   1.153   3.886
10213SOL     OW31537   5.719   1.919   3.246
10213SOL    HW131538   5.794   1.973   3.285
10213SOL    HW231539   5.730   1.823   3.270
10214SOL     OW31540   6.330   0.791   2.434
10214SOL    HW131541   6.310   0.715   2.496
10214SOL    HW231542   6.260   0.795   2.363
10215SOL     OW31543   3.864   3.519   6.068
10215SOL    HW131544   3.841   3.424   6.048
10215SOL    HW231545   3.902   3.526   6.161
10216SOL     OW31546   6.155   0.006   0.928
10216SOL    HW131547   6.065   0.005   0.884
10216SOL    HW231548   6.201   0.093   0.908
10217SOL     OW31549   2.861   2.078   4.047
10217SOL    HW131550   2.773   2.124   4.050
10217SOL    HW231551   2.864   2.016   3.968
10218SOL     OW31552   2.252   0.713   1.389
10218SOL    HW131553   2.284   0.788   1.447
10218SOL    HW231554   2.308   0.708   1.306
10219SOL     OW31555   0.845   2.030   2.228
10219SOL    HW131556   0.842   2.008   2.131
10219SOL    HW231557   0.770   2.092   2.250
10220SOL     OW31558   4.213   2.095   1.663
10220SOL    HW131559   4.176   2.135   1.747
10220SOL    HW231560   4.138   2.060   1.607
10221SOL     OW31561   2.930   0.531   5.243
10221SOL    HW131562   3.004   0.512   5.308
10221SOL    HW231563   2.855   0.576   5.291
10222SOL     OW31564   1.327   4.382   5.245
10222SOL    HW131565   1.361   4.354   5.335
10222SOL    HW231566   1.311   4.301   5.189
10223SOL     OW31567   1.675   4.854   6.946
10223SOL    HW131568   1.666   4.944   6.987
10223SOL    HW231569   1.674   4.784   7.017
10224SOL     OW31570   0.702   0.205   4.340
10224SOL    HW131571   0.737   0.251   4.258
10224SOL    HW231572   0.603   0.199   4.336
10225SOL     OW31573   0.133   5.863   4.589
10225SOL    HW131574   0.204   5.870   4.658
10225SOL    HW231575   0.093   5.953   4.572
10226SOL     OW31576   2.709   1.216   6.886
10226SOL    HW131577   2.679   1.256   6.973
10226SOL    HW231578   2.757   1.286   6.832
10227SOL     OW31579   4.924   4.496   0.321
10227SOL    HW131580   4.849   4.526   0.381
10227SOL    HW231581   4.886   4.452   0.240
10228SOL     OW31582   0.265   5.438   2.548
10228SOL    HW131583   0.179   5.459   2.502
10228SOL    HW231584   0.265   5.342   2.576
10229SOL     OW31585   0.888   0.348   3.550
10229SOL    HW131586   0.887   0.248   3.537
10229SOL    HW231587   0.922   0.392   3.467
10230SOL     OW31588   6.209   6.847   3.666
10230SOL    HW131589   6.254   6.847   3.755
10230SOL    HW231590   6.262   6.902   3.601
10231SOL     OW31591   6.136   0.148   4.493
10231SOL    HW131592   6.062   0.088   4.524
10231SOL    HW231593   6.215   0.092   4.468
10232SOL     OW31594   3.617   1.072   4.109
10232SOL    HW131595   3.562   1.136   4.163
10232SOL    HW231596   3.596   1.082   4.012
10233SOL     OW31597   4.194   2.972   5.977
10233SOL    HW131598   4.174   3.055   6.029
10233SOL    HW231599   4.137   2.897   6.010
10234SOL     OW31600   4.993   0.253   0.953
10234SOL    HW131601   4.989   0.155   0.934
10234SOL    HW231602   5.066   0.294   0.899
10235SOL     OW31603   4.748   1.237   0.261
10235SOL    HW131604   4.731   1.138   0.257
10235SOL    HW231605   4.808   1.263   0.186
10236SOL     OW31606   2.488   6.583   1.563
10236SOL    HW131607   2.473   6.680   1.542
10236SOL    HW231608   2.417   6.551   1.625
10237SOL     OW31609   6.052   4.251   1.894
10237SOL    HW131610   6.012   4.196   1.820
10237SOL    HW231611   6.026   4.347   1.882
10238SOL     OW31612   3.876   4.533   5.357
10238SOL    HW131613   3.802   4.493   5.302
10238SOL    HW231614   3.960   4.481   5.344
10239SOL     OW31615   0.588   4.342   5.244
10239SOL    HW131616   0.489   4.333   5.235
10239SOL    HW231617   0.616   4.435   5.218
10240SOL     OW31618   0.895   4.676   3.018
10240SOL    HW131619   0.930   4.610   2.952
10240SOL    HW231620   0.800   4.654   3.040
10241SOL     OW31621   0.430   1.308   2.194
10241SOL    HW131622   0.483   1.264   2.121
10241SOL    HW231623   0.444   1.407   2.191
10242SOL     OW31624   0.200   1.394   5.702
10242SOL    HW131625   0.162   1.323   5.643
10242SOL    HW231626   0.135   1.469   5.709
10243SOL     OW31627   0.479   5.153   1.456
10243SOL    HW131628   0.493   5.201   1.369
10243SOL    HW231629   0.468   5.220   1.530
10244SOL     OW31630   2.406   4.780   6.724
10244SOL    HW131631   2.477   4.757   6.658
10244SOL    HW231632   2.440   4.850   6.787
10245SOL     OW31633   1.644   3.037   6.757
10245SOL    HW131634   1.644   2.945   6.797
10245SOL    HW231635   1.714   3.093   6.802
10246SOL     OW31636   3.053   3.926   4.240
10246SOL    HW131637   2.987   3.998   4.218
10246SOL    HW231638   3.129   3.929   4.175
10247SOL     OW31639   0.436   5.631   5.973
10247SOL    HW131640   0.360   5.586   5.928
10247SOL    HW231641   0.472   5.703   5.913
10248SOL     OW31642   3.164   0.344   2.145
10248SOL    HW131643   3.108   0.276   2.192
10248SOL    HW231644   3.242   0.368   2.203
10249SOL     OW31645   4.133   0.213   5.595
10249SOL    HW131646   4.229   0.204   5.623
10249SOL    HW231647   4.127   0.271   5.514
10250SOL     OW31648   6.505   1.077   1.425
10250SOL    HW131649   6.477   1.104   1.517
10250SOL    HW231650   6.545   0.986   1.428
10251SOL     OW31651   2.672   2.752   6.352
10251SOL    HW131652   2.657   2.802   6.267
10251SOL    HW231653   2.598   2.686   6.365
10252SOL     OW31654   6.113   6.561   0.914
10252SOL    HW131655   6.185   6.626   0.939
10252SOL    HW231656   6.062   6.595   0.835
10253SOL     OW31657   4.816   5.002   0.481
10253SOL    HW131658   4.882   5.057   0.429
10253SOL    HW231659   4.726   5.009   0.439
10254SOL     OW31660   3.091   1.687   4.862
10254SOL    HW131661   3.050   1.698   4.952
10254SOL    HW231662   3.164   1.754   4.849
10255SOL     OW31663   2.136   6.224   1.716
10255SOL    HW131664   2.216   6.197   1.770
10255SOL    HW231665   2.089   6.300   1.761
10256SOL     OW31666   4.950   0.144   0.339
10256SOL    HW131667   4.995   0.210   0.399
10256SOL    HW231668   4.853   0.164   0.334
10257SOL     OW31669   1.471   4.981   5.300
10257SOL    HW131670   1.389   4.970   5.355
10257SOL    HW231671   1.485   4.900   5.243
10258SOL     OW31672   4.972   6.220   3.593
10258SOL    HW131673   4.874   6.240   3.603
10258SOL    HW231674   5.023   6.269   3.663
10259SOL     OW31675   0.025   4.837   3.839
10259SOL    HW131676   0.107   4.791   3.871
10259SOL    HW231677   6.995   4.860   3.917
10260SOL     OW31678   0.457   6.356   3.062
10260SOL    HW131679   0.556   6.344   3.056
10260SOL    HW231680   0.411   6.269   3.042
10261SOL     OW31681   6.811   6.041   2.561
10261SOL    HW131682   6.861   6.024   2.476
10261SOL    HW231683   6.797   6.139   2.573
10262SOL     OW31684   3.271   4.991   4.525
10262SOL    HW131685   3.267   4.939   4.440
10262SOL    HW231686   3.301   5.085   4.505
10263SOL     OW31687   5.157   2.072   0.094
10263SOL    HW131688   5.235   2.134   0.098
10263SOL    HW231689   5.138   2.050   7.026
10264SOL     OW31690   5.722   1.216   6.508
10264SOL    HW131691   5.763   1.136   6.464
10264SOL    HW231692   5.721   1.292   6.443
10265SOL     OW31693   3.339   1.684   3.091
10265SOL    HW131694   3.378   1.618   3.155
10265SOL    HW231695   3.252   1.648   3.056
10266SOL     OW31696   3.903   3.906   6.415
10266SOL    HW131697   3.898   3.832   6.348
10266SOL    HW231698   3.887   3.870   6.507
10267SOL     OW31699   6.912   1.922   0.252
10267SOL    HW131700   6.897   1.847   0.188
10267SOL    HW231701   6.824   1.963   0.276
10268SOL     OW31702   5.431   6.114   1.639
10268SOL    HW131703   5.521   6.121   1.597
10268SOL    HW231704   5.368   6.071   1.575
10269SOL     OW31705   2.443   2.065   5.645
10269SOL    HW131706   2.481   2.146   5.689
10269SOL    HW231707   2.485   2.052   5.555
10270SOL     OW31708   1.986   6.098   0.451
10270SOL    HW131709   1.966   6.089   0.549
10270SOL    HW231710   1.981   6.008   0.407
10271SOL     OW31711   3.407   3.657   0.722
10271SOL    HW131712   3.330   3.709   0.760
10271SOL    HW231713   3.374   3.600   0.646
10272SOL     OW31714   1.358   0.876   4.359
10272SOL    HW131715   1.372   0.952   4.423
10272SOL    HW231716   1.363   0.911   4.265
10273SOL     OW31717   3.289   5.577   3.899
10273SOL    HW131718   3.248   5.499   3.947
10273SOL    HW231719   3.293   5.558   3.801
10274SOL     OW31720   1.357   5.261   5.777
10274SOL    HW131721   1.270   5.214   5.786
10274SOL    HW231722   1.353   5.326   5.700
10275SOL     OW31723   0.953   6.175   3.392
10275SOL    HW131724   0.895   6.131   3.324
10275SOL    HW231725   0.968   6.112   3.468
10276SOL     OW31726   6.920   5.666   5.844
10276SOL    HW131727   6.914   5.567   5.858
10276SOL    HW231728   6.828   5.704   5.834
10277SOL     OW31729   2.771   6.498   3.965
10277SOL    HW131730   2.747   6.517   3.870
10277SOL    HW231731   2.688   6.473   4.016
10278SOL     OW31732   6.876   0.942   6.280
10278SOL    HW131733   6.786   0.905   6.301
10278SOL    HW231734   6.891   0.941   6.181
10279SOL     OW31735   3.224   6.970   3.996
10279SOL    HW131736   3.234   6.877   3.960
10279SOL    HW231737   3.311   7.000   4.033
10280SOL     OW31738   2.088   4.716   0.604
10280SOL    HW131739   2.003   4.702   0.655
10280SOL    HW231740   2.068   4.762   0.517
10281SOL     OW31741   4.732   1.409   2.847
10281SOL    HW131742   4.697   1.411   2.753
10281SOL    HW231743   4.744   1.314   2.876
10282SOL     OW31744   0.148   2.787   3.687
10282SOL    HW131745   0.084   2.712   3.706
10282SOL    HW231746   0.125   2.828   3.599
10283SOL     OW31747   1.081   3.138   1.202
10283SOL    HW131748   1.062   3.167   1.296
10283SOL    HW231749   1.028   3.194   1.138
10284SOL     OW31750   5.361   3.516   4.999
10284SOL    HW131751   5.302   3.544   5.075
10284SOL    HW231752   5.427   3.589   4.980
10285SOL     OW31753   4.835   0.206   1.507
10285SOL    HW131754   4.861   0.124   1.455
10285SOL    HW231755   4.896   0.281   1.482
10286SOL     OW31756   3.643   1.602   2.632
10286SOL    HW131757   3.591   1.562   2.707
10286SOL    HW231758   3.729   1.553   2.622
10287SOL     OW31759   1.423   6.491   2.041
10287SOL    HW131760   1.408   6.489   1.943
10287SOL    HW231761   1.399   6.402   2.080
10288SOL     OW31762   5.152   5.437   3.181
10288SOL    HW131763   5.067   5.446   3.130
10288SOL    HW231764   5.229   5.439   3.118
10289SOL     OW31765   2.926   1.306   1.717
10289SOL    HW131766   2.969   1.224   1.677
10289SOL    HW231767   2.860   1.279   1.786
10290SOL     OW31768   4.077   3.461   2.735
10290SOL    HW131769   4.089   3.378   2.790
10290SOL    HW231770   4.093   3.440   2.639
10291SOL     OW31771   3.796   0.897   3.552
10291SOL    HW131772   3.741   0.903   3.469
10291SOL    HW231773   3.863   0.972   3.553
10292SOL     OW31774   0.661   2.332   4.968
10292SOL    HW131775   0.669   2.275   4.886
10292SOL    HW231776   0.701   2.283   5.046
10293SOL     OW31777   1.890   6.018   3.092
10293SOL    HW131778   1.990   6.025   3.091
10293SOL    HW231779   1.863   5.941   3.149
10294SOL     OW31780   4.655   2.368   2.705
10294SOL    HW131781   4.573   2.378   2.649
10294SOL    HW231782   4.632   2.383   2.801
10295SOL     OW31783   6.601   4.641   5.513
10295SOL    HW131784   6.633   4.646   5.607
10295SOL    HW231785   6.664   4.692   5.454
10296SOL     OW31786   5.934   4.231   6.029
10296SOL    HW131787   5.860   4.295   6.047
10296SOL    HW231788   5.999   4.232   6.106
10297SOL     OW31789   2.571   6.667   4.263
10297SOL    HW131790   2.489   6.697   4.216
10297SOL    HW231791   2.605   6.582   4.223
10298SOL     OW31792   4.950   4.034   3.139
10298SOL    HW131793   5.033   3.994   3.178
10298SOL    HW231794   4.911   4.100   3.203
10299SOL     OW31795   4.825   4.230   3.306
10299SOL    HW131796   4.853   4.318   3.343
10299SOL    HW231797   4.783   4.243   3.216
10300SOL     OW31798   1.379   3.297   1.680
10300SOL    HW131799   1.321   3.217   1.663
10300SOL    HW231800   1.437   3.314   1.601
10301SOL     OW31801   5.950   1.694   3.737
10301SOL    HW131802   6.031   1.690   3.797
10301SOL    HW231803   5.974   1.658   3.647
10302SOL     OW31804   1.366   6.554   2.895
10302SOL    HW131805   1.407   6.466   2.920
10302SOL    HW231806   1.310   6.542   2.813
10303SOL     OW31807   3.497   3.449   1.718
10303SOL    HW131808   3.466   3.516   1.651
10303SOL    HW231809   3.464   3.358   1.693
10304SOL     OW31810   6.758   0.010   3.970
10304SOL    HW131811   6.755   0.098   4.018
10304SOL    HW231812   6.841   0.005   3.915
10305SOL     OW31813   1.721   5.864   0.047
10305SOL    HW131814   1.713   5.855   6.975
10305SOL    HW231815   1.772   5.947   0.068
10306SOL     OW31816   4.599   5.885   0.204
10306SOL    HW131817   4.520   5.843   0.159
10306SOL    HW231818   4.574   5.915   0.296
10307SOL     OW31819   1.156   0.914   5.393
10307SOL    HW131820   1.139   0.882   5.486
10307SOL    HW231821   1.234   0.865   5.354
10308SOL     OW31822   3.081   4.981   3.416
10308SOL    HW131823   3.049   4.909   3.354
10308SOL    HW231824   3.063   5.071   3.376
10309SOL     OW31825   5.917   6.254   3.357
10309SOL    HW131826   6.013   6.283   3.365
10309SOL    HW231827   5.864   6.326   3.312
10310SOL     OW31828   3.242   3.689   2.166
10310SOL    HW131829   3.182   3.649   2.097
10310SOL    HW231830   3.280   3.617   2.223
10311SOL     OW31831   0.607   5.931   0.840
10311SOL    HW131832   0.592   5.844   0.793
10311SOL    HW231833   0.689   5.924   0.897
10312SOL     OW31834   3.749   4.838   0.624
10312SOL    HW131835   3.653   4.838   0.653
10312SOL    HW231836   3.757   4.882   0.535
10313SOL     OW31837   4.822   0.112   2.400
10313SOL    HW131838   4.756   0.173   2.445
10313SOL    HW231839   4.878   0.066   2.469
10314SOL     OW31840   6.630   0.324   0.731
10314SOL    HW131841   6.728   0.341   0.749
10314SOL    HW231842   6.602   0.241   0.778
10315SOL     OW31843   6.513   6.116   5.657
10315SOL    HW131844   6.609   6.117   5.627
10315SOL    HW231845   6.502   6.052   5.733
10316SOL     OW31846   0.118   3.860   4.835
10316SOL    HW131847   0.183   3.792   4.801
10316SOL    HW231848   0.058   3.817   4.903
10317SOL     OW31849   3.840   5.073   6.202
10317SOL    HW131850   3.919   5.129   6.178
10317SOL    HW231851   3.769   5.130   6.243
10318SOL     OW31852   6.524   5.068   1.186
10318SOL    HW131853   6.502   5.051   1.282
10318SOL    HW231854   6.622   5.051   1.171
10319SOL     OW31855   0.336   4.320   3.876
10319SOL    HW131856   0.259   4.321   3.812
10319SOL    HW231857   0.422   4.329   3.826
10320SOL     OW31858   1.067   6.404   0.739
10320SOL    HW131859   1.042   6.411   0.643
10320SOL    HW231860   0.994   6.442   0.796
10321SOL     OW31861   4.495   6.096   4.478
10321SOL    HW131862   4.398   6.072   4.486
10321SOL    HW231863   4.504   6.179   4.423
10322SOL     OW31864   6.510   5.279   0.832
10322SOL    HW131865   6.513   5.298   0.930
10322SOL    HW231866   6.488   5.363   0.782
10323SOL     OW31867   6.265   3.250   6.289
10323SOL    HW131868   6.336   3.202   6.237
10323SOL    HW231869   6.179   3.198   6.284
10324SOL     OW31870   3.147   3.074   3.778
10324SOL    HW131871   3.211   3.000   3.757
10324SOL    HW231872   3.120   3.119   3.693
10325SOL     OW31873   6.728   3.587   3.338
10325SOL    HW131874   6.717   3.654   3.264
10325SOL    HW231875   6.758   3.500   3.300
10326SOL     OW31876   4.887   3.125   0.173
10326SOL    HW131877   4.846   3.114   0.264
10326SOL    HW231878   4.958   3.195   0.176
10327SOL     OW31879   1.314   0.938   3.040
10327SOL    HW131880   1.377   0.991   3.097
10327SOL    HW231881   1.331   0.959   2.944
10328SOL     OW31882   5.596   3.689   2.354
10328SOL    HW131883   5.676   3.636   2.325
10328SOL    HW231884   5.611   3.724   2.446
10329SOL     OW31885   3.309   0.611   2.724
10329SOL    HW131886   3.262   0.573   2.644
10329SOL    HW231887   3.347   0.701   2.702
10330SOL     OW31888   3.586   5.531   2.850
10330SOL    HW131889   3.601   5.454   2.788
10330SOL    HW231890   3.597   5.617   2.800
10331SOL     OW31891   5.411   0.545   3.730
10331SOL    HW131892   5.507   0.554   3.702
10331SOL    HW231893   5.382   0.630   3.775
10332SOL     OW31894   0.215   1.786   0.822
10332SOL    HW131895   0.276   1.759   0.747
10332SOL    HW231896   0.130   1.733   0.817
10333SOL     OW31897   5.636   5.238   4.589
10333SOL    HW131898   5.663   5.165   4.525
10333SOL    HW231899   5.683   5.322   4.565
10334SOL     OW31900   2.264   5.056   4.272
10334SOL    HW131901   2.322   4.986   4.230
10334SOL    HW231902   2.304   5.084   4.360
10335SOL     OW31903   2.376   5.521   0.021
10335SOL    HW131904   2.362   5.422   0.019
10335SOL    HW231905   2.287   5.567   0.026
10336SOL     OW31906   4.337   6.998   1.980
10336SOL    HW131907   4.333   7.025   2.076
10336SOL    HW231908   4.360   0.049   1.923
10337SOL     OW31909   0.306   5.514   4.899
10337SOL    HW131910   0.355   5.434   4.864
10337SOL    HW231911   0.266   5.565   4.823
10338SOL     OW31912   3.186   6.953   1.975
10338SOL    HW131913   3.172   6.992   1.884
10338SOL    HW231914   3.214   7.025   2.039
10339SOL     OW31915   3.085   6.030   1.155
10339SOL    HW131916   3.105   5.935   1.175
10339SOL    HW231917   3.062   6.079   1.239
10340SOL     OW31918   2.229   6.064   6.821
10340SOL    HW131919   2.158   6.134   6.824
10340SOL    HW231920   2.319   6.107   6.829
10341SOL     OW31921   2.282   2.222   2.178
10341SOL    HW131922   2.375   2.205   2.145
10341SOL    HW231923   2.219   2.154   2.139
10342SOL     OW31924   2.591   0.107   5.610
10342SOL    HW131925   2.504   0.095   5.562
10342SOL    HW231926   2.664   0.119   5.544
10343SOL     OW31927   2.739   3.969   6.032
10343SOL    HW131928   2.799   3.900   5.992
10343SOL    HW231929   2.693   3.931   6.112
10344SOL     OW31930   4.076   3.664   4.851
10344SOL    HW131931   4.020   3.680   4.770
10344SOL    HW231932   4.168   3.636   4.824
10345SOL     OW31933   2.354   1.448   6.920
10345SOL    HW131934   2.450   1.473   6.936
10345SOL    HW231935   2.295   1.523   6.948
10346SOL     OW31936   4.870   6.824   0.018
10346SOL    HW131937   4.898   6.778   6.961
10346SOL    HW231938   4.937   6.894   0.041
10347SOL     OW31939   5.578   1.937   1.511
10347SOL    HW131940   5.508   1.879   1.553
10347SOL    HW231941   5.572   2.029   1.550
10348SOL     OW31942   6.236   1.130   6.921
10348SOL    HW131943   6.191   1.213   6.888
10348SOL    HW231944   6.168   1.063   6.949
10349SOL     OW31945   6.472   1.283   1.038
10349SOL    HW131946   6.537   1.254   0.968
10349SOL    HW231947   6.392   1.223   1.037
10350SOL     OW31948   3.289   5.846   4.118
10350SOL    HW131949   3.260   5.887   4.204
10350SOL    HW231950   3.340   5.762   4.137
10351SOL     OW31951   5.993   5.654   4.876
10351SOL    HW131952   6.070   5.675   4.816
10351SOL    HW231953   5.916   5.713   4.854
10352SOL     OW31954   5.536   1.752   6.836
10352SOL    HW131955   5.490   1.816   6.898
10352SOL    HW231956   5.563   1.799   6.752
10353SOL     OW31957   0.712   3.190   2.977
10353SOL    HW131958   0.647   3.261   2.950
10353SOL    HW231959   0.731   3.198   3.075
10354SOL     OW31960   0.144   3.745   0.438
10354SOL    HW131961   0.146   3.844   0.452
10354SOL    HW231962   0.107   3.725   0.347
10355SOL     OW31963   1.144   0.725   0.732
10355SOL    HW131964   1.057   0.702   0.777
10355SOL    HW231965   1.130   0.736   0.634
10356SOL     OW31966   6.710   3.309   0.105
10356SOL    HW131967   6.806   3.336   0.109
10356SOL    HW231968   6.659   3.357   0.176
10357SOL     OW31969   1.312   2.670   6.451
10357SOL    HW131970   1.332   2.667   6.549
10357SOL    HW231971   1.375   2.610   6.402
10358SOL     OW31972   1.481   2.743   2.619
10358SOL    HW131973   1.572   2.783   2.609
10358SOL    HW231974   1.455   2.743   2.715
10359SOL     OW31975   5.239   1.892   2.804
10359SOL    HW131976   5.140   1.879   2.791
10359SOL    HW231977   5.254   1.964   2.872
10360SOL     OW31978   5.344   5.210   2.960
10360SOL    HW131979   5.415   5.152   2.919
10360SOL    HW231980   5.316   5.280   2.895
10361SOL     OW31981   1.700   1.486   1.596
10361SOL    HW131982   1.646   1.570   1.599
10361SOL    HW231983   1.726   1.460   1.689
10362SOL     OW31984   0.713   4.797   1.900
10362SOL    HW131985   0.631   4.848   1.876
10362SOL    HW231986   0.789   4.861   1.915
10363SOL     OW31987   4.953   3.103   0.737
10363SOL    HW131988   4.995   3.013   0.731
10363SOL    HW231989   5.024   3.173   0.748
10364SOL     OW31990   4.595   5.118   1.449
10364SOL    HW131991   4.510   5.077   1.483
10364SOL    HW231992   4.573   5.192   1.385
10365SOL     OW31993   5.967   4.876   0.736
10365SOL    HW131994   6.039   4.828   0.685
10365SOL    HW231995   6.008   4.951   0.788
10366SOL     OW31996   3.637   6.756   2.945
10366SOL    HW131997   3.718   6.702   2.966
10366SOL    HW231998   3.564   6.735   3.011
10367SOL     OW31999   6.352   1.543   1.507
10367SOL    HW132000   6.419   1.491   1.559
10367SOL    HW232001   6.391   1.630   1.479
10368SOL     OW32002   1.804   0.418   2.280
10368SOL    HW132003   1.819   0.323   2.308
10368SOL    HW232004   1.727   0.421   2.216
10369SOL     OW32005   3.197   6.315   4.724
10369SOL    HW132006   3.169   6.378   4.652
10369SOL    HW232007   3.168   6.222   4.701
10370SOL     OW32008   0.103   2.181   4.301
10370SOL    HW132009   0.046   2.261   4.282
10370SOL    HW232010   0.112   2.170   4.400
10371SOL     OW32011   3.836   6.314   3.508
10371SOL    HW132012   3.920   6.369   3.502
10371SOL    HW232013   3.757   6.375   3.512
10372SOL     OW32014   2.837   0.450   1.404
10372SOL    HW132015   2.932   0.419   1.410
10372SOL    HW232016   2.804   0.474   1.495
10373SOL     OW32017   6.849   1.231   5.558
10373SOL    HW132018   6.942   1.194   5.569
10373SOL    HW232019   6.788   1.158   5.528
10374SOL     OW32020   3.439   6.884   4.557
10374SOL    HW132021   3.499   6.961   4.577
10374SOL    HW232022   3.480   6.828   4.486
10375SOL     OW32023   3.617   2.945   6.888
10375SOL    HW132024   3.621   2.847   6.865
10375SOL    HW232025   3.674   2.997   6.825
10376SOL     OW32026   1.442   6.072   3.353
10376SOL    HW132027   1.425   6.166   3.382
10376SOL    HW232028   1.428   6.065   3.254
10377SOL     OW32029   0.509   1.479   1.588
10377SOL    HW132030   0.587   1.493   1.650
10377SOL    HW232031   0.490   1.563   1.539
10378SOL     OW32032   0.243   5.580   5.164
10378SOL    HW132033   0.157   5.629   5.180
10378SOL    HW232034   0.253   5.559   5.067
10379SOL     OW32035   2.552   6.815   3.741
10379SOL    HW132036   2.637   6.813   3.793
10379SOL    HW232037   2.474   6.823   3.803
10380SOL     OW32038   1.616   2.689   4.308
10380SOL    HW132039   1.536   2.730   4.352
10380SOL    HW232040   1.624   2.723   4.214
10381SOL     OW32041   4.273   4.445   1.730
10381SOL    HW132042   4.247   4.348   1.729
10381SOL    HW232043   4.351   4.457   1.792
10382SOL     OW32044   3.126   4.828   2.243
10382SOL    HW132045   3.222   4.821   2.216
10382SOL    HW232046   3.120   4.824   2.343
10383SOL     OW32047   1.579   4.919   0.173
10383SOL    HW132048   1.552   5.015   0.165
10383SOL    HW232049   1.652   4.910   0.240
10384SOL     OW32050   6.321   6.304   1.202
10384SOL    HW132051   6.339   6.211   1.233
10384SOL    HW232052   6.259   6.302   1.124
10385SOL     OW32053   3.436   5.136   6.438
10385SOL    HW132054   3.399   5.217   6.393
10385SOL    HW232055   3.361   5.085   6.481
10386SOL     OW32056   0.159   1.322   6.521
10386SOL    HW132057   0.222   1.360   6.588
10386SOL    HW232058   0.210   1.262   6.458
10387SOL     OW32059   5.037   2.729   3.146
10387SOL    HW132060   5.055   2.822   3.178
10387SOL    HW232061   4.993   2.676   3.219
10388SOL     OW32062   2.776   0.760   5.805
10388SOL    HW132063   2.823   0.822   5.743
10388SOL    HW232064   2.698   0.807   5.847
10389SOL     OW32065   6.382   3.846   0.198
10389SOL    HW132066   6.386   3.746   0.188
10389SOL    HW232067   6.329   3.885   0.123
10390SOL     OW32068   2.107   2.023   0.866
10390SOL    HW132069   2.169   1.976   0.803
10390SOL    HW232070   2.160   2.075   0.933
10391SOL     OW32071   0.694   5.896   3.724
10391SOL    HW132072   0.791   5.890   3.702
10391SOL    HW232073   0.640   5.884   3.641
10392SOL     OW32074   6.637   5.066   5.213
10392SOL    HW132075   6.620   5.001   5.138
10392SOL    HW232076   6.561   5.064   5.276
10393SOL     OW32077   2.192   3.592   4.309
10393SOL    HW132078   2.227   3.503   4.280
10393SOL    HW232079   2.148   3.637   4.231
10394SOL     OW32080   2.667   6.134   4.101
10394SOL    HW132081   2.651   6.161   4.006
10394SOL    HW232082   2.596   6.071   4.130
10395SOL     OW32083   0.337   6.410   1.404
10395SOL    HW132084   0.434   6.399   1.428
10395SOL    HW232085   0.295   6.320   1.394
10396SOL     OW32086   3.867   1.826   4.449
10396SOL    HW132087   3.775   1.787   4.452
10396SOL    HW232088   3.862   1.919   4.413
10397SOL     OW32089   3.627   1.961   2.794
10397SOL    HW132090   3.678   1.907   2.861
10397SOL    HW232091   3.530   1.937   2.800
10398SOL     OW32092   6.708   2.989   1.081
10398SOL    HW132093   6.719   2.899   1.124
10398SOL    HW232094   6.795   3.038   1.084
10399SOL     OW32095   5.367   2.281   3.151
10399SOL    HW132096   5.441   2.348   3.159
10399SOL    HW232097   5.317   2.296   3.065
10400SOL     OW32098   4.127   6.945   0.269
10400SOL    HW132099   4.090   7.017   0.328
10400SOL    HW232100   4.170   6.875   0.325
10401SOL     OW32101   5.985   0.729   3.777
10401SOL    HW132102   6.048   0.652   3.766
10401SOL    HW232103   5.900   0.697   3.818
10402SOL     OW32104   6.689   3.359   5.105
10402SOL    HW132105   6.764   3.312   5.150
10402SOL    HW232106   6.602   3.332   5.147
10403SOL     OW32107   3.936   1.139   3.617
10403SOL    HW132108   3.992   1.167   3.694
10403SOL    HW232109   3.952   1.200   3.539
10404SOL     OW32110   6.378   6.790   5.313
10404SOL    HW132111   6.439   6.813   5.389
10404SOL    HW232112   6.426   6.803   5.227
10405SOL     OW32113   0.371   1.867   5.705
10405SOL    HW132114   0.424   1.783   5.694
10405SOL    HW232115   0.422   1.931   5.763
10406SOL     OW32116   2.709   5.079   2.535
10406SOL    HW132117   2.633   5.054   2.475
10406SOL    HW232118   2.716   5.013   2.609
10407SOL     OW32119   3.361   6.621   5.866
10407SOL    HW132120   3.324   6.657   5.952
10407SOL    HW232121   3.411   6.693   5.819
10408SOL     OW32122   4.719   6.968   1.023
10408SOL    HW132123   4.720   6.967   1.123
10408SOL    HW232124   4.813   6.980   0.989
10409SOL     OW32125   0.066   4.668   0.680
10409SOL    HW132126   0.087   4.759   0.644
10409SOL    HW232127   0.125   4.600   0.637
10410SOL     OW32128   5.397   1.466   0.238
10410SOL    HW132129   5.338   1.390   0.265
10410SOL    HW232130   5.376   1.493   0.144
10411SOL     OW32131   4.002   6.708   3.553
10411SOL    HW132132   3.906   6.727   3.533
10411SOL    HW232133   4.026   6.618   3.516
10412SOL     OW32134   6.984   0.862   0.682
10412SOL    HW132135   6.903   0.919   0.665
10412SOL    HW232136   0.002   0.843   0.596
10413SOL     OW32137   6.128   2.680   0.575
10413SOL    HW132138   6.130   2.755   0.509
10413SOL    HW232139   6.133   2.717   0.667
10414SOL     OW32140   3.824   4.158   5.538
10414SOL    HW132141   3.768   4.239   5.557
10414SOL    HW232142   3.772   4.096   5.479
10415SOL     OW32143   0.276   3.806   4.339
10415SOL    HW132144   0.280   3.904   4.360
10415SOL    HW232145   0.196   3.766   4.383
10416SOL     OW32146   6.726   0.472   3.742
10416SOL    HW132147   6.747   0.486   3.646
10416SOL    HW232148   6.784   0.400   3.780
10417SOL     OW32149   3.452   5.227   4.379
10417SOL    HW132150   3.425   5.287   4.304
10417SOL    HW232151   3.418   5.264   4.466
10418SOL     OW32152   0.234   4.857   6.664
10418SOL    HW132153   0.308   4.792   6.644
10418SOL    HW232154   0.166   4.813   6.722
10419SOL     OW32155   1.119   6.964   6.441
10419SOL    HW132156   1.085   6.932   6.529
10419SOL    HW232157   1.087   0.030   6.425
10420SOL     OW32158   0.149   3.992   2.729
10420SOL    HW132159   0.082   3.933   2.685
10420SOL    HW232160   0.121   4.088   2.719
10421SOL     OW32161   0.062   1.631   3.643
10421SOL    HW132162   0.034   1.724   3.668
10421SOL    HW232163   0.072   1.576   3.726
10422SOL     OW32164   5.975   3.298   5.453
10422SOL    HW132165   5.976   3.260   5.361
10422SOL    HW232166   5.889   3.347   5.468
10423SOL     OW32167   5.378   5.121   4.590
10423SOL    HW132168   5.376   5.067   4.506
10423SOL    HW232169   5.469   5.161   4.602
10424SOL     OW32170   6.031   2.994   0.473
10424SOL    HW132171   5.978   3.079   0.476
10424SOL    HW232172   6.003   2.941   0.393
10425SOL     OW32173   1.547   6.896   2.145
10425SOL    HW132174   1.472   6.830   2.156
10425SOL    HW232175   1.512   6.977   2.098
10426SOL     OW32176   0.247   4.665   0.294
10426SOL    HW132177   0.220   4.702   0.383
10426SOL    HW232178   0.258   4.739   0.229
10427SOL     OW32179   3.561   0.853   6.882
10427SOL    HW132180   3.577   0.930   6.943
10427SOL    HW232181   3.463   0.845   6.863
10428SOL     OW32182   2.991   1.215   4.072
10428SOL    HW132183   3.078   1.218   4.121
10428SOL    HW232184   2.977   1.301   4.024
10429SOL     OW32185   0.080   5.269   0.687
10429SOL    HW132186   0.166   5.278   0.736
10429SOL    HW232187   0.058   5.356   0.642
10430SOL     OW32188   4.456   6.348   3.603
10430SOL    HW132189   4.471   6.335   3.701
10430SOL    HW232190   4.363   6.319   3.579
10431SOL     OW32191   3.150   5.939   4.347
10431SOL    HW132192   3.154   5.866   4.415
10431SOL    HW232193   3.055   5.968   4.334
10432SOL     OW32194   5.987   6.961   4.257
10432SOL    HW132195   6.030   0.013   4.299
10432SOL    HW232196   5.977   6.888   4.325
10433SOL     OW32197   1.908   6.747   1.209
10433SOL    HW132198   1.981   6.680   1.222
10433SOL    HW232199   1.942   6.824   1.157
10434SOL     OW32200   4.154   0.278   3.685
10434SOL    HW132201   4.133   0.181   3.680
10434SOL    HW232202   4.173   0.312   3.592
10435SOL     OW32203   6.982   0.125   4.760
10435SOL    HW132204   6.985   0.225   4.761
10435SOL    HW232205   6.886   0.095   4.755
10436SOL     OW32206   1.125   5.146   5.807
10436SOL    HW132207   1.120   5.091   5.891
10436SOL    HW232208   1.126   5.085   5.728
10437SOL     OW32209   6.417   4.883   6.053
10437SOL    HW132210   6.404   4.965   6.109
10437SOL    HW232211   6.431   4.804   6.112
10438SOL     OW32212   6.033   6.091   0.527
10438SOL    HW132213   6.062   6.007   0.481
10438SOL    HW232214   6.053   6.084   0.625
10439SOL     OW32215   3.623   1.412   5.970
10439SOL    HW132216   3.616   1.329   5.915
10439SOL    HW232217   3.606   1.492   5.912
10440SOL     OW32218   1.795   6.463   0.522
10440SOL    HW132219   1.817   6.536   0.457
10440SOL    HW232220   1.834   6.484   0.611
10441SOL     OW32221   4.209   1.468   6.939
10441SOL    HW132222   4.219   1.519   7.025
10441SOL    HW232223   4.114   1.471   6.910
10442SOL     OW32224   3.624   6.505   5.882
10442SOL    HW132225   3.538   6.548   5.851
10442SOL    HW232226   3.685   6.576   5.917
10443SOL     OW32227   5.012   3.798   4.852
10443SOL    HW132228   4.990   3.711   4.807
10443SOL    HW232229   4.933   3.859   4.846
10444SOL     OW32230   4.065   6.406   4.342
10444SOL    HW132231   4.026   6.471   4.276
10444SOL    HW232232   4.000   6.393   4.417
10445SOL     OW32233   0.975   5.594   4.518
10445SOL    HW132234   0.987   5.664   4.588
10445SOL    HW232235   1.051   5.529   4.522
10446SOL     OW32236   1.041   3.142   5.738
10446SOL    HW132237   1.013   3.212   5.671
10446SOL    HW232238   1.028   3.178   5.830
10447SOL     OW32239   6.630   1.315   2.002
10447SOL    HW132240   6.706   1.350   2.056
10447SOL    HW232241   6.579   1.248   2.057
10448SOL     OW32242   3.884   2.389   1.411
10448SOL    HW132243   3.912   2.403   1.506
10448SOL    HW232244   3.965   2.378   1.354
10449SOL     OW32245   2.472   5.310   4.681
10449SOL    HW132246   2.567   5.307   4.711
10449SOL    HW232247   2.427   5.390   4.722
10450SOL     OW32248   0.600   2.082   0.433
10450SOL    HW132249   0.594   1.982   0.429
10450SOL    HW232250   0.514   2.123   0.402
10451SOL     OW32251   1.894   5.067   3.461
10451SOL    HW132252   1.820   5.121   3.501
10451SOL    HW232253   1.886   4.972   3.490
10452SOL     OW32254   6.047   3.499   3.369
10452SOL    HW132255   6.098   3.422   3.330
10452SOL    HW232256   6.027   3.480   3.465
10453SOL     OW32257   5.151   6.065   2.031
10453SOL    HW132258   5.234   6.025   2.071
10453SOL    HW232259   5.076   6.000   2.036
10454SOL     OW32260   4.390   2.665   1.197
10454SOL    HW132261   4.470   2.618   1.234
10454SOL    HW232262   4.313   2.655   1.259
10455SOL     OW32263   0.003   5.080   2.372
10455SOL    HW132264   7.013   5.169   2.412
10455SOL    HW232265   0.072   5.089   2.299
10456SOL     OW32266   3.240   6.275   2.028
10456SOL    HW132267   3.308   6.248   1.959
10456SOL    HW232268   3.180   6.345   1.989
10457SOL     OW32269   3.556   2.875   2.998
10457SOL    HW132270   3.555   2.846   3.094
10457SOL    HW232271   3.635   2.934   2.982
10458SOL     OW32272   0.616   0.853   0.044
10458SOL    HW132273   0.549   0.809   7.012
10458SOL    HW232274   0.686   0.787   0.070
10459SOL     OW32275   5.465   5.303   2.653
10459SOL    HW132276   5.461   5.386   2.708
10459SOL    HW232277   5.527   5.237   2.696
10460SOL     OW32278   1.951   5.921   1.182
10460SOL    HW132279   1.953   5.844   1.119
10460SOL    HW232280   1.987   6.002   1.136
10461SOL     OW32281   1.484   6.032   5.648
10461SOL    HW132282   1.501   6.129   5.633
10461SOL    HW232283   1.387   6.017   5.666
10462SOL     OW32284   5.256   1.889   2.315
10462SOL    HW132285   5.247   1.878   2.216
10462SOL    HW232286   5.200   1.821   2.361
10463SOL     OW32287   3.513   3.222   5.478
10463SOL    HW132288   3.545   3.310   5.443
10463SOL    HW232289   3.555   3.204   5.567
10464SOL     OW32290   5.172   0.395   0.808
10464SOL    HW132291   5.195   0.454   0.886
10464SOL    HW232292   5.253   0.346   0.778
10465SOL     OW32293   6.450   6.651   0.795
10465SOL    HW132294   6.492   6.593   0.864
10465SOL    HW232295   6.413   6.733   0.839
10466SOL     OW32296   4.477   4.956   5.065
10466SOL    HW132297   4.410   4.902   5.117
10466SOL    HW232298   4.468   5.053   5.089
10467SOL     OW32299   1.237   2.091   5.096
10467SOL    HW132300   1.240   2.185   5.060
10467SOL    HW232301   1.247   2.093   5.195
10468SOL     OW32302   3.415   5.498   3.401
10468SOL    HW132303   3.462   5.429   3.345
10468SOL    HW232304   3.443   5.590   3.369
10469SOL     OW32305   3.723   3.426   0.733
10469SOL    HW132306   3.798   3.489   0.709
10469SOL    HW232307   3.647   3.478   0.772
10470SOL     OW32308   1.997   2.027   2.731
10470SOL    HW132309   2.069   2.085   2.693
10470SOL    HW232310   1.939   2.080   2.792
10471SOL     OW32311   2.389   3.843   1.435
10471SOL    HW132312   2.299   3.800   1.431
10471SOL    HW232313   2.456   3.777   1.471
10472SOL     OW32314   3.477   6.322   1.350
10472SOL    HW132315   3.436   6.349   1.263
10472SOL    HW232316   3.500   6.225   1.347
10473SOL     OW32317   5.519   6.981   0.871
10473SOL    HW132318   5.537   6.889   0.905
10473SOL    HW232319   5.454   6.976   0.795
10474SOL     OW32320   5.121   0.722   4.672
10474SOL    HW132321   5.031   0.693   4.641
10474SOL    HW232322   5.126   0.714   4.772
10475SOL     OW32323   5.146   6.704   1.383
10475SOL    HW132324   5.202   6.663   1.310
10475SOL    HW232325   5.169   6.801   1.392
10476SOL     OW32326   0.366   5.634   6.265
10476SOL    HW132327   0.329   5.719   6.305
10476SOL    HW232328   0.400   5.653   6.173
10477SOL     OW32329   6.096   2.822   4.925
10477SOL    HW132330   6.136   2.911   4.905
10477SOL    HW232331   6.000   2.823   4.898
10478SOL     OW32332   0.672   0.383   0.008
10478SOL    HW132333   0.575   0.394   7.014
10478SOL    HW232334   0.682   0.309   0.075
10479SOL     OW32335   1.182   2.637   1.389
10479SOL    HW132336   1.106   2.578   1.359
10479SOL    HW232337   1.241   2.585   1.450
10480SOL     OW32338   5.512   0.403   1.108
10480SOL    HW132339   5.562   0.406   1.195
10480SOL    HW232340   5.530   0.487   1.056
10481SOL     OW32341   2.807   1.013   5.082
10481SOL    HW132342   2.835   1.005   4.986
10481SOL    HW232343   2.837   0.932   5.132
10482SOL     OW32344   0.592   6.022   4.655
10482SOL    HW132345   0.614   6.100   4.713
10482SOL    HW232346   0.551   5.950   4.710
10483SOL     OW32347   6.792   5.169   0.222
10483SOL    HW132348   6.839   5.082   0.237
10483SOL    HW232349   6.744   5.195   0.306
10484SOL     OW32350   0.062   0.173   0.614
10484SOL    HW132351   0.068   0.127   0.526
10484SOL    HW232352   0.011   0.116   0.678
10485SOL     OW32353   3.729   3.553   3.290
10485SOL    HW132354   3.827   3.561   3.306
10485SOL    HW232355   3.682   3.631   3.330
10486SOL     OW32356   6.040   0.581   5.995
10486SOL    HW132357   5.957   0.552   5.948
10486SOL    HW232358   6.043   0.541   6.086
10487SOL     OW32359   4.513   1.592   1.518
10487SOL    HW132360   4.586   1.650   1.482
10487SOL    HW232361   4.431   1.604   1.462
10488SOL     OW32362   1.579   2.129   5.703
10488SOL    HW132363   1.604   2.041   5.664
10488SOL    HW232364   1.660   2.172   5.744
10489SOL     OW32365   5.731   5.792   3.360
10489SOL    HW132366   5.826   5.779   3.389
10489SOL    HW232367   5.673   5.805   3.440
10490SOL     OW32368   5.892   0.432   0.680
10490SOL    HW132369   5.795   0.423   0.699
10490SOL    HW232370   5.907   0.437   0.581
10491SOL     OW32371   1.753   2.810   6.230
10491SOL    HW132372   1.727   2.907   6.226
10491SOL    HW232373   1.852   2.803   6.241
10492SOL     OW32374   3.500   5.982   0.380
10492SOL    HW132375   3.447   5.986   0.464
10492SOL    HW232376   3.437   5.985   0.301
10493SOL     OW32377   3.359   5.432   1.085
10493SOL    HW132378   3.409   5.500   1.030
10493SOL    HW232379   3.424   5.383   1.143
10494SOL     OW32380   0.727   5.175   5.849
10494SOL    HW132381   0.774   5.231   5.781
10494SOL    HW232382   0.793   5.145   5.918
10495SOL     OW32383   6.538   5.742   6.837
10495SOL    HW132384   6.442   5.741   6.808
10495SOL    HW232385   6.597   5.755   6.757
10496SOL     OW32386   6.845   4.238   5.114
10496SOL    HW132387   6.899   4.317   5.145
10496SOL    HW232388   6.839   4.240   5.014
10497SOL     OW32389   1.133   6.841   1.768
10497SOL    HW132390   1.226   6.804   1.768
10497SOL    HW232391   1.137   6.940   1.781
10498SOL     OW32392   5.231   5.993   1.479
10498SOL    HW132393   5.197   6.029   1.392
10498SOL    HW232394   5.153   5.976   1.540
10499SOL     OW32395   5.981   5.806   1.422
10499SOL    HW132396   6.020   5.716   1.440
10499SOL    HW232397   5.913   5.828   1.492
10500SOL     OW32398   5.124   3.409   4.850
10500SOL    HW132399   5.139   3.311   4.858
10500SOL    HW232400   5.196   3.458   4.900
10501SOL     OW32401   2.178   5.788   2.558
10501SOL    HW132402   2.189   5.879   2.517
10501SOL    HW232403   2.085   5.755   2.541
10502SOL     OW32404   2.959   3.323   1.241
10502SOL    HW132405   2.944   3.416   1.208
10502SOL    HW232406   2.935   3.258   1.169
10503SOL     OW32407   6.373   4.032   6.611
10503SOL    HW132408   6.364   3.960   6.542
10503SOL    HW232409   6.349   3.995   6.701
10504SOL     OW32410   0.840   2.846   6.153
10504SOL    HW132411   0.795   2.777   6.095
10504SOL    HW232412   0.849   2.811   6.246
10505SOL     OW32413   6.040   5.879   2.045
10505SOL    HW132414   6.133   5.914   2.052
10505SOL    HW232415   5.990   5.931   1.975
10506SOL     OW32416   0.569   3.463   0.462
10506SOL    HW132417   0.474   3.486   0.440
10506SOL    HW232418   0.614   3.425   0.382
10507SOL     OW32419   2.557   5.147   0.128
10507SOL    HW132420   2.569   5.048   0.138
10507SOL    HW232421   2.638   5.194   0.162
10508SOL     OW32422   1.523   5.375   3.838
10508SOL    HW132423   1.430   5.368   3.803
10508SOL    HW232424   1.546   5.291   3.889
10509SOL     OW32425   5.230   3.764   4.430
10509SOL    HW132426   5.225   3.815   4.517
10509SOL    HW232427   5.261   3.671   4.448
10510SOL     OW32428   5.044   6.770   6.139
10510SOL    HW132429   5.069   6.751   6.234
10510SOL    HW232430   4.992   6.692   6.103
10511SOL     OW32431   2.991   1.131   2.041
10511SOL    HW132432   2.959   1.145   2.135
10511SOL    HW232433   3.073   1.185   2.025
10512SOL     OW32434   4.523   7.023   5.977
10512SOL    HW132435   4.444   7.006   5.918
10512SOL    HW232436   4.541   0.094   5.980
10513SOL     OW32437   6.507   2.552   2.477
10513SOL    HW132438   6.598   2.531   2.439
10513SOL    HW232439   6.514   2.561   2.576
10514SOL     OW32440   1.864   1.909   0.912
10514SOL    HW132441   1.952   1.941   0.878
10514SOL    HW232442   1.878   1.839   0.982
10515SOL     OW32443   2.440   2.241   3.741
10515SOL    HW132444   2.467   2.156   3.696
10515SOL    HW232445   2.345   2.262   3.719
10516SOL     OW32446   2.755   2.087   0.318
10516SOL    HW132447   2.705   2.173   0.305
10516SOL    HW232448   2.827   2.101   0.386
10517SOL     OW32449   1.780   4.292   2.332
10517SOL    HW132450   1.752   4.363   2.268
10517SOL    HW232451   1.873   4.261   2.309
10518SOL     OW32452   0.386   5.201   2.167
10518SOL    HW132453   0.449   5.208   2.244
10518SOL    HW232454   0.318   5.129   2.186
10519SOL     OW32455   3.067   4.940   1.343
10519SOL    HW132456   3.116   4.855   1.321
10519SOL    HW232457   2.969   4.923   1.344
10520SOL     OW32458   6.507   1.907   6.486
10520SOL    HW132459   6.517   1.835   6.417
10520SOL    HW232460   6.572   1.980   6.466
10521SOL     OW32461   6.546   4.085   1.700
10521SOL    HW132462   6.564   4.138   1.617
10521SOL    HW232463   6.629   4.081   1.756
10522SOL     OW32464   0.337   2.257   3.018
10522SOL    HW132465   0.263   2.190   3.022
10522SOL    HW232466   0.344   2.305   3.106
10523SOL     OW32467   0.080   3.870   3.595
10523SOL    HW132468   0.114   3.883   3.689
10523SOL    HW232469   0.021   3.947   3.570
10524SOL     OW32470   0.210   5.006   3.710
10524SOL    HW132471   0.141   4.942   3.744
10524SOL    HW232472   0.207   5.090   3.765
10525SOL     OW32473   4.105   0.380   5.063
10525SOL    HW132474   4.152   0.439   4.997
10525SOL    HW232475   4.133   0.404   5.155
10526SOL     OW32476   0.430   5.711   1.218
10526SOL    HW132477   0.471   5.800   1.198
10526SOL    HW232478   0.429   5.696   1.317
10527SOL     OW32479   0.425   0.548   6.116
10527SOL    HW132480   0.405   0.539   6.214
10527SOL    HW232481   0.399   0.464   6.069
10528SOL     OW32482   0.458   4.263   0.263
10528SOL    HW132483   0.485   4.202   0.188
10528SOL    HW232484   0.473   4.358   0.235
10529SOL     OW32485   1.583   6.137   4.978
10529SOL    HW132486   1.622   6.064   5.034
10529SOL    HW232487   1.613   6.125   4.883
10530SOL     OW32488   1.442   6.416   6.152
10530SOL    HW132489   1.469   6.417   6.248
10530SOL    HW232490   1.361   6.359   6.141
10531SOL     OW32491   2.537   2.465   4.818
10531SOL    HW132492   2.547   2.482   4.916
10531SOL    HW232493   2.502   2.547   4.773
10532SOL     OW32494   6.029   6.822   6.780
10532SOL    HW132495   6.044   6.842   6.877
10532SOL    HW232496   6.046   6.725   6.764
10533SOL     OW32497   2.898   5.614   4.151
10533SOL    HW132498   2.904   5.712   4.134
10533SOL    HW232499   2.803   5.585   4.147
10534SOL     OW32500   0.553   5.588   2.146
10534SOL    HW132501   0.529   5.528   2.223
10534SOL    HW232502   0.621   5.543   2.089
10535SOL     OW32503   2.779   1.429   1.507
10535SOL    HW132504   2.848   1.439   1.579
10535SOL    HW232505   2.749   1.334   1.503
10536SOL     OW32506   4.467   0.163   3.630
10536SOL    HW132507   4.451   0.256   3.663
10536SOL    HW232508   4.506   0.167   3.538
10537SOL     OW32509   4.908   6.720   3.732
10537SOL    HW132510   4.840   6.648   3.744
10537SOL    HW232511   4.867   6.795   3.679
10538SOL     OW32512   5.529   4.038   2.454
10538SOL    HW132513   5.463   3.987   2.399
10538SOL    HW232514   5.513   4.020   2.551
10539SOL     OW32515   6.369   5.638   2.100
10539SOL    HW132516   6.389   5.703   2.026
10539SOL    HW232517   6.281   5.594   2.082
10540SOL     OW32518   2.391   3.989   6.133
10540SOL    HW132519   2.395   3.991   6.033
10540SOL    HW232520   2.354   3.902   6.164
10541SOL     OW32521   3.223   2.902   4.531
10541SOL    HW132522   3.311   2.925   4.489
10541SOL    HW232523   3.175   2.836   4.473
10542SOL     OW32524   6.447   0.511   4.639
10542SOL    HW132525   6.391   0.594   4.646
10542SOL    HW232526   6.407   0.449   4.572
10543SOL     OW32527   7.019   2.254   5.797
10543SOL    HW132528   0.032   2.322   5.858
10543SOL    HW232529   6.973   2.300   5.722
10544SOL     OW32530   1.227   0.509   3.854
10544SOL    HW132531   1.190   0.563   3.778
10544SOL    HW232532   1.277   0.569   3.916
10545SOL     OW32533   1.145   3.353   2.243
10545SOL    HW132534   1.113   3.259   2.254
10545SOL    HW232535   1.145   3.399   2.332
10546SOL     OW32536   3.021   6.143   1.390
10546SOL    HW132537   2.989   6.236   1.378
10546SOL    HW232538   3.081   6.138   1.470
10547SOL     OW32539   4.777   0.439   4.521
10547SOL    HW132540   4.803   0.433   4.424
10547SOL    HW232541   4.858   0.462   4.575
10548SOL     OW32542   0.515   5.022   5.132
10548SOL    HW132543   0.472   4.932   5.122
10548SOL    HW232544   0.448   5.093   5.109
10549SOL     OW32545   0.211   1.616   0.403
10549SOL    HW132546   0.146   1.685   0.434
10549SOL    HW232547   0.164   1.528   0.393
10550SOL     OW32548   3.818   6.622   3.265
10550SOL    HW132549   3.824   6.718   3.239
10550SOL    HW232550   3.879   6.568   3.207
10551SOL     OW32551   2.267   1.863   6.000
10551SOL    HW132552   2.274   1.773   6.044
10551SOL    HW232553   2.175   1.899   6.012
10552SOL     OW32554   2.606   0.870   4.772
10552SOL    HW132555   2.588   0.852   4.676
10552SOL    HW232556   2.677   0.941   4.780
10553SOL     OW32557   0.079   4.627   1.135
10553SOL    HW132558   0.032   4.662   1.054
10553SOL    HW232559   0.143   4.696   1.170
10554SOL     OW32560   5.922   4.605   2.559
10554SOL    HW132561   5.969   4.631   2.644
10554SOL    HW232562   5.969   4.645   2.481
10555SOL     OW32563   2.840   2.170   0.659
10555SOL    HW132564   2.880   2.233   0.724
10555SOL    HW232565   2.796   2.094   0.707
10556SOL     OW32566   2.538   1.412   2.985
10556SOL    HW132567   2.463   1.443   3.044
10556SOL    HW232568   2.502   1.353   2.913
10557SOL     OW32569   1.724   3.598   4.773
10557SOL    HW132570   1.662   3.602   4.695
10557SOL    HW232571   1.695   3.526   4.835
10558SOL     OW32572   3.224   4.948   5.629
10558SOL    HW132573   3.149   4.891   5.595
10558SOL    HW232574   3.303   4.938   5.568
10559SOL     OW32575   3.344   1.303   0.648
10559SOL    HW132576   3.344   1.274   0.744
10559SOL    HW232577   3.365   1.400   0.643
10560SOL     OW32578   3.973   6.061   2.000
10560SOL    HW132579   3.970   6.065   1.900
10560SOL    HW232580   4.043   6.123   2.033
10561SOL     OW32581   4.189   4.830   2.338
10561SOL    HW132582   4.158   4.758   2.276
10561SOL    HW232583   4.122   4.841   2.412
10562SOL     OW32584   3.358   6.292   1.100
10562SOL    HW132585   3.329   6.222   1.035
10562SOL    HW232586   3.367   6.379   1.053
10563SOL     OW32587   1.093   0.072   0.805
10563SOL    HW132588   1.078   0.054   0.708
10563SOL    HW232589   1.072   7.017   0.857
10564SOL     OW32590   6.694   5.351   3.528
10564SOL    HW132591   6.739   5.340   3.439
10564SOL    HW232592   6.757   5.325   3.601
10565SOL     OW32593   6.674   0.198   5.952
10565SOL    HW132594   6.734   0.235   6.023
10565SOL    HW232595   6.703   0.105   5.929
10566SOL     OW32596   2.869   2.445   0.001
10566SOL    HW132597   2.918   2.518   6.981
10566SOL    HW232598   2.931   2.367   0.013
10567SOL     OW32599   1.854   2.492   5.613
10567SOL    HW132600   1.895   2.577   5.578
10567SOL    HW232601   1.794   2.453   5.544
10568SOL     OW32602   5.867   2.982   6.608
10568SOL    HW132603   5.868   3.079   6.586
10568SOL    HW232604   5.795   2.963   6.675
10569SOL     OW32605   5.565   0.662   2.054
10569SOL    HW132606   5.524   0.743   2.012
10569SOL    HW232607   5.594   0.598   1.982
10570SOL     OW32608   1.594   4.576   4.318
10570SOL    HW132609   1.561   4.554   4.226
10570SOL    HW232610   1.678   4.630   4.311
10571SOL     OW32611   0.119   4.338   6.275
10571SOL    HW132612   0.213   4.362   6.299
10571SOL    HW232613   0.119   4.275   6.198
10572SOL     OW32614   6.677   4.530   1.683
10572SOL    HW132615   6.742   4.556   1.611
10572SOL    HW232616   6.714   4.452   1.733
10573SOL     OW32617   5.366   0.640   4.530
10573SOL    HW132618   5.288   0.634   4.593
10573SOL    HW232619   5.390   0.548   4.498
10574SOL     OW32620   6.749   0.660   3.954
10574SOL    HW132621   6.702   0.669   3.866
10574SOL    HW232622   6.734   0.742   4.009
10575SOL     OW32623   5.584   0.236   3.450
10575SOL    HW132624   5.667   0.267   3.496
10575SOL    HW232625   5.607   0.164   3.384
10576SOL     OW32626   1.448   5.031   2.646
10576SOL    HW132627   1.429   5.084   2.728
10576SOL    HW232628   1.496   5.089   2.579
10577SOL     OW32629   3.071   6.009   0.286
10577SOL    HW132630   3.017   5.924   0.284
10577SOL    HW232631   3.032   6.074   0.221
10578SOL     OW32632   5.930   2.259   3.421
10578SOL    HW132633   5.861   2.289   3.487
10578SOL    HW232634   5.963   2.168   3.446
10579SOL     OW32635   2.504   4.142   1.249
10579SOL    HW132636   2.567   4.111   1.321
10579SOL    HW232637   2.549   4.212   1.193
10580SOL     OW32638   6.299   6.644   6.821
10580SOL    HW132639   6.387   6.690   6.809
10580SOL    HW232640   6.278   6.637   6.918
10581SOL     OW32641   4.807   6.340   2.929
10581SOL    HW132642   4.740   6.410   2.906
10581SOL    HW232643   4.822   6.281   2.850
10582SOL     OW32644   5.594   4.662   6.290
10582SOL    HW132645   5.555   4.752   6.306
10582SOL    HW232646   5.524   4.600   6.254
10583SOL     OW32647   3.237   0.399   4.480
10583SOL    HW132648   3.262   0.417   4.575
10583SOL    HW232649   3.206   0.484   4.437
10584SOL     OW32650   6.358   0.441   6.686
10584SOL    HW132651   6.316   0.458   6.775
10584SOL    HW232652   6.430   0.509   6.670
10585SOL     OW32653   1.106   1.661   6.404
10585SOL    HW132654   1.030   1.726   6.404
10585SOL    HW232655   1.186   1.703   6.361
10586SOL     OW32656   4.426   4.940   5.898
10586SOL    HW132657   4.479   5.024   5.888
10586SOL    HW232658   4.329   4.963   5.907
10587SOL     OW32659   0.710   6.001   5.811
10587SOL    HW132660   0.755   5.966   5.893
10587SOL    HW232661   0.728   6.099   5.802
10588SOL     OW32662   1.779   2.483   4.385
10588SOL    HW132663   1.810   2.498   4.479
10588SOL    HW232664   1.728   2.563   4.353
10589SOL     OW32665   5.444   6.210   4.652
10589SOL    HW132666   5.415   6.202   4.747
10589SOL    HW232667   5.371   6.255   4.599
10590SOL     OW32668   0.210   5.869   1.874
10590SOL    HW132669   0.160   5.955   1.878
10590SOL    HW232670   0.180   5.817   1.793
10591SOL     OW32671   2.068   1.289   1.252
10591SOL    HW132672   2.009   1.232   1.309
10591SOL    HW232673   2.027   1.298   1.160
10592SOL     OW32674   5.832   2.410   4.486
10592SOL    HW132675   5.743   2.388   4.527
10592SOL    HW232676   5.902   2.409   4.557
10593SOL     OW32677   1.531   5.975   0.681
10593SOL    HW132678   1.467   5.918   0.630
10593SOL    HW232679   1.564   6.049   0.623
10594SOL     OW32680   3.813   0.927   2.928
10594SOL    HW132681   3.796   0.829   2.941
10594SOL    HW232682   3.726   0.976   2.932
10595SOL     OW32683   6.194   0.824   0.699
10595SOL    HW132684   6.263   0.780   0.757
10595SOL    HW232685   6.179   0.918   0.730
10596SOL     OW32686   4.904   1.450   0.080
10596SOL    HW132687   4.995   1.442   0.040
10596SOL    HW232688   4.861   1.534   0.048
10597SOL     OW32689   2.723   0.733   6.270
10597SOL    HW132690   2.651   0.726   6.202
10597SOL    HW232691   2.769   0.645   6.281
10598SOL     OW32692   2.585   1.801   6.222
10598SOL    HW132693   2.526   1.746   6.163
10598SOL    HW232694   2.617   1.746   6.299
10599SOL     OW32695   6.279   4.214   6.427
10599SOL    HW132696   6.351   4.282   6.431
10599SOL    HW232697   6.306   4.134   6.480
10600SOL     OW32698   3.559   1.084   1.423
10600SOL    HW132699   3.507   1.169   1.419
10600SOL    HW232700   3.622   1.087   1.501
10601SOL     OW32701   0.424   5.946   5.271
10601SOL    HW132702   0.436   5.847   5.262
10601SOL    HW232703   0.514   5.990   5.274
10602SOL     OW32704   0.794   0.428   0.327
10602SOL    HW132705   0.834   0.517   0.348
10602SOL    HW232706   0.860   0.356   0.349
10603SOL     OW32707   4.360   6.337   1.859
10603SOL    HW132708   4.440   6.354   1.802
10603SOL    HW232709   4.312   6.423   1.876
10604SOL     OW32710   0.473   6.313   4.970
10604SOL    HW132711   0.401   6.245   4.956
10604SOL    HW232712   0.454   6.365   5.053
10605SOL     OW32713   1.840   7.018   0.123
10605SOL    HW132714   1.743   7.014   0.143
10605SOL    HW232715   1.855   0.046   0.042
10606SOL     OW32716   6.550   0.772   1.433
10606SOL    HW132717   6.527   0.775   1.335
10606SOL    HW232718   6.467   0.761   1.486
10607SOL     OW32719   4.124   4.506   0.269
10607SOL    HW132720   4.115   4.423   0.215
10607SOL    HW232721   4.108   4.486   0.365
10608SOL     OW32722   6.686   2.936   2.944
10608SOL    HW132723   6.768   2.946   3.001
10608SOL    HW232724   6.641   2.850   2.964
10609SOL     OW32725   2.532   6.508   0.190
10609SOL    HW132726   2.536   6.484   0.287
10609SOL    HW232727   2.591   6.587   0.174
10610SOL     OW32728   6.569   2.757   4.199
10610SOL    HW132729   6.528   2.848   4.189
10610SOL    HW232730   6.519   2.692   4.141
10611SOL     OW32731   2.629   5.473   4.985
10611SOL    HW132732   2.676   5.460   4.898
10611SOL    HW232733   2.555   5.539   4.973
10612SOL     OW32734   5.232   1.140   4.219
10612SOL    HW132735   5.160   1.071   4.222
10612SOL    HW232736   5.275   1.148   4.308
10613SOL     OW32737   5.415   6.101   4.107
10613SOL    HW132738   5.509   6.131   4.125
10613SOL    HW232739   5.356   6.130   4.183
10614SOL     OW32740   5.133   1.293   5.270
10614SOL    HW132741   5.179   1.213   5.308
10614SOL    HW232742   5.035   1.286   5.286
10615SOL     OW32743   3.606   1.297   5.666
10615SOL    HW132744   3.600   1.262   5.572
10615SOL    HW232745   3.560   1.386   5.671
10616SOL     OW32746   2.638   6.217   6.375
10616SOL    HW132747   2.680   6.126   6.369
10616SOL    HW232748   2.588   6.224   6.462
10617SOL     OW32749   2.262   4.447   1.619
10617SOL    HW132750   2.163   4.437   1.631
10617SOL    HW232751   2.293   4.383   1.549
10618SOL     OW32752   0.936   5.540   5.547
10618SOL    HW132753   0.906   5.508   5.457
10618SOL    HW232754   0.868   5.514   5.616
10619SOL     OW32755   0.655   2.300   2.994
10619SOL    HW132756   0.714   2.377   2.970
10619SOL    HW232757   0.579   2.333   3.050
10620SOL     OW32758   1.429   0.030   5.176
10620SOL    HW132759   1.344   7.018   5.212
10620SOL    HW232760   1.410   0.121   5.139
10621SOL     OW32761   1.171   4.476   2.534
10621SOL    HW132762   1.251   4.499   2.589
10621SOL    HW232763   1.161   4.377   2.529
10622SOL     OW32764   4.576   2.303   1.401
10622SOL    HW132765   4.506   2.313   1.472
10622SOL    HW232766   4.576   2.385   1.343
10623SOL     OW32767   6.287   6.066   5.309
10623SOL    HW132768   6.315   6.038   5.401
10623SOL    HW232769   6.194   6.103   5.312
10624SOL     OW32770   0.714   2.671   4.521
10624SOL    HW132771   0.694   2.668   4.423
10624SOL    HW232772   0.695   2.763   4.556
10625SOL     OW32773   0.368   3.001   0.702
10625SOL    HW132774   0.385   3.068   0.773
10625SOL    HW232775   0.398   3.038   0.614
10626SOL     OW32776   3.156   2.891   1.474
10626SOL    HW132777   3.130   2.861   1.565
10626SOL    HW232778   3.087   2.954   1.438
10627SOL     OW32779   5.502   0.919   6.504
10627SOL    HW132780   5.602   0.921   6.502
10627SOL    HW232781   5.470   0.833   6.465
10628SOL     OW32782   4.001   0.293   0.731
10628SOL    HW132783   4.005   0.373   0.791
10628SOL    HW232784   4.093   0.273   0.696
10629SOL     OW32785   3.445   5.144   4.871
10629SOL    HW132786   3.443   5.194   4.958
10629SOL    HW232787   3.399   5.056   4.882
10630SOL     OW32788   5.440   1.227   2.534
10630SOL    HW132789   5.517   1.277   2.574
10630SOL    HW232790   5.360   1.286   2.531
10631SOL     OW32791   4.002   4.716   5.943
10631SOL    HW132792   3.975   4.722   6.039
10631SOL    HW232793   3.968   4.630   5.904
10632SOL     OW32794   5.080   5.672   3.334
10632SOL    HW132795   5.099   5.583   3.293
10632SOL    HW232796   5.134   5.742   3.288
10633SOL     OW32797   2.433   2.891   1.758
10633SOL    HW132798   2.368   2.961   1.789
10633SOL    HW232799   2.386   2.804   1.749
10634SOL     OW32800   1.185   5.555   0.715
10634SOL    HW132801   1.264   5.533   0.657
10634SOL    HW232802   1.104   5.507   0.680
10635SOL     OW32803   2.300   3.575   0.431
10635SOL    HW132804   2.264   3.665   0.457
10635SOL    HW232805   2.264   3.549   0.341
10636SOL     OW32806   6.608   1.526   0.665
10636SOL    HW132807   6.656   1.439   0.655
10636SOL    HW232808   6.657   1.584   0.730
10637SOL     OW32809   1.963   5.996   6.582
10637SOL    HW132810   2.041   5.932   6.589
10637SOL    HW232811   1.993   6.079   6.535
10638SOL     OW32812   6.438   6.473   2.247
10638SOL    HW132813   6.481   6.523   2.322
10638SOL    HW232814   6.472   6.379   2.247
10639SOL     OW32815   2.093   3.623   1.743
10639SOL    HW132816   2.029   3.680   1.795
10639SOL    HW232817   2.155   3.576   1.805
10640SOL     OW32818   4.763   0.737   3.567
10640SOL    HW132819   4.772   0.791   3.651
10640SOL    HW232820   4.786   0.641   3.586
10641SOL     OW32821   1.915   1.526   3.313
10641SOL    HW132822   1.975   1.513   3.392
10641SOL    HW232823   1.915   1.443   3.257
10642SOL     OW32824   5.666   2.041   0.559
10642SOL    HW132825   5.686   1.957   0.610
10642SOL    HW232826   5.636   2.111   0.623
10643SOL     OW32827   2.261   6.227   4.699
10643SOL    HW132828   2.187   6.277   4.744
10643SOL    HW232829   2.279   6.267   4.610
10644SOL     OW32830   5.749   3.012   1.298
10644SOL    HW132831   5.808   2.940   1.263
10644SOL    HW232832   5.795   3.060   1.373
10645SOL     OW32833   2.300   2.832   3.462
10645SOL    HW132834   2.377   2.768   3.458
10645SOL    HW232835   2.334   2.925   3.473
10646SOL     OW32836   5.792   0.496   5.865
10646SOL    HW132837   5.843   0.504   5.779
10646SOL    HW232838   5.713   0.556   5.863
10647SOL     OW32839   3.653   5.339   5.142
10647SOL    HW132840   3.614   5.421   5.101
10647SOL    HW232841   3.583   5.267   5.144
10648SOL     OW32842   5.971   5.527   6.473
10648SOL    HW132843   6.053   5.548   6.420
10648SOL    HW232844   5.958   5.596   6.544
10649SOL     OW32845   0.924   3.099   3.473
10649SOL    HW132846   0.907   3.165   3.547
10649SOL    HW232847   0.921   3.006   3.510
10650SOL     OW32848   0.471   0.376   4.320
10650SOL    HW132849   0.394   0.388   4.257
10650SOL    HW232850   0.437   0.374   4.414
10651SOL     OW32851   6.155   5.953   6.292
10651SOL    HW132852   6.085   6.010   6.335
10651SOL    HW232853   6.201   6.005   6.220
10652SOL     OW32854   2.100   6.748   5.998
10652SOL    HW132855   2.152   6.806   5.936
10652SOL    HW232856   2.006   6.741   5.965
10653SOL     OW32857   3.980   5.774   4.755
10653SOL    HW132858   4.048   5.750   4.686
10653SOL    HW232859   3.911   5.701   4.761
10654SOL     OW32860   4.725   1.021   5.465
10654SOL    HW132861   4.771   1.024   5.554
10654SOL    HW232862   4.757   0.941   5.414
10655SOL     OW32863   1.816   4.664   0.698
10655SOL    HW132864   1.820   4.649   0.599
10655SOL    HW232865   1.807   4.575   0.744
10656SOL     OW32866   6.713   1.395   2.741
10656SOL    HW132867   6.733   1.336   2.819
10656SOL    HW232868   6.628   1.445   2.757
10657SOL     OW32869   6.015   0.944   4.405
10657SOL    HW132870   6.114   0.932   4.415
10657SOL    HW232871   5.968   0.872   4.456
10658SOL     OW32872   6.257   4.042   4.878
10658SOL    HW132873   6.230   4.138   4.887
10658SOL    HW232874   6.356   4.036   4.872
10659SOL     OW32875   1.041   4.734   0.680
10659SOL    HW132876   1.046   4.805   0.610
10659SOL    HW232877   0.973   4.665   0.653
10660SOL     OW32878   5.814   3.720   5.511
10660SOL    HW132879   5.846   3.785   5.442
10660SOL    HW232880   5.835   3.756   5.602
10661SOL     OW32881   1.394   5.580   0.465
10661SOL    HW132882   1.319   5.517   0.446
10661SOL    HW232883   1.480   5.541   0.431
10662SOL     OW32884   3.896   0.624   2.476
10662SOL    HW132885   3.907   0.572   2.561
10662SOL    HW232886   3.799   0.642   2.461
10663SOL     OW32887   0.469   1.624   3.384
10663SOL    HW132888   0.480   1.660   3.477
10663SOL    HW232889   0.559   1.621   3.339
10664SOL     OW32890   0.059   5.224   4.926
10664SOL    HW132891   0.064   5.233   4.827
10664SOL    HW232892   6.995   5.194   4.952
10665SOL     OW32893   2.129   2.399   0.046
10665SOL    HW132894   2.187   2.449   0.110
10665SOL    HW232895   2.081   2.464   7.015
10666SOL     OW32896   3.085   3.908   2.239
10666SOL    HW132897   3.108   3.964   2.318
10666SOL    HW232898   3.160   3.844   2.221
10667SOL     OW32899   4.722   1.588   4.221
10667SOL    HW132900   4.725   1.663   4.287
10667SOL    HW232901   4.772   1.509   4.258
10668SOL     OW32902   3.383   1.393   5.249
10668SOL    HW132903   3.303   1.437   5.207
10668SOL    HW232904   3.447   1.464   5.279
10669SOL     OW32905   5.918   0.634   1.045
10669SOL    HW132906   5.945   0.622   0.950
10669SOL    HW232907   5.937   0.728   1.074
10670SOL     OW32908   5.487   4.737   4.625
10670SOL    HW132909   5.406   4.779   4.667
10670SOL    HW232910   5.561   4.734   4.692
10671SOL     OW32911   1.868   1.603   4.095
10671SOL    HW132912   1.780   1.630   4.133
10671SOL    HW232913   1.928   1.571   4.168
10672SOL     OW32914   6.873   4.300   1.588
10672SOL    HW132915   6.792   4.307   1.647
10672SOL    HW232916   6.844   4.280   1.494
10673SOL     OW32917   1.184   0.294   0.194
10673SOL    HW132918   1.173   0.335   0.285
10673SOL    HW232919   1.158   0.360   0.124
10674SOL     OW32920   3.906   3.691   4.373
10674SOL    HW132921   3.937   3.715   4.281
10674SOL    HW232922   3.820   3.641   4.366
10675SOL     OW32923   2.907   0.572   6.569
10675SOL    HW132924   2.924   0.514   6.649
10675SOL    HW232925   2.970   0.547   6.495
10676SOL     OW32926   0.470   6.655   5.048
10676SOL    HW132927   0.470   6.663   4.948
10676SOL    HW232928   0.376   6.658   5.081
10677SOL     OW32929   1.928   1.092   1.386
10677SOL    HW132930   1.852   1.101   1.322
10677SOL    HW232931   1.972   1.003   1.374
10678SOL     OW32932   4.267   4.868   3.714
10678SOL    HW132933   4.355   4.888   3.670
10678SOL    HW232934   4.275   4.785   3.769
10679SOL     OW32935   3.756   6.051   6.412
10679SOL    HW132936   3.693   6.005   6.349
10679SOL    HW232937   3.826   6.098   6.359
10680SOL     OW32938   3.657   2.151   3.376
10680SOL    HW132939   3.638   2.209   3.455
10680SOL    HW232940   3.754   2.158   3.352
10681SOL     OW32941   6.690   3.664   0.446
10681SOL    HW132942   6.766   3.659   0.511
10681SOL    HW232943   6.619   3.723   0.483
10682SOL     OW32944   0.147   2.692   5.430
10682SOL    HW132945   0.101   2.695   5.519
10682SOL    HW232946   0.227   2.752   5.431
10683SOL     OW32947   4.825   1.111   3.826
10683SOL    HW132948   4.739   1.151   3.858
10683SOL    HW232949   4.901   1.167   3.859
10684SOL     OW32950   4.400   5.336   2.268
10684SOL    HW132951   4.367   5.248   2.233
10684SOL    HW232952   4.493   5.352   2.235
10685SOL     OW32953   0.441   5.343   1.241
10685SOL    HW132954   0.371   5.391   1.295
10685SOL    HW232955   0.398   5.286   1.172
10686SOL     OW32956   1.520   3.916   5.796
10686SOL    HW132957   1.595   3.952   5.740
10686SOL    HW232958   1.534   3.941   5.891
10687SOL     OW32959   6.204   4.777   4.689
10687SOL    HW132960   6.167   4.867   4.711
10687SOL    HW232961   6.176   4.751   4.596
10688SOL     OW32962   6.065   3.364   2.779
10688SOL    HW132963   6.082   3.346   2.682
10688SOL    HW232964   6.043   3.278   2.825
10689SOL     OW32965   6.475   0.489   2.299
10689SOL    HW132966   6.479   0.389   2.307
10689SOL    HW232967   6.416   0.526   2.371
10690SOL     OW32968   0.477   5.154   3.388
10690SOL    HW132969   0.488   5.065   3.344
10690SOL    HW232970   0.560   5.208   3.374
10691SOL     OW32971   1.857   1.802   1.923
10691SOL    HW132972   1.854   1.762   1.832
10691SOL    HW232973   1.944   1.781   1.967
10692SOL     OW32974   2.622   0.692   3.482
10692SOL    HW132975   2.680   0.721   3.558
10692SOL    HW232976   2.547   0.757   3.471
10693SOL     OW32977   1.323   6.058   1.190
10693SOL    HW132978   1.343   6.005   1.107
10693SOL    HW232979   1.277   6.001   1.257
10694SOL     OW32980   5.315   6.234   6.666
10694SOL    HW132981   5.290   6.329   6.684
10694SOL    HW232982   5.290   6.177   6.744
10695SOL     OW32983   1.309   2.565   2.306
10695SOL    HW132984   1.250   2.573   2.226
10695SOL    HW232985   1.358   2.478   2.303
10696SOL     OW32986   6.491   4.016   4.508
10696SOL    HW132987   6.494   4.097   4.567
10696SOL    HW232988   6.507   3.934   4.564
10697SOL     OW32989   0.012   0.373   5.604
10697SOL    HW132990   0.092   0.317   5.623
10697SOL    HW232991   7.002   0.347   5.515
10698SOL     OW32992   5.407   5.018   6.742
10698SOL    HW132993   5.418   5.025   6.841
10698SOL    HW232994   5.373   4.927   6.718
10699SOL     OW32995   3.807   4.892   1.867
10699SOL    HW132996   3.890   4.929   1.908
10699SOL    HW232997   3.780   4.809   1.917
10700SOL     OW32998   5.606   6.166   0.598
10700SOL    HW132999   5.654   6.190   0.682
10700SOL    HW233000   5.542   6.239   0.574
10701SOL     OW33001   2.541   6.889   5.718
10701SOL    HW133002   2.554   6.979   5.676
10701SOL    HW233003   2.489   6.830   5.656
10702SOL     OW33004   5.454   3.365   2.352
10702SOL    HW133005   5.534   3.336   2.300
10702SOL    HW233006   5.430   3.293   2.418
10703SOL     OW33007   2.541   2.495   5.082
10703SOL    HW133008   2.471   2.434   5.119
10703SOL    HW233009   2.622   2.442   5.057
10704SOL     OW33010   6.614   4.906   1.974
10704SOL    HW133011   6.549   4.843   1.931
10704SOL    HW233012   6.704   4.894   1.933
10705SOL     OW33013   6.596   5.228   1.537
10705SOL    HW133014   6.651   5.158   1.491
10705SOL    HW233015   6.533   5.184   1.601
10706SOL     OW33016   3.969   0.000   2.793
10706SOL    HW133017   3.968   0.002   2.893
10706SOL    HW233018   3.890   0.051   2.758
10707SOL     OW33019   0.390   6.437   4.123
10707SOL    HW133020   0.379   6.402   4.030
10707SOL    HW233021   0.469   6.393   4.166
10708SOL     OW33022   3.862   1.217   1.287
10708SOL    HW133023   3.947   1.175   1.318
10708SOL    HW233024   3.809   1.152   1.233
10709SOL     OW33025   5.391   5.666   5.005
10709SOL    HW133026   5.370   5.612   5.086
10709SOL    HW233027   5.416   5.605   4.930
10710SOL     OW33028   5.759   1.115   4.380
10710SOL    HW133029   5.850   1.078   4.397
10710SOL    HW233030   5.712   1.059   4.311
10711SOL     OW33031   2.062   6.592   3.914
10711SOL    HW133032   1.968   6.625   3.914
10711SOL    HW233033   2.076   6.531   3.993
10712SOL     OW33034   2.992   0.870   2.086
10712SOL    HW133035   3.066   0.830   2.032
10712SOL    HW233036   2.988   0.969   2.071
10713SOL     OW33037   0.491   3.442   0.859
10713SOL    HW133038   0.512   3.431   0.761
10713SOL    HW233039   0.554   3.386   0.913
10714SOL     OW33040   5.021   3.844   5.484
10714SOL    HW133041   4.966   3.794   5.418
10714SOL    HW233042   5.077   3.780   5.536
10715SOL     OW33043   4.365   0.046   2.326
10715SOL    HW133044   4.342   0.042   2.423
10715SOL    HW233045   4.321   0.126   2.285
10716SOL     OW33046   5.829   2.379   4.108
10716SOL    HW133047   5.826   2.379   4.008
10716SOL    HW233048   5.889   2.453   4.140
10717SOL     OW33049   0.952   2.289   1.082
10717SOL    HW133050   0.977   2.368   1.026
10717SOL    HW233051   1.026   2.222   1.081
10718SOL     OW33052   1.228   3.706   0.070
10718SOL    HW133053   1.156   3.764   0.030
10718SOL    HW233054   1.293   3.680   7.027
10719SOL     OW33055   0.063   5.926   2.779
10719SOL    HW133056   0.045   5.881   2.691
10719SOL    HW233057   0.118   6.007   2.764
10720SOL     OW33058   0.273   4.349   5.626
10720SOL    HW133059   0.282   4.255   5.595
10720SOL    HW233060   0.188   4.388   5.591
10721SOL     OW33061   5.223   3.658   5.188
10721SOL    HW133062   5.316   3.695   5.202
10721SOL    HW233063   5.210   3.579   5.248
10722SOL     OW33064   1.478   5.404   6.969
10722SOL    HW133065   1.570   5.371   6.947
10722SOL    HW233066   1.437   5.447   6.889
10723SOL     OW33067   0.296   3.127   6.836
10723SOL    HW133068   0.267   3.065   6.764
10723SOL    HW233069   0.334   3.210   6.796
10724SOL     OW33070   6.511   1.238   0.136
10724SOL    HW133071   6.518   1.153   0.083
10724SOL    HW233072   6.415   1.264   0.144
10725SOL     OW33073   1.490   5.559   4.626
10725SOL    HW133074   1.537   5.481   4.584
10725SOL    HW233075   1.507   5.558   4.724
10726SOL     OW33076   5.705   0.435   4.880
10726SOL    HW133077   5.667   0.496   4.811
10726SOL    HW233078   5.686   0.340   4.855
10727SOL     OW33079   0.418   5.720   5.564
10727SOL    HW133080   0.433   5.713   5.465
10727SOL    HW233081   0.504   5.699   5.611
10728SOL     OW33082   0.995   6.051   6.842
10728SOL    HW133083   1.086   6.082   6.869
10728SOL    HW233084   0.944   6.127   6.803
10729SOL     OW33085   4.893   1.615   2.588
10729SOL    HW133086   4.854   1.666   2.665
10729SOL    HW233087   4.837   1.630   2.507
10730SOL     OW33088   2.022   0.850   1.314
10730SOL    HW133089   2.106   0.796   1.316
10730SOL    HW233090   1.943   0.790   1.309
10731SOL     OW33091   3.198   0.112   1.009
10731SOL    HW133092   3.130   0.121   0.937
10731SOL    HW233093   3.277   0.170   0.988
10732SOL     OW33094   6.057   4.822   5.086
10732SOL    HW133095   6.071   4.857   5.179
10732SOL    HW233096   6.144   4.792   5.048
10733SOL     OW33097   6.380   2.064   0.991
10733SOL    HW133098   6.304   2.052   1.055
10733SOL    HW233099   6.368   2.001   0.914
10734SOL     OW33100   1.122   0.440   7.016
10734SOL    HW133101   1.142   0.375   6.942
10734SOL    HW233102   1.031   0.479   7.003
10735SOL     OW33103   0.490   2.897   2.743
10735SOL    HW133104   0.572   2.871   2.692
10735SOL    HW233105   0.476   2.834   2.819
10736SOL     OW33106   1.149   0.627   3.601
10736SOL    HW133107   1.160   0.725   3.586
10736SOL    HW233108   1.112   0.584   3.519
10737SOL     OW33109   1.370   1.828   0.910
10737SOL    HW133110   1.375   1.927   0.895
10737SOL    HW233111   1.300   1.788   0.850
10738SOL     OW33112   2.608   0.808   2.688
10738SOL    HW133113   2.541   0.765   2.749
10738SOL    HW233114   2.562   0.834   2.603
10739SOL     OW33115   1.549   1.723   0.711
10739SOL    HW133116   1.493   1.770   0.778
10739SOL    HW233117   1.628   1.779   0.688
10740SOL     OW33118   0.326   5.230   5.059
10740SOL    HW133119   0.237   5.227   5.013
10740SOL    HW233120   0.326   5.304   5.126
10741SOL     OW33121   5.115   0.302   1.431
10741SOL    HW133122   5.094   0.259   1.343
10741SOL    HW233123   5.176   0.242   1.483
10742SOL     OW33124   5.869   0.262   1.062
10742SOL    HW133125   5.855   0.354   1.098
10742SOL    HW233126   5.788   0.234   1.010
10743SOL     OW33127   2.308   1.321   5.062
10743SOL    HW133128   2.253   1.382   5.005
10743SOL    HW233129   2.355   1.374   5.132
10744SOL     OW33130   3.592   1.518   0.883
10744SOL    HW133131   3.632   1.564   0.962
10744SOL    HW233132   3.649   1.440   0.857
10745SOL     OW33133   0.531   5.871   6.539
10745SOL    HW133134   0.627   5.853   6.515
10745SOL    HW233135   0.526   5.897   6.636
10746SOL     OW33136   2.321   5.205   1.147
10746SOL    HW133137   2.342   5.124   1.202
10746SOL    HW233138   2.405   5.254   1.126
10747SOL     OW33139   3.759   1.401   4.366
10747SOL    HW133140   3.806   1.344   4.434
10747SOL    HW233141   3.822   1.420   4.290
10748SOL     OW33142   5.471   0.913   1.073
10748SOL    HW133143   5.441   0.846   1.006
10748SOL    HW233144   5.433   0.891   1.162
10749SOL     OW33145   0.561   4.919   3.276
10749SOL    HW133146   0.597   4.861   3.349
10749SOL    HW233147   0.512   4.863   3.210
10750SOL     OW33148   4.405   6.245   4.147
10750SOL    HW133149   4.434   6.340   4.145
10750SOL    HW233150   4.483   6.185   4.132
10751SOL     OW33151   1.793   4.728   4.896
10751SOL    HW133152   1.872   4.715   4.836
10751SOL    HW233153   1.777   4.646   4.950
10752SOL     OW33154   6.360   4.208   6.140
10752SOL    HW133155   6.303   4.229   6.219
10752SOL    HW233156   6.378   4.292   6.089
10753SOL     OW33157   4.899   5.296   4.640
10753SOL    HW133158   4.943   5.262   4.723
10753SOL    HW233159   4.895   5.396   4.643
10754SOL     OW33160   0.650   0.462   3.140
10754SOL    HW133161   0.625   0.559   3.148
10754SOL    HW233162   0.722   0.452   3.072
10755SOL     OW33163   6.889   1.056   0.353
10755SOL    HW133164   6.800   1.081   0.391
10755SOL    HW233165   6.911   1.117   0.277
10756SOL     OW33166   6.667   4.710   0.286
10756SOL    HW133167   6.704   4.714   0.379
10756SOL    HW233168   6.583   4.764   0.281
10757SOL     OW33169   2.368   3.315   0.199
10757SOL    HW133170   2.269   3.302   0.205
10757SOL    HW233171   2.414   3.262   0.270
10758SOL     OW33172   0.937   6.672   4.499
10758SOL    HW133173   1.000   6.712   4.433
10758SOL    HW233174   0.883   6.600   4.454
10759SOL     OW33175   1.912   2.808   1.203
10759SOL    HW133176   1.851   2.778   1.130
10759SOL    HW233177   2.000   2.762   1.194
10760SOL     OW33178   5.472   0.878   2.854
10760SOL    HW133179   5.541   0.939   2.816
10760SOL    HW233180   5.483   0.787   2.815
10761SOL     OW33181   1.046   6.514   5.703
10761SOL    HW133182   1.059   6.610   5.677
10761SOL    HW233183   1.006   6.509   5.794
10762SOL     OW33184   3.882   2.168   4.439
10762SOL    HW133185   3.974   2.143   4.468
10762SOL    HW233186   3.874   2.268   4.435
10763SOL     OW33187   5.495   6.660   2.863
10763SOL    HW133188   5.422   6.641   2.797
10763SOL    HW233189   5.562   6.586   2.862
10764SOL     OW33190   4.863   2.280   6.063
10764SOL    HW133191   4.787   2.231   6.019
10764SOL    HW233192   4.947   2.261   6.012
10765SOL     OW33193   5.074   2.405   0.678
10765SOL    HW133194   5.031   2.316   0.685
10765SOL    HW233195   5.151   2.401   0.613
10766SOL     OW33196   5.298   4.239   0.587
10766SOL    HW133197   5.241   4.159   0.569
10766SOL    HW233198   5.242   4.322   0.583
10767SOL     OW33199   1.607   0.343   6.995
10767SOL    HW133200   1.696   0.365   0.005
10767SOL    HW233201   1.564   0.427   6.960
10768SOL     OW33202   4.672   5.359   2.061
10768SOL    HW133203   4.746   5.352   1.995
10768SOL    HW233204   4.703   5.325   2.150
10769SOL     OW33205   2.427   4.103   5.427
10769SOL    HW133206   2.433   4.061   5.337
10769SOL    HW233207   2.338   4.149   5.437
10770SOL     OW33208   5.709   0.226   4.633
10770SOL    HW133209   5.722   0.293   4.560
10770SOL    HW233210   5.793   0.221   4.688
10771SOL     OW33211   6.003   6.548   3.764
10771SOL    HW133212   5.975   6.643   3.754
10771SOL    HW233213   6.057   6.538   3.847
10772SOL     OW33214   6.011   6.808   4.476
10772SOL    HW133215   5.990   6.711   4.460
10772SOL    HW233216   6.082   6.815   4.546
10773SOL     OW33217   6.769   6.044   6.460
10773SOL    HW133218   6.767   6.022   6.362
10773SOL    HW233219   6.690   6.100   6.483
10774SOL     OW33220   2.584   1.621   6.443
10774SOL    HW133221   2.563   1.660   6.532
10774SOL    HW233222   2.504   1.571   6.409
10775SOL     OW33223   0.414   4.631   2.045
10775SOL    HW133224   0.435   4.566   1.972
10775SOL    HW233225   0.498   4.655   2.093
10776SOL     OW33226   0.121   1.012   0.129
10776SOL    HW133227   0.155   0.918   0.129
10776SOL    HW233228   0.050   1.023   0.061
10777SOL     OW33229   3.869   5.279   2.829
10777SOL    HW133230   3.784   5.234   2.856
10777SOL    HW233231   3.875   5.368   2.875
10778SOL     OW33232   5.394   7.013   4.112
10778SOL    HW133233   5.470   0.048   4.099
10778SOL    HW233234   5.411   6.955   4.192
10779SOL     OW33235   6.174   3.619   3.865
10779SOL    HW133236   6.221   3.689   3.811
10779SOL    HW233237   6.075   3.630   3.857
10780SOL     OW33238   2.032   1.186   3.436
10780SOL    HW133239   2.111   1.247   3.448
10780SOL    HW233240   1.981   1.181   3.522
10781SOL     OW33241   4.522   1.016   4.144
10781SOL    HW133242   4.467   0.947   4.191
10781SOL    HW233243   4.578   1.066   4.210
10782SOL     OW33244   6.832   1.829   1.847
10782SOL    HW133245   6.920   1.810   1.802
10782SOL    HW233246   6.846   1.834   1.946
10783SOL     OW33247   0.412   2.628   2.627
10783SOL    HW133248   0.388   2.560   2.697
10783SOL    HW233249   0.507   2.615   2.600
10784SOL     OW33250   3.489   7.008   3.844
10784SOL    HW133251   3.580   6.967   3.831
10784SOL    HW233252   3.479   0.009   3.939
10785SOL     OW33253   6.739   4.780   0.544
10785SOL    HW133254   6.782   4.709   0.601
10785SOL    HW233255   6.674   4.832   0.600
10786SOL     OW33256   5.742   4.853   3.092
10786SOL    HW133257   5.765   4.804   3.176
10786SOL    HW233258   5.802   4.823   3.018
10787SOL     OW33259   2.206   1.628   5.477
10787SOL    HW133260   2.192   1.545   5.423
10787SOL    HW233261   2.262   1.608   5.557
10788SOL     OW33262   1.945   4.645   6.654
10788SOL    HW133263   1.867   4.599   6.697
10788SOL    HW233264   1.964   4.730   6.703
10789SOL     OW33265   6.625   2.674   6.317
10789SOL    HW133266   6.621   2.773   6.329
10789SOL    HW233267   6.591   2.650   6.226
10790SOL     OW33268   0.730   0.060   1.650
10790SOL    HW133269   0.756   0.073   1.746
10790SOL    HW233270   0.804   0.094   1.591
10791SOL     OW33271   6.703   6.510   1.381
10791SOL    HW133272   6.614   6.553   1.369
10791SOL    HW233273   6.721   6.448   1.304
10792SOL     OW33274   3.601   3.199   4.630
10792SOL    HW133275   3.521   3.141   4.615
10792SOL    HW233276   3.675   3.144   4.670
10793SOL     OW33277   5.766   3.020   5.210
10793SOL    HW133278   5.772   2.947   5.141
10793SOL    HW233279   5.821   3.098   5.181
10794SOL     OW33280   3.696   2.944   3.929
10794SOL    HW133281   3.722   2.943   4.026
10794SOL    HW233282   3.598   2.960   3.921
10795SOL     OW33283   6.972   4.899   2.557
10795SOL    HW133284   7.004   4.813   2.518
10795SOL    HW233285   7.005   4.975   2.501
10796SOL     OW33286   6.114   0.176   6.213
10796SOL    HW133287   6.168   0.247   6.169
10796SOL    HW233288   6.065   0.124   6.143
10797SOL     OW33289   2.980   2.196   1.485
10797SOL    HW133290   3.070   2.156   1.466
10797SOL    HW233291   2.990   2.270   1.551
10798SOL     OW33292   2.700   0.540   6.951
10798SOL    HW133293   2.782   0.594   6.972
10798SOL    HW233294   2.647   0.587   6.880
10799SOL     OW33295   3.819   0.902   1.880
10799SOL    HW133296   3.792   0.808   1.900
10799SOL    HW233297   3.835   0.951   1.966
10800SOL     OW33298   0.324   6.503   6.210
10800SOL    HW133299   0.258   6.460   6.148
10800SOL    HW233300   0.291   6.593   6.237
10801SOL     OW33301   1.341   6.650   6.558
10801SOL    HW133302   1.339   6.746   6.532
10801SOL    HW233303   1.249   6.620   6.584
10802SOL     OW33304   0.340   0.264   2.507
10802SOL    HW133305   0.291   0.347   2.535
10802SOL    HW233306   0.312   0.240   2.414
10803SOL     OW33307   2.314   5.389   6.225
10803SOL    HW133308   2.331   5.462   6.159
10803SOL    HW233309   2.285   5.307   6.177
10804SOL     OW33310   5.704   2.808   2.665
10804SOL    HW133311   5.788   2.753   2.667
10804SOL    HW233312   5.719   2.894   2.713
10805SOL     OW33313   4.891   6.558   6.055
10805SOL    HW133314   4.817   6.613   6.016
10805SOL    HW233315   4.874   6.543   6.152
10806SOL     OW33316   4.103   4.142   5.543
10806SOL    HW133317   4.127   4.190   5.628
10806SOL    HW233318   4.004   4.147   5.529
10807SOL     OW33319   1.708   0.043   3.172
10807SOL    HW133320   1.643   7.008   3.130
10807SOL    HW233321   1.716   0.022   3.270
10808SOL     OW33322   0.046   2.891   6.208
10808SOL    HW133323   0.085   2.957   6.271
10808SOL    HW233324   6.975   2.906   6.200
10809SOL     OW33325   2.368   4.475   3.365
10809SOL    HW133326   2.329   4.524   3.443
10809SOL    HW233327   2.297   4.420   3.321
10810SOL     OW33328   1.117   0.908   3.609
10810SOL    HW133329   1.148   0.980   3.548
10810SOL    HW233330   1.026   0.931   3.646
10811SOL     OW33331   3.951   5.014   5.715
10811SOL    HW133332   3.888   4.945   5.680
10811SOL    HW233333   3.949   5.095   5.656
10812SOL     OW33334   0.212   3.943   0.905
10812SOL    HW133335   0.237   4.007   0.978
10812SOL    HW233336   0.167   3.863   0.944
10813SOL     OW33337   1.350   3.479   6.010
10813SOL    HW133338   1.391   3.441   5.926
10813SOL    HW233339   1.339   3.406   6.077
10814SOL     OW33340   1.334   6.860   6.286
10814SOL    HW133341   1.306   6.788   6.223
10814SOL    HW233342   1.253   6.898   6.331
10815SOL     OW33343   5.377   3.446   3.493
10815SOL    HW133344   5.408   3.418   3.402
10815SOL    HW233345   5.285   3.485   3.487
10816SOL     OW33346   3.328   3.508   2.372
10816SOL    HW133347   3.328   3.447   2.451
10816SOL    HW233348   3.322   3.603   2.404
10817SOL     OW33349   3.870   0.651   3.507
10817SOL    HW133350   3.828   0.741   3.514
10817SOL    HW233351   3.961   0.652   3.549
10818SOL     OW33352   4.950   4.440   5.734
10818SOL    HW133353   5.038   4.480   5.708
10818SOL    HW233354   4.908   4.494   5.806
10819SOL     OW33355   6.357   5.082   6.211
10819SOL    HW133356   6.404   5.097   6.298
10819SOL    HW233357   6.374   5.160   6.150
10820SOL     OW33358   6.999   4.570   4.571
10820SOL    HW133359   0.026   4.497   4.612
10820SOL    HW233360   6.929   4.600   4.635
10821SOL     OW33361   4.779   6.917   3.592
10821SOL    HW133362   4.790   6.900   3.494
10821SOL    HW233363   4.682   6.913   3.616
10822SOL     OW33364   6.083   2.170   2.778
10822SOL    HW133365   6.071   2.205   2.871
10822SOL    HW233366   5.993   2.150   2.739
10823SOL     OW33367   0.911   0.970   2.322
10823SOL    HW133368   0.974   1.047   2.324
10823SOL    HW233369   0.953   0.892   2.368
10824SOL     OW33370   0.160   1.432   2.552
10824SOL    HW133371   0.084   1.401   2.608
10824SOL    HW233372   0.182   1.362   2.484
10825SOL     OW33373   2.240   1.976   6.652
10825SOL    HW133374   2.277   1.961   6.560
10825SOL    HW233375   2.154   1.926   6.661
10826SOL     OW33376   0.877   1.840   3.223
10826SOL    HW133377   0.801   1.859   3.285
10826SOL    HW233378   0.942   1.916   3.225
10827SOL     OW33379   0.406   3.390   4.992
10827SOL    HW133380   0.333   3.321   4.989
10827SOL    HW233381   0.372   3.475   4.951
10828SOL     OW33382   1.165   4.376   0.560
10828SOL    HW133383   1.230   4.403   0.489
10828SOL    HW233384   1.148   4.277   0.552
10829SOL     OW33385   4.766   2.819   0.585
10829SOL    HW133386   4.812   2.847   0.669
10829SOL    HW233387   4.723   2.730   0.599
10830SOL     OW33388   4.464   1.675   3.241
10830SOL    HW133389   4.379   1.688   3.189
10830SOL    HW233390   4.535   1.641   3.180
10831SOL     OW33391   2.949   6.572   2.702
10831SOL    HW133392   2.895   6.656   2.705
10831SOL    HW233393   3.034   6.589   2.652
10832SOL     OW33394   0.177   3.661   6.371
10832SOL    HW133395   0.248   3.727   6.394
10832SOL    HW233396   0.208   3.569   6.395
10833SOL     OW33397   0.587   1.146   1.731
10833SOL    HW133398   0.600   1.060   1.682
10833SOL    HW233399   0.586   1.129   1.830
10834SOL     OW33400   6.344   1.662   0.629
10834SOL    HW133401   6.416   1.595   0.648
10834SOL    HW233402   6.332   1.672   0.531
10835SOL     OW33403   6.070   2.443   6.939
10835SOL    HW133404   6.113   2.388   7.009
10835SOL    HW233405   6.051   2.535   6.975
10836SOL     OW33406   0.006   1.739   4.350
10836SOL    HW133407   0.076   1.671   4.374
10836SOL    HW233408   6.970   1.699   4.285
10837SOL     OW33409   6.947   4.847   1.337
10837SOL    HW133410   7.020   4.819   1.399
10837SOL    HW233411   6.986   4.896   1.259
10838SOL     OW33412   6.994   6.027   3.886
10838SOL    HW133413   6.927   5.965   3.927
10838SOL    HW233414   6.996   6.014   3.787
10839SOL     OW33415   4.352   3.408   0.882
10839SOL    HW133416   4.422   3.372   0.821
10839SOL    HW233417   4.377   3.500   0.912
10840SOL     OW33418   3.112   6.279   2.407
10840SOL    HW133419   3.108   6.324   2.496
10840SOL    HW233420   3.054   6.197   2.409
10841SOL     OW33421   0.029   4.341   5.433
10841SOL    HW133422   6.965   4.303   5.445
10841SOL    HW233423   0.089   4.274   5.390
10842SOL     OW33424   4.696   2.164   1.207
10842SOL    HW133425   4.622   2.142   1.143
10842SOL    HW233426   4.658   2.210   1.287
10843SOL     OW33427   1.514   1.404   1.141
10843SOL    HW133428   1.452   1.338   1.183
10843SOL    HW233429   1.503   1.404   1.042
10844SOL     OW33430   0.715   5.289   3.324
10844SOL    HW133431   0.809   5.271   3.293
10844SOL    HW233432   0.696   5.387   3.317
10845SOL     OW33433   3.986   6.049   5.301
10845SOL    HW133434   3.972   6.068   5.398
10845SOL    HW233435   4.016   5.954   5.290
10846SOL     OW33436   5.264   0.723   6.657
10846SOL    HW133437   5.339   0.732   6.723
10846SOL    HW233438   5.290   0.658   6.586
10847SOL     OW33439   3.446   2.650   0.091
10847SOL    HW133440   3.532   2.698   0.073
10847SOL    HW233441   3.462   2.552   0.095
10848SOL     OW33442   2.002   4.253   0.634
10848SOL    HW133443   1.957   4.170   0.601
10848SOL    HW233444   2.090   4.264   0.588
10849SOL     OW33445   2.573   4.555   4.259
10849SOL    HW133446   2.538   4.476   4.310
10849SOL    HW233447   2.552   4.543   4.162
10850SOL     OW33448   3.299   6.174   5.899
10850SOL    HW133449   3.390   6.198   5.931
10850SOL    HW233450   3.299   6.080   5.864
10851SOL     OW33451   2.891   3.880   0.472
10851SOL    HW133452   2.898   3.780   0.466
10851SOL    HW233453   2.796   3.906   0.485
10852SOL     OW33454   1.843   0.526   6.667
10852SOL    HW133455   1.773   0.494   6.602
10852SOL    HW233456   1.894   0.448   6.702
10853SOL     OW33457   1.660   3.201   5.726
10853SOL    HW133458   1.738   3.242   5.775
10853SOL    HW233459   1.581   3.263   5.732
10854SOL     OW33460   4.174   5.014   5.903
10854SOL    HW133461   4.099   5.005   5.838
10854SOL    HW233462   4.140   5.049   5.990
10855SOL     OW33463   4.127   0.825   0.665
10855SOL    HW133464   4.136   0.921   0.639
10855SOL    HW233465   4.183   0.806   0.746
10856SOL     OW33466   5.296   0.972   1.318
10856SOL    HW133467   5.197   0.970   1.302
10856SOL    HW233468   5.315   1.026   1.399
10857SOL     OW33469   1.101   2.134   2.826
10857SOL    HW133470   1.143   2.044   2.827
10857SOL    HW233471   1.006   2.128   2.858
10858SOL     OW33472   1.223   1.504   0.147
10858SOL    HW133473   1.265   1.423   0.189
10858SOL    HW233474   1.165   1.476   0.072
10859SOL     OW33475   1.001   4.839   4.441
10859SOL    HW133476   1.090   4.807   4.472
10859SOL    HW233477   0.993   4.938   4.458
10860SOL     OW33478   0.424   3.274   5.255
10860SOL    HW133479   0.441   3.340   5.182
10860SOL    HW233480   0.383   3.191   5.217
10861SOL     OW33481   3.546   4.031   3.338
10861SOL    HW133482   3.451   4.044   3.308
10861SOL    HW233483   3.555   4.060   3.433
10862SOL     OW33484   2.150   1.079   6.381
10862SOL    HW133485   2.058   1.043   6.399
10862SOL    HW233486   2.151   1.122   6.290
10863SOL     OW33487   2.465   0.620   4.105
10863SOL    HW133488   2.373   0.624   4.145
10863SOL    HW233489   2.457   0.597   4.008
10864SOL     OW33490   2.251   6.439   0.197
10864SOL    HW133491   2.237   6.478   0.107
10864SOL    HW233492   2.349   6.438   0.219
10865SOL     OW33493   6.834   1.371   0.891
10865SOL    HW133494   6.791   1.282   0.907
10865SOL    HW233495   6.775   1.443   0.928
10866SOL     OW33496   5.333   4.418   0.300
10866SOL    HW133497   5.303   4.361   0.224
10866SOL    HW233498   5.266   4.415   0.373
10867SOL     OW33499   3.330   4.009   0.515
10867SOL    HW133500   3.371   3.935   0.568
10867SOL    HW233501   3.352   4.097   0.557
10868SOL     OW33502   5.046   1.398   3.849
10868SOL    HW133503   4.970   1.462   3.853
10868SOL    HW233504   5.082   1.383   3.942
10869NA      NA33505   6.284   2.785   5.320
10870NA      NA33506   4.463   4.308   5.263
10871NA      NA33507   1.688   2.938   1.859
10872NA      NA33508   5.010   3.717   5.102
10873NA      NA33509   4.163   2.382   5.402
10874NA      NA33510   3.583   4.878   1.761
10875NA      NA33511   6.865   4.746   0.095
10876NA      NA33512   3.595   3.421   4.504
10877NA      NA33513   4.729   6.065   0.120
10878NA      NA33514   4.133   6.607   5.095
10879NA      NA33515   6.073   4.955   2.039
10880NA      NA33516   2.066   7.019   3.681
10881NA      NA33517   3.958   5.365   2.637
10882NA      NA33518   3.680   3.881   2.126
   7.02791   7.02791   7.02791
